/*--------------------------------*- C++ -*----------------------------------*\
  =========                 |
  \\      /  F ield         | OpenFOAM: The Open Source CFD Toolbox
   \\    /   O peration     | Website:  https://openfoam.org
    \\  /    A nd           | Version:  dev
     \\/     M anipulation  |
\*---------------------------------------------------------------------------*/
FoamFile
{
    version     2.0;
    format      ascii;
    class       volVectorField;
    location    "2500";
    object      U;
}
// * * * * * * * * * * * * * * * * * * * * * * * * * * * * * * * * * * * * * //

dimensions      [0 1 -1 0 0 0 0];

internalField   nonuniform List<vector> 
9842
(
(0.00391937 0.00668006 0)
(0.0090335 0.00606349 -7.25715e-28)
(0.00389605 0.0170902 3.92745e-28)
(0.0120801 0.00507611 -1.50933e-27)
(0.0100823 0.0174214 7.83901e-28)
(0.00329605 0.0242088 -5.41017e-29)
(0.0142324 0.00412456 -1.37999e-27)
(0.0138406 0.0169328 0)
(0.00963441 0.025209 0)
(0.00264916 0.0299065 -5.68994e-29)
(0.0156175 0.00337863 -1.21282e-27)
(0.0159841 0.0153167 0)
(0.0144312 0.0260348 0)
(0.00828943 0.0309217 0)
(0.00222372 0.03471 -5.62007e-29)
(0.0165075 0.0027604 -5.60666e-28)
(0.0171141 0.013003 0)
(0.0177444 0.0258243 -1.44566e-29)
(0.0135297 0.0324932 -7.06358e-28)
(0.00689686 0.0354782 -7.14799e-29)
(0.00190478 0.0390188 2.73695e-28)
(0.0172142 0.0022841 0)
(0.0177675 0.0106267 0)
(0.0197028 0.0244628 1.18523e-27)
(0.017849 0.033678 -1.92057e-27)
(0.0117715 0.0370624 -7.94889e-28)
(0.00584966 0.0395887 1.19663e-28)
(0.00166052 0.0427593 -1.02611e-28)
(0.0178651 0.00192873 0)
(0.0182082 0.00854381 0)
(0.0205729 0.0222637 1.20073e-27)
(0.0209737 0.0339393 -1.10273e-27)
(0.0164544 0.0390143 -6.95846e-28)
(0.00999258 0.0409212 0)
(0.00504247 0.0431827 -4.39143e-28)
(0.00145933 0.0461266 0)
(0.0184213 0.00169221 0)
(0.0185442 0.00700668 1.33337e-28)
(0.0206853 0.0195881 3.53404e-29)
(0.0228467 0.0330635 0)
(0.0204491 0.0406881 0)
(0.014292 0.0428401 0)
(0.0085696 0.0442723 -1.35517e-28)
(0.00438479 0.0464516 0)
(0.00127876 0.0491279 0)
(0.0188296 0.00152987 0)
(0.0188327 0.00607187 3.39869e-28)
(0.0204797 0.0167975 1.10331e-28)
(0.0236014 0.0311673 2.73999e-29)
(0.0234579 0.0415407 -6.53832e-30)
(0.0185321 0.0450739 -5.85203e-28)
(0.0122693 0.0458975 -3.26509e-29)
(0.00742401 0.0473408 4.43412e-28)
(0.00383116 0.0493959 0)
(0.00112242 0.051787 1.17556e-27)
(0.0191675 0.00144945 0)
(0.0190669 0.0055446 -1.27758e-31)
(0.0202201 0.0142528 0)
(0.0235198 0.0285657 7.15765e-29)
(0.0253492 0.041291 0)
(0.0223227 0.0471541 -7.79566e-28)
(0.0161047 0.0480302 -4.56281e-28)
(0.0105984 0.0487078 2.37139e-28)
(0.00645447 0.0501855 0)
(0.00334112 0.0519925 8.78517e-28)
(0.000982683 0.0541898 1.25765e-27)
(0.0195113 0.00140852 -1.50065e-28)
(0.0192889 0.00519975 5.0929e-32)
(0.0200445 0.0122494 0)
(0.0229363 0.0255819 6.66175e-29)
(0.0261596 0.0399072 7.23775e-29)
(0.0252869 0.0485709 -3.78087e-28)
(0.0199776 0.0505265 -4.28721e-28)
(0.0138828 0.0505392 7.30204e-29)
(0.0091766 0.0513787 4.75856e-28)
(0.00561143 0.0526918 -7.7967e-28)
(0.00290996 0.0543471 9.93738e-28)
(0.000852487 0.0563264 1.02557e-27)
(0.0198851 0.00136645 1.9842e-28)
(0.0195765 0.00494018 1.05797e-28)
(0.0200357 0.0108422 1.19107e-28)
(0.022264 0.0225663 0)
(0.0261111 0.0376027 6.91963e-29)
(0.0272688 0.0489994 -4.36012e-28)
(0.0235659 0.0530255 6.63428e-29)
(0.0173132 0.0528639 -7.87903e-29)
(0.0119969 0.0529389 3.63165e-28)
(0.00796372 0.0537327 -6.9917e-28)
(0.004869 0.0549752 0)
(0.00252748 0.0564458 1.07376e-27)
(0.00073867 0.0582422 1.07158e-27)
(0.0202975 0.00134281 3.86883e-28)
(0.0199183 0.00471756 1.7022e-28)
(0.0201404 0.00986816 2.92566e-28)
(0.0217543 0.0198533 1.08146e-28)
(0.0255246 0.0347027 -4.9676e-28)
(0.0282755 0.0482631 6.4377e-29)
(0.0265239 0.0550286 -1.31887e-28)
(0.020832 0.0556023 -5.16185e-29)
(0.0149027 0.0549504 0)
(0.010383 0.0550682 9.76395e-39)
(0.0069067 0.0559194 8.58028e-28)
(0.00422182 0.0570108 1.27258e-28)
(0.00219017 0.0583075 1.26459e-27)
(0.000638695 0.0599573 1.19592e-27)
(0.0207652 0.00134264 3.82946e-28)
(0.0202736 0.004521 0)
(0.02036 0.00922685 4.18445e-28)
(0.0214241 0.0176178 0)
(0.0246612 0.0314858 -4.31592e-28)
(0.0284258 0.0465584 0)
(0.0286298 0.0561834 2.05404e-28)
(0.0242154 0.058452 -9.13478e-29)
(0.0179535 0.0574557 -3.78033e-29)
(0.0128622 0.0567845 1.05168e-29)
(0.00898059 0.0570918 1.6395e-27)
(0.00597007 0.0578604 0)
(0.003651 0.0588142 -9.45713e-28)
(0.00189492 0.0599922 1.12932e-27)
(0.000548498 0.0615075 0)
(0.0213442 0.00134386 3.8554e-28)
(0.0206935 0.0043905 0)
(0.0206652 0.00878273 4.1409e-28)
(0.0212887 0.0158747 2.79869e-28)
(0.0238437 0.0283319 3.76954e-28)
(0.027944 0.0441292 0)
(0.0298321 0.0562656 4.19765e-28)
(0.0271348 0.0609936 -1.55072e-28)
(0.0211453 0.0603918 4.41566e-31)
(0.0154275 0.0589288 2.24266e-29)
(0.0111054 0.0585758 8.20982e-28)
(0.00775537 0.0589006 -2.1981e-29)
(0.00514536 0.0595954 -1.69026e-35)
(0.00314118 0.060448 -1.10179e-27)
(0.00163096 0.0615062 -1.3699e-27)
(0.000470872 0.0629202 0)
(0.0220433 0.00135053 4.65739e-28)
(0.0212257 0.00434733 0)
(0.021008 0.00843144 4.06473e-28)
(0.0213419 0.0146117 7.88312e-28)
(0.023196 0.0255891 3.20866e-28)
(0.0270668 0.0412869 0)
(0.0301911 0.0553393 4.05573e-28)
(0.0293443 0.0628294 2.69068e-28)
(0.0243031 0.0635157 1.70257e-28)
(0.0181533 0.0615472 0)
(0.0132857 0.0604281 3.96211e-28)
(0.00955887 0.0602024 2.97559e-29)
(0.00666957 0.060527 2.2812e-27)
(0.00441229 0.0611665 -2.82044e-33)
(0.00269269 0.0619104 -9.33142e-28)
(0.00140762 0.0628797 -2.86348e-28)
(0.000408743 0.0641992 0)
(0.0228623 0.00137789 2.08822e-28)
(0.0218818 0.00436142 7.09549e-28)
(0.0214358 0.00818484 0)
(0.0215339 0.0137628 7.47907e-28)
(0.022685 0.0234461 3.42285e-28)
(0.0260076 0.0382614 4.7829e-28)
(0.0298816 0.0535209 3.78109e-28)
(0.0307422 0.0637911 -2.90996e-28)
(0.0271436 0.0664948 3.27883e-28)
(0.0210163 0.0646182 1.42662e-28)
(0.0155455 0.0626798 4.04142e-28)
(0.0114009 0.0618478 4.0038e-29)
(0.00818789 0.0616854 1.1996e-27)
(0.00569693 0.0620057 1.16336e-27)
(0.00376461 0.0625699 1.14839e-27)
(0.00230533 0.0632206 -6.86014e-28)
(0.00122565 0.0641302 -1.51361e-28)
(0.000349612 0.0653704 0)
(0.0238007 0.00140992 2.20015e-28)
(0.0226646 0.00438117 3.50545e-28)
(0.0220686 0.00803821 4.11508e-28)
(0.0218401 0.0131418 3.65091e-28)
(0.0224662 0.0218654 3.95359e-28)
(0.0250204 0.035278 8.49024e-28)
(0.0290986 0.0511635 1.97751e-28)
(0.0313682 0.063586 -2.39319e-35)
(0.0294338 0.0689882 -4.50778e-29)
(0.0238752 0.0680037 -7.24919e-29)
(0.0179139 0.0653886 -6.04597e-28)
(0.013278 0.0638593 5.00773e-29)
(0.00970729 0.0631538 -2.86067e-35)
(0.00696972 0.0630189 -5.96252e-29)
(0.00483926 0.0633169 1.18893e-27)
(0.00320243 0.0638153 -1.11032e-27)
(0.00198063 0.064401 5.68342e-37)
(0.00110773 0.0653143 -3.66925e-28)
(0.000297876 0.0664611 0)
(0.0248663 0.00142658 3.4197e-28)
(0.0235741 0.00441937 6.75243e-28)
(0.0228451 0.0079775 8.51906e-28)
(0.0222954 0.0127152 1.05379e-28)
(0.0225595 0.0206864 5.00081e-28)
(0.0242977 0.0325841 -1.8395e-28)
(0.0280721 0.0484715 8.4751e-28)
(0.031276 0.0627375 2.55928e-28)
(0.0310284 0.0707039 0)
(0.0265684 0.0714124 4.80139e-29)
(0.0203877 0.0685645 -3.71888e-28)
(0.0151976 0.0662522 3.21457e-35)
(0.011251 0.0649624 -8.63176e-29)
(0.00821453 0.0642973 -1.91917e-28)
(0.00589015 0.0642039 0)
(0.00409538 0.064472 1.27048e-27)
(0.00272863 0.0649274 -1.01818e-27)
(0.00172058 0.0654793 -9.53306e-28)
(0.00099964 0.0664253 3.5404e-28)
(0.000267218 0.0675134 -1.15996e-28)
(0.0260757 0.00144623 2.44233e-28)
(0.0246239 0.00449862 1.06923e-27)
(0.0237284 0.00797828 7.61799e-28)
(0.0229468 0.0125131 6.56491e-28)
(0.0227773 0.0198124 1.74474e-28)
(0.0238825 0.0304386 3.43634e-28)
(0.0270115 0.0456425 -1.48147e-28)
(0.0307302 0.0609546 3.65192e-28)
(0.0318826 0.0715724 3.84779e-28)
(0.028869 0.0745355 2.7531e-28)
(0.0229242 0.0721262 3.49446e-28)
(0.0171962 0.0690685 1.44894e-28)
(0.0128103 0.0670959 -8.78009e-28)
(0.0094485 0.065885 -2.27161e-28)
(0.0068913 0.0653435 0)
(0.00494456 0.0652306 1.46276e-27)
(0.0034648 0.0654935 -2.53592e-28)
(0.00233968 0.0659293 2.63179e-28)
(0.00155068 0.066515 -2.48918e-29)
(0.000893314 0.0674771 -2.83665e-28)
(0.000250902 0.0685592 2.56003e-28)
(0.027431 0.00148523 6.52719e-28)
(0.0258081 0.00459022 2.1153e-28)
(0.0247544 0.00799866 3.37806e-28)
(0.0237913 0.0124425 7.05593e-28)
(0.0232103 0.0191747 5.21645e-29)
(0.0237683 0.0288655 8.51286e-29)
(0.0260995 0.0428698 -5.7584e-29)
(0.0298999 0.0587353 8.75859e-28)
(0.0321402 0.0713438 2.28496e-28)
(0.0306317 0.0770867 1.24766e-28)
(0.0253852 0.07589 7.5387e-28)
(0.0192851 0.0723343 -5.53154e-29)
(0.0143905 0.0695755 -7.02918e-28)
(0.0106761 0.0677972 -1.12338e-28)
(0.00785019 0.066761 -7.44706e-28)
(0.00571892 0.0662162 4.21132e-28)
(0.00413835 0.0661239 1.44641e-27)
(0.00295216 0.0664013 7.8244e-28)
(0.0020618 0.066845 -3.46483e-28)
(0.00144579 0.067519 -2.22123e-28)
(0.000821401 0.0685037 2.27861e-28)
(0.000246764 0.0696221 0)
(0.028944 0.00151628 0)
(0.0271386 0.00467726 1.01127e-27)
(0.0259125 0.00806338 5.12789e-28)
(0.0247845 0.0124427 9.58383e-29)
(0.0239274 0.0187066 -3.06485e-28)
(0.0239641 0.0276694 5.98136e-28)
(0.0255369 0.0404025 -8.30364e-28)
(0.0289198 0.0562642 -6.8929e-28)
(0.0318961 0.0706066 1.22523e-27)
(0.0317859 0.0788398 0)
(0.0276409 0.0795758 3.51502e-28)
(0.0214527 0.0760224 5.29593e-28)
(0.0160071 0.0724677 -4.36695e-29)
(0.0118952 0.0700487 3.72639e-29)
(0.00876574 0.0684545 -3.42999e-28)
(0.00643128 0.0674683 -7.86403e-28)
(0.004714 0.0669466 1.42681e-27)
(0.00348091 0.0668904 -4.14181e-32)
(0.002564 0.0672126 0)
(0.00190996 0.0677269 -1.08522e-27)
(0.00139894 0.0684879 -6.22553e-28)
(0.000798152 0.0695396 0)
(0.000255037 0.0707351 -1.1397e-27)
(0.0306097 0.00153141 -7.41788e-28)
(0.0286478 0.00476712 4.13172e-28)
(0.0272289 0.00820854 5.63184e-28)
(0.0259178 0.0124712 1.19867e-27)
(0.0248227 0.018378 1.38148e-27)
(0.024477 0.0267931 -5.38541e-28)
(0.0253176 0.0384117 5.911e-28)
(0.0279936 0.0537076 -1.69256e-27)
(0.0313096 0.0690881 -3.49322e-28)
(0.0323291 0.0798154 2.92538e-28)
(0.029513 0.0829111 -2.97179e-28)
(0.0236412 0.0800415 3.84559e-28)
(0.0177061 0.0758263 -7.56164e-28)
(0.0130966 0.0726532 0)
(0.00963911 0.0704597 -6.6337e-29)
(0.00706527 0.0689847 -3.36722e-28)
(0.00519572 0.0680108 8.93953e-28)
(0.00389024 0.0675331 -1.68703e-27)
(0.00298298 0.0675547 0)
(0.00232339 0.0679698 -1.27382e-27)
(0.00187342 0.0686002 -1.74223e-38)
(0.00140736 0.0694686 0)
(0.000825929 0.0706138 -6.37775e-28)
(0.000272227 0.0719124 0)
(0.0323991 0.00155301 -1.01167e-41)
(0.0302969 0.00486299 -2.89115e-28)
(0.0287372 0.00839449 6.1876e-28)
(0.0272009 0.0125046 2.73061e-28)
(0.0259038 0.0181894 6.5681e-29)
(0.0252132 0.0262079 2.57436e-29)
(0.025405 0.0369612 3.62655e-29)
(0.0273098 0.0512572 1.06857e-27)
(0.0305385 0.0672053 -8.78302e-28)
(0.0324207 0.0798136 -9.20379e-28)
(0.0309065 0.0856584 -2.75386e-28)
(0.0257489 0.0841915 -3.94487e-29)
(0.019483 0.0796594 -2.18438e-27)
(0.0143247 0.0756782 -1.60813e-42)
(0.0104711 0.0728157 1.28465e-27)
(0.00761515 0.0707758 -2.44726e-28)
(0.00555897 0.069328 3.81709e-28)
(0.00416449 0.0683935 -1.2945e-28)
(0.00325969 0.0680052 9.33467e-28)
(0.00265717 0.0681472 -9.82337e-28)
(0.00224041 0.0687248 2.17295e-28)
(0.00192596 0.0695172 9.20779e-28)
(0.00146666 0.0704884 1.04775e-27)
(0.000894165 0.0717852 5.37243e-28)
(0.000286995 0.0731549 0)
(0.0343042 0.00158348 4.72019e-28)
(0.0320689 0.00494617 -7.80428e-28)
(0.0304214 0.00855515 4.30981e-28)
(0.0286672 0.0125851 1.68462e-28)
(0.0271671 0.0181091 0)
(0.0261225 0.0258271 -2.12783e-27)
(0.0258343 0.0359732 -2.54825e-27)
(0.0269374 0.049127 5.15971e-30)
(0.0297253 0.065115 2.47089e-31)
(0.0321668 0.0793814 -1.37041e-28)
(0.0317993 0.0876678 -1.33664e-27)
(0.0276455 0.0882284 -1.23476e-27)
(0.0213382 0.0839068 -1.33437e-27)
(0.0156042 0.0791769 -1.20821e-27)
(0.011267 0.0755721 1.34378e-27)
(0.00808289 0.0728963 1.53239e-27)
(0.00580715 0.0709126 0)
(0.00427279 0.06949 6.05593e-28)
(0.00335893 0.0686435 -1.99745e-27)
(0.00283094 0.0683903 1.14921e-27)
(0.00252172 0.0687308 -5.38991e-29)
(0.00230837 0.0695247 4.34428e-28)
(0.00204805 0.0704954 1.83841e-27)
(0.00157514 0.0716177 0)
(0.000956087 0.0730554 0)
(0.000294612 0.074467 0)
(0.0363143 0.00161555 9.70023e-29)
(0.0339661 0.00498747 -2.54973e-28)
(0.032237 0.00867627 -1.93447e-27)
(0.0303554 0.012728 -1.07713e-27)
(0.0285914 0.0180807 -1.29928e-28)
(0.0272679 0.0255837 0)
(0.0265793 0.0352877 -1.36078e-27)
(0.0269018 0.0474437 5.22247e-30)
(0.0290056 0.0629779 -1.98136e-29)
(0.0316906 0.0783055 -1.11083e-27)
(0.0322354 0.0889477 -2.4426e-28)
(0.0292205 0.0919204 -5.27176e-28)
(0.0232017 0.0884663 -3.0502e-27)
(0.0169591 0.0831784 -8.20292e-28)
(0.0120589 0.0787706 0)
(0.00847254 0.0754091 3.27664e-27)
(0.00592428 0.0728117 1.72414e-28)
(0.00422172 0.0708331 2.24615e-27)
(0.00324686 0.0694785 1.03502e-27)
(0.00280495 0.068779 -5.04903e-27)
(0.00263428 0.0687525 0)
(0.00258887 0.0693459 9.22209e-28)
(0.00250811 0.0703932 1.32718e-27)
(0.00223666 0.0715801 0)
(0.00170701 0.0728637 -1.67847e-27)
(0.000990879 0.074418 6.98329e-28)
(0.00028461 0.0758389 -1.26961e-26)
(0.0384172 0.00162746 0)
(0.0359768 0.00499319 -7.29595e-28)
(0.0341542 0.00880324 -3.45958e-28)
(0.032203 0.0128925 -3.25605e-27)
(0.0302125 0.0181018 -2.77183e-27)
(0.0286413 0.0254191 -1.74194e-27)
(0.0275996 0.0347925 -1.50291e-27)
(0.0272787 0.0462826 2.15847e-29)
(0.0285519 0.0609496 2.43827e-27)
(0.0311088 0.0768648 0)
(0.0323665 0.0894853 -2.05353e-28)
(0.030416 0.0950578 4.69146e-28)
(0.0250197 0.0931426 -8.60024e-28)
(0.0184199 0.0876785 -1.14238e-27)
(0.012883 0.0824661 -1.22887e-27)
(0.00880368 0.0783529 -1.35819e-28)
(0.00590942 0.0750847 4.48627e-29)
(0.00399584 0.0724808 3.29517e-27)
(0.00291825 0.07052 8.32626e-35)
(0.00252697 0.069315 2.69553e-27)
(0.00253771 0.0688503 -3.15009e-27)
(0.00270988 0.0691142 -1.63532e-27)
(0.00286762 0.07008 0)
(0.00281998 0.0713961 -5.99289e-28)
(0.00247168 0.0728174 0)
(0.0018149 0.0742501 -8.04072e-28)
(0.000964388 0.0758762 -1.50896e-26)
(0.000241579 0.0772344 8.93199e-27)
(0.0405988 0.00160813 8.96803e-28)
(0.0380963 0.00500705 -2.82489e-27)
(0.0361816 0.0089443 -8.20246e-28)
(0.034136 0.013037 -3.37495e-28)
(0.0320304 0.0181906 6.2179e-33)
(0.0301902 0.0253241 -1.80202e-28)
(0.0288498 0.0344798 -1.69964e-27)
(0.0280411 0.045569 -3.01519e-27)
(0.0284906 0.0591937 -1.35242e-27)
(0.0305598 0.0752669 2.41781e-27)
(0.032246 0.0893913 -3.21647e-28)
(0.0312643 0.0975468 0)
(0.0266874 0.097708 1.36119e-28)
(0.019992 0.092608 0)
(0.013808 0.0866885 -3.76353e-27)
(0.00911564 0.0817818 -3.85741e-27)
(0.00579132 0.0777937 -1.95256e-29)
(0.00358297 0.074495 2.08884e-27)
(0.00234739 0.0718526 -2.41368e-27)
(0.00195204 0.070022 8.09051e-32)
(0.00213614 0.0690644 3.81973e-28)
(0.00259613 0.0689141 -7.84531e-29)
(0.0030686 0.0696117 -3.80053e-27)
(0.00332049 0.0709746 -1.01199e-27)
(0.00321433 0.0726077 -5.1023e-28)
(0.00268906 0.0742471 1.79681e-28)
(0.00183963 0.07579 -1.72095e-27)
(0.000830008 0.0773876 9.50477e-27)
(0.00015212 0.0785791 1.13002e-27)
(0.0428348 0.00157806 1.66814e-26)
(0.0402905 0.00504789 1.04188e-27)
(0.0383161 0.00903525 -1.9476e-27)
(0.0362024 0.0131412 8.1915e-28)
(0.0339946 0.018311 2.44015e-27)
(0.0319354 0.0253225 7.90232e-28)
(0.0302834 0.0343301 5.11078e-27)
(0.0291261 0.0451421 3.07176e-27)
(0.028826 0.0578443 -1.49198e-27)
(0.0301618 0.0735934 -2.74125e-27)
(0.0320044 0.0889499 1.12697e-27)
(0.0317768 0.0993635 2.06445e-27)
(0.0281468 0.10197 -1.39407e-27)
(0.0216239 0.0978462 0)
(0.014862 0.0914687 -2.96543e-27)
(0.00947225 0.0857438 -2.01729e-27)
(0.00559638 0.080992 -2.27147e-27)
(0.00299502 0.0769655 -2.36568e-27)
(0.00151963 0.0735768 -2.28864e-27)
(0.00104545 0.0709894 2.71317e-27)
(0.00135845 0.069393 -1.59399e-27)
(0.00212781 0.0687426 -2.21573e-27)
(0.00300785 0.0690745 -4.51779e-29)
(0.00368102 0.0702941 -2.15176e-27)
(0.00391809 0.0720954 2.46514e-27)
(0.00363115 0.074069 -3.11627e-27)
(0.00283418 0.0758874 0)
(0.00172363 0.0774422 -5.07019e-28)
(0.000567728 0.0788726 5.54397e-27)
(1.27925e-06 0.0797862 0)
(0.045082 0.00154531 -9.99169e-28)
(0.0425341 0.00506856 1.86641e-26)
(0.0405319 0.00904582 -2.03861e-27)
(0.0384061 0.0131991 4.97858e-27)
(0.0360961 0.018412 3.91884e-27)
(0.0339078 0.0253748 2.3964e-27)
(0.0319499 0.0342609 4.59376e-27)
(0.0304942 0.0448488 4.0759e-27)
(0.0295775 0.0569777 2.93479e-27)
(0.0300834 0.072011 0)
(0.0317465 0.0880589 -1.2308e-27)
(0.0320815 0.100543 -2.91889e-27)
(0.0293399 0.105742 1.85147e-27)
(0.0232888 0.103218 -1.05997e-27)
(0.0160783 0.0967706 9.91699e-29)
(0.00993454 0.0902982 -3.24244e-27)
(0.00537317 0.084743 -4.83097e-27)
(0.0022669 0.0799633 -2.62088e-27)
(0.000429372 0.0757878 0)
(-0.00022068 0.0723318 3.48836e-35)
(0.000155926 0.0699174 2.0767e-27)
(0.00121857 0.0686124 7.393e-32)
(0.0025749 0.0684594 -2.63719e-27)
(0.00380592 0.0694291 1.69268e-30)
(0.00454677 0.0712375 -1.50159e-27)
(0.00461456 0.0735295 8.05492e-27)
(0.00399529 0.0758269 -3.07639e-27)
(0.00281305 0.0777388 -5.47998e-28)
(0.00136489 0.0791621 4.62388e-27)
(0.000120037 0.0802131 -1.93168e-26)
(-0.000250778 0.0806234 8.23084e-28)
(0.0472991 0.00150737 0)
(0.0447886 0.00502449 -1.93443e-26)
(0.0428252 0.00899658 4.14011e-27)
(0.0406883 0.0132236 2.30452e-27)
(0.0383352 0.0184788 6.12733e-27)
(0.0360532 0.0254145 -5.68612e-27)
(0.0338873 0.0342215 1.3921e-27)
(0.0320717 0.0446908 -2.55415e-27)
(0.0307319 0.0565235 -6.67418e-27)
(0.0304562 0.0706601 0)
(0.0316095 0.0870657 1.37294e-29)
(0.032278 0.101134 0)
(0.0303109 0.108924 9.43455e-28)
(0.0249121 0.108501 -9.25955e-28)
(0.0174808 0.102529 -1.47165e-27)
(0.0105836 0.0954457 -4.61384e-28)
(0.00521588 0.0891091 -6.01112e-27)
(0.00145461 0.0835486 -2.83021e-27)
(-0.00088302 0.0785552 -2.98064e-27)
(-0.00184473 0.0741739 -2.92024e-27)
(-0.0015187 0.070771 5.22228e-27)
(-0.000211058 0.068597 -3.25514e-27)
(0.00164571 0.0677684 2.84055e-27)
(0.00354838 0.0683434 -4.40115e-28)
(0.00498761 0.0700681 -5.05005e-28)
(0.00562318 0.0725672 -3.24762e-28)
(0.00530568 0.0753709 -4.81903e-28)
(0.00417591 0.0779264 0)
(0.00247141 0.0797829 1.65003e-27)
(0.000657728 0.08085 -1.92637e-26)
(-0.00061426 0.0813211 1.00501e-27)
(-0.000561096 0.0809737 -1.46512e-26)
(0.0494586 0.00146102 -1.69035e-26)
(0.0470121 0.00491685 -2.61946e-27)
(0.0451491 0.00889685 -1.67173e-26)
(0.0430452 0.0132028 2.68762e-27)
(0.0406891 0.0184888 1.23608e-26)
(0.038314 0.0254278 -1.03042e-26)
(0.0360195 0.0342456 -1.74388e-26)
(0.0338965 0.0446999 -7.46672e-27)
(0.0321795 0.0563162 -9.31286e-27)
(0.0312474 0.0696849 -6.6006e-27)
(0.0316876 0.0859802 5.62753e-27)
(0.0324272 0.101266 0)
(0.0311072 0.111471 -5.2718e-27)
(0.026457 0.11352 2.75639e-27)
(0.0190556 0.108611 5.04164e-27)
(0.0114374 0.101186 -1.95248e-27)
(0.00522599 0.0941309 -2.48703e-27)
(0.000638942 0.0877811 -3.76757e-27)
(-0.00234579 0.0819774 -3.26553e-27)
(-0.0037941 0.0766245 -4.11463e-27)
(-0.00370056 0.0721135 -2.27167e-42)
(-0.00225424 0.0688438 -2.69353e-27)
(8.14185e-05 0.0670783 1.54224e-27)
(0.00273964 0.0670137 -1.87594e-27)
(0.00508515 0.0685051 0)
(0.00652906 0.0711617 -1.31777e-26)
(0.00679645 0.0744358 -9.72167e-28)
(0.00583172 0.0777375 -3.90502e-27)
(0.00399326 0.0803802 0)
(0.00165452 0.0819423 4.59353e-27)
(-0.0005222 0.08237 -2.44313e-28)
(-0.0016997 0.0819433 -1.90688e-26)
(-0.000991173 0.0806272 -9.64433e-27)
(0.0515212 0.00139934 5.41961e-28)
(0.0491894 0.00475807 -2.7782e-27)
(0.0474656 0.00871296 -1.9788e-26)
(0.0454689 0.0130713 0)
(0.0431364 0.0184271 -8.39341e-27)
(0.0407148 0.0254089 8.26122e-27)
(0.0383046 0.0343217 -1.04871e-26)
(0.0359743 0.0447816 1.18932e-26)
(0.033892 0.0562417 -7.42351e-27)
(0.0324314 0.0691199 0)
(0.0320948 0.0849497 -1.48779e-27)
(0.0326461 0.101098 6.35845e-27)
(0.0317912 0.113398 6.33856e-27)
(0.0279026 0.118099 -6.06608e-27)
(0.020779 0.114852 6.64267e-27)
(0.0125909 0.107472 2.33945e-27)
(0.00546134 0.0998029 -1.85256e-27)
(-5.393e-05 0.0927287 -7.25984e-27)
(-0.00387611 0.0861326 -5.36636e-28)
(-0.00600877 0.0798114 -7.48082e-27)
(-0.00636505 0.074122 -5.07145e-27)
(-0.0050029 0.0695536 0)
(-0.00227112 0.0665399 -4.30367e-27)
(0.00118706 0.0655114 2.21485e-27)
(0.00460151 0.0664958 0)
(0.00719623 0.0691726 4.90819e-28)
(0.0083169 0.0729368 -4.73166e-28)
(0.00789822 0.0770092 0)
(0.00599226 0.0806862 -1.57039e-27)
(0.00323942 0.083149 -1.75767e-27)
(0.000222075 0.0841017 4.71526e-28)
(-0.00234657 0.0835074 0)
(-0.00311824 0.0818048 -9.00428e-27)
(-0.000723187 0.0793861 0)
(-0.0020994 0.0797631 0)
(0.0534395 0.00132144 1.70381e-26)
(0.0512863 0.00454507 0)
(0.0497303 0.00841253 -1.64655e-27)
(0.0479023 0.0128104 -1.68816e-26)
(0.0456738 0.0182868 1.0606e-27)
(0.0432332 0.0253316 -8.41986e-27)
(0.0407657 0.03438 2.26811e-26)
(0.0382424 0.0448708 -1.06874e-26)
(0.0359035 0.0563145 4.35112e-27)
(0.0339448 0.0689082 3.83187e-27)
(0.0329512 0.0840607 -1.38992e-26)
(0.0330718 0.100746 1.35103e-26)
(0.0324775 0.114764 0)
(0.0292416 0.122121 6.54637e-27)
(0.0226263 0.121025 3.44579e-27)
(0.0140559 0.114221 1.21921e-26)
(0.00602642 0.106106 0)
(-0.000491595 0.0984092 9.33912e-27)
(-0.00532874 0.0910773 -1.06357e-27)
(-0.00837108 0.0838631 -4.02383e-27)
(-0.00946333 0.07699 0)
(-0.00846561 0.0709537 0)
(-0.00556163 0.0663998 -3.55999e-27)
(-0.0013395 0.0639838 -2.09737e-27)
(0.00327787 0.064062 -2.89353e-32)
(0.00730244 0.0664718 2.51011e-27)
(0.00980856 0.0706399 5.37331e-28)
(0.0101702 0.0756483 1.3857e-26)
(0.0087072 0.0803929 -1.74022e-27)
(0.00552448 0.0842105 -3.77317e-27)
(0.00166223 0.0861286 -8.09193e-28)
(-0.00195869 0.0860058 -7.34733e-28)
(-0.0045504 0.0838402 -5.42512e-27)
(-0.00370825 0.0803603 0)
(-0.00502184 0.0813598 0)
(-0.000878271 0.0784041 0)
(-0.0026433 0.0788123 -3.84382e-28)
(0.0551672 0.001219 0)
(0.0532517 0.00425839 1.65048e-26)
(0.0518978 0.00802039 1.24618e-30)
(0.0502748 0.0124659 -1.68168e-26)
(0.0482178 0.0180351 3.99006e-27)
(0.0458334 0.0252055 3.19676e-27)
(0.0433472 0.0343781 1.58831e-26)
(0.0407003 0.0449755 2.31296e-26)
(0.0381516 0.0565058 -1.59928e-26)
(0.0357635 0.0689492 -1.53837e-26)
(0.0342561 0.0833931 0)
(0.0337454 0.100297 -1.40695e-26)
(0.0332078 0.115647 1.34475e-27)
(0.0305291 0.125525 0)
(0.0245203 0.126943 4.73056e-27)
(0.0158629 0.121287 1.96767e-26)
(0.00697269 0.113014 -1.57226e-26)
(-0.000583 0.104812 1.09554e-26)
(-0.00653746 0.0968538 2.79275e-26)
(-0.0107093 0.0888779 0)
(-0.0128354 0.0808959 -8.10048e-28)
(-0.0125993 0.073319 0)
(-0.00987337 0.0669397 0)
(-0.00508826 0.0627004 -7.97585e-27)
(0.000803613 0.0613316 0)
(0.00652598 0.0630253 -8.62252e-27)
(0.0108612 0.0673219 2.69238e-27)
(0.0127773 0.0732475 0)
(0.0118709 0.0794978 0)
(0.00887806 0.0846852 -4.3255e-27)
(0.0041763 0.0882086 0)
(-0.000871374 0.0890987 0)
(-0.00433228 0.0857673 -7.83293e-27)
(-0.00431279 0.0875742 -1.60965e-27)
(-0.00620241 0.082647 0)
(-0.00580653 0.0861966 0)
(-0.00705883 0.0843811 -1.37877e-27)
(-0.00456462 0.0794881 -2.16704e-28)
(-0.00622165 0.0805917 1.71647e-27)
(-0.00101145 0.077136 0)
(-0.00321948 0.0775733 0)
(0.0566653 0.00108512 -2.50576e-28)
(0.0550435 0.0038931 0)
(0.0539422 0.00757065 -1.89925e-27)
(0.0525433 0.0120305 -1.45201e-26)
(0.0506902 0.0176503 3.40794e-30)
(0.0484785 0.0250312 8.57035e-27)
(0.0459767 0.034302 3.28365e-35)
(0.043323 0.0450763 2.07624e-26)
(0.0405725 0.0567426 0)
(0.037912 0.0691445 -2.07313e-29)
(0.0358883 0.0830041 5.37171e-27)
(0.0347654 0.0998376 -4.08132e-27)
(0.0340655 0.116185 -2.61847e-26)
(0.0317946 0.128284 -1.5389e-26)
(0.0264612 0.132435 2.45042e-27)
(0.0179356 0.128494 2.05829e-26)
(0.00837837 0.120444 -2.59773e-26)
(-0.000215202 0.111862 0)
(-0.00735911 0.103457 2.6302e-26)
(-0.0128023 0.0948871 -2.92048e-27)
(-0.0162644 0.0859731 -3.89968e-26)
(-0.0172066 0.0769264 -2.33521e-26)
(-0.0152065 0.0685646 0)
(-0.0102584 0.0620205 -4.80291e-27)
(-0.00321985 0.0585704 -1.16357e-26)
(0.00446578 0.058871 -5.22781e-27)
(0.0110359 0.062803 -1.29125e-26)
(0.0151406 0.0694982 -6.81907e-28)
(0.0158328 0.0773637 1.04548e-27)
(0.0129107 0.0847664 -2.488e-27)
(0.00776107 0.0898531 5.17734e-27)
(0.00156251 0.0923233 8.31508e-29)
(-0.00376783 0.0895851 7.76631e-27)
(-0.00329727 0.0918165 7.97056e-27)
(-0.00614718 0.0881069 -2.32325e-27)
(-0.00775218 0.0820747 -5.7811e-28)
(-0.00787406 0.0864402 -1.56946e-27)
(-0.009011 0.0839448 6.15993e-27)
(-0.00548875 0.0783307 -3.93561e-28)
(-0.00756488 0.079548 3.01255e-27)
(-0.00118158 0.0755307 -4.65985e-27)
(-0.0038053 0.0759953 0)
(0.0578809 0.000927085 1.47067e-26)
(0.0566113 0.0034593 7.84448e-28)
(0.0558387 0.00703476 0)
(0.0547055 0.0114324 2.32013e-27)
(0.0530806 0.0171302 -2.1807e-26)
(0.0510893 0.024755 3.37724e-27)
(0.048654 0.0341702 -3.82729e-31)
(0.0460393 0.0451185 -2.40974e-35)
(0.043188 0.0569653 8.67493e-27)
(0.0403279 0.0694329 8.04898e-27)
(0.0378284 0.0828833 6.96132e-27)
(0.0361608 0.0994315 -1.12171e-26)
(0.0351699 0.116537 0)
(0.0331262 0.130479 -5.4074e-27)
(0.0283985 0.137355 0)
(0.0202662 0.135606 0)
(0.0102613 0.12825 3.51293e-27)
(0.000668247 0.119474 2.86994e-26)
(-0.00762282 0.110801 -2.35598e-26)
(-0.0144405 0.101849 8.42583e-27)
(-0.0194378 0.0922929 3.38527e-26)
(-0.022016 0.0820375 -2.30148e-26)
(-0.0213768 0.0717068 -3.57742e-27)
(-0.0169799 0.0625088 -3.21316e-26)
(-0.0091871 0.0561299 -9.86564e-27)
(0.000569076 0.0542481 2.80205e-27)
(0.00994758 0.0571337 -8.14597e-27)
(0.0168725 0.0639554 -1.55619e-26)
(0.0199048 0.0734413 -5.04451e-27)
(0.0187322 0.0831343 0)
(0.0127687 0.0917388 1.58528e-26)
(0.00499711 0.0958894 1.49796e-27)
(-0.00193642 0.0940943 -2.65855e-27)
(-0.000897456 0.0965283 -2.68946e-27)
(-0.00601945 0.0903728 0)
(-0.00566525 0.0929281 -3.2847e-27)
(-0.00841239 0.0887129 0)
(-0.00946324 0.081177 -4.89136e-27)
(-0.0101112 0.086223 7.71308e-28)
(-0.011163 0.0832334 9.43985e-27)
(-0.00650784 0.0768357 0)
(-0.00901839 0.0781656 1.13862e-27)
(-0.0013743 0.0735355 2.7029e-30)
(-0.00443857 0.0740124 -5.31188e-27)
(0.0587592 0.000737225 0)
(0.0578957 0.00297852 1.56826e-26)
(0.057497 0.00636675 -2.09992e-27)
(0.056702 0.0106802 2.4815e-27)
(0.0553654 0.0165137 -1.65493e-26)
(0.0536071 0.024347 -5.83052e-27)
(0.0513526 0.0339829 8.5856e-27)
(0.0487704 0.0450803 -8.59562e-27)
(0.0459681 0.0571442 6.43912e-27)
(0.0429729 0.0697569 0)
(0.0400788 0.0830168 4.34222e-27)
(0.0379363 0.0990783 -1.09192e-26)
(0.0365225 0.116738 0)
(0.0345875 0.132176 -9.15175e-27)
(0.0303532 0.14166 3.09668e-26)
(0.0227684 0.142437 -3.04368e-26)
(0.0125928 0.136273 0)
(0.00216184 0.127549 -1.4204e-26)
(-0.0072434 0.118745 -2.74717e-26)
(-0.0154138 0.109645 0)
(-0.0220522 0.0998045 1.26552e-25)
(-0.0265776 0.0887638 -6.85202e-30)
(-0.0280028 0.076815 -5.87853e-27)
(-0.0251343 0.0648922 -8.02461e-26)
(-0.0174919 0.0549818 1.62066e-26)
(-0.00598324 0.049171 0)
(0.00691775 0.0498989 1.04128e-26)
(0.0174632 0.0565176 0)
(0.0238778 0.0670403 -1.59719e-26)
(0.0256724 0.0790206 6.2254e-27)
(0.0212385 0.0904414 -9.07307e-27)
(0.0115112 0.0990397 7.11493e-27)
(0.00152939 0.0990161 -2.98693e-27)
(0.00313495 0.101455 -2.98687e-27)
(-0.00464761 0.0957097 -1.547e-27)
(-0.00347239 0.0986496 -1.39512e-27)
(-0.00861527 0.0913023 -1.00456e-27)
(-0.00847347 0.0942066 -2.27781e-27)
(-0.0109884 0.0888563 8.85278e-28)
(-0.0113537 0.0799323 -9.72747e-27)
(-0.0126689 0.0857437 3.00726e-27)
(-0.0135227 0.0821751 -4.87657e-27)
(-0.00762132 0.0749429 2.42815e-27)
(-0.0105978 0.0763888 0)
(-0.00158753 0.0711094 5.99948e-27)
(-0.00512355 0.0715804 -8.6391e-27)
(0.059224 0.000514194 -1.32809e-26)
(0.0588686 0.00244572 -1.41152e-26)
(0.0588346 0.00556732 -7.32329e-31)
(0.0584436 0.00987359 2.64803e-27)
(0.0574565 0.015811 0)
(0.0559803 0.023805 -1.0221e-26)
(0.0539925 0.0337125 6.6832e-27)
(0.051502 0.0449887 -8.61402e-27)
(0.0487935 0.057257 4.3e-27)
(0.0457958 0.0700792 -1.06312e-27)
(0.0426261 0.0833195 2.08642e-27)
(0.0400586 0.0988387 -5.5542e-28)
(0.0381445 0.116804 6.81078e-30)
(0.0361727 0.133448 -1.43449e-26)
(0.0323657 0.145292 0)
(0.025394 0.148826 0)
(0.0153158 0.144341 -6.09653e-26)
(0.00422046 0.135992 0)
(-0.0061693 0.127142 -7.44384e-26)
(-0.0155709 0.118111 -2.53362e-26)
(-0.0238051 0.108305 3.27604e-26)
(-0.030418 0.0970388 7.7479e-27)
(-0.0344053 0.0840959 4.03629e-27)
(-0.034216 0.0700102 -1.27688e-25)
(-0.0284259 0.0564182 2.16314e-25)
(-0.0167511 0.0467594 -1.68425e-26)
(-0.00112848 0.0440288 1.84543e-27)
(0.0134965 0.0488828 -5.66217e-27)
(0.02337 0.0599253 1.0044e-26)
(0.0281818 0.0737282 -1.20394e-27)
(0.0284302 0.0878838 -8.09029e-27)
(0.0208393 0.100958 7.17427e-26)
(0.00701508 0.104007 -4.3521e-28)
(0.0101117 0.106204 -2.02075e-27)
(-0.00144461 0.10172 -3.11607e-27)
(0.000608923 0.104866 -2.32523e-27)
(-0.00778409 0.0974082 1.13003e-28)
(-0.0066842 0.100842 -1.26644e-27)
(-0.0115406 0.0918646 2.02934e-27)
(-0.0116914 0.0952163 7.32653e-27)
(-0.0139417 0.0887001 0)
(-0.0134113 0.0782877 -5.79003e-27)
(-0.0154947 0.084931 4.27151e-27)
(-0.0160882 0.0807026 -1.13936e-27)
(-0.0088122 0.0726041 -1.0238e-27)
(-0.0122838 0.0741725 4.80881e-27)
(-0.00182028 0.0682525 0)
(-0.00585242 0.0687009 -1.69436e-26)
(0.0591434 0.000254575 1.33573e-28)
(0.0594337 0.00183414 -1.24578e-26)
(0.0598547 0.00469051 -2.54231e-26)
(0.0598967 0.0089934 2.78715e-27)
(0.0592831 0.0149679 -3.22008e-27)
(0.0581835 0.0231366 -9.26334e-27)
(0.0564958 0.0333395 6.66904e-27)
(0.0542252 0.0448343 0)
(0.0516077 0.0572723 -8.61963e-27)
(0.0487002 0.0703567 6.45149e-27)
(0.0454168 0.0837266 -6.31528e-27)
(0.0424649 0.0987819 2.05947e-27)
(0.0400865 0.116807 -8.99742e-28)
(0.0379558 0.134433 7.91557e-27)
(0.0344401 0.148281 -1.14126e-26)
(0.0281075 0.154604 -2.01721e-27)
(0.018349 0.152261 0)
(0.00685191 0.144659 -2.54051e-26)
(-0.00442539 0.135882 -2.23322e-26)
(-0.0148909 0.127062 0)
(-0.0245467 0.117547 -5.45926e-26)
(-0.033097 0.106553 -2.23432e-26)
(-0.0398267 0.093454 -7.03662e-27)
(-0.0431526 0.0782969 -6.73456e-26)
(-0.0411046 0.062573 1.63899e-25)
(-0.0324909 0.0498704 0)
(-0.018484 0.0441571 0)
(-0.00190726 0.0472652 0)
(0.0143498 0.0579985 -1.42441e-26)
(0.023407 0.0730353 2.25966e-26)
(0.0274018 0.0894126 0)
(0.0246862 0.105089 7.89082e-26)