/*--------------------------------*- C++ -*----------------------------------*\
  =========                 |
  \\      /  F ield         | OpenFOAM: The Open Source CFD Toolbox
   \\    /   O peration     | Website:  https://openfoam.org
    \\  /    A nd           | Version:  dev
     \\/     M anipulation  |
\*---------------------------------------------------------------------------*/
FoamFile
{
    version     2.0;
    format      ascii;
    class       volScalarField;
    location    "2500";
    object      a;
}
// * * * * * * * * * * * * * * * * * * * * * * * * * * * * * * * * * * * * * //

dimensions      [0 -1 0 0 0 0 0];

internalField   nonuniform List<scalar> 
10028
(
0.100011
0.100011
0.100011
0.100011
0.100011
0.100011
0.100011
0.100011
0.100011
0.100011
0.10001
0.100011
0.100011
0.100011
0.100011
0.10001
0.10001
0.100011
0.100011
0.100011
0.100011
0.10001
0.10001
0.10001
0.100011
0.100011
0.100011
0.100011
0.10001
0.10001
0.10001
0.10001
0.100011
0.100011
0.100011
0.100011
0.100009
0.10001
0.10001
0.10001
0.10001
0.100011
0.100011
0.100011
0.100011
0.100009
0.100009
0.10001
0.10001
0.10001
0.10001
0.100011
0.100011
0.100011
0.100011
0.100009
0.100009
0.100009
0.10001
0.10001
0.10001
0.10001
0.100011
0.100011
0.100011
0.100011
0.100009
0.100009
0.100009
0.100009
0.10001
0.10001
0.10001
0.10001
0.100011
0.100011
0.100011
0.100011
0.100009
0.100009
0.100009
0.100009
0.100009
0.10001
0.10001
0.10001
0.10001
0.100011
0.100011
0.100011
0.100011
0.100008
0.100009
0.100009
0.100009
0.100009
0.100009
0.10001
0.10001
0.10001
0.10001
0.100011
0.100011
0.100011
0.100011
0.100008
0.100008
0.100009
0.100009
0.100009
0.100009
0.100009
0.10001
0.10001
0.10001
0.10001
0.100011
0.100011
0.100011
0.100011
0.100008
0.100008
0.100008
0.100009
0.100009
0.100009
0.100009
0.100009
0.10001
0.10001
0.10001
0.10001
0.100011
0.100011
0.100011
0.100011
0.100008
0.100008
0.100008
0.100008
0.100009
0.100009
0.100009
0.100009
0.100009
0.10001
0.10001
0.10001
0.10001
0.100011
0.100011
0.100011
0.100011
0.100007
0.100008
0.100008
0.100008
0.100008
0.100008
0.100009
0.100009
0.100009
0.100009
0.10001
0.10001
0.10001
0.10001
0.100011
0.100011
0.100011
0.100011
0.100007
0.100007
0.100008
0.100008
0.100008
0.100008
0.100008
0.100009
0.100009
0.100009
0.100009
0.10001
0.10001
0.10001
0.10001
0.100011
0.100011
0.100011
0.100011
0.100007
0.100007
0.100007
0.100008
0.100008
0.100008
0.100008
0.100008
0.100009
0.100009
0.100009
0.100009
0.10001
0.10001
0.10001
0.10001
0.100011
0.100011
0.100011
0.100011
0.100007
0.100007
0.100007
0.100007
0.100008
0.100008
0.100008
0.100008
0.100008
0.100009
0.100009
0.100009
0.100009
0.10001
0.10001
0.10001
0.10001
0.100011
0.100011
0.100011
0.100011
0.100006
0.100007
0.100007
0.100007
0.100007
0.100008
0.100008
0.100008
0.100008
0.100008
0.100009
0.100009
0.100009
0.100009
0.10001
0.10001
0.10001
0.10001
0.100011
0.100011
0.100011
0.100011
0.100006
0.100006
0.100007
0.100007
0.100007
0.100007
0.100008
0.100008
0.100008
0.100008
0.100008
0.100009
0.100009
0.100009
0.100009
0.10001
0.10001
0.10001
0.10001
0.100011
0.100011
0.100011
0.100011
0.100006
0.100006
0.100006
0.100007
0.100007
0.100007
0.100007
0.100008
0.100008
0.100008
0.100008
0.100008
0.100009
0.100009
0.100009
0.100009
0.10001
0.10001
0.10001
0.10001
0.100011
0.100011
0.100011
0.100011
0.100006
0.100006
0.100006
0.100006
0.100007
0.100007
0.100007
0.100007
0.100008
0.100008
0.100008
0.100008
0.100008
0.100009
0.100009
0.100009
0.100009
0.10001
0.10001
0.10001
0.10001
0.100011
0.100011
0.100011
0.100011
0.100006
0.100006
0.100006
0.100006
0.100006
0.100007
0.100007
0.100007
0.100007
0.100008
0.100008
0.100008
0.100008
0.100008
0.100009
0.100009
0.100009
0.100009
0.10001
0.10001
0.10001
0.10001
0.100011
0.100011
0.100011
0.100011
0.100005
0.100006
0.100006
0.100006
0.100006
0.100006
0.100007
0.100007
0.100007
0.100007
0.100008
0.100008
0.100008
0.100008
0.100008
0.100009
0.100009
0.100009
0.100009
0.10001
0.10001
0.10001
0.10001
0.100011
0.100011
0.100011
0.100011
0.100005
0.100005
0.100006
0.100006
0.100006
0.100006
0.100006
0.100007
0.100007
0.100007
0.100007
0.100008
0.100008
0.100008
0.100008
0.100008
0.100009
0.100009
0.100009
0.100009
0.10001
0.10001
0.10001
0.10001
0.100011
0.100011
0.100011
0.100011
0.100005
0.100005
0.100005
0.100006
0.100006
0.100006
0.100006
0.100006
0.100007
0.100007
0.100007
0.100007
0.100008
0.100008
0.100008
0.100008
0.100008
0.100009
0.100009
0.100009
0.100009
0.10001
0.10001
0.10001
0.10001
0.100011
0.100011
0.100011
0.100011
0.100005
0.100005
0.100005
0.100005
0.100006
0.100006
0.100006
0.100006
0.100006
0.100007
0.100007
0.100007
0.100007
0.100008
0.100008
0.100008
0.100008
0.100008
0.100009
0.100009
0.100009
0.100009
0.10001
0.10001
0.10001
0.10001
0.100011
0.100011
0.100011
0.100011
0.100004
0.100005
0.100005
0.100005
0.100005
0.100006
0.100006
0.100006
0.100006
0.100006
0.100007
0.100007
0.100007
0.100007
0.100008
0.100008
0.100008
0.100008
0.100008
0.100009
0.100009
0.100009
0.100009
0.10001
0.10001
0.10001
0.10001
0.100011
0.100011
0.100011
0.100011
0.100004
0.100004
0.100005
0.100005
0.100005
0.100005
0.100006
0.100006
0.100006
0.100006
0.100006
0.100007
0.100007
0.100007
0.100007
0.100008
0.100008
0.100008
0.100008
0.100008
0.100009
0.100009
0.100009
0.100009
0.10001
0.10001
0.10001
0.10001
0.100011
0.100011
0.100011
0.100011
0.100004
0.100004
0.100004
0.100005
0.100005
0.100005
0.100005
0.100006
0.100006
0.100006
0.100006
0.100006
0.100007
0.100007
0.100007
0.100007
0.100008
0.100008
0.100008
0.100008
0.100008
0.100009
0.100009
0.100009
0.100009
0.10001
0.10001
0.10001
0.10001
0.100011
0.100011
0.100011
0.100011
0.100004
0.100004
0.100004
0.100004
0.100005
0.100005
0.100005
0.100005
0.100006
0.100006
0.100006
0.100006
0.100006
0.100007
0.100007
0.100007
0.100007
0.100008
0.100008
0.100008
0.100008
0.100008
0.100009
0.100009
0.100009
0.100009
0.10001
0.10001
0.10001
0.10001
0.100011
0.100011
0.100011
0.100011
0.100004
0.100004
0.100004
0.100004
0.100004
0.100005
0.100005
0.100005
0.100005
0.100006
0.100006
0.100006
0.100006
0.100006
0.100007
0.100007
0.100007
0.100007
0.100008
0.100008
0.100008
0.100008
0.100008
0.100009
0.100009
0.100009
0.10001
0.100011
0.100011
0.100011
0.100011
0.100011
0.100011
0.100011
0.100011
0.100011
0.100011
0.100011
0.100003
0.100004
0.100004
0.100004
0.100004
0.100004
0.100005
0.100005
0.100005
0.100005
0.100006
0.100006
0.100006
0.100006
0.100006
0.100007
0.100007
0.100007
0.100007
0.100008
0.100008
0.100008
0.100008
0.100009
0.100009
0.10001
0.100012
0.100017
0.100022
0.100024
0.10002
0.100015
0.100011
0.100011
0.100011
0.100011
0.100011
0.100011
0.100011
0.100003
0.100003
0.100004
0.100004
0.100004
0.100004
0.100004
0.100005
0.100005
0.100005
0.100005
0.100006
0.100006
0.100006
0.100006
0.100006
0.100007
0.100007
0.100007
0.100007
0.100008
0.100008
0.100008
0.100008
0.100009
0.100012
0.100022
0.100047
0.100092
0.10014
0.100137
0.100084
0.10002
0.100045
0.100014
0.100037
0.100035
0.100011
0.100013
0.100011
0.100011
0.100011
0.100011
0.100003
0.100003
0.100003
0.100004
0.100004
0.100004
0.100004
0.100004
0.100005
0.100005
0.100005
0.100005
0.100006
0.100006
0.100006
0.100006
0.100006
0.100007
0.100007
0.100007
0.100007
0.100008
0.100008
0.100008
0.100009
0.100018
0.100054
0.100167
0.100411
0.100787
0.101143
0.10094
0.100146
0.100565
0.100142
0.100028
0.100134
0.100111
0.100012
0.100022
0.100012
0.100011
0.100011
0.100011
0.100003
0.100003
0.100003
0.100003
0.100004
0.100004
0.100004
0.100004
0.100004
0.100005
0.100005
0.100005
0.100005
0.100006
0.100006
0.100006
0.100006
0.100007
0.100007
0.100007
0.100007
0.100008
0.100008
0.100008
0.100011
0.100033
0.100148
0.100546
0.101557
0.103417
0.10592
0.108102
0.101982
0.106731
0.100588
0.102308
0.100579
0.100084
0.100511
0.100411
0.100017
0.100057
0.100014
0.100011
0.100012
0.100012
0.100002
0.100003
0.100003
0.100003
0.100003
0.100004
0.100004
0.100004
0.100004
0.100004
0.100005
0.100005
0.100005
0.100005
0.100006
0.100006
0.100006
0.100007
0.100007
0.100008
0.100008
0.100008
0.100008
0.100008
0.100016
0.100069
0.100388
0.101564
0.104764
0.111292
0.121081
0.132111
0.118793
0.145403
0.108065
0.12325
0.102398
0.108924
0.102267
0.100293
0.101952
0.101514
0.100035
0.10018
0.100022
0.100011
0.100015
0.100012
0.100002
0.100002
0.100003
0.100003
0.100003
0.100003
0.100004
0.100004
0.100004
0.100004
0.100004
0.100005
0.100005
0.100005
0.100006
0.100007
0.100008
0.10001
0.10001
0.10001
0.10001
0.100009
0.100009
0.100009
0.100018
0.100139
0.100875
0.103934
0.111996
0.128386
0.153163
0.181913
0.172349
0.20727
0.153109
0.186321
0.126567
0.159929
0.108936
0.128085
0.108243
0.101027
0.106946
0.105262
0.100096
0.100597
0.100045
0.100011
0.100022
0.100014
0.100002
0.100002
0.100002
0.100003
0.100003
0.100003
0.100003
0.100004
0.100004
0.100004
0.100004
0.100004
0.100005
0.100006
0.100007
0.100011
0.100018
0.100025
0.100025
0.100023
0.10002
0.100016
0.100013
0.100012
0.100019
0.100217
0.101646
0.107584
0.12403
0.153338
0.19177
0.232955
0.233349
0.264617
0.219543
0.250619
0.195903
0.231475
0.164929
0.203697
0.127374
0.167281
0.125178
0.103442
0.121401
0.116156
0.100287
0.1019
0.100114
0.100011
0.100039
0.100016
0.100002
0.100002
0.100002
0.100002
0.100003
0.100003
0.100003
0.100003
0.100004
0.100004
0.100004
0.100004
0.100005
0.100007
0.100012
0.100023
0.100044
0.100061
0.100072
0.100072
0.100059
0.100042
0.100029
0.100021
0.100023
0.100232
0.10255
0.112096
0.138017
0.180242
0.231231
0.279089
0.285742
0.307961
0.279272
0.302523
0.26402
0.292995
0.241748
0.276107
0.209636
0.249857
0.165966
0.212556
0.161329
0.110462
0.152816
0.139948
0.100881
0.105717
0.100315
0.100012
0.100085
0.100021
0.100002
0.100002
0.100002
0.100002
0.100002
0.100003
0.100003
0.100003
0.100003
0.100004
0.100004
0.100005
0.100007
0.100013
0.100029
0.100064
0.100124
0.100184
0.100214
0.100205
0.100172
0.100127
0.100083
0.100055
0.100039
0.100206
0.102878
0.117232
0.151535
0.207872
0.267039
0.305709
0.316144
0.321975
0.315723
0.323065
0.311482
0.321668
0.302707
0.317906
0.285897
0.309365
0.255839
0.292748
0.211801
0.258994
0.207253
0.127258
0.198404
0.182483
0.102564
0.115682
0.100889
0.100012
0.100202
0.100034
0.100002
0.100003
0.100002
0.100002
0.100002
0.100002
0.100003
0.100003
0.100003
0.100003
0.100004
0.100005
0.10001
0.100028
0.100077
0.100189
0.100371
0.100564
0.100658
0.100637
0.100529
0.100383
0.100255
0.100164
0.100093
0.100167
0.102714
0.119731
0.164693
0.229751
0.287714
0.315286
0.323458
0.322875
0.325492
0.32564
0.325585
0.326692
0.324548
0.327005
0.321604
0.326212
0.314188
0.324021
0.297003
0.317258
0.258438
0.298592
0.254115
0.160762
0.245105
0.230479
0.107066
0.136388
0.102412
0.100012
0.100514
0.100077
0.100004
0.100005
0.100003
0.100002
0.100002
0.100002
0.100002
0.100003
0.100003
0.100003
0.100004
0.100007
0.10002
0.100066
0.100204
0.100531
0.101085
0.10168
0.102038
0.102044
0.101725
0.101272
0.100845
0.100519
0.10026
0.10019
0.102151
0.119505
0.171989
0.246119
0.29543
0.313137
0.321018
0.31705
0.323873
0.3189
0.32534
0.321021
0.326394
0.322965
0.327071
0.325056
0.327322
0.326952
0.325698
0.328094
0.318861
0.326832
0.297395
0.319249
0.293455
0.207145
0.285755
0.272711
0.118019
0.174799
0.106354
0.100014
0.101428
0.100203
0.10001
0.100013
0.100005
0.100002
0.100002
0.100002
0.100002
0.100002
0.100003
0.100003
0.100004
0.100011
0.10004
0.100151
0.100503
0.101369
0.102879
0.104577
0.105741
0.106042
0.105389
0.104115
0.102701
0.101512
0.100719
0.100332
0.101417
0.118137
0.172
0.254417
0.296037
0.307316
0.295399
0.310633
0.296396
0.312407
0.302081
0.315483
0.306621
0.319439
0.312336
0.323951
0.318602
0.327405
0.324366
0.328901
0.3285
0.327737
0.330195
0.318343
0.32826
0.316019
0.251923
0.311411
0.302747
0.140112
0.221723
0.116157
0.100063
0.104148
0.100975
0.100041
0.100034
0.100012
0.100004
0.100002
0.100002
0.100002
0.100002
0.100002
0.100003
0.100005
0.100016
0.100077
0.100324
0.101121
0.103125
0.106666
0.11074
0.114205
0.115865
0.114953
0.111827
0.107692
0.104218
0.101968
0.100761
0.101135
0.114278
0.169776
0.254164
0.295047
0.29828
0.270603
0.270245
0.25009
0.291258
0.279948
0.298615
0.290854
0.305956
0.300037
0.313684
0.308736
0.320821
0.317548
0.326695
0.325327
0.330347
0.331036
0.331595
0.333376
0.32829
0.332844
0.327502
0.287315
0.325404
0.320549
0.179428
0.262443
0.136779
0.102857
0.113014
0.109342
0.100208
0.100084
0.100032
0.10001
0.100003
0.100002
0.100002
0.100002
0.100002
0.100003
0.100005
0.100023
0.100124
0.100579
0.102117
0.105974
0.112738
0.120712
0.12746
0.130744
0.130042
0.125757
0.119044
0.111161
0.105041
0.101895
0.10119
0.109237
0.16398
0.251441
0.293893
0.291263
0.246785
0.232873
0.210373
0.260137
0.237192
0.282986
0.273669
0.294244
0.288584
0.30445
0.301151
0.315326
0.314957
0.32629
0.328952
0.334022
0.340511
0.337442
0.346217
0.336816
0.345154
0.333917
0.340172
0.33441
0.310794
0.333952
0.331528
0.224653
0.293463
0.174333
0.108598
0.14483
0.138275
0.100962
0.100338
0.100102
0.10003
0.100008
0.100003
0.100002
0.100002
0.100002
0.100002
0.100006
0.100029
0.100171
0.100858
0.103318
0.109574
0.120393
0.133019
0.143484
0.149021
0.148919
0.143789
0.135018
0.124276
0.112561
0.104663
0.101798
0.106015
0.152454
0.244465
0.293068
0.289334
0.23469
0.196878
0.188844
0.210489
0.187224
0.258845
0.228435
0.28258
0.274316
0.299441
0.2984
0.316034
0.318643
0.333988
0.340272
0.350196
0.361288
0.359979
0.377159
0.36063
0.382527
0.352816
0.375414
0.342789
0.359249
0.344192
0.325946
0.344027
0.34205
0.265551
0.316619
0.236181
0.168894
0.221545
0.235805
0.101423
0.100395
0.1001
0.100025
0.100006
0.100002
0.100002
0.100002
0.100002
0.100006
0.100032
0.100205
0.101096
0.104442
0.113171
0.12819
0.145906
0.161054
0.169852
0.170787
0.164925
0.154365
0.140994
0.12539
0.11142
0.103625
0.105005
0.139279
0.231643
0.291958
0.289939
0.236044
0.181866
0.173321
0.166238
0.19356
0.16645
0.26532
0.221243
0.296094
0.288238
0.32304
0.325958
0.347026
0.354091
0.372591
0.382176
0.392319
0.402897
0.401463
0.411031
0.401368
0.413667
0.387146
0.412076
0.363633
0.395235
0.365186
0.338478
0.363564
0.359423
0.303417
0.33338
0.29123
0.185039
0.291497
0.294709
0.101713
0.100389
0.100084
0.100017
0.100004
0.100002
0.100002
0.100002
0.100006
0.100033
0.100218
0.101227
0.105248
0.116045
0.134957
0.157838
0.178515
0.191811
0.195014
0.188835
0.176236
0.159959
0.14093
0.12328
0.108221
0.105149
0.127836
0.215471
0.289562
0.292626
0.24362
0.201348
0.160107
0.175244
0.154678
0.154907
0.176737
0.148278
0.268389
0.209619
0.324145
0.310116
0.360798
0.362027
0.389511
0.394406
0.409026
0.41234
0.415213
0.417402
0.417136
0.417078
0.419004
0.417023
0.418054
0.421187
0.399593
0.422241
0.399583
0.354004
0.395974
0.388643
0.326828
0.347462
0.321411
0.258756
0.321658
0.322414
0.101756
0.100327
0.100059
0.10001
0.100002
0.100002
0.100002
0.100005
0.100031
0.100214
0.101255
0.105564
0.117723
0.139681
0.16727
0.193817
0.213067
0.220033
0.21367
0.199058
0.180158
0.158704
0.137743
0.117904
0.10654
0.119762
0.196751
0.28332
0.297052
0.258708
0.225944
0.195668
0.155493
0.170518
0.140695
0.143883
0.158457
0.132465
0.259703
0.19035
0.351822
0.318778
0.393485
0.384667
0.413167
0.411102
0.418587
0.418379
0.414945
0.412058
0.408621
0.396162
0.410481
0.387667
0.421586
0.398895
0.424857
0.422545
0.426434
0.378644
0.427044
0.424996
0.40434
0.340374
0.355
0.371714
0.335018
0.218439
0.333143
0.322627
0.101543
0.100234
0.100036
0.100006
0.100002
0.100002
0.100005
0.100026
0.100187
0.10119
0.105508
0.1181
0.141821
0.172982
0.20491
0.230729
0.241408
0.23531
0.220101
0.199974
0.177129
0.153434
0.129896
0.110845
0.116319
0.17763
0.272111
0.299696
0.273203
0.247857
0.225148
0.18029
0.199308
0.149835
0.165582
0.129067
0.13566
0.139502
0.119736
0.238974
0.165931
0.360348
0.311145
0.404526
0.387312
0.416538
0.411406
0.408823
0.405347
0.385085
0.377214
0.363455
0.344493
0.363562
0.328776
0.390501
0.34295
0.424717
0.3844
0.406958
0.432077
0.427298
0.422936
0.393165
0.416601
0.4346
0.433772
0.43063
0.435463
0.34603
0.359271
0.365897
0.386382
0.35393
0.339212
0.348211
0.20644
0.334081
0.339657
0.344173
0.335582
0.311271
0.32872
0.101171
0.100148
0.10002
0.100004
0.100002
0.100004
0.100022
0.100145
0.100973
0.105043
0.117549
0.141677
0.174559
0.210391
0.242031
0.255759
0.251556
0.237501
0.217239
0.193861
0.168831
0.142533
0.118954
0.116302
0.161337
0.258164
0.299642
0.285197
0.266076
0.250729
0.219638
0.170461
0.185928
0.140393
0.154851
0.119352
0.127862
0.122825
0.110541
0.207206
0.140031
0.349807
0.2861
0.397907
0.368763
0.399805
0.388539
0.371793
0.366496
0.33192
0.323946
0.303364
0.287385
0.329018
0.308018
0.294931
0.282451
0.36216
0.33633
0.297782
0.294342
0.315063
0.385102
0.411941
0.387865
0.361016
0.416339
0.434546
0.41038
0.432093
0.437073
0.426937
0.421436
0.439039
0.371176
0.378933
0.403128
0.363711
0.35656
0.265535
0.312468
0.343788
0.350092
0.337455
0.330878
0.100812
0.100086
0.100011
0.100003
0.100003
0.100018
0.100109
0.100731
0.104022
0.11542
0.139288
0.172845
0.210574
0.246028
0.262946
0.262533
0.251071
0.230617
0.207245
0.182471
0.15539
0.128662
0.117792
0.149384
0.242218
0.297788
0.294104
0.280504
0.271629
0.248714
0.183283
0.202552
0.153459
0.16826
0.127837
0.139681
0.111284
0.118289
0.110729
0.105109
0.16859
0.119474
0.317259
0.245424
0.365893
0.326227
0.357996
0.341317
0.317771
0.310365
0.277351
0.269023
0.275307
0.268696
0.265505
0.261505
0.28543
0.275009
0.268153
0.335974
0.312416
0.280819
0.279571
0.293596
0.36287
0.393333
0.366572
0.336899
0.399034
0.43991
0.427668
0.440467
0.432533
0.405832
0.413633
0.437745
0.394689
0.385534
0.421191
0.376356
0.36721
0.327877
0.317691
0.249796
0.310278
0.358137
0.349464
0.341126
0.334579
0.10051
0.100048
0.100006
0.100003
0.100011
0.100084
0.100523
0.103013
0.112611
0.134362
0.166358
0.205289
0.24456
0.264276
0.267891
0.260806
0.240672
0.216344
0.192576
0.166797
0.139272
0.121865
0.143119
0.226015
0.292039
0.299084
0.291322
0.287774
0.271423
0.216444
0.233973
0.161007
0.176216
0.133685
0.146643
0.114592
0.12298
0.105201
0.108678
0.104724
0.102549
0.133345
0.108039
0.26713
0.195309
0.31155
0.266299
0.298347
0.277279
0.259901
0.248333
0.25869
0.25446
0.250717
0.244998
0.264518
0.261918
0.260072
0.257963
0.271961
0.266989
0.264557
0.31299
0.293822
0.271924
0.273964
0.280668
0.339824
0.372239
0.344648
0.31533
0.379133
0.441674
0.439763
0.444586
0.422112
0.387521
0.397224
0.430875
0.412235
0.402531
0.437332
0.391697
0.380308
0.338409
0.331299
0.157823
0.283447
0.368509
0.357117
0.346774
0.100306
0.100026
0.100005
0.100008
0.100062
0.100357
0.102136
0.109734
0.129
0.158084
0.19242
0.23394
0.262148
0.268531
0.26646
0.249296
0.222758
0.198152
0.174538
0.148642
0.1279
0.142158
0.212458
0.283148
0.300195
0.298636
0.29935
0.288575
0.244936
0.19174
0.207688
0.135301
0.148293
0.115276
0.123951
0.105716
0.1093
0.102482
0.10358
0.102254
0.101376
0.113408
0.103505
0.207469
0.146286
0.244415
0.200949
0.233011
0.211594
0.239743
0.231978
0.224884
0.214673
0.255541
0.252143
0.247934
0.242331
0.263838
0.263919
0.264283
0.26433
0.268636
0.268406
0.269759
0.29593
0.28301
0.272501
0.277032
0.277528
0.319552
0.351345
0.325649
0.29969
0.359607
0.438874
0.446579
0.446149
0.408291
0.369616
0.381274
0.420603
0.430723
0.420825
0.447511
0.408982
0.395452
0.354639
0.343143
0.328307
0.146498
0.280684
0.381163
0.367077
0.100182
0.100015
0.100007
0.100037
0.100253
0.101411
0.107106
0.123285
0.15015
0.179793
0.213729
0.252167
0.266558
0.267736
0.256838
0.230238
0.201809
0.177904
0.154555
0.135442
0.142815
0.202012
0.273534
0.299654
0.302655
0.3068
0.300579
0.265674
0.192442
0.206599
0.162483
0.176994
0.113677
0.121472
0.105463
0.108685
0.102159
0.103404
0.101248
0.101483
0.101321
0.10085
0.105716
0.102049
0.152144
0.118071
0.183162
0.151677
0.197035
0.175538
0.235753
0.22783
0.219337
0.210019
0.263415
0.261009
0.25686
0.250803
0.272922
0.276679
0.279928
0.282223
0.273732
0.278109
0.284331
0.286714
0.282159
0.280544
0.287204
0.282337
0.305098
0.333541
0.31224
0.291571
0.343232
0.433229
0.451102
0.444915
0.39492
0.35505
0.36896
0.410281
0.445992
0.439162
0.454558
0.426771
0.412102
0.378665
0.363238
0.347927
0.327674
0.218453
0.299317
0.395513
0.100112
0.100012
0.100022
0.100187
0.100916
0.104904
0.117772
0.141897
0.167529
0.192939
0.226871
0.258048
0.266338
0.260973
0.24068
0.208163
0.181021
0.158189
0.143296
0.145167
0.195528
0.264544
0.297345
0.303969
0.310759
0.308128
0.279886
0.209351
0.158152
0.172914
0.131941
0.144467
0.104637
0.107303
0.101779
0.102878
0.100783
0.101125
0.100716
0.100669
0.101008
0.100656
0.10348
0.101649
0.123051
0.108721
0.15289
0.131885
0.200284
0.187582
0.163109
0.17537
0.242962
0.233578
0.223115
0.211908
0.282516
0.280949
0.276666
0.269536
0.291083
0.297789
0.303454
0.307396
0.28722
0.295855
0.305511
0.287092
0.28736
0.295977
0.303863
0.293093
0.297714
0.321254
0.305556
0.292426
0.332612
0.426713
0.454451
0.443363
0.385211
0.346463
0.362906
0.403614
0.456567
0.454803
0.460692
0.444783
0.428886
0.410082
0.389995
0.371034
0.349963
0.330593
0.26975
0.315262
0.100074
0.100021
0.100116
0.100631
0.103177
0.112837
0.133565
0.156828
0.175023
0.199181
0.233374
0.259005
0.26097
0.250133
0.221537
0.186837
0.163122
0.149904
0.151017
0.194109
0.256991
0.292669
0.303821
0.311981
0.312265
0.288902
0.226298
0.144056
0.150058
0.124103
0.133674
0.111191
0.116639
0.101386
0.102234
0.100525
0.100846
0.100333
0.100365
0.100532
0.10041
0.100955
0.100651
0.102911
0.101601
0.114779
0.106244
0.151828
0.141022
0.126543
0.207159
0.192748
0.165469
0.178796
0.260001
0.248391
0.23536
0.221456
0.30832
0.307175
0.301987
0.292999
0.315091
0.323861
0.330908
0.335512
0.307034
0.318907
0.330822
0.292226
0.297908
0.31693
0.324495
0.30932
0.298421
0.316151
0.306363
0.297134
0.329265
0.423629
0.457035
0.44362
0.382083
0.345366
0.364117
0.403279
0.46504
0.466621
0.466454
0.46067
0.444098
0.423283
0.400067
0.376008
0.351835
0.332446
0.218929
0.303953
0.10006
0.100069
0.1004
0.101953
0.108824
0.125632
0.147879
0.161926
0.177065
0.201469
0.236569
0.256342
0.25323
0.237902
0.203514
0.173017
0.156784
0.157896
0.19467
0.250048
0.28728
0.302559
0.311815
0.313777
0.294765
0.236912
0.145478
0.116951
0.124835
0.108171
0.11187
0.103536
0.105451
0.10037
0.100606
0.100157
0.100227
0.100227
0.100157
0.100516
0.100386
0.10112
0.100912
0.102925
0.101872
0.112879
0.105661
0.153091
0.141779
0.13301
0.123084
0.217594
0.201131
0.170528
0.185375
0.281179
0.266851
0.25098
0.234348
0.336435
0.334811
0.327787
0.316281
0.341831
0.351542
0.359144
0.363715
0.331194
0.34516
0.35801
0.301374
0.311869
0.341053
0.346219
0.327466
0.30352
0.317523
0.311894
0.305139
0.331665
0.425204
0.460134
0.446249
0.384739
0.34911
0.369509
0.406811
0.472845
0.476712
0.472983
0.473804
0.457365
0.434371
0.407902
0.380065
0.354725
0.332629
0.167989
0.288694
0.100082
0.100267
0.101164
0.105757
0.118773
0.139411
0.15291
0.162441
0.175703
0.20156
0.238087
0.251038
0.246594
0.228039
0.196484
0.16945
0.165363
0.196825
0.244994
0.280986
0.299085
0.310421
0.313663
0.297813
0.245819
0.153529
0.10945
0.111777
0.10515
0.107217
0.102386
0.10356
0.100981
0.101551
0.100092
0.100146
0.100078
0.100068
0.100286
0.100124
0.100737
0.100517
0.101596
0.101515
0.103698
0.103559
0.116107
0.109828
0.10591
0.156766
0.144177
0.13334
0.123387
0.226026
0.207569
0.173932
0.19015
0.301309
0.283631
0.264571
0.24516
0.364126
0.361496
0.351743
0.337214
0.369948
0.380134
0.387636
0.391174
0.357823
0.37293
0.386429
0.314143
0.328488
0.365917
0.369507
0.347676
0.311883
0.323436
0.321833
0.31766
0.338881
0.42951
0.465599
0.452455
0.391754
0.358865
0.381092
0.415048
0.481034
0.485908
0.480693
0.484034
0.46811
0.44319
0.413856
0.383337
0.355864
0.329433
0.223148
0.299628
0.100207
0.100818
0.10358
0.113081
0.131045
0.146149
0.153264
0.158676
0.170873
0.200579
0.237867
0.246447
0.242636
0.224385
0.195419
0.178722
0.201759
0.244093
0.274907
0.294223
0.306823
0.312001
0.298401
0.251364
0.162931
0.111046
0.102965
0.104409
0.101385
0.102036
0.100606
0.100927
0.100238
0.100385
0.10003
0.100036
0.100081
0.100041
0.100549
0.100236
0.101292
0.100819
0.103994
0.104268
0.105524
0.105784
0.108501
0.115661
0.109986
0.105709
0.107162
0.158984
0.145335
0.131921
0.122332
0.229006
0.208962
0.173591
0.190508
0.317919
0.295937
0.273001
0.250443
0.390975
0.385626
0.374054
0.356006
0.398608
0.408325
0.4148
0.416578
0.385097
0.401534
0.415051
0.330036
0.347713
0.391693
0.394133
0.369927
0.324877
0.335642
0.33626
0.333822
0.353932
0.439282
0.473892
0.463224
0.404338
0.374635
0.397047
0.428714
0.489388
0.49412
0.489197
0.492282
0.476505
0.449696
0.418174
0.38619
0.354016
0.326568
0.172706
0.294458
0.100544
0.10211
0.108743
0.123345
0.140053
0.14728
0.149411
0.1512
0.166007
0.200412
0.236674
0.244299
0.241327
0.224111
0.204656
0.211424
0.24503
0.271501
0.289671
0.302646
0.308075
0.296908
0.253322
0.168347
0.113149
0.101225
0.100804
0.101127
0.100327
0.100511
0.100133
0.100209
0.100054
0.100085
0.100022
0.100015
0.100215
0.100057
0.10099
0.100503
0.103887
0.10236
0.11138
0.112463
0.107339
0.107828
0.115637
0.119268
0.115183
0.110235
0.107318
0.108137
0.158054
0.143947
0.128525
0.120133
0.226296
0.205053
0.168759
0.185956
0.331897
0.304151
0.27616
0.249918
0.415161
0.407513
0.393291
0.372112
0.426378
0.434815
0.439289
0.439576
0.412438
0.429337
0.44233
0.349119
0.369753
0.417763
0.419696
0.394138
0.341754
0.353297
0.356243
0.353877
0.372813
0.453177
0.483793
0.475549
0.421634
0.394503
0.419381
0.446634
0.497286
0.501436
0.497345
0.498988
0.482729
0.454353
0.420656
0.386196
0.351321
0.324844
0.138997
0.289153
0.101337
0.10566
0.116871
0.133208
0.142941
0.144786
0.141861
0.14378
0.162313
0.201115
0.236134
0.243704
0.241576
0.23189
0.231326
0.248811
0.271191
0.286874
0.298733
0.303242
0.29243
0.25158
0.170316
0.114213
0.101605
0.1001
0.100345
0.100133
0.100187
0.100068
0.10011
0.100029
0.100044
0.100016
0.10002
0.100037
0.100013
0.100469
0.100169
0.103379
0.101169
0.111895
0.107913
0.128554
0.132801
0.111714
0.113473
0.124901
0.127251
0.114206
0.1104
0.11093
0.110775
0.153234
0.139589
0.124556
0.118227
0.218723
0.196317
0.160217
0.176904
0.34403
0.311301
0.276866
0.245218
0.435351
0.425241
0.408445
0.384825
0.451696
0.457898
0.459503
0.458328
0.438766
0.454978
0.466623
0.37183
0.39474
0.443397
0.445884
0.420392
0.364653
0.373356
0.378562
0.379399
0.39434
0.468083
0.493161
0.486637
0.444765
0.419567
0.445293
0.464321
0.504625
0.507571
0.505117
0.504369
0.487274
0.45729
0.421891
0.384786
0.349721
0.323008
0.208428
0.297973
0.103208
0.111979
0.12628
0.138875
0.142254
0.138607
0.133959
0.137634
0.159615
0.201826
0.235866
0.243902
0.246296
0.249375
0.258955
0.27255
0.285255
0.295172
0.297433
0.285377
0.245039
0.167762
0.114156
0.101686
0.100119
0.10006
0.100019
0.10003
0.100036
0.100016
0.100023
0.10001
0.100012
0.10001
0.100009
0.100103
0.100018
0.101071
0.100384
0.111134
0.103848
0.13208
0.123361
0.14932
0.155782
0.174241
0.119335
0.121983
0.141571
0.145949
0.114147
0.111535
0.1169
0.115888
0.145608
0.133527
0.122815
0.11849
0.209632
0.185539
0.150588
0.166158
0.353801
0.31725
0.278097
0.240934
0.45145
0.438455
0.419079
0.393497
0.473466
0.476018
0.475821
0.471142
0.46319
0.477462
0.486488
0.39927
0.42303
0.468048
0.471756
0.448152
0.389175
0.397777
0.407002
0.405433
0.423505
0.481187
0.502356
0.497618
0.464128
0.448067
0.467674
0.479923
0.510851
0.512732
0.511602
0.508672
0.49033
0.45879
0.421135
0.382588
0.346856
0.323792
0.149942
0.298202
0.107198
0.120439
0.134039
0.140159
0.13818
0.131829
0.126938
0.13236
0.158028
0.201594
0.235098
0.246426
0.254876
0.263859
0.273073
0.282998
0.290728
0.29003
0.275226
0.233103
0.160726
0.112641
0.101581
0.100135
0.100012
0.100014
0.100013
0.100007
0.100009
0.10001
0.100008
0.100008
0.100007
0.100007
0.100009
0.100008
0.100247
0.100037
0.103349
0.100715
0.132369
0.111888
0.173261
0.157385
0.175579
0.176883
0.219313
0.224674
0.132266
0.136724
0.165428
0.171508
0.116066
0.115489
0.12795
0.125051
0.138168
0.128968
0.124452
0.122306
0.20471
0.178864
0.14549
0.159636
0.360784
0.322119
0.280013
0.239428
0.461498
0.446646
0.426203
0.400005
0.489237
0.489431
0.48619
0.478941
0.485257
0.495877
0.49948
0.427169
0.452497
0.491168
0.501714
0.478557
0.422238
0.43337
0.447852
0.443736
0.455856
0.493592
0.509274
0.503793
0.48105
0.473284
0.483138
0.489581
0.516147
0.517246
0.51707
0.512065
0.492537
0.458516
0.419295
0.379064
0.345687
0.325494
0.153603
0.301392
0.113793
0.128972
0.138074
0.138414
0.132207
0.124905
0.120455
0.128537
0.156456
0.198038
0.233271
0.250018
0.261271
0.270614
0.278517
0.283134
0.278687
0.259996
0.21437
0.149688
0.110089
0.101286
0.100119
0.100012
0.100006
0.100007
0.100007
0.100006
0.100006
0.100006
0.100006
0.100006
0.100007
0.100007
0.10001
0.100007
0.100432
0.10009
0.109509
0.102094
0.175179
0.131964
0.239426
0.216359
0.213824
0.217922
0.263547
0.260942
0.151815
0.15846
0.198189
0.206511
0.122003
0.122641
0.145166
0.139702
0.135708
0.12873
0.130191
0.130111
0.202614
0.176048
0.145547
0.157833
0.366737
0.327296
0.283337
0.240013
0.467976
0.453122
0.433218
0.407126
0.500154
0.498003
0.49264
0.484586
0.503577
0.508731
0.510782
0.469338
0.49484
0.514599
0.521698
0.514764
0.468337
0.469785
0.486973
0.488523
0.481959
0.49705
0.515078
0.510509
0.489762
0.487882
0.490507
0.495965
0.521215
0.521149
0.522799
0.514546
0.49285
0.457618
0.416397
0.376506
0.345739
0.330561
0.89923
0.324919
0.122491
0.135416
0.138523
0.134357
0.125793
0.118158
0.114845
0.125728
0.152944
0.190082
0.226179
0.248025
0.260365
0.267448
0.268765
0.259541
0.235827
0.188673
0.136071
0.107101
0.100935
0.100093
0.100011
0.100006
0.100006
0.100006
0.100006
0.100006
0.100006
0.100006
0.100006
0.100006
0.100007
0.100007
0.100014
0.100008
0.100912
0.100225
0.12362
0.105256
0.237797
0.171178
0.306947
0.299302
0.293429
0.256882
0.26189
0.31381
0.313616
0.179893
0.189153
0.239601
0.249012
0.131346
0.135036
0.170514
0.1619
0.137439
0.132396
0.140803
0.142607
0.203487
0.175638
0.149188
0.158896
0.374386
0.334798
0.289587
0.243866
0.473727
0.459979
0.442756
0.418807
0.510465
0.507106
0.50156
0.494909
0.519429
0.52102
0.521148
0.507148
0.518024
0.525311
0.529823
0.525065
0.497779
0.490713
0.499633
0.509412
0.49119
0.504823
0.521639
0.51588