/*--------------------------------*- C++ -*----------------------------------*\
  =========                 |
  \\      /  F ield         | OpenFOAM: The Open Source CFD Toolbox
   \\    /   O peration     | Website:  https://openfoam.org
    \\  /    A nd           | Version:  dev
     \\/     M anipulation  |
\*---------------------------------------------------------------------------*/
FoamFile
{
    version     2.0;
    format      ascii;
    class       volScalarField;
    location    "2500";
    object      alphat;
}
// * * * * * * * * * * * * * * * * * * * * * * * * * * * * * * * * * * * * * //

dimensions      [1 -1 -1 0 0 0 0];

internalField   nonuniform List<scalar> 
10028
(
0.000154543
0.000158326
0.000149252
0.000143981
0.000187829
0.000131963
0.000131043
0.000198728
0.000176292
0.000125381
0.000126665
0.000192077
0.000200386
0.000150196
0.000123306
0.000122941
0.000173931
0.000216623
0.000184456
0.000136686
0.000121788
0.000120986
0.000153136
0.000217193
0.000210373
0.000156782
0.00013114
0.000120659
0.000120074
0.000142821
0.000210076
0.000224429
0.000186161
0.000141461
0.000127888
0.000119909
0.000119809
0.000134322
0.000191257
0.000234229
0.000213309
0.000159323
0.000134378
0.000125642
0.000119324
0.000119649
0.000129074
0.000166748
0.000232625
0.000231073
0.000183883
0.000143677
0.000130542
0.000124038
0.000118887
0.000119506
0.000125814
0.000152799
0.000223356
0.000242068
0.000212456
0.000158985
0.000135901
0.0001281
0.000122717
0.000118534
0.000119239
0.000123818
0.000141985
0.000201614
0.000248742
0.000233639
0.000180733
0.000144273
0.000131582
0.000126057
0.000121558
0.000118279
0.000118795
0.000122719
0.000134954
0.000175868
0.000245588
0.000247333
0.000206768
0.000157902
0.000136484
0.000129029
0.000124316
0.000120674
0.000118073
0.000118414
0.000122124
0.000130589
0.000160341
0.000234696
0.000256876
0.000233081
0.000176626
0.000144097
0.000132228
0.000126903
0.000122905
0.000119984
0.00011789
0.000118137
0.000121696
0.000127924
0.000148727
0.000211279
0.000262272
0.000250394
0.000200006
0.00015605
0.000136518
0.000129759
0.000125121
0.000121816
0.000119393
0.000117772
0.000117934
0.000121338
0.000126185
0.000140691
0.000185904
0.000258494
0.000262063
0.000226013
0.000171886
0.000143501
0.000132257
0.000127425
0.000123637
0.000120872
0.000118878
0.000117575
0.000117792
0.000121033
0.000124964
0.000135602
0.000167584
0.00024748
0.000271135
0.00024978
0.000192588
0.000153226
0.000136267
0.000129769
0.000125548
0.000122425
0.000120037
0.000118457
0.000117453
0.000117699
0.000120734
0.000124045
0.000132156
0.000156195
0.00022458
0.000276811
0.000265478
0.000217467
0.000167017
0.000141896
0.000132082
0.000127536
0.000124032
0.000121399
0.000119455
0.000118057
0.000117356
0.000117631
0.000120476
0.000123407
0.000129812
0.00014738
0.000199244
0.000272939
0.000276975
0.000242385
0.000184946
0.000150626
0.000135307
0.000129486
0.00012565
0.000122857
0.000120588
0.000118899
0.000117727
0.000117272
0.000117599
0.000120231
0.000122883
0.000128175
0.000141401
0.000177241
0.000263271
0.000285257
0.00026519
0.000206988
0.000161652
0.000140588
0.000131459
0.000127279
0.000124057
0.00012189
0.000119916
0.00011835
0.00011746
0.000117206
0.000117594
0.000120023
0.000122431
0.00012698
0.000137367
0.000166092
0.000244037
0.000291544
0.000279654
0.000231543
0.000177446
0.000147469
0.00013451
0.000128886
0.000125427
0.000122954
0.000121041
0.000119245
0.000117871
0.000117245
0.000117161
0.000117594
0.000119853
0.000122064
0.000126065
0.000134577
0.000156999
0.000218338
0.000290101
0.000291034
0.000256032
0.000196217
0.000157172
0.000138967
0.000130832
0.000126843
0.000123739
0.000122019
0.000120214
0.000118555
0.000117466
0.000117081
0.000117139
0.00011761
0.000119705
0.000121763
0.000125521
0.000132598
0.00015023
0.000195698
0.000283653
0.000299068
0.000278352
0.000218793
0.000169683
0.000144927
0.000133768
0.000128389
0.000125132
0.000122536
0.000121166
0.000119416
0.000117968
0.000117162
0.00011696
0.000117118
0.000117669
0.000119575
0.00012153
0.00012511
0.000131181
0.000145445
0.000179817
0.000269105
0.000306575
0.000292946
0.000241492
0.000186078
0.000152683
0.000137741
0.000130439
0.000126539
0.000123799
0.000121757
0.000120419
0.000118687
0.000117512
0.00011696
0.000116913
0.0001171
0.000117765
0.000119476
0.000121362
0.000124814
0.000130172
0.000141995
0.000171266
0.000248755
0.000310071
0.000304639
0.000266672
0.000204914
0.000162917
0.000142669
0.000133276
0.000128193
0.000125139
0.000122781
0.00012113
0.000119739
0.000118065
0.00011712
0.000116871
0.000116964
0.000117125
0.000117834
0.000119418
0.000121308
0.000124687
0.000129456
0.000139549
0.00016436
0.000226802
0.000306184
0.000313047
0.000288253
0.000226801
0.000176105
0.000148802
0.00013681
0.000130446
0.000126583
0.000124092
0.000122152
0.000120575
0.000119134
0.00011763
0.000116889
0.00011699
0.000117035
0.000117153
0.000117856
0.000119354
0.000121472
0.000124828
0.000129071
0.000137879
0.000158893
0.000208329
0.000299442
0.000321046
0.000305089
0.000248881
0.000192247
0.000157013
0.000140829
0.000133181
0.000128568
0.000125484
0.000123429
0.000121798
0.000120246
0.000118716
0.000117378
0.000116839
0.000117245
0.000117239
0.000117156
0.000117915
0.0001193
0.000121556
0.000125269
0.000129057
0.00013687
0.000155068
0.000193734
0.000287434
0.000327265
0.000316826
0.00027239
0.000210699
0.000167441
0.000145721
0.000136264
0.000130912
0.000127378
0.000124836
0.000123129
0.00012148
0.000119913
0.000118569
0.000117578
0.000117192
0.0001176
0.00011755
0.000117222
0.000118017
0.000119435
0.000121398
0.000125571
0.000129544
0.000136596
0.000152729
0.00018548
0.000274147
0.000330523
0.000326594
0.000293994
0.00023046
0.000180197
0.000152011
0.000139602
0.000133561
0.000129552
0.000126787
0.000124671
0.000122947
0.000121315
0.000119739
0.000118628
0.000118074
0.000118013
0.000118383
0.000118307
0.000117566
0.000118016
0.00011972
0.000121807
0.000125062
0.000130348
0.000137097
0.000151848
0.000181233
0.000260695
0.000330181
0.000334023
0.000312264
0.000251227
0.000195027
0.000159938
0.000143427
0.000136323
0.000132072
0.000129217
0.000126684
0.000124712
0.00012315
0.000121526
0.000120031
0.000119406
0.000119264
0.00011933
0.000119193
0.000118618
0.000117743
0.000117973
0.000119966
0.000122905
0.000124796
0.000130987
0.000138731
0.000152258
0.000179639
0.000250933
0.000327651
0.000340681
0.000326555
0.000271264
0.000211645
0.000169466
0.000147976
0.000139139
0.000134707
0.000131927
0.000129368
0.000127072
0.0001251
0.000123429
0.000121864
0.000120586
0.000120481
0.000120831
0.000120946
0.000120199
0.000118852
0.000117762
0.000117973
0.000120604
0.000123861
0.000125576
0.000130411
0.000141753
0.000154863
0.000179914
0.000245946
0.000325427
0.000346687
0.000336411
0.000291475
0.000229253
0.000180831
0.000153718
0.00014219
0.000137328
0.000134716
0.00013233
0.000130261
0.000128293
0.000126285
0.000124358
0.000122934
0.000122118
0.000122307
0.00012333
0.000124107
0.000122404
0.000119527
0.000117773
0.000118021
0.000121325
0.000124235
0.000127304
0.000130936
0.000142359
0.000160999
0.000182783
0.000244741
0.000324729
0.000352162
0.000344447
0.000310103
0.000247255
0.000194043
0.000160931
0.000145633
0.00013997
0.00013752
0.000135418
0.000133763
0.000131955
0.000129815
0.000127704
0.000125677
0.000124688
0.000124991
0.00012568
0.000126998
0.000127466
0.000124879
0.000120245
0.000117809
0.0001181
0.000121727
0.000124823
0.000128995
0.000133937
0.000143799
0.000166258
0.000192259
0.000247832
0.000326248
0.000357726
0.000351788
0.000325358
0.000265093
0.00020869
0.00016948
0.000149692
0.000142484
0.000140356
0.000138671
0.000137341
0.000136073
0.000134724
0.000132659
0.000130518
0.00012868
0.000128164
0.000129352
0.000130751
0.000131853
0.000130659
0.000126473
0.000120824
0.000117793
0.000118111
0.000121632
0.000125238
0.000130567
0.000138807
0.000149207
0.000171032
0.000213377
0.000262844
0.000331892
0.000363711
0.000358933
0.000337922
0.000281773
0.000224
0.000179742
0.000154954
0.000145255
0.000142983
0.000142035
0.000141513
0.000141059
0.00013995
0.000138561
0.000136749
0.000135122
0.000134483
0.000134596
0.00013577
0.000136287
0.000135206
0.000131651
0.000126587
0.000119538
0.000122183
0.000117507
0.000119503
0.000118107
0.000117903
0.00012079
0.000125245
0.000131839
0.000143787
0.000159522
0.000180708
0.000232292
0.000286338
0.000344366
0.000371669
0.000366128
0.000348647
0.000296935
0.000239559
0.000191825
0.000161769
0.000149001
0.000145905
0.000145355
0.000146034
0.000145852
0.0001453
0.000144644
0.000143851
0.000142542
0.00014065
0.000139876
0.000138324
0.000137758
0.000136383
0.000134668
0.000130036
0.000124077
0.000125589
0.000121867
0.000117529
0.000119401
0.000117978
0.000118039
0.000119915
0.000124757
0.000132682
0.000148374
0.00017299
0.000203258
0.000253561
0.000313369
0.000363723
0.000382854
0.00037461
0.000358169
0.00031059
0.000255289
0.000205409
0.000169916
0.000154052
0.000149705
0.000149256
0.000150905
0.000151902
0.000152232
0.000152066
0.000151235
0.000148959
0.000146331
0.000142951
0.000140986
0.000139123
0.000135871
0.00013359
0.000131479
0.00013141
0.000127081
0.000129998
0.000127708
0.000123527
0.000124515
0.000121473
0.000117483
0.000118994
0.00011779
0.000117536
0.000119212
0.000123927
0.000133159
0.000152413
0.000185618
0.000244062
0.000287088
0.00034263
0.00038917
0.000397422
0.000385538
0.000367527
0.000322821
0.000270828
0.000220099
0.000180033
0.000160468
0.00015464
0.000153687
0.000156976
0.00016019
0.000161949
0.000161462
0.000159306
0.000155783
0.000150994
0.000147473
0.000144951
0.000142358
0.00013836
0.000125129
0.0001297
0.000123622
0.00012799
0.000125691
0.000125881
0.000124028
0.00012234
0.000123462
0.000120643
0.000117334
0.000118506
0.000117547
0.0001175
0.000118712
0.000123127
0.000133758
0.000156226
0.000196806
0.000281553
0.0003314
0.000376951
0.000418549
0.000416335
0.000399706
0.000377909
0.000334663
0.000286605
0.000235824
0.000192899
0.000169429
0.000160974
0.000159282
0.000162623
0.00016812
0.00017229
0.000172261
0.000168507
0.000163809
0.000157977
0.000154449
0.000155054
0.000158859
0.000164211
0.00016691
0.000115777
0.000121092
0.000121058
0.000112391
0.000119187
0.00012238
0.000117902
0.000117366
0.000121569
0.000120884
0.000119906
0.000117206
0.000118028
0.000117357
0.000117856
0.000119683
0.000124751
0.000136513
0.000162533
0.000207858
0.000313582
0.000380083
0.000417769
0.00045141
0.000440152
0.000418318
0.000390466
0.000347616
0.000302014
0.000252643
0.000210699
0.000183545
0.000170292
0.000165742
0.000168226
0.000173985
0.000174249
0.000173926
0.000170729
0.000170796
0.000169389
0.000166644
0.000178364
0.000200655
0.000220259
0.000235263
0.000170004
0.00028693
0.000122778
0.000175443
0.000110511
0.000122694
0.000108817
0.000117015
0.000107838
0.000107422
0.000117948
0.000116411
0.000117073
0.000117228
0.000117628
0.000117343
0.000119131
0.000124936
0.000135326
0.000150857
0.000177607
0.000224278
0.000343428
0.00042864
0.000463991
0.000487784
0.000468377
0.000441797
0.000405711
0.000361896
0.000317168
0.000274019
0.000235404
0.000205456
0.00018511
0.000175905
0.000175511
0.000171811
0.000165777
0.000167608
0.000172642
0.000182716
0.000185296
0.000200473
0.000233426
0.000286827
0.00038682
0.000470997
0.00039516
0.000516376
0.000317214
0.000434076
0.000188697
0.00033323
0.000120119
0.000189956
0.000116355
0.000107211
0.000113362
0.000107415
0.000102439
0.000108786
0.000102786
0.000117337
0.000117436
0.0001175
0.000127661
0.00014296
0.000166249
0.00019077
0.000215096
0.000260742
0.000381617
0.000476117
0.00051374
0.000526478
0.000500246
0.000469173
0.000423702
0.000377735
0.000337799
0.000303372
0.000267549
0.000234614
0.000208392
0.000194035
0.000189007
0.000169738
0.000160578
0.00016194
0.000170732
0.000197591
0.000205918
0.000242908
0.000317813
0.000424146
0.000533994
0.000583581
0.000555964
0.000601281
0.000516899
0.000566172
0.000446142
0.000522137
0.000339869
0.000449676
0.000178953
0.000335341
0.000160183
0.000100067
0.000143885
0.000125195
8.79541e-05
9.79596e-05
7.88319e-05
9.33993e-05
8.46183e-05
7.87942e-05
0.000167615
0.000195201
0.000232091
0.000279545
0.000317085
0.00035495
0.000438866
0.000523631
0.000563892
0.000565612
0.000535416
0.000498986
0.000445194
0.000398774
0.000366789
0.000335825
0.000303427
0.000269605
0.000241491
0.00022389
0.000216583
0.000179441
0.000162696
0.000158522
0.000169112
0.000205614
0.000227307
0.000290655
0.000401177
0.000547308
0.000616645
0.000634054
0.000614234
0.000635874
0.000596473
0.000612841
0.000566705
0.000592055
0.000520316
0.000563675
0.000445962
0.000516032
0.000316623
0.000434447
0.000287371
0.0001078
0.000248038
0.000194035
9.00968e-05
9.95269e-05
6.75132e-05
4.4263e-05
5.16751e-05
4.0185e-05
0.000172771
0.000280036
0.000314008
0.000360804
0.000403613
0.000435775
0.00049583
0.000568688
0.00061064
0.000604996
0.000572851
0.000529434
0.000470152
0.000424798
0.000397276
0.000370069
0.000341189
0.000309506
0.000280049
0.000259973
0.000249341
0.000211024
0.000179662
0.000165269
0.00016705
0.000206804
0.000246798
0.000332279
0.000486312
0.000632262
0.00066552
0.000671158
0.000651447
0.000677578
0.000635068
0.000657053
0.000615692
0.000638073
0.00059114
0.000617477
0.000559042
0.000593633
0.000508555
0.000556246
0.000414587
0.000497439
0.000389562
0.000142879
0.000354306
0.000300909
9.38233e-05
0.000113256
6.61916e-05
2.2658e-05
3.56407e-05
2.35302e-05
0.000171678
0.000338893
0.000350912
0.000389594
0.000425593
0.000463718
0.000523262
0.000596597
0.000646299
0.000641826
0.000610956
0.00056042
0.000497981
0.00045347
0.000428041
0.000404416
0.000376765
0.000347323
0.000313171
0.000283397
0.000266303
0.000259946
0.000230014
0.000188677
0.000174502
0.00019853
0.000258071
0.000372651
0.000557588
0.000689158
0.00070938
0.000708192
0.000704283
0.000742756
0.000686705
0.000724554
0.00066666
0.000702717
0.000647102
0.000679384
0.000623194
0.000658302
0.000594801
0.000633952
0.000553093
0.000598065
0.000482407
0.000548869
0.000464349
0.000232349
0.00043621
0.000397498
9.88986e-05
0.00015888
8.07944e-05
1.16677e-05
3.28076e-05
1.67676e-05
0.00017593
0.000355911
0.000386412
0.000389237
0.000419996
0.00046107
0.000523692
0.000599902
0.000660346
0.000669746
0.000645758
0.000589699
0.000526123
0.000482496
0.000457965
0.000433617
0.000407723
0.00037
0.000333199
0.000303808
0.000284728
0.000272816
0.00026675
0.00026059
0.000203746
0.000198541
0.000259078
0.000396232
0.000619628
0.000732099
0.000743916
0.000776554
0.000782899
0.000824056
0.000767121
0.000801915
0.000739032
0.000769904
0.00071003
0.000734803
0.000685064
0.000702918
0.000666433
0.000681505
0.000642867
0.000666368
0.000602188
0.000650674
0.000541295
0.000605871
0.000532312
0.000337656
0.000516167
0.000488176
0.000118471
0.000254715
9.60005e-05
7.45185e-06
4.20779e-05
1.26823e-05
0.000185138
0.000361554
0.000424232
0.000399771
0.000398296
0.000434764
0.000504444
0.000590129
0.000658332
0.000680731
0.000670598
0.00061517
0.000552407
0.000510695
0.000484111
0.000460237
0.000432307
0.000408453
0.000398347
0.000384738
0.000360639
0.000332543
0.000308011
0.000293082
0.000272463
0.000224803
0.000260707
0.000396908
0.000668542
0.000761287
0.00077669
0.000816834
0.000859065
0.00082927
0.00085417
0.000795139
0.000816659
0.00075816
0.000776484
0.000723033
0.000734434
0.000692721
0.000699487
0.000672162
0.000675253
0.000665757
0.000663694
0.000656733
0.000666401
0.000608066
0.000660667
0.000606004
0.000443924
0.000597584
0.000579103
0.000172427
0.000376243
0.000121179
7.87439e-06
6.13788e-05
2.06374e-05
0.000207939
0.000367044
0.000445039
0.000423177
0.00040334
0.000407287
0.00046039
0.000552815
0.00064299
0.000680023
0.000679144
0.000632322
0.000573591
0.000535312
0.000508352
0.000492516
0.000485702
0.000505171
0.000511202
0.000494972
0.000464848
0.000429175
0.000388845
0.000353717
0.000323988
0.00028476
0.000268933
0.000389734
0.000677838
0.000784898
0.000792027
0.000849226
0.000869473
0.000812894
0.000793885
0.000828917
0.000825075
0.000777766
0.000771041
0.000732792
0.000721694
0.000694998
0.000678409
0.000669111
0.000650043
0.000657621
0.000638136
0.000656534
0.000640651
0.00066722
0.000652049
0.000664814
0.000670009
0.000666901
0.000547875
0.000664468
0.00065541
0.000283946
0.000499857
0.000187802
2.69581e-05
0.000125032
9.29477e-05
0.000256844
0.000376788
0.00044633
0.000462718
0.00041594
0.000409582
0.000429197
0.00050607
0.000602804
0.000670103
0.000677823
0.000637743
0.000587354
0.000555204
0.00053624
0.000544499
0.000578318
0.000621383
0.000627681
0.000605832
0.000569092
0.000525794
0.000481195
0.00043421
0.00039055
0.00034944
0.000295586
0.000366194
0.000672686
0.000801925
0.000797585
0.000863343
0.000882179
0.000772027
0.000752398
0.000680356
0.00064645
0.000751412
0.000718366
0.000694394
0.00065686
0.00064836
0.000613387
0.000620443
0.000592521
0.000608743
0.000583902
0.000609753
0.000580775
0.000624857
0.000588654
0.000648795
0.000611595
0.000674543
0.000648073
0.000680983
0.000636757
0.000688528
0.000694027
0.000425025
0.000605121
0.000328189
7.10034e-05
0.000243346
0.000171148
0.000360171
0.000386007
0.00043356
0.000479986
0.000452919
0.000417825
0.000425688
0.000470859
0.000559919
0.000638681
0.000668423
0.000636073
0.000593016
0.000568907
0.00056595
0.000605434
0.000677801
0.000732032
0.000731457
0.000700887
0.000657627
0.000611602
0.000565581
0.000517485
0.000467285
0.000418083
0.000356831
0.000362554
0.000647428
0.000811755
0.000806979
0.000883365
0.00090086
0.000746846
0.000757033
0.0006142
0.000595471
0.000569968
0.000550602
0.00061634
0.000588891
0.000579192
0.000552143
0.000566975
0.000542874
0.000560153
0.000537615
0.000554127
0.000529733
0.000554295
0.000523979
0.000568832
0.000529646
0.000601989
0.000551657
0.000650614
0.000596561
0.000657572
0.000691776
0.000669504
0.000683529
0.000506038
0.000622118
0.00040324
0.000343956
0.000314436
0.000320432
0.000425241
0.000423933
0.000477355
0.000500398
0.000440464
0.000433732
0.000457831
0.00052385
0.000598629
0.00064108
0.000626819
0.000592015
0.000575835
0.000592382
0.000661362
0.000772553
0.000824794
0.000810752
0.000769437
0.000718654
0.000673561
0.000631951
0.00058926
0.000540948
0.000488634
0.000424174
0.000384777
0.000582535
0.00081752
0.000811247
0.000893455
0.000937345
0.000761064
0.000600225
0.000616713
0.000518118
0.000499584
0.000532116
0.000516051
0.0005377
0.000534757
0.000521926
0.000509852
0.000517279
0.000498409
0.000508145
0.000489383
0.000500564
0.000485917
0.000502073
0.000489159
0.000512658
0.000495736
0.000539685
0.00050474
0.000596609
0.000532378
0.000603309
0.000688653
0.000617111
0.000636108
0.000513274
0.000584057
0.000456773
0.00034461
0.000493828
0.000324593
0.000439073
0.000470271
0.000518135
0.000495328
0.000445762
0.000463543
0.000501971
0.000561846
0.000605082
0.000601524
0.000584119
0.000575352
0.000610437
0.000710599
0.000851492
0.00088975
0.000865042
0.000811515
0.000752025
0.000706313
0.00067233
0.000639049
0.000598712
0.000549604
0.000489655
0.000418395
0.000524851
0.000815442
0.00080596
0.000888836
0.000970438
0.00088956
0.000605431
0.000711973
0.000518815
0.000561614
0.00047284
0.000457518
0.000510295
0.000493637
0.000505941
0.000509925
0.00048395
0.000480611
0.000475017
0.000467106
0.000475919
0.000470786
0.000486988
0.000490806
0.000497688
0.000519904
0.000498047
0.000527818
0.000500141
0.000510348
0.00053057
0.000495628
0.000535961
0.000630368
0.000547589
0.000560436
0.000523206
0.00056722
0.000550311
0.000302035
0.000634892
0.000229636
0.00047443
0.000520459
0.000547031
0.000477757
0.000470039
0.000497461
0.000533578
0.000569384
0.000568173
0.000560509
0.000570004
0.000617152
0.000743379
0.000903419
0.000931425
0.000899523
0.000830145
0.000758458
0.000709556
0.000683784
0.000664218
0.000637103
0.000595915
0.000543179
0.000474933
0.000496796
0.000798789
0.00079521
0.000869526
0.00100078
0.00100694
0.000788953
0.00058442
0.000664866
0.000479608
0.000521354
0.000447205
0.000426874
0.000518016
0.000483807
0.000491748
0.000513248
0.000471433
0.000487463
0.000472497
0.000483651
0.000500204
0.000513882
0.000545732
0.000566574
0.000567556
0.000593728
0.000555371
0.000588876
0.000518793
0.000562828
0.000491292
0.000514529
0.000486914
0.000580135
0.000485284
0.000484926
0.000523883
0.000538244
0.00057529
0.00058548
0.000618871
0.000373318
0.000619395
0.000249886
0.000519199
0.000558988
0.000545579
0.000486272
0.000502893
0.000517156
0.000538737
0.000534705
0.000529814
0.000550435
0.000615397
0.000756229
0.000934028
0.000960661
0.000919217
0.000831606
0.000746979
0.00069856
0.000677663
0.000666275
0.000652306
0.000625237
0.0005789
0.000524517
0.000499247
0.000750101
0.000787711
0.000847004
0.00102542
0.00108808
0.000944073
0.000687685
0.000780555
0.000540884
0.00061672
0.000440472
0.000478234
0.000416504
0.000380463
0.000525535
0.000446676
0.000521652
0.000544414
0.000504444
0.000539735
0.000529423
0.000547774
0.000579198
0.000584888
0.000605938
0.000613171
0.000608664
0.000603392
0.000574535
0.000553497
0.000551769
0.000510496
0.000501651
0.000499169
0.0005276
0.000480306
0.000489672
0.000487535
0.000539426
0.000494811
0.00046605
0.000469329
0.000478765
0.000461499
0.000592824
0.000579854
0.000543574
0.000548021
0.00056224
0.000627541
0.000605716
0.000340983
0.000596185
0.000589415
0.000593494
0.00054496
0.0002292
0.000329185
0.000558385
0.000571877
0.00053194
0.000509278
0.000515591
0.0005159
0.000504979
0.000497937
0.000521906
0.000599927
0.000754187
0.00094672
0.000979425
0.000929242
0.000821327
0.000734774
0.000686304
0.000666039
0.000660723
0.000651356
0.000634169
0.000599852
0.000556399
0.000514407
0.000692292
0.000784369
0.000825853
0.00103551
0.00113856
0.0010851
0.000869159
0.000610668
0.000617776
0.000447624
0.000509611
0.000354768
0.000375494
0.000360039
0.000284183
0.000500211
0.000378478
0.0005646
0.000559503
0.000567648
0.000580934
0.000588074
0.000593382
0.000616212
0.000605853
0.000597383
0.00059425
0.000560726
0.000587642
0.000523602
0.00048068
0.000536822
0.000505966
0.000519408
0.000447132
0.000447606
0.000447144
0.000480661
0.000472386
0.000508276
0.000468926
0.000488397
0.000497146
0.000459736
0.000499553
0.000460896
0.000457234
0.000471946
0.000484739
0.000448159
0.000564119
0.000556009
0.000506115
0.000567192
0.000565516
0.000318533
0.000185837
0.000563822
0.000559864
0.000474339
0.000267884
0.000588517
0.00056433
0.000532368
0.000519338
0.000505168
0.000480826
0.00046803
0.000491021
0.000569249
0.000730258
0.000946097
0.000989173
0.000933225
0.000810786
0.000731713
0.000676996
0.000655599
0.000648125
0.000644757
0.000632253
0.000605225
0.000570081
0.000528837
0.000642725
0.000781834
0.000812405
0.00102445
0.0011797
0.00119422
0.00101744
0.000622532
0.000754281
0.000484606
0.000585601
0.000347607
0.000411066
0.000253131
0.000283281
0.00027979
0.000190926
0.000427997
0.000282014
0.000580188
0.000535856
0.000597047
0.000581997
0.000574264
0.000555907
0.000586854
0.000573086
0.000571682
0.000553866
0.00057367
0.000564193
0.000555826
0.000545306
0.000508253
0.00052092
0.000558979
0.000455281
0.000453332
0.000498552
0.000483781
0.000450187
0.000471156
0.000482675
0.000457542
0.000441979
0.000475177
0.000440633
0.00046307
0.000435975
0.000457217
0.000471224
0.000471241
0.000443255
0.000512778
0.00051983
0.000467084
0.000523589
0.000524076
0.000168492
0.000195829
0.000396705
0.000213644
0.000525607
0.000532469
0.000444265
0.000294314
0.000600704
0.000556895
0.000528333
0.000506046
0.000465921
0.0004421
0.000460246
0.000534149
0.000684727
0.000929817
0.000991576
0.000938895
0.000805541
0.00074379
0.00068593
0.00064992
0.000642115
0.000635803
0.000624153
0.00060368
0.000571523
0.000538025
0.000607096
0.000773529
0.000804588
0.000999569
0.00121365
0.00127117
0.00114719
0.000774534
0.000913015
0.000536808
0.000613698
0.000401687
0.000465918
0.000266381
0.000340007
0.000185879
0.000213642
0.000177804
0.000138783
0.000317639
0.000200021
0.000549538
0.00045997
0.000526712
0.000485168
0.000540043
0.00049516
0.000533007
0.00050901
0.00053348
0.00052332
0.000511017
0.000500904
0.000549963
0.000539369
0.000529602
0.000519135
0.000509448
0.000546374
0.00053887
0.000435823
0.000444419
0.000510742
0.000496543
0.000463736
0.000434717
0.000446921
0.000428793
0.00042375
0.000442489
0.000429454
0.000432469
0.000417848
0.000458686
0.000444236
0.000448323
0.000441497
0.000471746
0.000476295
0.000431715
0.000479603
0.000482995
0.000305468
0.000133127
0.000251988
0.000277035
0.000489066
0.000499622
0.000495923
0.000594383
0.000545774
0.000508559
0.00046292
0.000421211
0.000432325
0.000497228
0.000637031
0.000880628
0.000988229
0.000949034
0.000805055
0.000752758
0.000722057
0.000667951
0.000638195
0.000630551
0.000619729
0.00060126
0.000569873
0.000539973
0.000584163
0.000758408
0.000796192
0.00097613
0.00123562
0.00132767
0.00125079
0.00097383
0.000692042
0.00069149
0.000391063
0.000458975
0.000287194
0.00033359
0.000213871
0.000249577
0.000144812
0.000168784
0.000126828
0.000121255
0.000213033
0.000127584
0.000428667
0.000329842
0.00047075
0.000372385
0.000481528
0.00044314
0.000488191
0.000476047
0.000461589
0.000444879
0.000508706
0.000498208
0.000487319
0.000476098
0.000530322
0.000522064
0.000514674
0.000507015
0.000538725
0.000531291
0.000524519
0.000433489
0.000453984
0.000525003
0.000505214
0.000478712
0.000419373
0.000424245
0.00041662
0.000424936
0.000425637
0.000423521
0.000409271
0.00040606
0.000453533
0.000429422
0.00043773
0.000436926
0.000432906
0.000435268
0.000403534
0.000438303
0.000443597
0.000459484
0.000282376
0.000166086
0.000154064
0.000260884
0.000451037
0.000460654
0.000575497
0.000517328
0.000464431
0.000409728
0.000407942
0.000461612
0.000585597
0.000805563
0.000972748
0.000957264
0.000811183
0.000755083
0.000740366
0.000716907
0.000660052
0.00063111
0.000618161
0.000600376
0.000569328
0.000539772
0.000576513
0.000741349
0.000790154
0.000959488
0.00124375
0.00137264
0.00133412
0.00109483
0.000686577
0.000754859
0.00053251
0.000604528
0.00028554
0.000322897
0.000229576
0.000256203
0.000189404
0.000204554
0.000131125
0.000157516
0.000106907
0.000112385
0.000140247
0.000104381
0.000289091
0.000201397
0.000387044
0.000273418
0.000408669
0.00036678
0.000463979
0.000451267
0.000437993
0.000424665
0.000499226
0.000490497
0.000480602
0.000469076
0.000518529
0.000513554
0.000510768
0.000505868
0.000524389
0.000518992
0.000514664
0.000445324
0.000466361
0.000516058
0.000506012
0.000487171
0.000421998
0.000416967
0.000421261
0.000438781
0.000421552
0.000416411
0.000391544
0.000395173
0.00044546
0.000430268
0.000441233
0.000426959
0.000400138
0.000398698
0.00038134
0.000400201
0.000405767
0.000421241
0.000427367
0.000250522
0.00023244
0.000198389
0.000251443
0.000413158
0.000538552
0.000469193
0.000406072
0.000391405
0.000427718
0.000535066
0.000722136
0.000937657
0.000964722
0.000828665
0.00075407
0.000743612
0.00075286
0.0007355
0.00066009
0.00061864
0.000601063
0.000571672
0.000542917
0.000581707
0.000722305
0.000786803
0.000950351
0.00124984
0.00141023
0.0014006
0.00119233
0.000766665
0.000503777
0.000586144
0.000372865
0.000434373
0.000245046
0.000268795
0.000194984
0.000219294
0.000170517
0.000177403
0.00012773
0.000162076
9.6449e-05
0.000103246
0.00011553
9.38003e-05
0.000199216
0.000148216
0.000303826
0.000215019
0.000385498
0.000363163
0.000314915
0.000339934
0.000455678
0.000440481
0.000423873
0.000405756
0.000501283
0.000494566
0.000485847
0.000474645
0.000511737
0.000510107
0.000509345
0.000508263
0.000511357
0.000507493
0.000505062
0.000457857
0.000473859
0.000501132
0.000488832
0.000488067
0.000436611
0.000425192
0.000439217
0.000452549
0.000434317
0.000405235
0.000376814
0.000381567
0.0004334
0.000447386
0.000439066
0.000411279
0.000372849
0.000367693
0.000361308
0.000366745
0.000370816
0.000377519
0.000387924
0.000402548
0.000364291
0.000276938
0.000148751
9.26763e-05
0.000483911
0.000408412
0.000377662
0.000401154
0.000487816
0.000646362
0.000878971
0.000956284
0.000862278
0.000737557
0.000741306
0.00076452
0.00079208
0.00074951
0.000652753
0.000598489
0.000575157
0.000554776
0.000586446
0.000706979
0.000779715
0.000950012
0.00125411
0.00144173
0.00145327
0.00127259
0.000855234
0.0004352
0.000469676
0.000358746
0.000397836
0.000294352
0.00032409
0.00021633
0.000238416
0.000174629
0.000192507
0.000162444
0.000165109
0.000123034
0.000161609
8.89966e-05
9.99486e-05
0.000104216
9.31417e-05
0.000158776
0.000125136
0.000290521
0.000264886
0.000185277
0.00038196
0.000358241
0.00030928
0.000333881
0.000460523
0.000443779
0.000424989
0.000404291
0.000505386
0.000500572
0.000493444
0.000483088
0.000503936
0.000504002
0.000504191
0.000505696
0.000496564
0.000493177
0.000491156
0.00046404
0.000472105
0.000482768
0.000467497
0.000475586
0.000452198
0.000447467
0.0004556
0.000459094
0.000456065
0.000387004
0.000359455
0.000361344
0.000414996
0.000441279
0.000417502
0.000388955
0.000349352
0.000341282
0.000341643
0.000338167
0.000340658
0.000347844
0.000362629
0.000383249
0.000384535
0.000145889
0.000171122
0.000104112
0.000418736
0.000373221
0.000377598
0.000448352
0.000580914
0.000794056
0.000925113
0.000887677
0.000745446
0.000718771
0.00076206
0.000813121
0.00082249
0.000755603
0.000640948
0.000580705
0.000567905
0.000596036
0.000709332
0.000786176
0.00096284
0.00126114
0.00146597
0.00149677
0.00133833
0.000938688
0.000445217
0.000353665
0.000386532
0.000303667
0.000327487
0.000260452
0.000280957
0.000194648
0.000215911
0.000165125
0.000174936
0.000156714
0.000160458
0.000121661
0.000155141
9.27204e-05
0.000106794
0.000110422
0.000104545
0.000141698
0.000120005
0.000285642
0.000244328
0.000185548
0.000163723
0.000388549
0.000364093
0.000306188
0.00033873
0.000469192
0.000452277
0.000432979
0.000411623
0.000504627
0.000501384
0.000496211
0.000487531
0.000490321
0.000490651
0.000491515
0.000493562
0.000477372
0.000473258
0.000470483
0.000460089
0.00045922
0.000459458
0.000441743
0.000452583
0.000456963
0.000458904
0.000454542
0.000453181
0.000440673
0.000361625
0.000339144
0.000337066
0.000389826
0.000418059
0.000390098
0.000360757
0.000327601
0.00031822
0.000320651
0.000314028
0.000316398
0.000325487
0.000344567