/*--------------------------------*- C++ -*----------------------------------*\
  =========                 |
  \\      /  F ield         | OpenFOAM: The Open Source CFD Toolbox
   \\    /   O peration     | Website:  https://openfoam.org
    \\  /    A nd           | Version:  dev
     \\/     M anipulation  |
\*---------------------------------------------------------------------------*/
FoamFile
{
    version     2.0;
    format      ascii;
    class       volScalarField;
    location    "2500";
    object      CO2;
}
// * * * * * * * * * * * * * * * * * * * * * * * * * * * * * * * * * * * * * //

dimensions      [0 0 0 0 0 0 0];

internalField   nonuniform List<scalar> 
10028
(
1.00361e-29
3.71115e-29
2.18731e-29
8.84599e-29
8.70726e-29
1.53363e-29
1.67568e-28
2.05452e-28
7.81578e-29
1.16579e-29
2.82382e-28
4.5118e-28
3.11192e-28
6.23961e-29
7.01723e-30
3.94571e-28
7.98895e-28
6.74816e-28
2.76617e-28
4.31206e-29
2.05988e-30
7.4758e-28
1.74994e-27
1.43586e-27
6.94867e-28
1.54657e-28
2.46685e-29
1.20526e-30
8.99317e-28
2.71749e-27
2.91759e-27
1.35875e-27
5.61493e-28
1.16157e-28
1.01804e-29
2.3747e-31
3.0578e-27
6.91183e-27
6.78414e-27
4.00734e-27
1.34761e-27
4.46882e-28
4.35793e-29
2.28298e-30
9.99789e-32
2.33899e-27
1.44166e-26
1.50892e-26
8.87281e-27
3.32181e-27
1.13527e-27
2.50361e-28
1.93167e-29
1.07547e-30
1.72001e-32
8.70903e-27
2.80794e-26
3.04994e-26
1.92581e-26
8.52209e-27
2.3613e-27
7.8643e-28
7.9511e-29
7.48521e-30
3.34339e-31
1.48457e-32
6.84503e-27
4.72026e-26
7.14471e-26
3.98889e-26
2.17089e-26
8.08903e-27
2.14501e-27
4.66505e-28
4.20332e-29
1.62873e-30
1.66154e-31
2.98208e-32
6.29741e-27
4.27503e-26
1.18604e-25
1.07124e-25
4.99233e-26
1.9832e-26
6.43072e-27
1.45755e-27
2.26281e-28
1.31368e-29
1.13643e-30
4.19503e-31
3.03046e-31
1.34439e-26
1.04794e-25
1.77296e-25
1.93613e-25
1.18646e-25
4.81105e-26
1.57705e-26
3.81333e-27
8.03383e-28
7.90903e-29
7.75708e-30
3.58335e-30
3.89864e-30
3.31755e-30
3.44496e-26
1.20247e-25
2.4238e-25
4.78539e-25
2.19719e-25
1.16062e-25
3.63678e-26
1.16156e-26
2.15555e-27
3.05347e-28
5.18463e-29
2.5759e-29
3.30264e-29
4.63444e-29
2.7809e-29
1.44276e-26
2.11836e-25
5.50559e-25
7.36795e-25
5.82356e-25
2.61745e-25
9.51228e-26
2.66689e-26
6.53454e-27
1.4872e-27
2.57612e-28
2.31423e-28
4.2149e-28
6.18363e-28
4.57897e-28
1.76051e-28
3.65402e-26
2.36418e-25
5.77905e-25
1.23696e-24
1.13944e-24
6.47614e-25
2.36122e-25
6.31201e-26
2.0148e-26
4.84743e-27
2.01965e-27
1.76384e-27
4.83483e-27
6.95604e-27
5.99754e-27
3.56321e-27
2.02365e-27
4.17807e-26
3.14546e-25
9.90741e-25
1.94978e-24
2.25033e-24
1.3473e-24
5.98344e-25
1.93924e-25
5.27899e-26
1.6528e-26
1.12538e-26
1.61318e-26
2.40578e-26
6.23814e-26
6.98559e-26
4.87046e-26
5.12823e-26
1.84449e-26
4.0383e-26
1.89825e-25
1.25477e-24
2.12981e-24
3.45529e-24
2.35131e-24
1.35343e-24
4.80228e-25
1.47881e-25
9.96703e-26
9.9973e-26
1.52168e-25
2.19159e-25
3.94331e-25
7.08432e-25
5.42065e-25
3.83748e-25
5.90593e-25
3.43926e-25
2.66236e-26
5.01386e-25
9.25473e-25
2.80995e-24
5.90576e-24
4.64416e-24
2.73507e-24
1.48342e-24
8.27061e-25
5.63137e-25
7.99781e-25
1.1108e-24
1.82594e-24
1.9865e-24
4.97451e-24
6.69409e-24
4.49065e-24
5.63246e-24
4.2338e-24
2.31424e-24
6.72912e-26
6.20726e-25
1.37484e-24
4.39946e-24
6.43746e-24
8.41708e-24
6.02593e-24
4.50343e-24
3.11732e-24
4.39438e-24
6.47588e-24
8.97859e-24
1.08643e-23
2.35053e-23
2.94946e-23
6.07316e-23
3.77157e-23
2.6415e-23
5.77908e-23
2.97126e-23
8.61109e-24
8.81823e-26
9.00318e-25
2.74166e-24
6.88938e-24
1.15638e-23
1.26005e-23
1.378e-23
1.79686e-23
1.896e-23
2.61821e-23
4.31429e-23
6.09031e-23
8.90322e-23
1.37843e-22
2.37705e-22
2.74322e-22
6.14392e-22
3.21068e-22
3.06367e-22
5.82758e-22
2.40789e-22
1.85125e-22
6.18404e-25
1.14805e-24
6.12704e-24
9.64715e-24
1.45544e-23
2.7986e-23
5.73576e-23
7.50395e-23
1.13435e-22
1.8913e-22
2.1038e-22
3.56057e-22
5.06177e-22
1.03065e-21
1.15147e-21
2.87638e-21
3.85985e-21
5.42953e-21
3.83363e-21
4.05254e-21
4.30169e-21
2.18225e-21
7.82596e-22
1.79987e-24
4.90361e-24
7.81446e-24
1.88874e-23
2.82092e-23
7.86661e-23
1.80348e-22
3.93121e-22
4.90597e-22
8.82449e-22
1.58679e-21
1.87094e-21
3.39568e-21
7.61286e-21
8.95263e-21
1.30873e-20
2.58174e-20
3.35683e-20
2.92425e-20
1.98186e-20
3.6633e-20
2.81831e-20
1.4617e-20
1.06211e-20
7.85931e-24
1.61295e-23
2.4508e-23
5.16944e-23
8.92221e-23
2.75513e-22
6.99319e-22
2.29198e-21
3.51014e-21
3.75914e-21
7.65608e-21
1.43212e-20
2.58478e-20
4.79753e-20
7.06323e-20
8.062e-20
1.56195e-19
1.43201e-19
3.80325e-19
1.59584e-19
2.75439e-19
2.74492e-19
8.33316e-20
7.77623e-20
7.0347e-20
3.72625e-23
4.02063e-23
1.35376e-22
1.7461e-22
3.13793e-22
8.31621e-22
2.88869e-21
8.50275e-21
1.82011e-20
2.09314e-20
2.37198e-20
6.59117e-20
1.37624e-19
2.7895e-19
4.70745e-19
7.15031e-19
1.02302e-18
8.4409e-19
1.94424e-18
2.25236e-18
1.35891e-18
2.41191e-18
9.37001e-19
1.04351e-18
6.64814e-19
3.79469e-19
1.46919e-22
2.24675e-22
3.67694e-22
6.90366e-22
1.10411e-21
3.53751e-21
1.31034e-20
4.66238e-20
9.30626e-20
1.45803e-19
1.26619e-19
2.50411e-19
5.96796e-19
9.43812e-19
2.26795e-18
3.73872e-18
5.35284e-18
8.13626e-18
9.62132e-18
9.52628e-18
1.02634e-17
1.04615e-17
1.42749e-17
1.0304e-17
8.20258e-18
5.38765e-18
9.82061e-19
1.59538e-21
1.79978e-21
1.81875e-21
3.93498e-21
4.89884e-21
1.24312e-20
5.71457e-20
1.99179e-19
4.92732e-19
6.80681e-19
7.23093e-19
1.30358e-18
2.75822e-18
5.19581e-18
8.38012e-18
1.20633e-17
3.06869e-17
3.32471e-17
2.95872e-17
4.40453e-17
4.67856e-17
6.91817e-17
5.64625e-17
8.38648e-17
8.67212e-17
4.96977e-17
4.1681e-17
1.46559e-17
3.7353e-21
1.32025e-20
1.19079e-20
1.6257e-20
1.64434e-20
4.66398e-20
1.77861e-19
7.72323e-19
2.04478e-18
3.21307e-18
3.0099e-18
7.45432e-18
1.30514e-17
2.17139e-17
2.83342e-17
6.35982e-17
1.04488e-16
1.40979e-16
1.87748e-16
1.55113e-16
1.73597e-16
2.23684e-16
4.48916e-16
6.98121e-16
8.58922e-16
9.23609e-16
6.9258e-16
3.88585e-16
1.42682e-16
1.59206e-20
6.19501e-20
4.32144e-20
4.68196e-20
7.75592e-20
1.48392e-19
5.5501e-19
3.00697e-18
9.80836e-18
1.73979e-17
2.06007e-17
2.83898e-17
5.35021e-17
6.87031e-17
1.36631e-16
2.18846e-16
3.39873e-16
6.54507e-16
8.05144e-16
7.5022e-16
1.30036e-15
1.09282e-15
2.30905e-15
5.87102e-15
1.18647e-14
1.56354e-14
1.44733e-14
8.95885e-15
4.04683e-15
1.56955e-15
2.62457e-20
1.43489e-19
2.66793e-19
3.06002e-19
2.52674e-19
5.78993e-19
1.52555e-18
7.95558e-18
2.93094e-17
7.30326e-17
9.56817e-17
1.127e-16
1.64332e-16
3.64008e-16
5.32722e-16
7.28811e-16
1.16301e-15
2.03883e-15
2.65355e-15
3.7607e-15
4.38641e-15
6.2863e-15
1.47239e-14
5.71928e-14
1.56834e-13
2.69067e-13
3.00921e-13
2.30411e-13
1.23811e-13
4.65336e-14
9.17008e-15
1.24339e-19
7.74442e-19
7.56198e-19
1.30383e-18
9.11606e-19
1.99177e-18
6.54142e-18
2.84269e-17
1.16167e-16
2.58028e-16
4.69686e-16
5.47677e-16
9.7732e-16
1.03187e-15
1.63802e-15
2.98711e-15
5.63319e-15
9.49068e-15
1.40155e-14
1.89199e-14
2.41325e-14
3.32071e-14
9.05418e-14
4.40124e-13
1.62661e-12
3.71644e-12
5.26426e-12
4.95469e-12
3.203e-12
1.43497e-12
4.46343e-13
6.98006e-14
1.55174e-18
2.48306e-18
3.00031e-18
3.12858e-18
3.96292e-18
7.9479e-18
2.57951e-17
1.14647e-16
3.03658e-16
8.06341e-16
1.60184e-15
2.49286e-15
3.83134e-15
7.06625e-15
8.44281e-15
1.59296e-14
3.02887e-14
5.17646e-14
7.83208e-14
1.05564e-13
1.2996e-13
1.73156e-13
4.62689e-13
2.80351e-12
1.28169e-11
3.84647e-11
7.19005e-11
8.50853e-11
6.7695e-11
3.65176e-11
1.34012e-11
3.34479e-12
3.70455e-13
4.03421e-18
6.84114e-18
1.61197e-17
1.30389e-17
1.50642e-17
2.13275e-17
9.23904e-17
3.12567e-16
1.20934e-15
3.00741e-15
5.88336e-15
1.16058e-14
2.05513e-14
4.11996e-14
4.68262e-14
8.82988e-14
1.65273e-13
2.8366e-13
4.29626e-13
5.72101e-13
6.89568e-13
8.56064e-13
2.00287e-12
1.37594e-11
8.07035e-11
2.9767e-10
7.23106e-10
1.12694e-09
1.1275e-09
7.56548e-10
3.31215e-10
9.66079e-11
1.73475e-11
0
1.92443e-17
4.40146e-17
5.5789e-17
5.22798e-17
4.28198e-17
5.75739e-17
2.09733e-16
1.16553e-15
4.13767e-15
1.31582e-14
2.70709e-14
5.77831e-14
1.12307e-13
2.07299e-13
2.84776e-13
4.97864e-13
9.16406e-13
1.54421e-12
2.291e-12
2.99207e-12
3.50907e-12
4.05355e-12
7.85728e-12
5.50811e-11
3.8873e-10
1.79308e-09
5.34901e-09
1.08488e-08
1.43464e-08
1.21686e-08
6.80266e-09
2.23435e-09
4.9659e-10
1.53276e-11
1.05227e-10
9.58348e-13
4.78217e-11
2.11325e-11
1.86267e-16
4.46519e-16
2.83017e-16
1.58936e-16
1.49672e-16
1.62395e-16
6.05222e-16
3.54514e-15
1.4496e-14
4.39035e-14
1.20179e-13
2.7774e-13
5.92409e-13
1.17637e-12
2.1899e-12
2.8182e-12
5.05987e-12
8.34429e-12
1.20021e-11
1.51195e-11
1.71178e-11
1.85299e-11
2.86029e-11
1.88458e-10
1.48624e-09
8.33704e-09
3.02541e-08
7.5339e-08
1.32005e-07
1.49648e-07
1.0668e-07
4.81032e-08
7.42447e-09
8.00929e-10
6.09261e-09
4.10596e-10
4.8374e-12
2.1252e-10
9.25933e-11
6.5455e-16
1.66739e-15
1.6347e-15
8.95078e-16
5.64895e-16
5.32982e-16
1.79294e-15
1.08206e-14
5.56836e-14
1.70944e-13
4.94156e-13
1.2512e-12
2.90977e-12
6.42643e-12
1.37758e-11
1.58608e-11
2.79529e-11
4.47596e-11
6.20438e-11
7.4359e-11
8.02569e-11
8.16534e-11
1.0222e-10
5.60312e-10
4.76129e-09
3.12012e-08
1.34215e-07
3.97175e-07
8.55299e-07
1.34034e-06
1.29843e-06
7.4696e-07
9.80682e-08
3.4955e-07
3.804e-08
2.68599e-07
2.43844e-07
3.48012e-09
2.67928e-08
1.92754e-09
2.04211e-11
9.41338e-10
3.81697e-10
5.7574e-15
1.52392e-14
1.17581e-14
6.65324e-15
2.81868e-15
1.5074e-15
5.45613e-15
3.38678e-14
1.59541e-13
6.20788e-13
1.91346e-12
5.2399e-12
1.31567e-11
3.1101e-11
7.19246e-11
8.94579e-11
1.54862e-10
2.39724e-10
3.18343e-10
3.58524e-10
3.62965e-10
3.46247e-10
3.61153e-10
1.44283e-09
1.34311e-08
9.92388e-08
4.85588e-07
1.6672e-06
4.19239e-06
8.03545e-06
1.16248e-05
9.44825e-06
1.35854e-06
5.5673e-06
1.31263e-06
1.76308e-07
1.23465e-06
9.98622e-07
1.58239e-08
1.15678e-07
8.194e-09
7.55689e-11
3.72025e-09
1.38864e-09
6.26847e-14
1.54289e-13
1.18472e-13
7.12318e-14
2.38102e-14
6.56074e-15
1.66176e-14
1.00308e-13
5.13095e-13
2.09e-12
6.94216e-12
2.04382e-11
5.49056e-11
1.39789e-10
3.30411e-10
5.4613e-10
8.44446e-10
1.27605e-09
1.62231e-09
1.7107e-09
1.60261e-09
1.41561e-09
1.26856e-09
3.29406e-09
3.60283e-08
2.7751e-07
1.50679e-06
5.71376e-06
1.62489e-05
3.54607e-05
6.10304e-05
8.29598e-05
1.98235e-05
6.79603e-05
5.77401e-06
2.30029e-05
5.66142e-06
7.28717e-07
4.97607e-06
3.96607e-06
6.48942e-08
4.57734e-07
3.10713e-08
2.37445e-10
1.31056e-08
4.32955e-09
8.05205e-13
1.54435e-12
1.32605e-12
5.20043e-13
1.22464e-13
2.88902e-14
4.53009e-14
2.77832e-13
1.53898e-12
6.64039e-12
2.3612e-11
7.43149e-11
2.13492e-10
5.68885e-10
1.49658e-09
3.2999e-09
4.38315e-09
6.59861e-09
8.04459e-09
8.03036e-09
6.98534e-09
5.64956e-09
4.52844e-09
6.36309e-09
9.66561e-08
6.73963e-07
4.12396e-06
1.66455e-05
5.03063e-05
0.000118343
0.000219989
0.000334071
0.000192194
0.000471714
8.1132e-05
0.000236633
2.38217e-05
8.94973e-05
2.24452e-05
2.7897e-06
1.92642e-05
1.48773e-05
2.4064e-07
1.67122e-06
1.06781e-07
6.14033e-10
4.02916e-08
1.13787e-08
1.11489e-11
1.81487e-11
1.00204e-11
3.20645e-12
7.04899e-13
1.31967e-13
1.15764e-13
7.25493e-13
4.29445e-12
1.97638e-11
7.53045e-11
2.52773e-10
7.73805e-10
2.17615e-09
5.67833e-09
1.67443e-08
2.21897e-08
3.26901e-08
3.81405e-08
3.6273e-08
2.97214e-08
2.22331e-08
1.63191e-08
1.47211e-08
1.18268e-07
1.46294e-06
9.51792e-06
4.22628e-05
0.000127669
0.000300605
0.000562996
0.000870868
0.000762055
0.00114673
0.00055195
0.000911981
0.000270069
0.000623305
8.93261e-05
0.000284554
8.21445e-05
1.00288e-05
6.9002e-05
5.20027e-05
8.33313e-07
5.7648e-06
3.33126e-07
1.24628e-09
1.10042e-07
2.42938e-08
2.33647e-10
1.53386e-10
5.87977e-11
1.64895e-11
3.50713e-12
6.25683e-13
2.79534e-13
1.64572e-12
1.10321e-11
5.48792e-11
2.24525e-10
8.05393e-10
2.62043e-09
7.82989e-09
2.06971e-08
5.17772e-08
1.17049e-07
1.6589e-07
1.69346e-07
1.54468e-07
1.20908e-07
8.59277e-08
5.81244e-08
4.20387e-08
1.32912e-07
2.40832e-06
1.80327e-05
8.2486e-05
0.000257962
0.000571842
0.000986916
0.00144219
0.00144075
0.00180086
0.00128099
0.00163508
0.00101516
0.00141318
0.00067555
0.00109955
0.000277214
0.000698323
0.000254221
3.38127e-05
0.000214888
0.000160861
2.69728e-06
1.854e-05
1.00378e-06
1.76298e-09
2.75319e-07
4.70144e-08
2.34847e-09
1.05394e-09
2.7565e-10
6.80179e-11
1.50394e-11
2.63004e-12
7.41019e-13
3.57767e-12
2.48225e-11
1.40716e-10
6.2331e-10
2.39676e-09
8.30395e-09
2.6296e-08
7.24742e-08
1.69975e-07
3.63369e-07
5.15722e-07
6.26615e-07
6.17925e-07
4.78161e-07
3.20902e-07
2.02867e-07
1.33479e-07
1.65286e-07
2.63863e-06
2.84511e-05
0.000131912
0.00041237
0.000868466
0.00143437
0.0019794
0.00204776
0.00231219
0.00196767
0.00224385
0.0017859
0.00212671
0.00152784
0.00192404
0.00116372
0.00161893
0.000682748
0.00119459
0.000631663
0.000103397
0.00053946
0.000403002
8.4905e-06
5.6127e-05
2.94501e-06
2.51415e-09
7.1187e-07
9.54211e-08
3.89195e-09
5.07298e-09
1.09757e-09
2.49004e-10
5.2385e-11
9.02024e-12
1.9498e-12
6.15668e-12
5.33431e-11
3.19644e-10
1.59653e-09
6.62055e-09
2.45162e-08
8.21228e-08
2.37467e-07
5.64334e-07
1.11333e-06
1.66897e-06
1.94589e-06
1.83859e-06
1.52901e-06
1.10037e-06
6.97686e-07
4.382e-07
3.06807e-07
2.38267e-06
3.27737e-05
0.000189211
0.000561847
0.00118354
0.0018503
0.00229149
0.00241141
0.00248161
0.00240334
0.00249327
0.00234962
0.00247483
0.00224159
0.00242629
0.00203684
0.00232072
0.00168594
0.00211656
0.00118496
0.00172087
0.00113323
0.000273275
0.00103307
0.000856358
2.4939e-05
0.000155299
8.48242e-06
4.24755e-09
1.83336e-06
2.16489e-07
9.03521e-09
1.75817e-08
4.02422e-09
8.23212e-10
1.57201e-10
2.69648e-11
5.07309e-12
9.8493e-12
9.16341e-11
6.85472e-10
3.68203e-09
1.68286e-08
6.69297e-08
2.37375e-07
7.1914e-07
1.77734e-06
3.46267e-06
5.21719e-06
6.02968e-06
5.78012e-06
4.77068e-06
3.43834e-06
2.29423e-06
1.43348e-06
7.94477e-07
1.83489e-06
3.1167e-05
0.000219753
0.000708123
0.0014346
0.00208746
0.00240306
0.00249954
0.00249243
0.00252328
0.00252576
0.00252414
0.00253857
0.00251075
0.00254202
0.0024734
0.00253243
0.00237813
0.00250414
0.00216603
0.00241484
0.00171336
0.00218423
0.00166258
0.000620079
0.00155782
0.00139073
6.91469e-05
0.000366098
2.32914e-05
9.07851e-09
4.80857e-06
6.10651e-07
3.08797e-08
4.00089e-08
1.29782e-08
2.60971e-09
4.78463e-10
8.03245e-11
1.39713e-11
1.49403e-11
1.40926e-10
1.19541e-09
7.79611e-09
3.91223e-08
1.676e-07
6.30223e-07
2.00065e-06
5.14696e-06
1.03401e-05
1.57738e-05
1.88671e-05
1.86892e-05
1.56099e-05
1.14064e-05
7.55836e-06
4.6446e-06
2.31367e-06
1.94034e-06
2.56751e-05
0.00021826
0.000794987
0.00162147
0.00217585
0.00237704
0.00246947
0.00242063
0.00250494
0.00244609
0.00252365
0.00247344
0.00253674
0.00249902
0.002546
0.0025254
0.00254878
0.00254854
0.00252496
0.0025615
0.00243521
0.00254208
0.00216864
0.00244012
0.00212063
0.00112513
0.00202984
0.00187575
0.000178425
0.000769306
6.17894e-05
2.33051e-08
1.35248e-05
1.78636e-06
8.88426e-08
1.27088e-07
3.65083e-08
8.68569e-09
1.57822e-09
2.56848e-10
4.19207e-11
2.40591e-11
1.94661e-10
1.85839e-09
1.38463e-08
8.11922e-08
3.85096e-07
1.52775e-06
5.05572e-06
1.35364e-05
2.79613e-05
4.37423e-05
5.41081e-05
5.60663e-05
4.9279e-05
3.73709e-05
2.44484e-05
1.3842e-05
6.51549e-06
3.14236e-06
1.63946e-05
0.000204702
0.000797552
0.0017205
0.00217582
0.00230489
0.00216396
0.00234605
0.00217959
0.00237342
0.00225442
0.00241441
0.00231579
0.00246572
0.00238852
0.00252115
0.00246604
0.00255995
0.00253375
0.00257716
0.00257893
0.00255556
0.0025958
0.00242962
0.00256319
0.00240049
0.00163371
0.00234211
0.00223448
0.000403303
0.0012857
0.00015851
4.06789e-07
3.90996e-05
8.50397e-06
4.07451e-07
3.35404e-07
1.08357e-07
2.85668e-08
5.60834e-09
9.08847e-10
1.39247e-10
4.37129e-11
2.59712e-10
2.5927e-09
2.16461e-08
1.46556e-07
7.93572e-07
3.36624e-06
1.151e-05
3.16042e-05
6.62943e-05
0.000105205
0.000137334
0.000151482
0.000140736
0.000109481
7.04675e-05
3.86303e-05
1.78512e-05
7.00375e-06
1.27062e-05
0.000165329
0.000774828
0.00171915
0.00216363
0.00218903
0.00186019
0.00189473
0.00165754
0.00213405
0.00200633
0.00222633
0.0021397
0.00231776
0.00224971
0.00241112
0.00235634
0.00249777
0.0024645
0.0025671
0.00256191
0.00260874
0.00262898
0.00261539
0.00265101
0.00256314
0.00263291
0.00255213
0.0020476
0.00252339
0.00245937
0.000816011
0.00175286
0.000364344
2.10823e-05
0.000122241
8.2535e-05
2.10038e-06
8.44701e-07
3.18141e-07
9.13937e-08
2.0017e-08
3.36182e-09
5.03345e-10
1.02965e-10
3.16346e-10
3.50723e-09
3.09696e-08
2.29965e-07
1.34458e-06
6.21171e-06
2.22767e-05
6.17321e-05
0.000129772
0.000208791
0.000274798
0.000305293
0.000295127
0.000249495
0.000180365
0.000102632
4.632e-05
1.73412e-05
1.25663e-05
0.000108226
0.000714926
0.0016906
0.00214876
0.0020956
0.00156752
0.00145321
0.00118227
0.00179237
0.00152133
0.0020512
0.0019448
0.00218453
0.00212234
0.00230918
0.0022751
0.00244487
0.00244648
0.00258005
0.00261975
0.00267556
0.00276433
0.00271512
0.00283487
0.0026978
0.00281742
0.00264712
0.00274259
0.00265274
0.00233522
0.00264415
0.00260903
0.00131217
0.00212014
0.000746822
7.26514e-05
0.000427547
0.00035536
9.678e-06
3.40627e-06
1.02039e-06
2.91655e-07
6.93313e-08
1.24286e-08
1.86892e-09
3.1348e-10
4.07693e-10
4.26273e-09
4.05699e-08
3.0455e-07
1.90929e-06
9.43421e-06
3.57022e-05
0.000101084
0.000212403
0.000340764
0.000445735
0.000498874
0.000493543
0.000436812
0.000344068
0.000233481
0.000116131
4.29228e-05
1.74879e-05
6.92988e-05
0.000591703
0.00161679
0.0021395
0.00206944
0.00141805
0.00102099
0.000921231
0.00120391
0.000927844
0.00178511
0.00142632
0.00205664
0.00196522
0.00226095
0.00225527
0.00246272
0.0024992
0.00268563
0.0027646
0.00288606
0.00302687
0.00301229
0.0032221
0.00301973
0.00328934
0.00291701
0.00320683
0.00277711
0.0029994
0.00279471
0.00253306
0.00279009
0.00275998
0.00177975
0.00240834
0.00142072
0.000678413
0.00122521
0.0013693
1.43726e-05
3.94562e-06
9.9136e-07
2.34435e-07
4.50229e-08
6.99674e-09
1.07914e-09
5.74122e-10
4.66112e-09
4.45086e-08
3.51426e-07
2.33333e-06
1.23048e-05
4.87132e-05
0.000141532
0.000298811
0.00048256
0.000637886
0.000725075
0.000728913
0.00066192
0.000547283
0.000406098
0.000244866
0.000105265
3.38682e-05
5.43203e-05
0.000445694
0.00147349
0.00212811
0.00207551
0.00143248
0.000842482
0.000760976
0.000678508
0.0010157
0.000697983
0.00186703
0.0013434
0.00223343
0.00214484
0.00255737
0.00259759
0.00284847
0.00293891
0.00316497
0.00328187
0.00340385
0.00352286
0.00350273
0.00360665
0.00350512
0.00362841
0.00334997
0.00361621
0.00305489
0.00344647
0.00307377
0.00270761
0.00305219
0.00299765
0.00223541
0.00263508
0.00207312
0.000878494
0.00206263
0.00209207
1.71697e-05
3.85481e-06
8.1707e-07
1.58882e-07
2.57661e-08
3.85207e-09
1.03079e-09
4.76655e-09
4.47843e-08
3.63981e-07
2.53389e-06
1.40234e-05
5.85039e-05
0.000175025
0.000375969
0.000617496
0.000834343
0.00097016
0.000996122
0.000922494
0.000782626
0.000606781
0.00040546
0.000223809
7.52238e-05
5.42388e-05
0.000316379
0.00129233
0.00210635
0.00210917
0.001523
0.0010558
0.000609104
0.00077145
0.000556875
0.000556131
0.000825581
0.000498493
0.00189283
0.00119969
0.00257712
0.00239644
0.00302296
0.00303639
0.00337189
0.00342917
0.00359592
0.00363728
0.00365272
0.0036838
0.0036655
0.00365723
0.00368038
0.00363671
0.00367655
0.00368795
0.00349767
0.00371908
0.00349951
0.00292517
0.00345952
0.00337755
0.00254413
0.0028366
0.002467
0.0017307
0.00246521
0.0024842
1.7463e-05
3.21131e-06
5.6729e-07
9.26442e-08
1.38894e-08
2.59145e-09
4.78059e-09
4.22484e-08
3.50174e-07
2.51402e-06
1.45211e-05
6.29401e-05
0.000195887
0.000432165
0.000727954
0.00101229
0.00121521
0.00128061
0.00120162
0.00103544
0.00082597
0.000593698
0.000372959
0.0001696
6.56361e-05
0.000222035
0.00108275
0.00204694
0.00216968
0.0017036
0.00133536
0.000995246
0.000558271
0.000718951
0.000407124
0.000437662
0.000618368
0.000327727
0.00176702
0.000968632
0.00289816
0.00248438
0.00341305
0.00329622
0.00364853
0.00362252
0.00370167
0.00370151
0.0036292
0.00358995
0.00351216
0.00334959
0.00351379
0.00320883
0.00367173
0.00333457
0.00374997
0.00366657
0.00377128
0.00325023
0.00379023
0.00378509
0.00356191
0.00274087
0.00294432
0.00316405
0.0026641
0.00128538
0.0026375
0.00251377
1.52258e-05
2.27775e-06
3.40615e-07
5.04095e-08
7.96604e-09
5.20891e-09
3.81037e-08
2.97606e-07
2.2494e-06
1.39773e-05
6.28824e-05
0.000202105
0.000460471
0.00079891
0.00114691
0.00142637
0.00153265
0.00145379
0.00127614
0.00104732
0.000794376
0.000539227
0.000293126
0.000103362
0.000175856
0.000866987
0.00192272
0.00221359
0.00187923
0.00159006
0.0013276
0.000819577
0.00102909
0.000496484
0.000662383
0.00028492
0.000350568
0.000407696
0.000193314
0.00150425
0.000687325
0.00298454
0.00236441
0.0035382
0.0033116
0.0036798
0.00361294
0.00355281
0.00351297
0.00321649
0.00312785
0.00291232
0.00269426
0.00288593
0.00247772
0.00320733
0.00262093
0.00368261
0.00312623
0.00342462
0.00381774
0.00370844
0.00377463
0.00343338
0.00370832
0.00386279
0.00380393
0.00375964
0.00388009
0.0028251
0.00300758
0.00309448
0.00335383
0.00294029
0.00273182
0.00286275
0.00112907
0.002666
0.00275123
0.00281154
0.00269851
0.00238266
0.00261492
1.14462e-05
1.42918e-06
1.8643e-07
2.67641e-08
7.45659e-09
3.26043e-08
2.4101e-07
1.7514e-06
1.17078e-05
5.8587e-05
0.000197793
0.000461836
0.000823143
0.00121958
0.00156817
0.00170794
0.00164785
0.00147961
0.00124592
0.000982431
0.000706619
0.000425844
0.000183316
0.000172263
0.000680862
0.0017651
0.00221811
0.00202751
0.00180665
0.00162382
0.00125385
0.000708205
0.000874237
0.000394863
0.000543618
0.000184911
0.000268848
0.000227141
9.90883e-05
0.00112349
0.000400437
0.00282304
0.00203503
0.00343119
0.00304504
0.0034445
0.00329648
0.00306923
0.00300848
0.00255625
0.00247125
0.00219895
0.00203305
0.00247311
0.00223895
0.00210146
0.00197786
0.0028494
0.00254334
0.0021223
0.00208891
0.00230573
0.00312807
0.00348111
0.00316225
0.00283015
0.00353549
0.00388192
0.00364614
0.00386596
0.00386165
0.00368048
0.00360409
0.00389972
0.00316823
0.00326424
0.00356077
0.00307554
0.00298383
0.00183105
0.00240397
0.00281959
0.00290229
0.00273981
0.00265857
7.86312e-06
8.18328e-07
9.85269e-08
1.71e-08
2.65551e-08
2.0346e-07
1.31544e-06
8.85839e-06
4.76003e-05
0.000176724
0.000440606
0.000809695
0.00122909
0.00162545
0.00180083
0.0017831
0.00164046
0.00140236
0.00113698
0.000859106
0.000563377
0.000282454
0.000184399
0.000543511
0.00158485
0.0022029
0.00214122
0.00198131
0.00187111
0.00159029
0.000839219
0.00105222
0.000523208
0.000678517
0.000263533
0.000381684
0.000103855
0.000170867
0.000101647
4.72768e-05
0.000685157
0.000184132
0.00239117
0.00153447
0.00299779
0.00248938
0.00290193
0.00268629
0.00240314
0.00231514
0.0019264
0.00183206
0.00191307
0.00185143
0.0018187
0.00177553
0.00200318
0.00190999
0.00185329
0.00253599
0.00227529
0.0019625
0.00196032
0.00208508
0.00284903
0.00322851
0.0028927
0.00254468
0.0032996
0.00392573
0.00383779
0.00393879
0.00376332
0.00338594
0.0034864
0.00384286
0.00346463
0.00335676
0.00377642
0.00324501
0.00313239
0.00264918
0.00248725
0.00174805
0.00245094
0.00301897
0.00290824
0.00280323
0.002726
4.88002e-06
4.44416e-07
5.42451e-08
2.58152e-08
1.31395e-07
9.93599e-07
6.37928e-06
3.60604e-05
0.000145983
0.000387732
0.000744103
0.00118189
0.00161709
0.00182291
0.00185387
0.00175771
0.00151863
0.00124389
0.000976771
0.000689747
0.000393627
0.000221511
0.000465476
0.00139876
0.00214814
0.00221082
0.00211516
0.00206737
0.00186184
0.00120776
0.00140996
0.000598087
0.000759961
0.000316936
0.000448279
0.000130912
0.000210278
4.73067e-05
7.69548e-05
4.3891e-05
2.3552e-05
0.000312719
7.32513e-05
0.00176994
0.000953335
0.00230738
0.00175524
0.00216544
0.00190233
0.00172536
0.00158843
0.00174095
0.00168874
0.0016403
0.00156848
0.00182387
0.0017976
0.00177763
0.00175162
0.00189248
0.00185491
0.00184307
0.00228295
0.00209302
0.00190706
0.00194508
0.00198051
0.00257733
0.00296112
0.00263253
0.00230955
0.00304486
0.0039155
0.00394906
0.00397116
0.00359878
0.00314772
0.00326779
0.00372241
0.0036864
0.0035713
0.00394004
0.00344676
0.00330893
0.00278757
0.00271577
0.000675807
0.00214654
0.00316424
0.00302209
0.00289278
2.89793e-06
2.41618e-07
4.03126e-08
8.59876e-08
7.61784e-07
4.34846e-06
2.58775e-05
0.000113949
0.000329508
0.000651224
0.00104144
0.00151834
0.00180506
0.00186679
0.00182986
0.00161606
0.00131511
0.00104349
0.000780549
0.000496591
0.000281721
0.000448391
0.0012413
0.00204757
0.00223226
0.00220854
0.00221136
0.00207085
0.00153715
0.000929637
0.00110814
0.000327694
0.000463051
0.000134323
0.000216136
5.06346e-05
8.21505e-05
2.2626e-05
3.19968e-05
2.07009e-05
1.2741e-05
0.000120201
3.13939e-05
0.00107741
0.000426914
0.00150613
0.00100644
0.00140716
0.00115245
0.00150245
0.00140809
0.00132197
0.00120209
0.00171879
0.00167224
0.00161436
0.00154017
0.00184425
0.00185073
0.00185458
0.00185042
0.00189531
0.00190682
0.00194216
0.00211846
0.00201797
0.00195073
0.00201615
0.00199697
0.00235677
0.00271047
0.00242458
0.00216009
0.00280777
0.00384415
0.00401233
0.00395463
0.00340673
0.00292725
0.00306755
0.00356639
0.00389736
0.00380247
0.00404017
0.00366602
0.0035105
0.00300943
0.00286545
0.00269559
0.000497067
0.00209195
0.0033368
0.00316321
1.70504e-06
1.40659e-07
7.79558e-08
4.74126e-07
2.9915e-06
1.73252e-05
8.41654e-05
0.000267005
0.000562915
0.000894805
0.00128898
0.00171051
0.00184931
0.00185145
0.00170461
0.00139181
0.00108163
0.000821023
0.00056508
0.000358362
0.000453763
0.00111982
0.00193652
0.00222874
0.00226269
0.00230675
0.00222046
0.001785
0.00093803
0.00109651
0.000611546
0.000767724
0.000121587
0.00019131
4.7937e-05
7.6686e-05
1.88877e-05
2.96667e-05
1.1432e-05
1.31948e-05
1.22755e-05
8.03952e-06
5.03107e-05
1.87224e-05
0.000479963
0.000160321
0.000829184
0.000487565
0.000995271
0.000753912
0.00145551
0.00135699
0.00125406
0.0011442
0.00182838
0.00178544
0.00172044
0.00163364
0.00198712
0.0020311
0.00206313
0.00207207
0.00199537
0.00206464
0.00214777
0.00206703
0.00205215
0.00209218
0.00218324
0.00209026
0.0022184
0.00251291
0.0022941
0.00212254
0.00262285
0.00373722
0.00404937
0.00391015
0.00323337
0.00275941
0.00292221
0.0034248
0.00404861
0.00401396
0.00411292
0.00389684
0.00372632
0.00332507
0.00313606
0.0029464
0.00269742
0.00129128
0.00231156
0.00353028
1.03386e-06
1.18372e-07
2.66107e-07
2.1884e-06
1.09585e-05
5.87493e-05
0.000205902
0.000472553
0.000753659
0.00104864
0.00144474
0.00176657
0.00184045
0.00176159
0.00150467
0.00114207
0.000851459
0.000606025
0.000442544
0.000475528
0.00104066
0.00183059
0.00220843
0.00228357
0.00236019
0.00231724
0.00195949
0.00112919
0.000565779
0.000727217
0.000293681
0.000420572
4.0637e-05
6.48461e-05
1.53488e-05
2.50053e-05
6.85494e-06
9.69084e-06
6.74638e-06
6.08449e-06
9.74026e-06
6.60832e-06
3.11316e-05
1.58003e-05
0.000200079
7.62963e-05
0.000508146
0.000290118
0.00101589
0.000873908
0.000609322
0.000740558
0.00152864
0.00140937
0.00128191
0.00114979
0.00206273
0.00201752
0.00194084
0.0018334
0.0022305
0.0023042
0.00235737
0.00237564
0.00219147
0.0023076
0.00242704
0.00210745
0.00215109
0.00231195
0.00241759
0.00226249
0.00218569
0.00239109
0.00225769
0.00216643
0.00251556
0.00363717
0.00406193
0.00386304
0.00311528
0.00267036
0.0028583
0.00333912
0.00415897
0.00417343
0.00417644
0.00411203
0.00394388
0.00372717
0.00348307
0.00325085
0.00298655
0.00274
0.00199124
0.00253699
6.81678e-07
2.29872e-07
1.44081e-06
7.64276e-06
3.85892e-05
0.000150282
0.000381541
0.000630724
0.000838399
0.00112462
0.00151847
0.00177143
0.00176747
0.00162116
0.00127247
0.000906518
0.000654412
0.00051562
0.00053218
0.00101897
0.00174244
0.00215709
0.00228384
0.00237962
0.00237276
0.00207321
0.00132683
0.000420916
0.000485775
0.000220796
0.00031383
0.000100482
0.000151082
1.2e-05
1.95446e-05
4.45896e-06
7.24584e-06
3.06207e-06
3.14833e-06
5.41625e-06
4.01253e-06
9.67476e-06
7.07719e-06
2.6989e-05
1.63098e-05
0.000125537
5.50146e-05
0.000491142
0.000380692
0.000235582
0.00107029
0.000911804
0.000621935
0.000761906
0.00170218
0.00155311
0.00139439
0.00123193
0.00236724
0.00231375
0.00221545
0.00207852
0.00253741
0.00262959
0.00269216
0.00270944
0.00245807
0.00260718
0.00274831
0.00219442
0.00232094
0.0025916
0.00269564
0.0024919
0.00222271
0.00235608
0.00229395
0.00223757
0.00249485
0.00359104
0.00407388
0.00385885
0.00308321
0.00266857
0.00287742
0.00333772
0.00424992
0.00430287
0.00423676
0.00429575
0.00414755
0.00390564
0.00362414
0.00332739
0.00302108
0.00277456
0.00158313
0.0024773
5.71708e-07
8.36513e-07
4.89674e-06
2.40185e-05
0.000104457
0.000293403
0.00053058
0.000684044
0.000862872
0.00115334
0.00155125
0.00172855
0.00167207
0.00146463
0.00106123
0.000748734
0.000585948
0.000607008
0.00102367
0.00166309
0.00209652
0.00227221
0.00237947
0.0023958
0.00214976
0.00145326
0.00044182
0.000157941
0.000235157
7.39386e-05
0.00010904
3.12548e-05
4.86994e-05
3.132e-06
5.21588e-06
1.3398e-06
1.89338e-06
2.25518e-06
1.48424e-06
5.70035e-06
4.19058e-06
1.22178e-05
1.04632e-05
2.86953e-05
2.19631e-05
0.000108344
5.09032e-05
0.000495329
0.000382534
0.000286689
0.000194718
0.00115892
0.000979959
0.000658543
0.000812585
0.0019145
0.0017308
0.00153883
0.00134629
0.00269504
0.00262014
0.0024889
0.00231342
0.00287089
0.00296914
0.0030316
0.00304178
0.00277074
0.0029382
0.00308576
0.00234421
0.00251482
0.00290671
0.00298037
0.00273492
0.00229018
0.00239258
0.00237139
0.00236486
0.00253068
0.0036112
0.00409991
0.00389011
0.00311694
0.00271465
0.0029467
0.0033839
0.00434543
0.00442369
0.0043055
0.00444356
0.00431951
0.00405627
0.00373725
0.00339087
0.00306732
0.00278622
0.000755757
0.00223578
8.76637e-07
3.27456e-06
1.39281e-05
6.89141e-05
0.000216946
0.000440105
0.00057917
0.000688993
0.000851056
0.00116004
0.00156141
0.001658
0.00158816
0.00134136
0.000977799
0.000705912
0.000684897
0.0010448
0.00160054
0.00202503
0.0022366
0.00236642
0.00239682
0.00219226
0.0015631
0.000533116
8.93752e-05
0.000113063
4.72662e-05
6.73014e-05
2.13366e-05
3.22343e-05
8.55473e-06
1.37018e-05
7.33407e-07
1.20216e-06
7.48303e-07
5.65332e-07
3.41653e-06
1.33192e-06
8.42484e-06
6.27313e-06
2.21658e-05
2.2236e-05
4.52191e-05
5.04283e-05
0.000133057
8.29905e-05
5.61159e-05
0.000519285
0.000394454
0.000283643
0.000194649
0.00122493
0.00102723
0.000678895
0.000845015
0.00210744
0.00188409
0.00165761
0.00143606
0.00301524
0.00291063
0.00273576
0.00251089
0.00321577
0.00331464
0.003368
0.00336972
0.00310818