/*--------------------------------*- C++ -*----------------------------------*\
  =========                 |
  \\      /  F ield         | OpenFOAM: The Open Source CFD Toolbox
   \\    /   O peration     | Website:  https://openfoam.org
    \\  /    A nd           | Version:  dev
     \\/     M anipulation  |
\*---------------------------------------------------------------------------*/
FoamFile
{
    version     2.0;
    format      ascii;
    class       volScalarField;
    location    "2500";
    object      G;
}
// * * * * * * * * * * * * * * * * * * * * * * * * * * * * * * * * * * * * * //

dimensions      [1 0 -3 0 0 0 0];

internalField   nonuniform List<scalar> 
10028
(
4087.44
4093.43
4094.92
4098.67
4100.93
4103.18
4103.17
4106.18
4109.2
4112.23
4106.93
4110.69
4114.46
4118.26
4122.07
4109.97
4114.45
4118.97
4123.53
4128.12
4132.73
4112.3
4117.48
4122.72
4128.02
4133.38
4138.79
4144.22
4113.93
4119.8
4125.74
4131.75
4137.85
4144.04
4150.29
4156.57
4114.88
4121.42
4128.03
4134.73
4141.55
4148.49
4155.53
4162.65
4169.81
4115.18
4122.36
4129.61
4136.98
4144.49
4152.14
4159.94
4167.86
4175.89
4183.98
4114.85
4122.63
4130.51
4138.51
4146.67
4155.01
4163.53
4172.23
4181.08
4190.05
4199.1
4113.91
4122.28
4130.74
4139.35
4148.13
4157.12
4166.32
4175.75
4185.38
4195.21
4205.17
4215.23
4112.39
4121.31
4130.33
4139.51
4148.88
4158.48
4168.33
4178.44
4188.81
4199.44
4210.28
4221.3
4232.42
4110.32
4119.76
4129.31
4139.03
4148.95
4159.12
4169.57
4180.32
4191.38
4202.75
4214.42
4226.35
4238.48
4250.72
4107.72
4117.65
4127.7
4137.92
4148.36
4159.07
4170.08
4181.42
4193.12
4205.18
4217.61
4230.39
4243.46
4256.77
4270.22
4104.63
4115.01
4125.53
4136.22
4147.15
4158.35
4169.87
4181.76
4194.04
4206.74
4219.87
4233.42
4247.37
4261.67
4276.24
4290.99
4101.06
4111.88
4122.83
4133.96
4145.33
4156.99
4168.99
4181.38
4194.19
4207.47
4221.23
4235.48
4250.22
4265.43
4281.05
4296.98
4313.11
4097.06
4108.28
4119.63
4131.17
4142.95
4155.03
4167.47
4180.31
4193.6
4207.39
4221.71
4236.6
4252.05
4268.07
4284.63
4301.66
4319.06
4336.7
4092.64
4104.23
4115.96
4127.87
4140.03
4152.5
4165.33
4178.57
4192.3
4206.55
4221.37
4236.81
4252.89
4269.64
4287.03
4305.04
4323.6
4342.6
4361.87
4087.85
4099.78
4111.84
4124.1
4136.61
4149.43
4162.61
4176.22
4190.32
4204.98
4220.24
4236.16
4252.79
4270.16
4288.28
4307.15
4326.74
4346.97
4367.71
4388.77
4082.7
4094.94
4107.32
4119.89
4132.71
4145.85
4159.35
4173.29
4187.72
4202.73
4218.36
4234.7
4251.79
4269.69
4288.43
4308.04
4328.52
4349.83
4371.88
4394.52
4417.56
4077.22
4089.75
4102.41
4115.27
4128.38
4141.79
4155.58
4169.8
4184.53
4199.84
4215.79
4232.47
4249.94
4268.28
4287.54
4307.76
4328.99
4351.21
4374.4
4398.45
4423.21
4448.42
4071.44
4084.22
4097.15
4110.26
4123.62
4137.29
4151.33
4165.81
4180.79
4196.35
4212.57
4229.53
4247.3
4265.99
4285.66
4306.39
4328.22
4351.2
4375.33
4400.58
4426.85
4453.94
4481.58
4065.38
4078.4
4091.55
4104.9
4118.49
4132.39
4146.65
4161.34
4176.54
4192.32
4208.75
4225.93
4243.94
4262.89
4282.87
4303.97
4326.28
4349.86
4374.75
4400.99
4428.52
4457.24
4486.94
4517.3
4059.08
4072.3
4085.66
4099.21
4113
4127.1
4141.55
4156.44
4171.82
4187.77
4204.37
4221.72
4239.92
4259.05
4279.24
4300.6
4323.25
4347.27
4372.75
4399.75
4428.3
4458.37
4489.83
4522.46
4555.94
4052.55
4065.96
4079.5
4093.22
4107.19
4121.46
4136.08
4151.12
4166.65
4182.75
4199.49
4216.97
4235.28
4254.54
4274.86
4296.38
4319.22
4343.54
4369.42
4396.98
4426.29
4457.41
4490.31
4524.86
4560.86
4597.9
4045.83
4059.39
4073.08
4086.96
4101.08
4115.5
4130.26
4145.44
4161.09
4177.3
4194.14
4211.7
4230.09
4249.41
4269.8
4291.38
4314.31
4338.76
4364.87
4392.8
4422.64
4454.51
4488.5
4524.57
4562.66
4602.51
4643.51
4038.93
4052.62
4066.44
4080.45
4094.7
4109.24
4124.12
4139.41
4155.16
4171.45
4188.36
4205.98
4224.4
4243.73
4264.12
4285.69
4308.62
4333.06
4359.23
4387.31
4417.46
4449.82
4484.55
4521.74
4561.44
4603.58
4647.74
4693.28
4031.88
4045.67
4059.6
4073.72
4088.07
4102.71
4117.69
4133.06
4148.89
4165.25
4182.2
4199.84
4218.25
4237.56
4257.89
4279.39
4302.22
4326.57
4352.65
4380.68
4410.9
4443.49
4478.64
4516.56
4557.4
4601.26
4647.95
4697.07
4747.83
4024.7
4038.58
4052.59
4066.79
4081.22
4095.94
4110.99
4126.43
4142.31
4158.71
4175.69
4193.32
4211.71
4230.96
4251.19
4272.56
4295.23
4319.39
4345.26
4373.08
4403.13
4435.68
4470.98
4509.24
4550.76
4595.77
4644.3
4696.23
4751.08
4807.9
4017.42
4031.35
4045.43
4059.68
4074.17
4088.94
4104.05
4119.53
4135.46
4151.88
4168.86
4186.47
4204.81
4223.97
4244.07
4265.26
4287.71
4311.6
4337.17
4364.66
4394.36
4426.61
4461.73
4500.01
4541.77
4587.39
4637.09
4690.97
4748.97
4810.46
4874.42
4010.05
4024.02
4038.14
4052.43
4066.95
4081.76
4096.89
4112.4
4128.34
4144.77
4161.73
4179.32
4197.59
4216.64
4236.59
4257.57
4279.75
4303.32
4328.51
4355.56
4384.78
4416.51
4451.15
4489.09
4530.71
4576.43
4626.65
4681.68
4741.76
4806.8
4876.09
4948.54
4002.62
4016.61
4030.74
4045.04
4059.58
4074.39
4089.53
4105.05
4120.99
4137.41
4154.35
4171.88
4190.08
4209.01
4228.79
4249.55
4271.44
4294.64
4319.37
4345.9
4374.54
4405.61
4439.53
4476.77
4517.84
4563.22
4613.36
4668.78
4729.95
4797.23
4870.53
4948.98
5031.74
3995.14
4009.14
4023.26
4037.56
4052.08
4066.88
4082
4097.5
4113.42
4129.81
4146.72
4164.2
4182.31
4201.12
4220.73
4241.25
4262.82
4285.62
4309.87
4335.81
4363.76
4394.06
4427.12
4463.41
4503.5
4548.07
4597.63
4652.74
4714.11
4782.35
4858.06
4941.08
5030.32
5126.23
3987.65
4001.62
4015.72
4029.99
4044.48
4059.24
4074.32
4089.78
4105.66
4122.01
4138.87
4156.28
4174.3
4192.99
4212.43
4232.71
4253.96
4276.35
4300.09
4325.4
4352.6
4382.03
4414.1
4449.27
4488.13
4531.39
4579.83
4634.03
4694.78
4762.96
4839.39
4925.11
5019.7
5101.35
5097
5204.15
5150.47
5205.43
3980.15
3994.07
4008.14
4022.37
4036.8
4051.5
4066.52
4081.92
4097.73
4114.01
4130.8
4148.14
4166.07
4184.64
4203.91
4223.96
4244.91
4266.9
4290.11
4314.78
4341.19
4369.68
4400.65
4434.58
4472.03
4513.7
4560.45
4613.12
4672.55
4739.73
4815.76
4901.67
4999.82
5090.21
5080.28
5145.55
5260.79
5202.98
5261.87
3972.68
3986.53
4000.54
4014.71
4029.07
4043.69
4058.63
4073.93
4089.66
4105.85
4122.55
4139.8
4157.63
4176.08
4195.19
4215.04
4235.7
4257.29
4280
4304.02
4329.62
4357.14
4386.96
4419.55
4455.45
4495.34
4540.07
4590.59
4647.98
4713.31
4787.87
4872.99
4961.23
4945.36
5068.38
4997.72
5053.39
5137.46
5126.31
5197.13
5321.48
5258.91
5322.33
3965.24
3979.01
3992.94
4007.03
4021.3
4035.83
4050.66
4065.86
4081.47
4097.55
4114.15
4131.29
4149.01
4167.33
4186.29
4205.94
4226.34
4247.58
4269.8
4293.2
4318.01
4344.55
4373.18
4404.36
4438.62
4476.61
4519.14
4567.15
4621.81
4684.46
4756.5
4839.6
4928.65
4910.08
4980.64
5112.55
5036.52
5096.08
5187.77
5175.12
5252.1
5386.63
5318.74
5387.24
3957.86
3971.53
3985.37
3999.35
4013.52
4027.94
4042.64
4057.71
4073.18
4089.13
4105.6
4122.62
4140.22
4158.42
4177.24
4196.7
4216.86
4237.77
4259.55
4282.36
4306.42
4332
4359.45
4389.2
4421.77
4457.76
4497.97
4543.32
4594.9
4654.21
4722.87
4802.66
4891.21
4870.91
4961.86
4941.63
5017.58
5159.53
5077.28
5141.15
5241.45
5227.13
5310.88
5456.7
5382.92
5457.03
3950.55
3964.11
3977.84
3991.7
4005.75
4020.03
4034.6
4049.51
4064.82
4080.61
4096.92
4113.79
4131.26
4149.34
4168.03
4187.34
4207.28
4227.9
4249.28
4271.55
4294.89
4319.56
4345.87
4374.22
4405.07
4439.04
4476.86
4519.48
4567.97
4623.75
4688.53
4764.13
4850.88
4829.79
4920.7
4899.19
4996.75
4974.63
5056.3
5209.5
5120.24
5188.93
5298.8
5282.59
5373.82
5532.14
5451.88
5532.14
3943.32
3956.76
3970.36
3984.1
3998.02
4012.15
4026.55
4041.28
4056.42
4072.02
4088.14
4104.84
4122.15
4140.09
4158.66
4177.84
4197.62
4218
4239.04
4260.82
4283.49
4307.3
4332.52
4359.5
4388.7
4420.65
4456.09
4495.97
4541.48
4593.87
4654.68
4725.86
4809.3
4787.93
4877.69
4856.06
4952.09
4929.53
5033.46
5009.7
5097.16
5262.71
5165.79
5239.79
5360.1
5341.82
5441.4
5613.53
5526.11
5613.14
3936.19
3949.49
3962.97
3976.57
3990.33
4004.3
4018.52
4033.06
4047.99
4063.37
4079.28
4095.77
4112.9
4130.68
4149.11
4168.18
4187.83
4208.05
4228.82
4250.2
4272.29
4295.3
4319.47
4345.16
4372.74
4402.73
4435.85
4473.11
4515.75
4564.89
4621.9
4688.73
4768.02
4747.36
4834.47
4812.85
4907.15
4884.76
4986.1
4962.78
5072.6
5047.83
5140.88
5319.55
5214.63
5294.38
5425.83
5405.33
5514.13
5701.48
5606.13
5700.62
3929.16
3942.32
3955.66
3969.11
3982.72
3996.51
4010.54
4024.87
4039.57
4054.71
4070.37
4086.62
4103.52
4121.11
4139.39
4158.34
4177.9
4198
4218.59
4239.68
4261.3
4283.61
4306.85
4331.3
4357.34
4385.42
4416.26
4451.07
4491
4537.22
4590.89
4653.42
4727.98
4708.06
4791.52
4770.18
4862.24
4839.55
4939.55
4916.12
5023.53
4999.37
5115.28
5089.93
5188.62
5380.61
5267.91
5353.69
5496.52
5473.64
5592.49
5796.68
5692.47
5795.27
3922.23
3935.25
3948.45
3961.75
3975.19
3988.8
4002.63
4016.74
4031.19
4046.06
4061.44
4077.4
4094.03
4111.39
4129.49
4148.31
4167.78
4187.82
4208.32
4229.22
4250.5
4272.25
4294.66
4318.01
4342.63
4368.92
4397.52
4429.85
4467.42
4511.17
4561.83
4620.07
4689.29
4670.23
4749.14
4728.25
4816.78
4793.93
4892.25
4867.93
4975
4950.01
5064.82
5039.46
5162.62
5136.53
5241.68
5446.77
5327.08
5419.29
5572.63
5547.43
5677.03
5899.93
5785.88
5897.87
3915.42
3928.3
3941.35
3954.49
3967.76
3981.19
3994.81
4008.69
4022.88
4037.47
4052.53
4068.17
4084.48
4101.55
4119.41
4138.07
4157.46
4177.47
4197.95
4218.77
4239.85
4261.19
4282.93
4305.31
4328.65
4353.31
4379.86
4409.67
4444.97
4486.78
4535.01
4589.11
4652.29
4634.34
4707.75
4687.54
4771.12
4748.48
4843.22
4818.28
4924.16
4897.52
5013.32
4986
5110.13
5082.8
5215.21
5187.91
5300.63
5519.56
5392.89
5492.77
5654.79
5627.94
5768.55
6012.22
5887.06
6009.29
3908.72
3921.46
3934.35
3947.34
3960.44
3973.68
3987.1
4000.74
4014.67
4028.95
4043.68
4058.96
4074.9
4091.62
4109.18
4127.63
4146.91
4166.9
4187.42
4208.27
4229.29
4250.39
4271.62
4293.18
4315.39
4338.6
4363.28
4390.79
4423.66
4463.9
4510.36
4561.05
4617.74
4601.76
4667.96
4648.9
4726.18
4704.3
4793.32
4768.56
4870.34
4842.91
4957.45
4927.95
5054.01
5023.64
5159.26
5128.9
5273.25
5243.73
5365.75
5601.13
5465.92
5574.78
5744.18
5717.39
5867.77
6134.65
5996.79
6130.47
3902.14
3914.74
3927.48
3940.31
3953.24
3966.3
3979.51
3992.92
4006.58
4020.55
4034.93
4049.82
4065.35
4081.64
4098.83
4116.99
4136.12
4156.08
4176.67
4197.63
4218.73
4239.78
4260.71
4281.62
4302.84
4324.75
4347.77
4373.1
4403.64
4442.15
4487.53
4535.93
4585.13
4630.88
4614.1
4683.02
4662.46
4744.21
4720.44
4815.49
4788.37
4897.9
4867.71
4991.86
4959.1
5096.7
5062.75
5211.69
5177.47
5336.32
5303.45
5436.9
5692.52
5546.34
5665.62
5842.31
5818.17
5975.8
6268.67
6115.89
6262.37
3895.69
3908.14
3920.74
3933.41
3946.17
3959.04
3972.04
3985.22
3998.62
4012.29
4026.31
4040.79
4055.87
4071.68
4088.41
4106.19
4125.09
4144.98
4165.64
4186.76
4208.03
4229.19
4250.06
4270.58
4291
4311.75
4333.31
4356.56
4384.78
4421.3
4465.72
4513.03
4559.11
4607.82
4592.38
4642.96
4624.75
4697.36
4675.12
4761.83
4735.99
4837.62
4807.95
4925.89
4892.69
5027.34
4991.06
5141.32
5103.43
5267.28
5228.65
5404.08
5367.02
5513.88
5794.37
5634.01
5765.46
5952.04
5931.65
6094.81
6418.47
6245.87
6409.47
3889.34
3901.67
3914.13
3926.64
3939.23
3951.92
3964.72
3977.68
3990.81
4004.19
4017.86
4031.93
4046.52
4061.81
4077.99
4095.3
4113.86
4133.61
4154.3
4175.59
4197.09
4218.46
4239.45
4259.88
4279.77
4299.55
4319.8
4341.27
4366.92
4401.23
4444.27
4491.01
4536.23
4579.13
4566.95
4616.53
4600.65
4654.06
4634.47
4710.98
4686.95
4779.06
4751.06
4859.77
4827.47
4954.5
4918.16
5064.2
5024.24
5188.19
5146.18
5326.24
5282.9
5476.62
5434.76
5596.92
5907.71
5729.35
5875.2
6076.86
6059.64
6229.17
6591.69
6394.51
6584.35
3883.16
3895.31
3907.65
3920.01
3932.43
3944.94
3957.55
3970.29
3983.18
3996.26
4009.59
4023.26
4037.37
4052.09
4067.66
4084.39
4102.48
4121.98
4142.64
4164.08
4185.82
4207.46
4228.68
4249.23
4268.96
4288.05
4307.17
4327.14
4350.24
4381.82
4423.06
4468.91
4514.03
4556
4545.12
4587.12
4575.22
4624.26
4607.89
4664.27
4643.26
4723.98
4698.06
4796.14
4765.82
4882.26
4847.16
4984.19
4944.52
5103.01
5059.23
5237.96
5191.71
5389.14
5341.05
5554.49
5507.47
5686.78
6034.02
5833.57
5996.56
6220.03
6205.17
6390.27
6826.36
6583.68
6824.37
3889.16
3901.29
3913.51
3925.77
3938.11
3950.53
3963.06
3975.71
3988.53
4001.54
4014.82
4028.46
4042.61
4057.53
4073.57
4091.07
4110.17
4130.69
4152.22
4174.2
4196.13
4217.61
4238.39
4258.23
4277.06
4295.31
4313.99
4334.87
4363.25
4402.09
4446.57
4491.3
4533.17
4564.31
4553.67
4594.31
4582.71
4631.11
4614.38
4673.68
4651.15
4736.52
4708.55
4813.2
4780.38
4905.42
4867.24
5015.39
4971.98
5144.21
5096.02
5291.28
5240.07
5456.89
5403.5
5638.75
5586.24
5784.92
6175.85
5948.71
6131.77
6389.58
6373
6596.05
7154.4
6844.1
7163.41
3895.13
3907.15
3919.26
3931.42
3943.66
3955.98
3968.42
3980.99
3993.71
4006.63
4019.83
4033.43
4047.68
4062.99
4079.77
4098.31
4118.53
4140.05
4162.22
4184.42
4206.19
4227.24
4247.31
4266.23
4284.06
4301.66
4320.76
4345.9
4381.61
4424.18
4468.01
4510.21
4550.99
4539.8
4572.05
4561.57
4600.95
4589.65
4637.32
4620.48
4682.33
4658.25
4748.68
4718.47
4830.34
4794.7
4929.22
4887.53
5047.83
5000.13
5187.55
5134.16
5348.01
5290.79
5529.86
5469.93
5730.88
5671.68
5893.34
6336.66
6076.9
6283.12
6594.79
6567.73
6855.11
7560.95
7174.34
7565.71
3900.99
3912.88
3924.88
3936.94
3949.08
3961.31
3973.64
3986.1
3998.7
4011.5
4024.59
4038.21
4052.75
4068.73
4086.55
4106.29
4127.63
4149.89
4172.32
4194.38
4215.71
4236.08
4255.22
4273.08
4290.01
4307.72
4329.92
4362.07
4402.14
4444.54
4486.23
4526.02
4558.2
4547.01
4579.21
4568.86
4607.27
4596.18
4643.31
4626.52
4690.29
4664.82
4760.35
4727.79
4847.31
4808.58
4953.17
4907.46
5080.68
5027.84
5231.87
5172.02
5406.99
5342.05
5607.7
5539.01
5831.98
5763.3
6012.77
6521.57
6220.44
6394.19
6430.23
6839.28
6750.69
6724.18
7162.58
8022.03
7552.3
8006.85
3906.73
3918.49
3930.38
3942.34
3954.37
3966.49
3978.7
3991.02
4003.47
4016.11
4029.14
4042.94
4058.08
4075.05
4094.1
4115.06
4137.26
4159.86
4182.18
4203.78
4224.45
4243.91
4262
4278.76
4295.49
4315.31
4343.79
4380.89
4421.33
4461.93
4501.73
4541.97
4530
4564.74
4553.51
4585.83
4575.47
4613.47
4602.33
4649.39
4632.75
4697.76
4671.18
4771.43
4736.52
4863.53
4821.45
4976.06
4925.94
5112.31
5053.65
5275.39
5208
5466.4
5392.45
5689.33
5610.04
5942
5816.12
5857.53
6131.31
6091.03
6523.05
6696.35
6659.44
6359.45
6316.62
6200.36
6484.68
7062.43
7035.95
6874.08
6844.08
7214.24
7435.73
7408.35
8471
7875.66
7848.6
7619.52
8089.67
8357.27
8342.04
3912.34
3923.97
3935.75
3947.59
3959.51
3971.51
3983.58
3995.73
4008
4020.51
4033.63
4047.93
4063.97
4082.15
4102.51
4124.43
4147.08
4169.63
4191.48
4212.41
4232.21
4250.64
4267.57
4283.77
4301.86
4326.92
4360.76
4398.84
4437.89
4476.99
4514.65
4547.41
4535.52
4570.34
4559.03
4591.83
4581.25
4619.63
4608.13
4655.86
4639.33
4704.82
4677.55
4781.47
4744.48
4878.08
4832.63
4996.62
4941.93
5141.18
5076.08
5316.85
5240.9
5532.37
5491.35
5450.61
5409.23
5775.15
5731.22
5563.43
5641.78
5687.48
5908.05
6051.4
6006.23
5864.82
6157.96
6622.05
6809.92
6770.56
6443.79
6398.47
6273.37
6579.42
7183.74
7006.44
6971.5
7377.49
7588.35
8982.35
8592.44
8060.66
7816.72
8316.77
8579.95
3917.81
3929.32
3940.99
3952.72
3964.51
3976.37
3988.27
4000.23
4012.32
4024.85
4038.37
4053.46
4070.62
4090.14
4111.56
4134.06
4156.77
4178.88
4200.03
4220.1
4238.92
4256.19
4272.26
4289.24
4311.43
4341.93
4377.4
4414.56
4452.38
4489.79
4527.82
4515.47
4551.72
4539.86
4574.82
4563.37
4597.12
4586.08
4625.82
4613.58
4662.94
4646.26
4711.65
4684.25
4790.16
4751.74
4890.19
4841.74
5013.52
4954.34
5166.14
5094.1
5367.8
5326.09
5284.47
5243.19
5520.4
5476.85
5432.95
5820.02
5773.43
5595.97
5677.97
5726.19
5961.22
6113.37
6065.52
5914.56
6226.8
6727.38
6932.03
6887.62
6532.97
6349.81
6482.84
6679.05
7148.11
7340.84
7107.55
7550.92
7778.72
9116.81
8847.77
9474.73
9446.29
8023.53
8283.03
8553.79
8832.49
3923.15
3934.53
3946.09
3957.7
3969.35
3981.05
3992.76
4004.53
4016.58
4029.45
4043.67
4059.71
4078.12
4098.83
4120.91
4143.63
4166.04
4187.42
4207.69
4226.81
4244.5
4260.74
4277.11
4297.13
4324.47
4357.21
4392.25
4428.43
4464.83
4503.27
4490.97
4530.93
4518.82
4554.77
4542.92
4578.23
4566.52
4601.72
4589.96
4632
4618.68
4670.54
4653.32
4718.51
4691.53
4797.44
4758.41
4899.19
4848.59
5025.94
4962.71
5202.46
5162.47
5123.67
5085.96
5388.9
5344.63
5300.51
5256.81
5549.86
5503.45
5456.83
5866.28
5816.57
5629.09
5715
5766.17
6016.19
6177.81
6126.18
5965.75
6298.14
6838.19
7062.21
7011.26
6626.36
6429.05
6570.34
6783.53
7299.11
7507.93
7252.46
7734.74
7979.56
9100.68
9418.77
9768.06
9750.67
8241.04
8516.57
8803.71
3928.36
3939.62
3951.05
3962.53
3974.04
3985.55
3997.07
4008.76
4021.1
4034.63
4049.66
4066.72
4086.37
4107.81
4130.27
4152.94
4174.68
4195.13
4214.43
4232.47
4249.09
4265.21
4283.73
4308.32
4338.37
4371.16
4405.49
4440.51
4474.43
4506.7
4494.58
4532.69
4520.72
4556.58
4544.64
4580.71
4568.58
4605.74
4593.09
4637.94
4623.35
4678.26
4660.09
4725.54
4699.35
4803.46
4764.68
4904.9
4853.36
5050.04
5015
4982.51
4950.94
5213.79
5171.69
5130.88
5091.62
5410.07
5363.16
5316.45
5270.25
5579.93
5530.6
5481.1
5914.02
5861.1
5663.02
5753.14
5807.52
6072.85
6244.49
6188.86
6018.66
6372.19
6954.75
7200.09
7141.52
6724.21
6511.12
6661.49
6893.06
7459.7
7685.21
7406.03
7929.4
8191.61
9068.69
9388.85
9723.33
10029.8
10037.5
8470.29
8763.3
3933.43
3944.57
3955.88
3967.22
3978.57
3989.9
4001.32
4013.24
4026.23
4040.5
4056.29
4074.41
4094.94
4116.86
4139.5
4161.73
4182.53
4201.98
4220.22
4237.25
4253.38
4270.96
4293.3
4320.84
4351.39
4383.8
4417.24
4450.17
4484.76
4472.79
4508.75
4496.78
4533.19
4521.3
4557.43
4545.22
4582.59
4569.86
4609.27
4595.69
4643.37
4627.49
4685.46
4666.06
4732.82
4707.12
4808.57
4770.72
4907.76
4856.37
5054.08
5018.2
4984.63
4953.27
5224.84
5180.52
5137.65
5096.64
5431.53
5381.88
5332.45
5283.62
5610.76
5558.38
5505.8
5963.49
5907.34
5697.92
5792.56
5850.42
6131.64
6313.59
6253.78
6073.58
6448.89
7077.05
7345.71
7278.76
6826.83
6596.15
6757.03
7007.61
7630.14
7873.12
7568.4
8135.34
8415.85
9024.75
9350.35
9690.18
10029.8
10331
10354.7
8712.87
3938.37
3949.38
3960.57
3971.77
3982.96
3994.18
4005.77
4018.31
4032.08
4046.96
4063.46
4082.47
4103.58
4125.81
4148.34
4169.8
4189.55
4207.95
4225.22
4241.55
4258.59
4279.21
4304.49
4332.95
4363.42
4395.21
4426.93
4456.22
4486.06
4474.48
4509.49
4497.75
4532.85
4520.87
4557.68
4545.11
4583.98
4570.62
4612.31
4597.84
4648.01
4630.94
4691.48
4670.91
4739.7
4713.96
4812.66
4775.71
4923.89
4894.73
4845.38
4869.8
5057.58
5020.56
4986.01
4953.88
5235.7
5189.03
5144.02
5101.15
5453.24
5400.76
5348.51
5296.91
5642.41
5586.75
5530.87
6014.86
5955.32
5733.82
5833.16
5894.83
6192.58
6385.12
6320.87
6130.55
6528.41
7205.79
7499.47
7423.62
6934.19
6685.07
6857.32
7128.21
7810.47
8072.2
7740.13
8353.32
8653.23
8969.98
9301.56
9647.67
10002.5
10355.7
10724.4
10724.8
3943.18
3954.07
3965.13
3976.2
3987.28
3998.61
4010.78
4024.18
4038.53
4053.85
4070.97
4090.64
4112.16
4134.49
4156.59
4177.04
4195.74
4213.14
4229.68
4246.45
4265.82
4289.17
4315.69
4344.32
4374.46
4404.91
4433.52
4463.4
4452.2
4486.09
4474.75
4509.11
4497.52
4532.02
4519.91
4557.42
4544.5
4584.83
4570.84
4614.77
4599.44
4651.68
4633.59
4696.08
4674.57
4745.18
4719.25
4825
4804.77
4778.61
4923.42
4895.09
4846.07
4869.53
5060.52
5022.26
4986.74
4953.87
5246.35
5197.21
5149.93
5105.11
5475.18
5419.7
5364.48
5309.97
5674.79
5615.61
5556.28
6068.13
6004.95
5770.58
5874.74
5940.49
6255.57
6459.49
6390.52
6189.51
6611.71
7342.01
7662.1
7577.1
7047.17
6778.57
6963.18
7256.22
8001.21
8282.79
7921.85
8584.23
8904.56
9241.82
9593.95
9959.38
10330.4
10710
11134.7
11113.8
3947.87
3958.64
3969.59
3980.56
3991.7
4003.53
4016.61
4030.68
4045.35
4060.98
4078.6
4098.8
4120.51
4142.71
4164.08
4183.5
4201.14
4217.77
4234.43
4252.95
4274.71
4299.45
4326.39
4354.94
4384.1
4411.98
4436.25
4463.27
4452.51
4485.3
4474.21
4508.1
4496.58
4530.74
4518.52
4556.62
4543.41
4585.03
4570.46
4616.52
4600.37
4654.38
4635.38
4699.35
4677.15
4748.93
4722.96
4825.11
4805.52
4789.05
4771.99
4922.72
4894.65
4846.13
4869.19
5062.87
5023.35
4986.91
4953.42
5256.65
5204.91
5155.27
5108.41
5497.24
5438.49
5380.11
5322.57
5707.72
5644.75
5581.79
6123.11
6055.85
5808.05
5917
5987.09
6320.95
6537.41
6463.1
6250.52
6699.16
7486.78
7834.45
7740.27
7167.15
6877.39
7075.63
7392.44
8203.23
8505.71
8114.67
8828.49
9170.18
9528.56
9902.07
10286
10677.6
11082.2
11496.3
11488.2
3952.44
3963.11
3973.98
3984.98
3996.52
4009.24
4023.14
4037.57
4052.38
4068.18
4086.23
4106.79
4128.48
4150.3
4170.76
4189.12
4205.92
4222.49
4240.44
4260.94
4284.12
4309.49
4336.54
4364.43
4391.53
4415.59
4441.48
4431.33
4462.41
4451.87
4484.09
4473.15
4506.71
4495.25
4528.96
4516.71
4555.21
4541.76
4584.46
4569.4
4617.43
4600.47
4656.16
4636.26
4701.62
4678.8
4758.17
4744.23
4725.4
4825.3
4806.18
4789.24
4773.26
4921.68
4893.79
4845.86
4868.58
5064.51
5023.76
4986.49
4952.52
5266.39
5211.98
5159.91
5110.97
5519.18
5456.87
5395.14
5334.5
5741
5673.86
5606.99
6179.56
6107.68
5845.99
5959.55
6034.29
6388.74
6619.01
6538.74
6313.47
6791.14
7641.12
8017.81
7914.38
7294.88
6982.34
7195.25
7537.88
8417.43
8741.76
8319.92
9086.61
9450.22
9830.87
10225.2
10628.4
11041.3
11460
11886.2
11876.5
3956.9
3967.51
3978.39
3989.69
4002.03
4015.73
4030.12
4044.67
4059.44
4075.36
4093.79
4114.49
4135.98
4157.14
4176.61
4194.05
4210.62
4228.17
4247.72
4269.57
4293.5
4319.14
4345.79
4372.04
4395.85
4416.42
4440.96
4431.1
4461.29
4451.02
4482.55
4471.79
4504.95
4493.59
4526.61
4514.43
4553.03
4539.45
4582.97
4567.49
4617.39
4599.6
4657.02
4636.16
4708.76
4697.15
4679.61
4758.85
4745
4720.74
4733.57
4825.31
4806.46
4789.66
4774.11
4920.15
4892.49
4845.35
4867.66
5065.38
5023.4
4985.37
4951.03
5275.4
5218.3
5163.84
5112.79
5540.55
5474.5
5409.32
5345.54
5774.4
5702.62
5631.44
6237.37
6160.33
5883.83
6002.06
6081.94
6458.78
6704.65
6617.89
6378.22
6888.52
7806.09
8213.87
8101.09
7431.52
7094.16
7323.43
7693.69
8644.64
8991.34
8538.11
9358.91
9745.23
10148.3
10562.6
10985.9
11416.3
11847.9
12307.2
12282.8
3961.3
3971.9
3983
3994.98
4008.36
4022.74
4037.34
4051.79
4066.42
4082.49
4101.2
4121.83
4142.88
4163.21
4181.74
4198.75
4216.03
4234.9
4255.66
4278.32
4302.64
4328.08
4353.45
4376.87
4397.51
4416.17
4440.16
4430.53
4459.96
4449.96
4480.73
4470.2
4502.79
4491.59
4523.62
4511.59
4549.96
4536.37
4580.39
4564.57
4616.28
4597.62
4656.99
4635.03
4709.17
4697.01
4685.31
4674.11
4759.78
4746.26
4721.5
4734.18
4825.15
4806.61
4790.07
4774.82
4918.1
4890.74
4844.61
4866.4
5065.48
5022.26
4983.53
4948.93
5283.56
5223.82
5167.03
5113.97
5560.94
5491.1
5422.46
5355.53
5807.3
5730.63
5654.86
6296.5
6213.72
5921
6043.98
6129.7
6531.38
6794.92
6700.91
6444.64
6992.26
7983.3
8423.14
8301.17
7578.36
7213.95
7461.25
7861.48
8885.38
9254.99
8769.65
9645.62
10055.6
10479.7
10914.1
11356.6
11802.2
12247.6
12675.6
12675.1
3965.66
3976.4
3988.05
4001.03
4015.31
4030.06
4044.63
4058.82
4073.34
4089.55
4108.38
4128.75
4149.18
4168.62
4186.53
4203.92
4222.31
4242.25
4263.83
4286.95
4311.22
4335.66
4358.6
4379.24
4398.01
4419.97
4429.81
4411.15
4439.18
4458.45
4448.72
4478.64
4468.4
4500.16
4489.21
4519.93
4508.19
4545.86
4532.43
4576.5
4560.44
4614
4594.35
4655.85
4632.75
4709.43
4697.22
4684.92
4672.95
4760.59
4747.11
4721.92
4734.69
4824.8
4806.65
4790.45
4775.41
4915.62
4888.71
4843.75
4864.97
5064.99
5020.51
4981.01
4946.23
5290.71
5228.49
5169.53
5114.61
5580.1
5506.41
5434.34
5364.35
5839.13
5757.49
5677.04
6356.61
6267.36
5956.96
6084.53
6176.8
6606.82
6890.35
6788.18
6512.73
7103.12
8173.82
8645.37
8514.1
7736.7
7342.35
7609.57
8042.1
9139.97
9532.8
9014.96
9947.28
10379.9
10824.8
11279.3
11739.2
12200.2
12652.8
13085.2
13089.4
3970.07
3981.22
3993.78
4007.81
4022.67
4037.51
4051.82
4065.75
4080.2
4096.54
4115.33
4135.26
4154.96
4173.69
4191.62
4209.83
4229.16
4249.88
4271.96
4295.14
4318.62
4341.02
4361.58
4380.47
4397.84
4428.93
4419.18
4410.55
4438.03
4456.73
4447.29
4476.27
4466.38
4497.09
4486.49
4515.51
4504.25
4540.62
4527.56
4571.17
4554.99
4610.43
4589.66
4659.43
4648.15
4628.75
4709.4
4697.06
4684.04
4671.71
4761.23
4747.72
4722.03
4734.93
4824.38
4806.66
4790.67
4775.76
4912.83
4886.52
4842.82
4863.45
5064.08
5018.36
4978.03
4943.07
5296.81
5232.26
5171.34
5114.77
5597.85
5520.26
5444.79
5371.81
5869.46
5782.76
5697.53
6417.55
6320.96
5991.18
6123.55
6222.96
6685.55
6991.76
6880.14
6582.8
7221.65
8376.8
8880.89
8739.33
7906.97
7479.96
7768.61
8234.63
9408.77
9824.95
9274.26
10263.2
10717.4
11183.5
11657.3
12134.7
12609.4
13075.3
13520.2
13530.1
3974.68
3986.6
4000.26
4015.11
4030.23
4044.91
4058.91
4072.59
4087.03
4103.48
4122.05
4141.42
4160.48
4178.96
4197.32
4216.29
4236.34
4257.54
4279.74
4302.27
4324.08
4344.51
4363.46
4381.08
4401.63
4393.49
4427.89
4418.27
4409.89
4436.73
4454.82
4445.7
4473.65
4464.12
4493.62
4483.45
4510.39
4499.79
4534.2
4521.76
4564.38
4548.18
4605.25
4583.46
4657.51
4645.43
4629.51
4618.11
4708.98
4696.45
4682.5
4669.93
4761.62
4748.08
4721.73
4734.76
4823.93
4806.61
4790.6
4775.79
4909.9
4884.21
4841.64
4861.76
5062.86
5016.03
4974.94
4939.78
5301.77
5235.12
5172.45
5114.39
5613.9
5532.42
5453.58
5377.79
5897.91
5805.97
5715.88
6479.41
6374.52
6023.51
6161.13
6268.32
6767.69
7099.89
6977.21
6654.9
7348.2
8591.1
9129.9
8976.94
8087.97
7626.76
7936.9
8437
9691.42
10131.7
9547.5
10592.7
11068.8
11555.6
12048.1
12542.9
13034.6
13525.5
13897.3
13991.8
3979.71
3992.69
4007.39
4022.72
4037.83
4052.19
4065.85
4079.37
4093.91
4110.41
4128.61
4147.44
4166.16
4184.72
4203.55
4223.11
4243.59
4264.91
4286.56
4307.78
4328.03
4346.99
4364.77
4381.26
4401.14
4393.17
4426.72
4417.27
4409.17
4435.27
4452.72
4443.94
4470.77
4461.65
4489.75
4480.11
4504.64
4494.86
4526.7
4515.1
4556.14
4540.09
4597.88
4575.56
4654.64
4642.1
4625.49
4613.54
4707.94
4695.17
4680.11
4667.32
4761.65
4748.04
4720.86
4734.01
4823.2
4806.28
4790.11
4775.37
4906.87
4881.71
4840.1
4859.8
5061.29
5013.56
4971.86
4936.5
5305.45
5236.93
5172.67
5113.26
5627.86
5542.51
5460.39
5381.92
5924.3
5827.04
5731.91
6541.79
6427.33
6053.76
6196.44
6312.01
6853.53
7214.64
7078.76
6728.96
7481.79
8816.51
9392.7
9228.08
8277.79
7780.93
8112.52
8649.28
9988.45
10452.9
9834.65
10936.1
11433.7
11940.4
12452.5
12966.2
13484.5
14017.8
14414.6
14606.7
3985.36
3999.54
4014.97
4030.47
4045.33
4059.31
4072.66
4086.18
4100.93
4117.39
4135.2
4153.61
4172.19
4190.95
4210.15
4230.06
4250.61
4271.46
4292.14
4312.14
4331.04
4348.9
4365.68
4381.3
4400.61
4392.88
4425.44
4416.24
4408.4
4433.69
4450.45
4442.03
4467.65
4458.99
4485.51
4476.47
4498.37
4489.53
4518.32
4507.76
4546.46
4530.91
4595.66
4584.77
4565.48
4650.67
4637.97
4620.15
4607.92
4706.06
4693.02
4676.56
4663.55
4761.21
4747.47
4719.2
4732.52
4822.12
4805.58
4788.98
4774.29
4903.52
4878.82
4838.16
4857.41
5059.13
5010.78
4968.67
4933.05
5307.43
5237.26
5171.68
5111.17
5639.32
5550.02
5464.64
5383.49
5948.27
5845.47
5745.06
6604.32
6478.54
6081.41
6223.25
6347.93
6942.11
7333.56
7182.05
6803.84
7620.21
9054.39
9669.42
9493.21
8475.59
7940.76
8295.03
8872.46
10301
10788.3
10136.9
11292.8
11811.1
12338.7
12870.6
13409.1
13969.5
14595.5
16512
15545.1
3991.8
4006.99
4022.81
4038.18
4052.65
4066.23
4079.41
4093.14
4108.13
4124.51
4142.02
4160.15
4178.66
4197.55
4216.96
4236.85
4257.02
4277.2
4296.86
4315.61
4333.48
4350.42
4366.34
4381.16
4392.51
4400.04
4424.12
4415.18
4407.6
4432.04
4448.06
4440.02
4464.33
4456.16
4480.97
4472.59
4491.74
4483.93
4509.36
4499.97
4535.25
4520.82
4589.76
4578.78
4560.96
4551.55
4645.39
4632.64
4613.59
4601.49
4702.99
4689.71
4671.57
4658.39
4760.06
4746.14
4716.39
4729.94
4820.59
4804.34
4787.01
4772.26
4899.9
4875.52
4835.69
4854.54
5056.34
5007.67
4965.34
4929.47
5306.91
5235.19
5168.57
5107.49
5647.63
5554.23
5465.42
5381.53
5969.11
5856.17
5749.25
6663.64
6528.73
6104.58
6223.42
6403.3
7028.33
7451.88
7282.97
6877.03
7762.06
9306.3
9960.46
9772.69
8683.09
8106.19
8486.2
9109.14
10627.6
11136.9
10453.6
11662.3
12201.3
12749.2
13303.4
13876.8
14502.7
15276.3
19049.7
16649.5
3999.01
4014.85
4030.71
4045.73
4059.7
4072.95
4086.23
4100.29
4115.5
4131.86
4149.17
4167.12
4185.55
4204.44
4223.73
4243.31
4262.94
4282.18
4300.71
4318.52
4335.52
4351.64
4366.79
4384.49
4392.17
4391.75
4377.58
4399.47
4422.77
4414.12
4406.79
4430.38
4445.62
4438
4460.9
4453.26
4476.23
4468.55
4484.99
4478.25
4500.09
4492.02
4529.69
4545.09
4522.49
4510.13
4582.62
4571.68
4554.13
4638.71
4626
4605.88
4594.03
4698.39
4684.9
4664.92
4651.7
4757.85
4743.74
4712.03
4725.84
4818.45
4802.33
4783.82
4768.88
4895.99
4871.73
4832.41
4851
5052.46
5003.89
4961.67
4925.7
5302.81
5229.55
5161.96
5100.62
5648.96
5553.23
5462.17
5376.16
5992.13
5890.31
5739.35
6739.55
6546.66
6108.16
6219.85
6382.71
7127.22
7581.48
7326.36
6906.91
7915.29
9573.41
10266.8
10068.4
8903.33
8284.37
8690.67
9361.67
10967.2
11498.2
10783.6
12043.7
12602.9
13170.6
13752.3
14370.7
15078.1
15983.5
21995.4
18001.5
4006.82
4022.92
4038.5
4052.98
4066.47
4079.65
4093.22
4107.61
4123.01
4139.4
4156.58
4174.38
4192.67
4211.35
4230.32
4249.34
4268.09
4286.34
4304.01
4321
4337.23
4352.63
4367.1
4391.4
4384.28
4398.88
4377.46
4421.43
4413.08
4406
4428.73
4443.21
4435.99
4457.49
4450.38
4471.44
4464.51
4478.47
4472.76
4490.91
4484.29
4537.84
4523.06
4516.49
4504.73
4499.66
4574.59
4564.08
4546.53
4630.62
4618.09
4597.09
4585.6
4691.94
4678.33
4656.52
4643.44
4754.22
4739.87
4705.76
4719.8
4815.32
4799.22
4778.81
4763.58
4891.13
4866.71
4827.56
4846
5045.95
4998.1
4956.68
4920.96
5295.61
5221.07
5152.64
5091.59
5641.63
5547.62
5457.16
5371.01
6002.32
5873.43
5736.07
6720.89
6543.42
6104.76
6216.71
6378.88
7109.14
7565.79
7323.12
6903.72
7904.63
9863.54
10587.1
10378.3
9137.98
8276.93
8687.16
9631.32
11320.2
11871.4
11128.7
12436.4
13013.4
13601.7
14214.5
14882.6
15653.4
16717.6
24734.8
19839.8
4015.02
4030.98
4045.99
4059.84
4073.09
4086.45
4100.34
4115.02
4130.59
4146.97
4164.04
4181.65
4199.69
4218
4236.38
4254.62
4272.52
4289.97
4306.86
4323.12
4338.66
4353.45
4367.48
4398.32
4391.05
4384.13
4377.47
4420.13
4412.07
4405.22
4427.12
4440.89
4434.05
4454.2
4447.61
4466.81
4460.61
4472.52
4467.71
4482.56
4494.64
4477.24
4530.44
4516.25
4510.23
4499.11
4565.87
4555.9
4538.5
4621.15
4608.96
4587.37
4576.38
4683.45
4669.86
4646.41
4633.64
4748.66
4734.07
4697.3
4711.43
4810.53
4794.4