/*--------------------------------*- C++ -*----------------------------------*\
  =========                 |
  \\      /  F ield         | OpenFOAM: The Open Source CFD Toolbox
   \\    /   O peration     | Website:  https://openfoam.org
    \\  /    A nd           | Version:  dev
     \\/     M anipulation  |
\*---------------------------------------------------------------------------*/
FoamFile
{
    version     2.0;
    format      ascii;
    class       volScalarField;
    location    "2500";
    object      H2O;
}
// * * * * * * * * * * * * * * * * * * * * * * * * * * * * * * * * * * * * * //

dimensions      [0 0 0 0 0 0 0];

internalField   nonuniform List<scalar> 
10028
(
9.56521e-30
3.53701e-29
2.08467e-29
8.43091e-29
8.29869e-29
1.46166e-29
1.59705e-28
1.95812e-28
7.44904e-29
1.11108e-29
2.69131e-28
4.30009e-28
2.9659e-28
5.94683e-29
6.68796e-30
3.76057e-28
7.61409e-28
6.43151e-28
2.63638e-28
4.10972e-29
1.96323e-30
7.12502e-28
1.66783e-27
1.36849e-27
6.62262e-28
1.474e-28
2.3511e-29
1.1487e-30
8.57118e-28
2.58998e-27
2.78069e-27
1.29499e-27
5.35146e-28
1.10707e-28
9.70269e-30
2.26327e-31
2.91432e-27
6.58751e-27
6.46581e-27
3.81931e-27
1.28438e-27
4.25913e-28
4.15345e-29
2.17585e-30
9.52876e-32
2.22923e-27
1.37402e-26
1.43812e-26
8.45647e-27
3.16594e-27
1.082e-27
2.38613e-28
1.84103e-29
1.02501e-30
1.6393e-32
8.30037e-27
2.67618e-26
2.90683e-26
1.83544e-26
8.12221e-27
2.2505e-27
7.49529e-28
7.57801e-29
7.13398e-30
3.18651e-31
1.41491e-32
6.52384e-27
4.49877e-26
6.80946e-26
3.80172e-26
2.06902e-26
7.70947e-27
2.04436e-27
4.44615e-28
4.00608e-29
1.5523e-30
1.58357e-31
2.84215e-32
6.00192e-27
4.07443e-26
1.13039e-25
1.02098e-25
4.75808e-26
1.89014e-26
6.12897e-27
1.38916e-27
2.15663e-28
1.25204e-29
1.08311e-30
3.99818e-31
2.88827e-31
1.28131e-26
9.98771e-26
1.68977e-25
1.84528e-25
1.13079e-25
4.58531e-26
1.50305e-26
3.63439e-27
7.65685e-28
7.53791e-29
7.3931e-30
3.41521e-30
3.7157e-30
3.16189e-30
3.28331e-26
1.14605e-25
2.31007e-25
4.56084e-25
2.09409e-25
1.10616e-25
3.46613e-26
1.10706e-26
2.0544e-27
2.9102e-28
4.94135e-29
2.45503e-29
3.14767e-29
4.41698e-29
2.65041e-29
1.37506e-26
2.01896e-25
5.24725e-25
7.02222e-25
5.5503e-25
2.49463e-25
9.06594e-26
2.54175e-26
6.22792e-27
1.41742e-27
2.45524e-28
2.20564e-28
4.01713e-28
5.89347e-28
4.36411e-28
1.67791e-28
3.48257e-26
2.25325e-25
5.50788e-25
1.17892e-24
1.08597e-24
6.17226e-25
2.25042e-25
6.01584e-26
1.92026e-26
4.61998e-27
1.92488e-27
1.68108e-27
4.60797e-27
6.62965e-27
5.71611e-27
3.39602e-27
1.92869e-27
3.98202e-26
2.99787e-25
9.44252e-25
1.85829e-24
2.14474e-24
1.28408e-24
5.70268e-25
1.84824e-25
5.03129e-26
1.57525e-26
1.07258e-26
1.53749e-26
2.29289e-26
5.94542e-26
6.6578e-26
4.64193e-26
4.8876e-26
1.75794e-26
3.84881e-26
1.80918e-25
1.19589e-24
2.02987e-24
3.29316e-24
2.24098e-24
1.28993e-24
4.57694e-25
1.40942e-25
9.49935e-26
9.52819e-26
1.45028e-25
2.08875e-25
3.75828e-25
6.7519e-25
5.16629e-25
3.65741e-25
5.62881e-25
3.27787e-25
2.53744e-26
4.77859e-25
8.82047e-25
2.6781e-24
5.62864e-24
4.42624e-24
2.60673e-24
1.41382e-24
7.88253e-25
5.36713e-25
7.62253e-25
1.05868e-24
1.74026e-24
1.89329e-24
4.74109e-24
6.37999e-24
4.27994e-24
5.36817e-24
4.03514e-24
2.20565e-24
6.41337e-26
5.91599e-25
1.31032e-24
4.19302e-24
6.13539e-24
8.02212e-24
5.74318e-24
4.29212e-24
2.97104e-24
4.18819e-24
6.17201e-24
8.55729e-24
1.03546e-23
2.24024e-23
2.81106e-23
5.78819e-23
3.5946e-23
2.51755e-23
5.50791e-23
2.83183e-23
8.20703e-24
8.40445e-26
8.58072e-25
2.61301e-24
6.56611e-24
1.10212e-23
1.20092e-23
1.31334e-23
1.71254e-23
1.80703e-23
2.49535e-23
4.11185e-23
5.80453e-23
8.48545e-23
1.31375e-22
2.26551e-22
2.6145e-22
5.85563e-22
3.06002e-22
2.91991e-22
5.55413e-22
2.2949e-22
1.76439e-22
5.89387e-25
1.09418e-24
5.83954e-24
9.19448e-24
1.38715e-23
2.66729e-23
5.46662e-23
7.15184e-23
1.08113e-22
1.80256e-22
2.00508e-22
3.3935e-22
4.82426e-22
9.82291e-22
1.09744e-21
2.74141e-21
3.67873e-21
5.17476e-21
3.65375e-21
3.86238e-21
4.09985e-21
2.07986e-21
7.45874e-22
1.71542e-24
4.67351e-24
7.44778e-24
1.80011e-23
2.68856e-23
7.49748e-23
1.71886e-22
3.74675e-22
4.67577e-22
8.41042e-22
1.51233e-21
1.78315e-21
3.23635e-21
7.25564e-21
8.53254e-21
1.24732e-20
2.4606e-20
3.19932e-20
2.78703e-20
1.88886e-20
3.49141e-20
2.68606e-20
1.39312e-20
1.01227e-20
7.49052e-24
1.53726e-23
2.3358e-23
4.92688e-23
8.50355e-23
2.62585e-22
6.66505e-22
2.18443e-21
3.34544e-21
3.58275e-21
7.29683e-21
1.36492e-20
2.4635e-20
4.57242e-20
6.73181e-20
7.6837e-20
1.48866e-19
1.36482e-19
3.62479e-19
1.52096e-19
2.62515e-19
2.61612e-19
7.94214e-20
7.41135e-20
6.70461e-20
3.55141e-23
3.83197e-23
1.29023e-22
1.66417e-22
2.99069e-22
7.92599e-22
2.75314e-21
8.10378e-21
1.7347e-20
1.99492e-20
2.26068e-20
6.28189e-20
1.31166e-19
2.65861e-19
4.48656e-19
6.8148e-19
9.75015e-19
8.04483e-19
1.85301e-18
2.14667e-18
1.29514e-18
2.29874e-18
8.93034e-19
9.94549e-19
6.33619e-19
3.61664e-19
1.40025e-22
2.14133e-22
3.5044e-22
6.57972e-22
1.0523e-21
3.37152e-21
1.24885e-20
4.44361e-20
8.86958e-20
1.38961e-19
1.20677e-19
2.38661e-19
5.68792e-19
8.99526e-19
2.16154e-18
3.56329e-18
5.10166e-18
7.75448e-18
9.16986e-18
9.07928e-18
9.78182e-18
9.97063e-18
1.36051e-17
9.82046e-18
7.81769e-18
5.13484e-18
9.3598e-19
1.52052e-21
1.71533e-21
1.7334e-21
3.75034e-21
4.66897e-21
1.18479e-20
5.44643e-20
1.89833e-19
4.69611e-19
6.48741e-19
6.89163e-19
1.24241e-18
2.62879e-18
4.95201e-18
7.98689e-18
1.14973e-17
2.9247e-17
3.1687e-17
2.81989e-17
4.19786e-17
4.45903e-17
6.59355e-17
5.38131e-17
7.99296e-17
8.2652e-17
4.73657e-17
3.97252e-17
1.39682e-17
3.56003e-21
1.2583e-20
1.13491e-20
1.54942e-20
1.56718e-20
4.44513e-20
1.69515e-19
7.36084e-19
1.94883e-18
3.06231e-18
2.86866e-18
7.10454e-18
1.2439e-17
2.0695e-17
2.70047e-17
6.0614e-17
9.95854e-17
1.34363e-16
1.78938e-16
1.47835e-16
1.65451e-16
2.13188e-16
4.27852e-16
6.65363e-16
8.18619e-16
8.8027e-16
6.60082e-16
3.70351e-16
1.35987e-16
1.51736e-20
5.90432e-20
4.11866e-20
4.46226e-20
7.39199e-20
1.41429e-19
5.28967e-19
2.86587e-18
9.34812e-18
1.65815e-17
1.96341e-17
2.70576e-17
5.09916e-17
6.54793e-17
1.30219e-16
2.08577e-16
3.23925e-16
6.23795e-16
7.67365e-16
7.15017e-16
1.23935e-15
1.04154e-15
2.2007e-15
5.59553e-15
1.1308e-14
1.49017e-14
1.37942e-14
8.53847e-15
3.85694e-15
1.4959e-15
2.50142e-20
1.36756e-19
2.54274e-19
2.91643e-19
2.40818e-19
5.51825e-19
1.45397e-18
7.58228e-18
2.79341e-17
6.96057e-17
9.1192e-17
1.07412e-16
1.56621e-16
3.46928e-16
5.07725e-16
6.94613e-16
1.10844e-15
1.94316e-15
2.52904e-15
3.58423e-15
4.18059e-15
5.99133e-15
1.4033e-14
5.45092e-14
1.49475e-13
2.56441e-13
2.86801e-13
2.196e-13
1.18001e-13
4.43501e-14
8.73979e-15
1.18505e-19
7.38103e-19
7.20715e-19
1.24265e-18
8.68831e-19
1.89831e-18
6.23448e-18
2.7093e-17
1.10716e-16
2.45921e-16
4.47647e-16
5.21979e-16
9.31462e-16
9.83456e-16
1.56116e-15
2.84694e-15
5.36887e-15
9.04535e-15
1.33578e-14
1.80321e-14
2.30002e-14
3.16489e-14
8.62933e-14
4.19472e-13
1.55029e-12
3.54205e-12
5.01724e-12
4.7222e-12
3.0527e-12
1.36764e-12
4.25399e-13
6.65254e-14
1.47893e-18
2.36655e-18
2.85953e-18
2.98178e-18
3.77697e-18
7.57496e-18
2.45848e-17
1.09268e-16
2.89409e-16
7.68505e-16
1.52668e-15
2.37589e-15
3.65156e-15
6.73468e-15
8.04665e-15
1.51821e-14
2.88675e-14
4.93356e-14
7.46457e-14
1.00611e-13
1.23862e-13
1.65031e-13
4.40978e-13
2.67196e-12
1.22155e-11
3.66598e-11
6.85267e-11
8.10929e-11
6.45186e-11
3.48041e-11
1.27724e-11
3.18785e-12
3.53072e-13
3.84491e-18
6.52013e-18
1.53633e-17
1.2427e-17
1.43573e-17
2.03268e-17
8.80552e-17
2.97901e-16
1.15259e-15
2.8663e-15
5.6073e-15
1.10612e-14
1.9587e-14
3.92664e-14
4.4629e-14
8.41556e-14
1.57518e-13
2.7035e-13
4.09467e-13
5.45256e-13
6.57211e-13
8.15895e-13
1.90889e-12
1.31137e-11
7.69166e-11
2.83702e-10
6.89176e-10
1.07406e-09
1.0746e-09
7.21048e-10
3.15674e-10
9.20747e-11
1.65335e-11
0
1.83413e-17
4.19493e-17
5.31712e-17
4.98267e-17
4.08106e-17
5.48723e-17
1.99892e-16
1.11084e-15
3.94352e-15
1.25408e-14
2.58006e-14
5.50717e-14
1.07037e-13
1.97572e-13
2.71414e-13
4.74502e-13
8.73406e-13
1.47175e-12
2.1835e-12
2.85167e-12
3.34441e-12
3.86334e-12
7.48859e-12
5.24965e-11
3.7049e-10
1.70894e-09
5.09801e-09
1.03398e-08
1.36732e-08
1.15976e-08
6.48346e-09
2.12951e-09
4.73288e-10
1.46084e-11
1.00289e-10
9.13379e-13
4.55778e-11
2.01409e-11
1.77527e-16
4.25567e-16
2.69737e-16
1.51479e-16
1.42649e-16
1.54775e-16
5.76823e-16
3.37879e-15
1.38158e-14
4.18434e-14
1.1454e-13
2.64708e-13
5.64611e-13
1.12117e-12
2.08714e-12
2.68596e-12
4.82244e-12
7.95275e-12
1.14389e-11
1.44101e-11
1.63146e-11
1.76605e-11
2.72608e-11
1.79615e-10
1.4165e-09
7.94584e-09
2.88345e-08
7.18039e-08
1.25811e-07
1.42626e-07
1.01675e-07
4.58461e-08
7.07609e-09
7.63347e-10
5.80672e-09
3.9133e-10
4.61042e-12
2.02548e-10
8.82485e-11
6.23836e-16
1.58915e-15
1.55799e-15
8.53078e-16
5.38388e-16
5.07973e-16
1.70881e-15
1.03129e-14
5.30708e-14
1.62923e-13
4.70969e-13
1.19249e-12
2.77323e-12
6.12488e-12
1.31294e-11
1.51166e-11
2.66413e-11
4.26594e-11
5.91325e-11
7.08699e-11
7.6491e-11
7.7822e-11
9.74235e-11
5.3402e-10
4.53788e-09
2.97372e-08
1.27917e-07
3.78538e-07
8.15165e-07
1.27745e-06
1.23751e-06
7.1191e-07
9.34666e-08
3.33148e-07
3.62551e-08
2.55995e-07
2.32402e-07
3.31683e-09
2.55356e-08
1.8371e-09
1.94629e-11
8.97168e-10
3.63786e-10
5.48725e-15
1.45242e-14
1.12064e-14
6.34105e-15
2.68642e-15
1.43667e-15
5.20011e-15
3.22787e-14
1.52054e-13
5.91659e-13
1.82368e-12
4.99402e-12
1.25393e-11
2.96417e-11
6.85496e-11
8.52603e-11
1.47595e-10
2.28476e-10
3.03405e-10
3.41701e-10
3.45934e-10
3.3e-10
3.44206e-10
1.37513e-09
1.28009e-08
9.45822e-08
4.62803e-07
1.58897e-06
3.99567e-06
7.65841e-06
1.10793e-05
9.00491e-06
1.29479e-06
5.30606e-06
1.25104e-06
1.68035e-07
1.17671e-06
9.51764e-07
1.50814e-08
1.1025e-07
7.80952e-09
7.2023e-11
3.54568e-09
1.32348e-09
5.97433e-14
1.47049e-13
1.12913e-13
6.78894e-14
2.26929e-14
6.25289e-15
1.58379e-14
9.56013e-14
4.89019e-13
1.99193e-12
6.61641e-12
1.94792e-11
5.23292e-11
1.33229e-10
3.14907e-10
5.20504e-10
8.04822e-10
1.21618e-09
1.54619e-09
1.63043e-09
1.52741e-09
1.34919e-09
1.20903e-09
3.13949e-09
3.43377e-08
2.64488e-07
1.43609e-06
5.44565e-06
1.54864e-05
3.37968e-05
5.81666e-05
7.90671e-05
1.88933e-05
6.47714e-05
5.50308e-06
2.19235e-05
5.39577e-06
6.94524e-07
4.74258e-06
3.77997e-06
6.18492e-08
4.36255e-07
2.96134e-08
2.26304e-10
1.24906e-08
4.1264e-09
7.67422e-13
1.47189e-12
1.26383e-12
4.95641e-13
1.16717e-13
2.75346e-14
4.31753e-14
2.64795e-13
1.46677e-12
6.3288e-12
2.2504e-11
7.08278e-11
2.03474e-10
5.42191e-10
1.42635e-09
3.14506e-09
4.17747e-09
6.28899e-09
7.66711e-09
7.65356e-09
6.65756e-09
5.38447e-09
4.31596e-09
6.06451e-09
9.21207e-08
6.42339e-07
3.93045e-06
1.58645e-05
4.79458e-05
0.00011279
0.000209666
0.000318395
0.000183175
0.00044958
7.73251e-05
0.000225529
2.27039e-05
8.52978e-05
2.1392e-05
2.6588e-06
1.83602e-05
1.41792e-05
2.29348e-07
1.5928e-06
1.0177e-07
5.8522e-10
3.8401e-08
1.08447e-08
1.06257e-11
1.72971e-11
9.55025e-12
3.05599e-12
6.71823e-13
1.25774e-13
1.10332e-13
6.9145e-13
4.09294e-12
1.88364e-11
7.1771e-11
2.40912e-10
7.37496e-10
2.07404e-09
5.41188e-09
1.59586e-08
2.11485e-08
3.11562e-08
3.63508e-08
3.4571e-08
2.83268e-08
2.11898e-08
1.55534e-08
1.40304e-08
1.12719e-07
1.3943e-06
9.07131e-06
4.02797e-05
0.000121678
0.0002865
0.000536579
0.000830004
0.000726297
0.00109292
0.000526051
0.000869188
0.000257397
0.000594058
8.51347e-05
0.000271202
7.829e-05
9.55817e-06
6.57642e-05
4.95626e-05
7.94212e-07
5.4943e-06
3.17495e-07
1.1878e-09
1.04878e-07
2.31539e-08
2.22684e-10
1.46189e-10
5.60388e-11
1.57157e-11
3.34256e-12
5.96324e-13
2.66418e-13
1.5685e-12
1.05144e-11
5.23041e-11
2.1399e-10
7.67601e-10
2.49747e-09
7.46249e-09
1.97259e-08
4.93477e-08
1.11557e-07
1.58106e-07
1.61399e-07
1.47219e-07
1.15235e-07
8.18957e-08
5.5397e-08
4.00662e-08
1.26675e-07
2.29531e-06
1.71865e-05
7.86155e-05
0.000245858
0.00054501
0.000940607
0.00137451
0.00137314
0.00171636
0.00122088
0.00155836
0.000967529
0.00134687
0.000643851
0.00104796
0.000264206
0.000665555
0.000242292
3.22261e-05
0.000204804
0.000153313
2.57071e-06
1.767e-05
9.5668e-07
1.68025e-09
2.624e-07
4.48083e-08
2.23828e-09
1.00449e-09
2.62715e-10
6.48263e-11
1.43337e-11
2.50664e-12
7.06248e-13
3.4098e-12
2.36577e-11
1.34113e-10
5.94062e-10
2.28429e-09
7.9143e-09
2.50621e-08
6.90735e-08
1.61999e-07
3.46319e-07
4.91522e-07
5.97212e-07
5.8893e-07
4.55724e-07
3.05845e-07
1.93347e-07
1.27216e-07
1.57531e-07
2.51482e-06
2.7116e-05
0.000125722
0.000393021
0.000827715
0.00136706
0.00188652
0.00195168
0.0022037
0.00187534
0.00213856
0.0017021
0.00202692
0.00145614
0.00183376
0.00110911
0.00154297
0.000650711
0.00113854
0.000602023
9.85449e-05
0.000514147
0.000384092
8.0921e-06
5.34933e-05
2.80682e-06
2.39618e-09
6.78466e-07
9.09437e-08
3.70933e-09
4.83494e-09
1.04607e-09
2.3732e-10
4.99269e-11
8.59698e-12
1.85831e-12
5.86779e-12
5.08401e-11
3.04645e-10
1.52162e-09
6.30989e-09
2.33658e-08
7.82693e-08
2.26324e-07
5.37854e-07
1.06109e-06
1.59066e-06
1.85458e-06
1.75232e-06
1.45726e-06
1.04874e-06
6.64949e-07
4.17638e-07
2.92411e-07
2.27087e-06
3.12359e-05
0.000180333
0.000535483
0.001128
0.00176348
0.00218396
0.00229826
0.00236517
0.00229057
0.00237628
0.00223937
0.0023587
0.00213641
0.00231244
0.00194126
0.00221182
0.00160683
0.00201724
0.00112936
0.00164012
0.00108005
0.000260452
0.000984592
0.000816175
2.37688e-05
0.000148012
8.0844e-06
4.04824e-09
1.74733e-06
2.06331e-07
8.61125e-09
1.67567e-08
3.83539e-09
7.84584e-10
1.49825e-10
2.56996e-11
4.83504e-12
9.38714e-12
8.73344e-11
6.53308e-10
3.50926e-09
1.6039e-08
6.37892e-08
2.26236e-07
6.85396e-07
1.69395e-06
3.30019e-06
4.97238e-06
5.74675e-06
5.5089e-06
4.54682e-06
3.27701e-06
2.18657e-06
1.36622e-06
7.57198e-07
1.74879e-06
2.97046e-05
0.000209442
0.000674895
0.00136729
0.00198951
0.0022903
0.00238225
0.00237548
0.00240488
0.00240724
0.0024057
0.00241946
0.00239294
0.00242274
0.00235734
0.0024136
0.00226655
0.00238664
0.0020644
0.00230153
0.00163296
0.00208174
0.00158457
0.000590983
0.00148472
0.00132547
6.59023e-05
0.00034892
2.21985e-05
8.65252e-09
4.58294e-06
5.81998e-07
2.94308e-08
3.81316e-08
1.23692e-08
2.48726e-09
4.56012e-10
7.65555e-11
1.33157e-11
1.42393e-11
1.34314e-10
1.13932e-09
7.4303e-09
3.72866e-08
1.59736e-07
6.00651e-07
1.90677e-06
4.90545e-06
9.85491e-06
1.50336e-05
1.79818e-05
1.78123e-05
1.48775e-05
1.08712e-05
7.2037e-06
4.42666e-06
2.2051e-06
1.8493e-06
2.44703e-05
0.000208018
0.000757684
0.00154538
0.00207375
0.0022655
0.0023536
0.00230705
0.0023874
0.00233132
0.00240523
0.00235738
0.00241771
0.00238176
0.00242653
0.0024069
0.00242918
0.00242896
0.00240648
0.0024413
0.00232095
0.0024228
0.00206688
0.00232562
0.00202113
0.00107234
0.0019346
0.00178774
0.000170053
0.000733208
5.889e-05
2.22116e-08
1.28901e-05
1.70254e-06
8.46738e-08
1.21124e-07
3.47952e-08
8.27813e-09
1.50416e-09
2.44796e-10
3.99536e-11
2.29302e-11
1.85527e-10
1.77119e-09
1.31966e-08
7.73824e-08
3.67026e-07
1.45606e-06
4.81849e-06
1.29012e-05
2.66492e-05
4.16898e-05
5.15692e-05
5.34355e-05
4.69667e-05
3.56174e-05
2.33012e-05
1.31924e-05
6.20976e-06
2.99491e-06
1.56253e-05
0.000195097
0.000760128
0.00163977
0.00207372
0.00219674
0.00206242
0.00223597
0.00207732
0.00226205
0.00214864
0.00230111
0.00220713
0.00235002
0.00227645
0.00240285
0.00235033
0.00243983
0.00241486
0.00245623
0.00245792
0.00243564
0.00247399
0.00231562
0.00244292
0.00228785
0.00155705
0.00223222
0.00212963
0.000384379
0.00122537
0.000151072
3.87701e-07
3.72649e-05
8.10494e-06
3.88332e-07
3.19666e-07
1.03273e-07
2.72264e-08
5.34518e-09
8.66201e-10
1.32713e-10
4.16617e-11
2.47526e-10
2.47105e-09
2.06304e-08
1.39679e-07
7.56336e-07
3.20828e-06
1.09699e-05
3.01212e-05
6.31836e-05
0.000100268
0.00013089
0.000144374
0.000134133
0.000104344
6.7161e-05
3.68176e-05
1.70136e-05
6.67511e-06
1.211e-05
0.000157571
0.000738471
0.00163848
0.00206211
0.00208632
0.0017729
0.00180582
0.00157977
0.00203391
0.00191218
0.00212186
0.0020393
0.002209
0.00214415
0.00229799
0.00224577
0.00238056
0.00234886
0.00244665
0.0024417
0.00248633
0.00250562
0.00249267
0.00252661
0.00244287
0.00250937
0.00243237
0.00195152
0.00240498
0.00234397
0.000777721
0.00167061
0.000347248
2.00931e-05
0.000116505
7.86622e-05
2.00182e-06
8.05065e-07
3.03213e-07
8.71053e-08
1.90777e-08
3.20407e-09
4.79727e-10
9.81333e-11
3.01502e-10
3.34266e-09
2.95164e-08
2.19175e-07
1.28149e-06
5.92024e-06
2.12314e-05
5.88355e-05
0.000123683
0.000198993
0.000261904
0.000290968
0.000281278
0.000237788
0.000171901
9.78161e-05
4.41465e-05
1.65275e-05
1.19767e-05
0.000103148
0.00068138
0.00161127
0.00204793
0.00199727
0.00149397
0.00138502
0.00112679
0.00170827
0.00144995
0.00195496
0.00185354
0.00208202
0.00202275
0.00220082
0.00216834
0.00233015
0.00233168
0.00245898
0.00249682
0.00255002
0.00263462
0.00258772
0.00270185
0.00257121
0.00268522
0.00252291
0.0026139
0.00252826
0.00222565
0.00252007
0.00248661
0.0012506
0.00202065
0.000711778
6.92424e-05
0.000407485
0.000338685
9.22388e-06
3.24644e-06
9.72506e-07
2.7797e-07
6.6078e-08
1.18454e-08
1.78122e-09
2.98771e-10
3.88563e-10
4.06271e-09
3.86662e-08
2.9026e-07
1.8197e-06
8.99153e-06
3.40269e-05
9.6341e-05
0.000202437
0.000324775
0.00042482
0.000475466
0.000470385
0.000416316
0.000327923
0.000222525
0.000110682
4.09087e-05
1.66673e-05
6.60471e-05
0.000563939
0.00154092
0.00203911
0.00197234
0.00135152
0.000973079
0.000878004
0.00114742
0.000884307
0.00170135
0.0013594
0.00196014
0.00187301
0.00215486
0.00214945
0.00234717
0.00238193
0.00255961
0.00263488
0.00275064
0.00288484
0.00287094
0.00307091
0.00287804
0.003135
0.00278014
0.00305635
0.0026468
0.00285866
0.00266357
0.0024142
0.00265917
0.00263047
0.00169624
0.00229533
0.00135406
0.00064658
0.00116772
0.00130505
1.36982e-05
3.76048e-06
9.44842e-07
2.23435e-07
4.29103e-08
6.66843e-09
1.0285e-09
5.47182e-10
4.4424e-09
4.24201e-08
3.34936e-07
2.22384e-06
1.17275e-05
4.64274e-05
0.000134891
0.00028479
0.000459917
0.000607954
0.000691053
0.00069471
0.000630861
0.000521603
0.000387043
0.000233376
0.000100326
3.2279e-05
5.17714e-05
0.00042478
0.00140435
0.00202825
0.00197813
0.00136526
0.00080295
0.000725269
0.00064667
0.000968042
0.000665231
0.00177942
0.00128036
0.00212863
0.0020442
0.00243737
0.0024757
0.00271481
0.00280101
0.00301646
0.00312787
0.00324413
0.00335756
0.00333837
0.00343742
0.00334065
0.00345815
0.00319278
0.00344652
0.00291154
0.00328475
0.00292954
0.00258057
0.00290898
0.00285699
0.00213052
0.00251144
0.00197584
0.000837272
0.00196584
0.0019939
1.6364e-05
3.67394e-06
7.78731e-07
1.51427e-07
2.45571e-08
3.67132e-09
9.8242e-10
4.54289e-09
4.26829e-08
3.46902e-07
2.41499e-06
1.33654e-05
5.57587e-05
0.000166812
0.000358327
0.000588521
0.000795193
0.000924638
0.00094938
0.000879208
0.000745903
0.000578309
0.000386435
0.000213307
7.16941e-05
5.16937e-05
0.000301534
0.00123169
0.00200751
0.0020102
0.00145153
0.00100625
0.000580523
0.000735251
0.000530745
0.000530035
0.000786842
0.000475102
0.00180401
0.0011434
0.0024562
0.00228399
0.00288112
0.00289391
0.00321367
0.00326826
0.00342719
0.00346661
0.00348133
0.00351095
0.0034935
0.00348562
0.00350768
0.00346606
0.00350404
0.0035149
0.00333355
0.00354457
0.00333531
0.00278791
0.00329719
0.00321907
0.00242475
0.00270349
0.00235124
0.00164949
0.00234953
0.00236764
1.66436e-05
3.06062e-06
5.40671e-07
8.8297e-08
1.32377e-08
2.46985e-09
4.55627e-09
4.0266e-08
3.33743e-07
2.39605e-06
1.38397e-05
5.99868e-05
0.000186695
0.000411887
0.000693796
0.000964794
0.00115819
0.00122052
0.00114524
0.000986854
0.000787213
0.00056584
0.000355459
0.000161642
6.25563e-05
0.000211616
0.00103194
0.00195089
0.00206787
0.00162366
0.0012727
0.000948546
0.000532075
0.000685215
0.000388021
0.000417125
0.000589353
0.000312349
0.00168411
0.00092318
0.00276217
0.00236781
0.0032529
0.00314155
0.00347733
0.00345254
0.00352797
0.00352783
0.00345891
0.0034215
0.00334736
0.00319242
0.00334891
0.00305826
0.00349944
0.0031781
0.00357401
0.00349452
0.00359432
0.00309772
0.00361238
0.00360748
0.00339477
0.00261226
0.00280616
0.00301558
0.00253909
0.00122507
0.00251374
0.00239582
1.45114e-05
2.17087e-06
3.24632e-07
4.80442e-08
7.59225e-09
4.96449e-09
3.63157e-08
2.83642e-07
2.14385e-06
1.33214e-05
5.99318e-05
0.000192622
0.000438864
0.000761423
0.0010931
0.00135944
0.00146073
0.00138557
0.00121626
0.000998178
0.000757102
0.000513925
0.000279372
9.85121e-05
0.000167604
0.000826305
0.0018325
0.00210972
0.00179105
0.00151545
0.00126531
0.00078112
0.000980799
0.000473188
0.000631302
0.000271551
0.000334118
0.000388565
0.000184243
0.00143367
0.000655073
0.0028445
0.00225347
0.00337218
0.00315621
0.00350714
0.00344341
0.0033861
0.00334813
0.00306556
0.00298109
0.00277566
0.00256783
0.00275051
0.00236146
0.00305684
0.00249795
0.00350981
0.00297954
0.00326392
0.0036386
0.00353443
0.00359751
0.00327228
0.00353432
0.00368153
0.00362544
0.00358323
0.00369803
0.00269253
0.00286645
0.00294928
0.00319645
0.00280232
0.00260364
0.00272842
0.00107609
0.0025409
0.00262213
0.00267962
0.00257189
0.00227086
0.00249222
1.09091e-05
1.36212e-06
1.77682e-07
2.55082e-08
7.10671e-09
3.10744e-08
2.29701e-07
1.66922e-06
1.11584e-05
5.58379e-05
0.000188512
0.000440166
0.000784519
0.00116235
0.00149458
0.0016278
0.00157053
0.00141019
0.00118746
0.000936333
0.000673462
0.000405862
0.000174715
0.000164179
0.000648913
0.00168227
0.00211402
0.00193237
0.00172188
0.00154763
0.00119502
0.000674974
0.000833215
0.000376335
0.00051811
0.000176235
0.000256232
0.000216483
9.44387e-05
0.00107077
0.000381647
0.00269057
0.00193954
0.00327018
0.00290216
0.00328287
0.00314179
0.00292521
0.00286731
0.00243631
0.00235529
0.00209576
0.00193765
0.00235707
0.0021339
0.00200285
0.00188506
0.0027157
0.002424
0.00202272
0.00199089
0.00219753
0.00298129
0.00331776
0.00301387
0.00269735
0.00336959
0.00369977
0.00347505
0.00368455
0.00368045
0.00350778
0.00343497
0.00371673
0.00301956
0.00311108
0.00339369
0.00293122
0.00284382
0.00174514
0.00229117
0.00268729
0.00276611
0.00261125
0.00253382
7.49416e-06
7.7993e-07
9.39037e-08
1.62976e-08
2.53091e-08
1.93913e-07
1.25371e-06
8.44273e-06
4.53667e-05
0.000168432
0.000419931
0.000771702
0.00117142
0.00154918
0.00171633
0.00169943
0.00156349
0.00133655
0.00108363
0.000818794
0.000536942
0.0002692
0.000175746
0.000518008
0.00151048
0.00209953
0.00204074
0.00188834
0.00178332
0.00151567
0.00079984
0.00100285
0.000498658
0.000646679
0.000251167
0.000363775
9.89815e-05
0.000162849
9.68776e-05
4.50584e-05
0.000653007
0.000175492
0.00227897
0.00146247
0.00285712
0.00237257
0.00276576
0.00256024
0.00229038
0.00220651
0.001836
0.00174609
0.0018233
0.00176456
0.00173336
0.00169222
0.00190919
0.00182037
0.00176632
0.00241699
0.00216853
0.00187041
0.00186834
0.00198724
0.00271534
0.00307702
0.00275697
0.00242528
0.00314478
0.00374152
0.00365771
0.00375397
0.00358673
0.00322706
0.00332281
0.00366254
0.00330205
0.00319925
0.00359922
0.00309274
0.00298541
0.00252487
0.00237054
0.00166603
0.00233594
0.00287731
0.00277178
0.00267169
0.00259808
4.65103e-06
4.23563e-07
5.16997e-08
2.46038e-08
1.2523e-07
9.46976e-07
6.07994e-06
3.43683e-05
0.000139133
0.000369539
0.000709188
0.00112643
0.00154121
0.00173737
0.00176688
0.00167523
0.00144737
0.00118552
0.000930938
0.000657382
0.000375156
0.000211117
0.000443634
0.00133313
0.00204734
0.00210708
0.00201591
0.00197037
0.00177448
0.00115109
0.0013438
0.000570023
0.000724301
0.000302064
0.000427245
0.000124769
0.000200411
4.5087e-05
7.33438e-05
4.18315e-05
2.24469e-05
0.000298045
6.98142e-05
0.00168689
0.000908602
0.00219911
0.00167288
0.00206383
0.00181307
0.0016444
0.0015139
0.00165926
0.0016095
0.00156334
0.00149488
0.00173829
0.00171325
0.00169422
0.00166943
0.00180368
0.00176787
0.00175658
0.00217582
0.00199481
0.00181758
0.00185381
0.00188758
0.00245639
0.00282217
0.002509
0.00220118
0.00290198
0.00373177
0.00376376
0.00378482
0.00342991
0.00300002
0.00311446
0.00354774
0.00351343
0.00340373
0.00375516
0.00328503
0.00315366
0.00265676
0.00258834
0.000644096
0.00204582
0.00301576
0.00288028
0.00275704
2.76195e-06
2.3028e-07
3.8421e-08
8.19528e-08
7.26039e-07
4.14442e-06
2.46633e-05
0.000108602
0.000314047
0.000620667
0.000992573
0.0014471
0.00172036
0.0017792
0.001744
0.00154023
0.0012534
0.000994528
0.000743923
0.000473289
0.000268502
0.000427351
0.00118306
0.00195149
0.00212751
0.00210491
0.00210759
0.00197368
0.00146502
0.000886016
0.00105614
0.000312318
0.000441323
0.00012802
0.000205994
4.82587e-05
7.82957e-05
2.15643e-05
3.04954e-05
1.97295e-05
1.21431e-05
0.000114561
2.99208e-05
0.00102685
0.000406882
0.00143546
0.000959217
0.00134113
0.00109837
0.00143195
0.00134202
0.00125994
0.00114569
0.00163814
0.00159378
0.00153861
0.0014679
0.00175772
0.00176389
0.00176756
0.00176359
0.00180637
0.00181735
0.00185103
0.00201905
0.00192328
0.0018592
0.00192155
0.00190327
0.00224619
0.00258329
0.00231081
0.00205874
0.00267602
0.00366377
0.00382406
0.00376907
0.00324687
0.00278989
0.00292361
0.00339905
0.00371448
0.00362405
0.00385059
0.003494
0.00334577
0.00286821
0.002731
0.00256911
0.000473743
0.00199379
0.00318023
0.00301478
1.62503e-06
1.34059e-07
7.42979e-08
4.51879e-07
2.85113e-06
1.65123e-05
8.02161e-05
0.000254477
0.000536501
0.000852818
0.0012285
0.00163025
0.00176253
0.00176457
0.00162462
0.0013265
0.00103088
0.000782498
0.000538565
0.000341546
0.000432471
0.00106728
0.00184565
0.00212416
0.00215651
0.00219851
0.00211627
0.00170124
0.000894015
0.00104506
0.00058285
0.0007317
0.000115882
0.000182333
4.56876e-05
7.30876e-05
1.80015e-05
2.82747e-05
1.08955e-05
1.25756e-05
1.16994e-05
7.66228e-06
4.795e-05
1.78439e-05
0.000457442
0.000152798
0.000790276
0.000464687
0.00094857
0.000718537
0.00138722
0.00129332
0.00119522
0.00109051
0.00174259
0.00170166
0.00163972
0.00155698
0.00189387
0.0019358
0.00196632
0.00197484
0.00190174
0.00196776
0.00204699
0.00197004
0.00195586
0.00199401
0.00208079
0.00199217
0.00211431
0.002395
0.00218645
0.00202294
0.00249978
0.00356186
0.00385936
0.00372668
0.00308165
0.00262993
0.00278509
0.0032641
0.00385863
0.00382561
0.00391993
0.00371399
0.00355147
0.00316905
0.0029889
0.00280815
0.00257085
0.00123069
0.0022031
0.00336463
9.85344e-07
1.12817e-07
2.5362e-07
2.08571e-06
1.04443e-05
5.59926e-05
0.00019624
0.000450379
0.000718295
0.000999437
0.00137695
0.00168368
0.00175409
0.00167893
0.00143407
0.00108848
0.000811506
0.000577589
0.000421779
0.000453215
0.000991827
0.00174469
0.00210481
0.00217642
0.00224944
0.00220851
0.00186755
0.0010762
0.000539231
0.000693093
0.000279901
0.000400837
3.87302e-05
6.18033e-05
1.46286e-05
2.3832e-05
6.53329e-06
9.23612e-06
6.42982e-06
5.79899e-06
9.28322e-06
6.29823e-06
2.96708e-05
1.50589e-05
0.000190691
7.27162e-05
0.000484302
0.000276505
0.000968222
0.000832901
0.000580731
0.000705808
0.00145691
0.00134324
0.00122176
0.00109584
0.00196594
0.00192285
0.00184977
0.00174737
0.00212584
0.00219608
0.00224675
0.00226417
0.00208864
0.00219932
0.00231316
0.00200856
0.00205016
0.00220347
0.00230415
0.00215633
0.00208313
0.00227889
0.00215175
0.00206477
0.00239752
0.0034665
0.00387133
0.00368177
0.0029691
0.00254505
0.00272418
0.00318244
0.00396382
0.0039776
0.00398047
0.00391908
0.00375882
0.00355228
0.00331964
0.00309831
0.00284641
0.00261143
0.0018978
0.00241794
6.49692e-07
2.19086e-07
1.3732e-06
7.28413e-06
3.67785e-05
0.000143231
0.000363638
0.000601129
0.000799059
0.00107185
0.00144722
0.00168831
0.00168453
0.00154509
0.00121276
0.000863982
0.000623705
0.000491426
0.000507208
0.000971154
0.00166068
0.00205587
0.00217667
0.00226796
0.00226143
0.00197593
0.00126457
0.000401165
0.000462981
0.000210435
0.000299104
9.57667e-05
0.000143993
1.14369e-05
1.86275e-05
4.24974e-06
6.90584e-06
2.91839e-06
3.0006e-06
5.1621e-06
3.82425e-06
9.22079e-06
6.74511e-06
2.57226e-05
1.55445e-05
0.000119647
5.24332e-05
0.000468096
0.000362829
0.000224528
0.00102007
0.000869019
0.000592752
0.000726155
0.00162231
0.00148024
0.00132896
0.00117412
0.00225617
0.00220518
0.0021115
0.00198099
0.00241835
0.0025062
0.00256584
0.0025823
0.00234273
0.00248485
0.00261935
0.00209145
0.00221204
0.00247
0.00256915
0.00237497
0.00211842
0.00224553
0.00218631
0.00213258
0.00237779
0.00342254
0.00388272
0.00367778
0.00293854
0.00254335
0.00274241
0.00318111
0.0040505
0.00410096
0.00403796
0.00409418
0.00395294
0.00372238
0.00345408
0.00317126
0.00287932
0.00264437
0.00150885
0.00236106
5.44881e-07
7.97261e-07
4.66697e-06
2.28915e-05
9.95551e-05
0.000279636
0.000505684
0.000651947
0.000822383
0.00109922
0.00147846
0.00164744
0.00159361
0.0013959
0.00101143
0.000713601
0.000558453
0.000578525
0.000975632
0.00158505
0.00199814
0.00216559
0.00226782
0.00228338
0.00204888
0.00138507
0.000421089
0.00015053
0.000224122
7.04692e-05
0.000103924
2.97883e-05
4.64142e-05
2.98504e-06
4.97113e-06
1.27694e-06
1.80454e-06
2.14936e-06
1.41459e-06
5.43287e-06
3.99395e-06
1.16445e-05
9.97221e-06
2.73488e-05
2.09325e-05
0.00010326
4.85147e-05
0.000472087
0.000364584
0.000273237
0.000185582
0.00110454
0.000933976
0.000627642
0.000774456
0.00182467
0.00164958
0.00146662
0.00128312
0.00256858
0.00249719
0.00237212
0.00220487
0.00273618
0.00282982
0.00288935
0.00289905
0.00264073
0.00280033
0.00294097
0.00223421
0.00239682
0.00277032
0.00284053
0.00260658
0.00218272
0.00228032
0.00226011
0.00225389
0.00241193
0.00344175
0.00390753
0.00370758
0.00297069
0.00258727
0.00280843
0.00322511
0.00414153
0.00421612
0.00410347
0.00423505
0.00411682
0.00386593
0.00356189
0.00323176
0.00292339
0.00265549
0.000720294
0.00213087
8.35503e-07
3.12091e-06
1.32746e-05
6.56804e-05
0.000206766
0.000419454
0.000551994
0.000656663
0.000811122
0.00110561
0.00148814
0.0015802
0.00151364
0.00127842
0.000931918
0.000672789
0.00065276
0.000995776
0.00152544
0.00193001
0.00213165
0.00225538
0.00228435
0.0020894
0.00148975
0.000508101
8.51815e-05
0.000107758
4.50483e-05
6.41434e-05
2.03354e-05
3.07217e-05
8.15332e-06
1.30589e-05
6.98993e-07
1.14575e-06
7.1319e-07
5.38805e-07
3.25622e-06
1.26942e-06
8.02952e-06
5.97878e-06
2.11257e-05
2.11926e-05
4.30973e-05
4.80621e-05
0.000126814
7.90963e-05
5.34828e-05
0.000494918
0.000375945
0.000270334
0.000185515
0.00116745
0.000979028
0.000647039
0.000805365
0.00200855
0.00179568
0.00157983
0.00136868
0.00287376
0.00277405
0.00260739
0.00239307