/*--------------------------------*- C++ -*----------------------------------*\
  =========                 |
  \\      /  F ield         | OpenFOAM: The Open Source CFD Toolbox
   \\    /   O peration     | Website:  https://openfoam.org
    \\  /    A nd           | Version:  dev
     \\/     M anipulation  |
\*---------------------------------------------------------------------------*/
FoamFile
{
    version     2.0;
    format      ascii;
    class       volScalarField;
    location    "2500";
    object      k;
}
// * * * * * * * * * * * * * * * * * * * * * * * * * * * * * * * * * * * * * //

dimensions      [0 2 -2 0 0 0 0];

internalField   nonuniform List<scalar> 
10028
(
0.00016726
0.000173081
0.000156189
0.00014696
0.000219897
0.000124829
0.00012195
0.000234385
0.000196052
0.000111427
0.000112299
0.000220605
0.000234999
0.000149275
0.000107757
0.000106578
0.000186516
0.000258307
0.000203578
0.000125432
0.000105602
0.000103727
0.000150335
0.000257332
0.000244863
0.000154977
0.000116595
0.000104004
0.000102063
0.000131552
0.000242262
0.00026561
0.00020054
0.000129686
0.000111972
0.000102936
0.000101138
0.000118817
0.000207678
0.000278581
0.00024351
0.00015451
0.000119126
0.000108876
0.000102142
0.000100622
0.000111248
0.000167572
0.000274596
0.000270947
0.000191856
0.000130199
0.000113766
0.000106674
0.000101522
0.000100323
0.000106824
0.000142764
0.000257293
0.000286167
0.000236315
0.00015032
0.000119342
0.000110323
0.0001049
0.000101043
0.00010012
0.000104257
0.000126762
0.000220751
0.000295268
0.000269304
0.000181996
0.000128691
0.000113511
0.000107725
0.000103513
0.000100676
9.98741e-05
0.000102712
0.000116892
0.000179354
0.000289926
0.000290565
0.000221967
0.000145299
0.000118223
0.00010985
0.000105618
0.000102422
0.000100394
9.96666e-05
0.000101732
0.000111023
0.000151499
0.000271573
0.000304059
0.000262904
0.000171746
0.000126141
0.000112371
0.000107144
0.000103919
0.000101516
0.00010015
9.95222e-05
0.000101075
0.000107494
0.00013401
0.0002344
0.000312568
0.000290258
0.000206563
0.000139877
0.00011629
0.000108654
0.000104955
0.000102559
0.000100732
9.99753e-05
9.94157e-05
0.000100613
0.000105283
0.000122692
0.000193244
0.000307206
0.000309467
0.000246588
0.000161304
0.000123223
0.000110495
0.000105853
0.00010325
0.000101369
0.000100047
9.97493e-05
9.93467e-05
0.000100261
0.000103811
0.000115712
0.000162166
0.000289804
0.000323142
0.000284291
0.000191424
0.000134063
0.000114069
0.000106905
0.000103725
0.000101831
0.000100304
9.94785e-05
9.9596e-05
9.93033e-05
9.99937e-05
0.000102781
0.000111273
0.000143053
0.000254682
0.000333102
0.000310189
0.000228218
0.000151787
0.000119558
0.000108547
0.000104248
0.000102033
0.000100596
9.94926e-05
9.89609e-05
9.94712e-05
9.92594e-05
9.97839e-05
0.000102038
0.000108412
0.000130173
0.000213873
0.000329142
0.00033004
0.000267296
0.000176628
0.000128847
0.000111383
0.000105044
0.000102138
0.000100694
9.95751e-05
9.87331e-05
9.8529e-05
9.93644e-05
9.92398e-05
9.96102e-05
0.000101471
0.000106547
0.000121894
0.00017824
0.000314708
0.000344292
0.000304174
0.000208708
0.000142487
0.000116355
0.000106367
0.000102403
0.000100436
9.95814e-05
9.86943e-05
9.80052e-05
9.81754e-05
9.92793e-05
9.9251e-05
9.95008e-05
0.000101031
0.000105273
0.000116644
0.000156827
0.000285067
0.000356114
0.000330276
0.00024529
0.000163183
0.000123518
0.000108984
0.000103046
0.000100361
9.92341e-05
9.8598e-05
9.78195e-05
9.73705e-05
9.78866e-05
9.92206e-05
9.92607e-05
9.94431e-05
0.000100728
0.000104354
0.000113266
0.000142512
0.000245552
0.000356941
0.000351237
0.000284267
0.000189448
0.000134684
0.00011308
0.000104361
0.000100615
9.86548e-05
9.82325e-05
9.76308e-05
9.69502e-05
9.6841e-05
9.76701e-05
9.91955e-05
9.92764e-05
9.94115e-05
0.000100538
0.000103823
0.000110987
0.00013284
0.000208634
0.000348109
0.000367009
0.000321475
0.0002221
0.000150367
0.000119025
0.000106829
0.000101323
9.87458e-05
9.74643e-05
9.7322e-05
9.66846e-05
9.61982e-05
9.64407e-05
9.75237e-05
9.91724e-05
9.93331e-05
9.94162e-05
0.000100441
0.00010348
0.000109433
0.000126343
0.000181618
0.000326746
0.000380935
0.000349615
0.00025698
0.000172009
0.000127481
0.000110377
0.000102781
9.91699e-05
9.73981e-05
9.66712e-05
9.64938e-05
9.58123e-05
9.56115e-05
9.61562e-05
9.74729e-05
9.91602e-05
9.94273e-05
9.95035e-05
0.000100461
0.000103295
0.000108407
0.00012187
0.000164705
0.00029547
0.000389483
0.000372394
0.000296447
0.00019842
0.000139483
0.000115119
0.000105116
0.000100133
9.76517e-05
9.64182e-05
9.60344e-05
9.57323e-05
9.50735e-05
9.51238e-05
9.60224e-05
9.75415e-05
9.91989e-05
9.95138e-05
9.96925e-05
0.000100674
0.000103334
0.000107756
0.000118886
0.000152934
0.000261824
0.000387167
0.000390089
0.000333766
0.000230008
0.000155995
0.000121447
0.000108163
0.000101782
9.83306e-05
9.66167e-05
9.58476e-05
9.54814e-05
9.50492e-05
9.45442e-05
9.4839e-05
9.61593e-05
9.763e-05
9.92333e-05
9.95753e-05
9.98696e-05
0.000101192
0.000103709
0.00010751
0.000116984
0.000144732
0.000231855
0.000378659
0.00040602
0.000365924
0.000263994
0.000177275
0.000130366
0.000111856
0.000103988
9.96818e-05
9.72087e-05
9.60587e-05
9.55658e-05
9.51233e-05
9.45676e-05
9.4262e-05
9.48991e-05
9.65409e-05
9.79083e-05
9.92497e-05
9.96758e-05
9.99922e-05
0.00010164
0.000104499
0.000107781
0.000116003
0.00013941
0.000208044
0.000361722
0.00041936
0.000390831
0.000301019
0.000202831
0.000142517
0.000116599
0.000106559
0.000101482
9.84717e-05
9.66832e-05
9.59108e-05
9.53792e-05
9.48018e-05
9.435e-05
9.44028e-05
9.53747e-05
9.7069e-05
9.83309e-05
9.93533e-05
9.98482e-05
0.000100368
0.000101708
0.000105263
0.000108749
0.000116036
0.00013646
0.000193654
0.000341605
0.000428257
0.000411751
0.000337879
0.000231538
0.000158391
0.000122946
0.000109463
0.00010359
0.000100168
9.80482e-05
9.669e-05
9.59868e-05
9.5383e-05
9.47716e-05
9.45397e-05
9.51459e-05
9.65136e-05
9.8119e-05
9.91342e-05
9.96191e-05
0.000100009
0.000101045
0.000102263
0.000105148
0.000110327
0.000117323
0.000135707
0.000185969
0.000321517
0.00043136
0.000428663
0.000371875
0.000262854
0.000177787
0.000131376
0.000112904
0.000105836
0.00010222
0.000100014
9.82662e-05
9.7167e-05
9.64853e-05
9.57617e-05
9.51271e-05
9.53813e-05
9.65818e-05
9.8274e-05
9.94143e-05
9.98057e-05
9.98445e-05
0.000100182
0.000101618
0.000103782
0.000104993
0.000111736
0.000120455
0.000137212
0.000183257
0.000307499
0.00043082
0.000443459
0.000401105
0.000294786
0.000200374
0.000142317
0.000117125
0.000108137
0.000104462
0.00010232
0.000100527
9.914e-05
9.81028e-05
9.73108e-05
9.65972e-05
9.61993e-05
9.70668e-05
9.88306e-05
0.000100593
0.000101117
0.000100594
0.000100019
0.000100375
0.000102518
0.000105236
0.000106301
0.000111211
0.000125733
0.000142658
0.00018457
0.000301079
0.000430517
0.000456436
0.000423796
0.000327854
0.000225352
0.000156199
0.000122669
0.000110646
0.00010668
0.000104826
0.000103273
0.000102019
0.000100941
9.98452e-05
9.88057e-05
9.82424e-05
9.84561e-05
0.000100012
0.000102643
0.000104701
0.000103944
0.000101616
0.000100168
0.000100553
0.000103509
0.000106205
0.000109082
0.000112316
0.000127062
0.000155314
0.000192623
0.000301345
0.000432644
0.000468745
0.000442473
0.000359749
0.000251991
0.00017295
0.000130049
0.000113521
0.00010888
0.00010735
0.000106377
0.000105594
0.000104536
0.000103316
0.000102086
0.000100946
0.0001009
0.000102454
0.000104908
0.000107964
0.000109606
0.000107281
0.00010273
0.000100345
0.0001007
0.000104148
0.000107414
0.000111923
0.00011733
0.000129593
0.000166995
0.00021545
0.000311278
0.000439233
0.000481426
0.000459109
0.000388004
0.000279139
0.000192307
0.000139725
0.000117016
0.000110979
0.000109889
0.000109684
0.000109597
0.000109254
0.000108554
0.000107361
0.000106026
0.000105073
0.000105808
0.000108741
0.000112358
0.000115502
0.000115582
0.000110494
0.000104056
0.000100322
0.000100718
0.000104192
0.000108327
0.000114648
0.000125367
0.000139075
0.000176624
0.000254328
0.000342366
0.000454499
0.000495376
0.000474893
0.000412392
0.00030526
0.000213412
0.000152056
0.000121796
0.000113277
0.000112241
0.000113164
0.000114515
0.000115201
0.000114987
0.000114462
0.000113438
0.000112487
0.000112927
0.000114908
0.000118772
0.000122222
0.000123971
0.000121664
0.000113848
0.000102343
0.000106289
0.000100026
0.000102335
0.00010057
0.000100392
0.000103392
0.000108598
0.000116934
0.000133653
0.000160141
0.000196999
0.000291721
0.000390641
0.000482967
0.000513994
0.000490717
0.000433504
0.000329785
0.000235778
0.000167039
0.000128535
0.000116423
0.000114797
0.00011663
0.000119726
0.000121399
0.000122224
0.000122287
0.000122375
0.000122104
0.000121156
0.000122158
0.0001239
0.000127177
0.000129298
0.000129904
0.000126171
0.000111648
0.000118566
0.000106139
9.99949e-05
0.000102375
0.000100373
0.000100033
0.000102294
0.000108075
0.000118509
0.000141516
0.000188642
0.000245892
0.000336022
0.000448736
0.000526259
0.000539779
0.000509339
0.000452033
0.000352487
0.000259146
0.000184567
0.000137791
0.000120937
0.000118104
0.000120406
0.000125339
0.000129465
0.00013164
0.00013241
0.000132317
0.000131022
0.000129896
0.000129736
0.000133485
0.000138966
0.000141347
0.000140184
0.000132342
0.000137048
0.000125005
0.000134186
0.00013119
0.000112524
0.000120295
0.000106687
9.98538e-05
0.000101978
0.00010006
9.9257e-05
0.000101005
0.000106811
0.000119261
0.000148464
0.00021659
0.00032689
0.000408033
0.000514397
0.000584048
0.000574846
0.000533065
0.0004699
0.000373389
0.000282787
0.000204297
0.000150101
0.000127528
0.000122635
0.000124653
0.000132625
0.000140094
0.000144834
0.000145986
0.00014452
0.000142446
0.000141134
0.000146162
0.0001608
0.000183645
0.000205637
0.000193859
0.000145607
0.000170189
0.000143499
0.000127225
0.000140692
0.000136327
0.000114173
0.000121917
0.000106438
9.96204e-05
0.000101486
9.9694e-05
9.9243e-05
0.000100118
0.000105399
0.00011971
0.000154778
0.00024241
0.000413194
0.000509077
0.000595196
0.000653123
0.000621642
0.000563806
0.000489499
0.000393809
0.000306527
0.000226493
0.000167224
0.000138485
0.00012924
0.000130275
0.000139058
0.000149793
0.0001594
0.000163163
0.000162207
0.000160751
0.000163999
0.00018587
0.000248078
0.000356599
0.000493308
0.000618552
0.000247262
0.000511777
0.000169119
0.000259407
0.000166137
0.00013049
0.00015951
0.000150514
0.000114297
0.000122192
0.000106193
9.94313e-05
0.000101002
9.94361e-05
0.000100012
0.000101276
0.000106972
0.000123034
0.000164611
0.000268497
0.000497993
0.00063188
0.000696726
0.000733702
0.000680716
0.000604077
0.000512733
0.000415722
0.000331217
0.000253251
0.000192878
0.00015734
0.000140729
0.000137654
0.000145492
0.000156918
0.00017017
0.000181063
0.000185419
0.000189102
0.000211014
0.000282815
0.000483555
0.000888177
0.00142297
0.00196909
0.00121524
0.00277912
0.000574158
0.0014272
0.000258758
0.00060356
0.000245055
0.000138772
0.000222515
0.000194376
0.000113229
0.000126518
0.000105161
9.94833e-05
0.000100673
9.95725e-05
0.000102037
0.000107775
0.000120248
0.000142616
0.000189983
0.000308222
0.000583643
0.000767739
0.000819323
0.000827137
0.000751694
0.000655116
0.000541972
0.000441534
0.000360564
0.000290525
0.000231293
0.000187891
0.000160874
0.000151055
0.000154992
0.000164858
0.000178433
0.000194171
0.000209104
0.00022633
0.00028544
0.000503084
0.00102916
0.00199498
0.0034897
0.0048311
0.00410532
0.00564158
0.00314756
0.00463419
0.00157858
0.00335082
0.000581291
0.00159722
0.000518427
0.000166071
0.000431893
0.000339979
0.000114642
0.000141044
0.000105284
9.98873e-05
0.000101167
0.000100491
0.000113498
0.000131015
0.000162919
0.000207168
0.000268833
0.00039721
0.000689454
0.000910375
0.000959407
0.00093316
0.000834091
0.000716588
0.000579619
0.000474535
0.00040267
0.000343055
0.000284071
0.000232455
0.000194874
0.000177101
0.000173961
0.000178913
0.000189026
0.000204551
0.000225963
0.000266678
0.000387238
0.000838938
0.00195778
0.00370741
0.00535649
0.00627531
0.00610837
0.00665905
0.0056918
0.00629082
0.00480154
0.00578592
0.00343485
0.0048675
0.00147792
0.00337952
0.00126309
0.000252256
0.00102766
0.000758737
0.000120236
0.000182358
0.000107876
0.000100324
0.00010342
0.00010213
0.000159969
0.000209488
0.000269287
0.000367744
0.000471459
0.000598201
0.000838
0.00105555
0.00110967
0.00105103
0.0009283
0.000786769
0.000627486
0.000520854
0.000460295
0.000405942
0.000350583
0.000294622
0.000249975
0.000223349
0.000214819
0.000207914
0.000209099
0.000218545
0.000238808
0.000298255
0.00051026
0.00127152
0.00305262
0.00530452
0.00648082
0.0069244
0.00680597
0.00710999
0.00665912
0.00689399
0.00633782
0.00669093
0.00579658
0.00637298
0.00484438
0.00578927
0.00315141
0.00471014
0.00278607
0.000493279
0.00229299
0.00165292
0.00013867
0.000300692
0.00011594
0.000101027
0.000107798
0.000104778
0.000173278
0.000318913
0.000395117
0.000514632
0.000650701
0.000776659
0.000978668
0.00118744
0.00125547
0.00117654
0.00103166
0.000862356
0.000686177
0.000580688
0.000527244
0.000482703
0.000436752
0.000383751
0.000331865
0.000296704
0.000277948
0.000266614
0.000254294
0.000246563
0.000255141
0.000313531
0.000637218
0.00173105
0.00420017
0.00648773
0.00720531
0.00748502
0.00739263
0.00791007
0.00726332
0.00774044
0.00708253
0.00757224
0.00681449
0.00734526
0.00642023
0.0070504
0.00575019
0.0065295
0.00446347
0.00567397
0.00414747
0.00104166
0.00369513
0.00301934
0.000189233
0.00060614
0.00013649
0.000102108
0.000116557
0.000110147
0.000179977
0.000414908
0.000438428
0.000556269
0.000687605
0.000831578
0.00103759
0.00125915
0.00136555
0.00129665
0.00113893
0.000942259
0.000754763
0.000651788
0.000606921
0.000580676
0.00055062
0.000508285
0.000452333
0.000401772
0.000370057
0.0003525
0.000331566
0.000300535
0.000286848
0.000325507
0.00069912
0.00219443
0.0051671
0.00729313
0.0078286
0.00814928
0.00852108
0.00934688
0.00845029
0.00929157
0.00826955
0.00909719
0.00803068
0.00882838
0.00770894
0.00852113
0.00730318
0.00817244
0.00665729
0.00761181
0.00554101
0.00677062
0.00537198
0.00214587
0.00503779
0.00451692
0.000325012
0.00125728
0.000191186
0.000102966
0.000138542
0.000116568
0.000190361
0.000455559
0.000491559
0.000512329
0.000640952
0.000804347
0.00102146
0.00125817
0.00140314
0.00138391
0.00123842
0.00102288
0.000829278
0.000731705
0.000703355
0.000708094
0.000715643
0.000692216
0.00065263
0.000595707
0.000541076
0.000492011
0.00045314
0.000407302
0.000352429
0.000352785
0.000696456
0.0024371
0.00596739
0.00787094
0.0083148
0.0093762
0.0101517
0.0109982
0.0101492
0.0108066
0.00984335
0.0104089
0.00950596
0.0099798
0.00920643
0.00962436
0.00897348
0.00940554
0.0086263
0.00928639
0.00793912
0.00906089
0.00681874
0.0082435
0.00684081
0.00369797
0.00670506
0.00633494
0.000672432
0.00256725
0.00034373
0.000102548
0.000195942
0.000125392
0.000205689
0.000473018
0.00056259
0.000512706
0.000537198
0.000686661
0.000929454
0.00120387
0.00138874
0.0014117
0.00130769
0.00109578
0.00090382
0.000819108
0.000822377
0.000893728
0.000974085
0.00103775
0.00105786
0.00100859
0.000904035
0.000782639
0.000675164
0.000597001
0.000504016
0.000419894
0.000669143
0.00242543
0.00652663
0.00823538
0.00868822
0.0100841
0.0115048
0.0112679
0.011636
0.0108207
0.0111399
0.0103443
0.0105778
0.00993503
0.0100585
0.00965424
0.00971508
0.00953887
0.00959987
0.00958032
0.00967988
0.00945796
0.00989409
0.0085241
0.00981488
0.00869061
0.00565484
0.0087039
0.00848633
0.00148259
0.00460275
0.000775951
0.000106106
0.000397348
0.000193601
0.000244489
0.000486445
0.00060697
0.000552856
0.000520773
0.000568098
0.00075659
0.00105069
0.00131956
0.00140027
0.00132826
0.00114493
0.000969687
0.000912781
0.000979399
0.0011813
0.00141114
0.00164791
0.00169854
0.00160537
0.00143557
0.00124919
0.001053
0.000891576
0.00075617
0.000603417
0.000669246
0.00230157
0.00660343
0.0084788
0.00884892
0.0104236
0.0113825
0.0107688
0.0102461
0.0112651
0.0110835
0.0105321
0.0102919
0.00993689
0.00959614
0.00956017
0.00915366
0.00945141
0.0090451
0.00958232
0.00923877
0.00986212
0.00964033
0.0102157
0.0101191
0.0101461
0.0105658
0.0104214
0.00798049
0.0105869
0.0105832
0.00320838
0.00712899
0.00187865
0.000422537
0.0010888
0.00103289
0.00034625
0.000511049
0.000609874
0.000625196
0.000539663
0.000538942
0.000627322
0.000867627
0.00115786
0.00134451
0.00131886
0.00115989
0.00101859
0.00100809
0.00118427
0.00159269
0.00206821
0.0024137
0.00244184
0.00228125
0.00203653
0.00177236
0.00152397
0.00128617
0.00108267
0.000904914
0.000765277
0.00195942
0.0064686
0.00861691
0.00882208
0.0103711
0.0110585
0.00973163
0.00903694
0.00842308
0.0077741
0.00979979
0.00913339
0.008998
0.00827357
0.00856195
0.00791408
0.00849014
0.00796326
0.00871694
0.0082811
0.00917568
0.00876443
0.00978924
0.00935783
0.0104195
0.0100343
0.010946
0.0107801
0.0113544
0.0103285
0.0117659
0.0121043
0.00582207
0.00975328
0.00430578
0.000692451
0.00322692
0.0032647
0.000628942
0.000552578
0.000588859
0.000653907
0.000602163
0.000547631
0.000579736
0.000726786
0.000987364
0.00121031
0.00127519
0.00115342
0.00104364
0.00108863
0.00141004
0.00207594
0.00281037
0.00320769
0.00317488
0.00292764
0.00260751
0.00228809
0.00199708
0.00172457
0.00146934
0.00124559
0.00103552
0.00169643
0.00603224
0.00862799
0.00872747
0.0102649
0.0106711
0.00854914
0.00824154
0.00711029
0.00645093
0.00681096
0.00642025
0.00758093
0.00712724
0.00729506
0.00679917
0.00747388
0.00701246
0.00787537
0.0074887
0.00840425
0.00806648
0.00899797
0.00869952
0.00964957
0.0093764
0.0103582
0.0100221
0.0111939
0.0107386
0.0116717
0.0122438
0.0122161
0.012776
0.00873926
0.0120829
0.007519
0.00424481
0.00715075
0.00828318
0.000741176
0.00059373
0.000654061
0.000684942
0.000583013
0.00058041
0.000655011
0.000847177
0.00105933
0.00116893
0.00112073
0.00104445
0.00114158
0.00161668
0.00255012
0.00354341
0.00392881
0.00379538
0.00345387
0.00305533
0.00270833
0.00240844
0.00213504
0.00186431
0.00160928
0.00135451
0.00163038
0.0050564
0.00858377
0.00856761
0.0100601
0.0106768
0.00732128
0.00601177
0.00568245
0.00569455
0.00489596
0.00635767
0.00600233
0.00651473
0.006435
0.00660979
0.00636208
0.00712316
0.00677556
0.00774328
0.00742894
0.00844839
0.00823918
0.00923085
0.00918877
0.0099179
0.0100823
0.0104439
0.0105908
0.0111748
0.0108806
0.0116669
0.0132582
0.0122223
0.0128321
0.0115237
0.0134066
0.010614
0.00490649
0.009907
0.00978364
0.000761807
0.000672737
0.000725978
0.000676255
0.000598021
0.000641571
0.000755931
0.000926182
0.00104329
0.00103653
0.00102275
0.00115657
0.0017633
0.00296377
0.00417021
0.00448339
0.00427274
0.00383764
0.00335987
0.00298324
0.00269658
0.00244694
0.00219654
0.00194029
0.00168097
0.00168196
0.00407625
0.00841318
0.00827795
0.00970608
0.01078
0.00850114
0.00483008
0.00571333
0.00453337
0.00456155
0.00506393
0.00414004
0.00638555
0.00592327
0.00630254
0.00639908
0.00650562
0.006443
0.0071383
0.00693505
0.00804224
0.00785995
0.0092006
0.00919714
0.0103769
0.0108022
0.0110886
0.0119761
0.0112451
0.0122451
0.0113248
0.0117782
0.0117652
0.0133758
0.0121814
0.012497
0.0131293
0.0135977
0.0122898
0.00897143
0.0108804
0.0114452
0.000841599
0.00076917
0.000772303
0.000648573
0.000648422
0.0007158
0.0008245
0.000925636
0.000930873
0.000952036
0.0011426
0.00182189
0.00324295
0.00461113
0.00487806
0.00462501
0.00407965
0.00350382
0.00308271
0.00282101
0.00262706
0.00242874
0.00219844
0.00195986
0.00187434
0.00337651
0.00799893
0.00791534
0.00919434
0.010932
0.0097755
0.00640837
0.00428722
0.00499557
0.0037413
0.00382255
0.00469799
0.00359807
0.00685573
0.00587613
0.00663289
0.00697696
0.00693335
0.0071481
0.00774888
0.00779815
0.00918981
0.00918105
0.0110981
0.0111345
0.0126353
0.0127377
0.0134149
0.013785
0.0131936
0.0143124
0.0122193
0.0136641
0.0124122
0.0128855
0.0124433
0.0123965
0.0124359
0.0133286
0.0133765
0.0130371
0.0125012
0.00788773
0.0109747
0.0136789
0.000927742
0.000833655
0.00076227
0.000673425
0.00071193
0.000758907
0.0008278
0.000829326
0.000855459
0.00107204
0.00181213
0.00335262
0.00487871
0.00516191
0.00486733
0.00420486
0.00353331
0.00308512
0.00282985
0.00267139
0.00253267
0.0023617
0.00215119
0.0020567
0.00297992
0.0071753
0.00766612
0.00865783
0.0110301
0.0108204
0.00814126
0.00515781
0.00614253
0.00378415
0.00443283
0.00315728
0.00325764
0.00416528
0.00293974
0.00705159
0.0053082
0.00761812
0.00775766
0.00799686
0.00837646
0.00918322
0.0092265
0.0109671
0.0106681
0.012458
0.0120273
0.0136089
0.0131021
0.0144457
0.0139673
0.0147408
0.0147403
0.0138304
0.0148815
0.0144623
0.0130015
0.0137745
0.0124362
0.0125851
0.0124317
0.0127382
0.0134847
0.013703
0.0126014
0.0130221
0.0129329
0.0129988
0.012597
0.0126439
0.01198
0.0121773
0.00759517
0.0110878
0.0109115
0.01149
0.0111232
0.0145991
0.0127254
0.000980418
0.000841074
0.000745394
0.000721128
0.000735745
0.000752747
0.00074205
0.000759345
0.000954209
0.00170172
0.00333138
0.00498655
0.00534373
0.00501867
0.00423678
0.00354384
0.00307038
0.00279729
0.00265711
0.00254019
0.00241341
0.00225301
0.00217381
0.00276426
0.00622121
0.00751292
0.00814957
0.0109704
0.0115511
0.00980828
0.00708486
0.00438475
0.00516673
0.00306592
0.00368871
0.00249639
0.00262218
0.00329122
0.00211053
0.00658382
0.00417438
0.00850163
0.00802351
0.00925973
0.00913555
0.0103296
0.0100224
0.0114934
0.0109012
0.0122721
0.0113153
0.012943
0.0117446
0.0142883
0.0138155
0.0133076
0.0128193
0.0149011
0.0147846
0.0138586
0.0139327
0.0143527
0.0149526
0.0144287
0.0148947
0.0149484
0.0143327
0.0124787
0.0123539
0.0123609
0.0131952
0.0139591
0.0141677
0.0129526
0.0124405
0.0125715
0.0122736
0.0121699
0.0116607
0.0119998
0.0150089
0.0107988
0.0110912
0.0110018
0.0119468
0.000996225
0.00081552
0.000758104
0.000736928
0.000710246
0.000671073
0.000673171
0.000831827
0.00148345
0.00311644
0.00497462
0.00542786
0.00509461
0.00423673
0.00361211
0.00309557
0.00277766
0.00260853
0.00251243
0.00240928
0.00227822
0.00221217
0.00263079
0.00533829
0.00734434
0.00777942
0.0106641
0.0121227
0.0111835
0.00879676
0.0047593
0.00575204
0.00334386
0.00399257
0.00226595
0.00274983
0.0017872
0.00191605
0.00218684
0.00136967
0.00524618
0.00268794
0.00869429
0.00745686
0.00963674
0.00899319
0.0102822
0.00959362
0.0103964
0.00954762
0.0106178
0.00954243
0.0123731
0.0119039
0.0114449
0.0109737
0.0133444
0.0129713
0.0126044
0.0147785
0.0144108
0.0135168
0.0137123
0.014023
0.0149512
0.0147866
0.0149046
0.0147995
0.014666
0.0126888
0.0122037
0.012424
0.0136456
0.0145027
0.0142627
0.0133213
0.012145
0.011945
0.0120324
0.0116212
0.011149
0.012487
0.0140955
0.0207131
0.0231012
0.0107186
0.0105274
0.0105913
0.0109028
0.000966959
0.000806454
0.000751284
0.000700766
0.000623505
0.000600656
0.000718644
0.00124923
0.00269515
0.00481786
0.00543154
0.00514374
0.00424605
0.00378114
0.00328262
0.00283366
0.00260792
0.00248198
0.00237995
0.0022739
0.00221321
0.00253865
0.00463313
0.00708791
0.00751032
0.0101779
0.0125546
0.0122558
0.0103291
0.00659056
0.00756186
0.00346884
0.00424585
0.00227202
0.00281822
0.00150058
0.0018299
0.00122094
0.00127511
0.00133644
0.000960695
0.00340387
0.00160351
0.00781706
0.00589481
0.00870273
0.00752582
0.00871787
0.00783584
0.00852012
0.00758182
0.0104505
0.00993243
0.00936723
0.00880949
0.012275
0.0119298
0.0116003
0.0112159
0.0132437
0.0130227
0.0128695
0.0144708
0.014132
0.0135793
0.0139224
0.0139503
0.0148028
0.014811
0.0147755
0.0145214
0.0146924
0.0129472
0.0121254
0.0125435
0.013945
0.0145233
0.0142906
0.0135679
0.0118052
0.0114961
0.0118226
0.0111058
0.0106796
0.00977739
0.0110557
0.014233
0.0322748
0.0103154
0.0100707
0.00987535
0.000921332
0.000784529
0.000703359
0.000605979
0.000543457
0.000622607
0.00102911
0.0022387
0.00438507
0.00536454
0.00518855
0.00425276
0.00391341
0.0036347
0.00314076
0.00270798
0.0025027
0.00237761
0.00227403
0.00221498
0.00250233
0.00413682
0.00671198
0.00725489
0.0097103
0.012808
0.0131135
0.0116216
0.00822159
0.00506281
0.00602746
0.00216511
0.00273882
0.00136217
0.00170652
0.000943723
0.00110274
0.000874359
0.000868533
0.00097607
0.000786684
0.00191906
0.00111988
0.00592191
0.00384115
0.00668546
0.00533161
0.00671618
0.00578202
0.00822972
0.0076471
0.00708644
0.00651154
0.0107727
0.0102644
0.00969222
0.0090723
0.0127302
0.012577
0.01239
0.0121145
0.0135568
0.013568
0.0136231
0.0142357
0.0141491
0.0140253
0.0144148
0.0141847
0.0145427
0.0146944
0.0145291
0.0143117
0.0145694
0.0131258
0.0121262
0.0126422
0.0139889
0.0143826
0.0141414
0.0136095
0.0114828
0.0110931
0.01169
0.010667
0.0102517
0.00909632
0.00903191
0.011861
0.0133101
0.0303256
0.00986275
0.00949216
0.000864484
0.000720297
0.00060486
0.000509603
0.000543836
0.000839653
0.00179325
0.00375171
0.00515811
0.00520023
0.00426443
0.00394633
0.00386176
0.00365327
0.00311329
0.00265707
0.00243475
0.00230423
0.0022401
0.00251164
0.00387074
0.00630773
0.00701708
0.00932431
0.0128734
0.0138094
0.0127483
0.009609
0.00499327
0.0056691
0.00341048
0.00412101
0.00129812
0.00159592
0.00089553
0.00107022
0.000707838
0.000769161
0.000718239
0.000696149
0.000831267
0.000715791
0.00132136
0.000947665
0.00378459
0.0021936
0.00469389
0.00359135
0.00563482
0.00467071
0.00841461
0.00774666
0.00709426
0.00647911
0.0117275
0.0112162
0.0105886
0.00986801
0.0136772
0.0136899
0.0136391
0.0134439
0.014229
0.0144561
0.0146947
0.0142623
0.0143659
0.014748
0.015087
0.0146692
0.0143364
0.0144617
0.0142924
0.0143023
0.0143354
0.0131489
0.0121259
0.0126249
0.0138375
0.0141418
0.0138823
0.0134591
0.0112367
0.0107596
0.0116059
0.0102682
0.00981239
0.00888332
0.00852046
0.00872837
0.0116462
0.0226111
0.0221488
0.00936236
0.000772395
0.000614353
0.000492327
0.000491293
0.000683418
0.00140012
0.00304651
0.0047697
0.00515051
0.00431441
0.00391452
0.00393189
0.0040867
0.00386854
0.00317
0.00264436
0.00241037
0.00232139
0.00256905
0.00380707
0.00594241
0.0068106
0.00901795
0.0128631
0.0143652
0.013705
0.0108423
0.00579106
0.003151
0.00394808
0.00199787
0.00251652
0.000934267
0.00109528
0.000693106
0.000798682
0.000610198
0.000627423
0.000654291
0.000621139
0.000779073
0.00069621
0.00113552
0.000905709
0.00247022
0.00157927
0.00372064
0.00285265
0.00602326
0.00533478
0.00416992
0.00474715
0.00908306
0.00827554
0.00748342
0.006731
0.0130686
0.0125126
0.0117854
0.0109267
0.0149077
0.0150497
0.0150529
0.0149346
0.015111
0.0154887
0.0158535
0.0144305
0.0147734
0.0155464
0.015757
0.0152433
0.0142641
0.0141916
0.0141531
0.0143932
0.0140469
0.0130262
0.012088
0.0125231
0.0135519
0.0138503
0.0135669
0.0131832
0.0110601
0.0104766
0.0115099
0.00988797
0.00935546
0.0088459
0.00839625
0.0081712
0.00852853
0.0103007
0.0204444
0.013769
0.000647949
0.000494307
0.000450373
0.00057297
0.00107641
0.00237692
0.00422672
0.00493716
0.00443285
0.00374746
0.00389466
0.00426817
0.00451063
0.00407391
0.00323683
0.00267916
0.00250101
0.00272904
0.00382391
0.00564234
0.0066048
0.00883437
0.0128004
0.0148013
0.014482
0.0119345
0.00678447
0.00249955
0.00276519
0.00181324
0.00215588
0.00129148
0.00152694
0.000761702
0.000864129
0.000603152
0.000666865
0.000576896
0.000574703
0.000638335
0.000597184
0.000770603
0.000700559
0.00110745
0.000930238
0.0020397
0.00143731
0.00370042
0.00323812
0.00266763
0.00636409
0.00560861
0.00432732
0.00493235
0.00998271
0.00901527
0.00807402
0.00718614
0.0145184
0.0138821
0.0130259
0.0120011
0.0161664
0.0163813
0.0164165
0.0163122
0.0160048
0.0164559
0.0168758
0.0147289
0.0152156
0.0162633
0.0162851
0.0157514
0.0142475
0.0140036
0.0140588
0.014531
0.0138201
0.0127934
0.0119546
0.0122855
0.0132479
0.0135715
0.0132982
0.0129152
0.0108629
0.010173
0.0112926
0.00951283
0.0089195
0.00840034
0.00805207
0.00794025
0.00807505
0.0089682
0.0193719
0.0155958
0.000513031
0.00043566
0.000487972
0.000838434
0.00180548
0.00353466
0.00457064
0.00446842
0.00362191
0.00367075
0.00423786
0.00480827
0.00489128
0.00428745
0.00334556
0.00284792
0.00297355
0.00389925
0.0054864
0.00650828
0.00880836
0.0127644
0.0151242
0.015122
0.0128515
0.00782728
0.0025784
0.00166671
0.0019524
0.00127093
0.00144975
0.000983299
0.00111733
0.000667164
0.000745112
0.000568608
0.000599437
0.000569939
0.000561957
0.000645021
0.000598118
0.00082343
0.000768107
0.0012225
0.00109782
0.0019874
0.00146577
0.00380557
0.00333105
0.00305173
0.00260126
0.00681947
0.00601366
0.00464872
0.00529113
0.0108837
0.00975881
0.00869165
0.00771017
0.0158861
0.0151468
0.014145
0.0129366
0.0172277
0.0174802
0.0175464
0.0174595
0.0167456
0.017202
0.017616
0.0149774
0.0155141
0.0167784
0.0165686
0.0160598
0.0142864
0.0138482
0.0140261
0.014667
0.0136262
0.0124649
0.0116293
0.0118264
0.0130147
0.0133914
0.0131392
0.0125833
0.0105571
0.0098365
0.0109021
0.0091539
0.00854269
0.0080667
0.00782446
0.00767021
0.00776834
0.00899942
0.0076195
0.0159697
0.000431074
0.000442981
0.000660321
0.00135878
0.00278385
0.0041064
0.00440708
0.00367837
0.00329563
0.00392238
0.00479287
0.00532097
0.00531417
0.00458074
0.00360098
0.0033669
0.00407648
0.0054857
0.00652883
0.00884748
0.0127788
0.01537
0.0156679
0.0136214
0.00882977
0.00313233
0.00142943
0.00150259
0.00122059
0.0013294
0.00101375
0.00111417
0.000830218
0.000919918
0.00059622
0.00064891
0.000560746
0.000568872
0.000584332
0.000564252
0.000705131
0.000637943
0.00101724
0.000967288
0.00153807
0.00150164
0.00226516
0.00192975
0.00172002
0.00407536
0.00354481
0.00318587
0.00272424
0.00720732
0.00637061
0.0049347
0.00561801
0.0116303
0.0103489
0.00917575
0.00813537
0.0170362
0.0162529
0.0151104
0.0137098
0.0179765
0.0182288
0.0183018
0.0182306
0.0172256
0.0176295
0.0180048
0.0151598
0.0156961
0.017022
0.0166472
0.016202
0.0143399
0.0137813
0.0140475
0.0147824
0.0135487
0.0119676
0.0111554
0.0113558
0.012721
0.0133101
0.0129077
0.0121482
0.010194
0.00949196
0.010489
0.00881776
0.00824565
0.0078392
0.00762196
0.00751649
0.00781086
0.00931762
0.0111291
0.0135658
0.000413693
0.000550751
0.00101811
0.00212307
0.00353881
0.00414959
0.00375446
0.00314745
0.00327901
0.0044341
0.0053339
0.00592123
0.00585745
0.00504459
0.00417283
0.00445413
0.00558195
0.00665582
0.00898944
0.0128562
0.0156106
0.016121
0.0142621
0.00967646
0.00367834
0.00144803
0.00115763
0.00123168
0.0010093
0.00107931
0.000862003
0.00093812
0.000712949
0.000786428
0.000565295
0.000583909
0.000565147
0.000560153
0.000643984
0.000586472
0.000877009
0.000757941
0.0014868
0.0014446
0.00198464
0.00202825
0.0023566
0.00234089
0.00204775
0.00197598
0.00205004
0.00430423