/*--------------------------------*- C++ -*----------------------------------*\
  =========                 |
  \\      /  F ield         | OpenFOAM: The Open Source CFD Toolbox
   \\    /   O peration     | Website:  https://openfoam.org
    \\  /    A nd           | Version:  dev
     \\/     M anipulation  |
\*---------------------------------------------------------------------------*/
FoamFile
{
    version     2.0;
    format      ascii;
    class       volScalarField;
    location    "2500";
    object      N2;
}
// * * * * * * * * * * * * * * * * * * * * * * * * * * * * * * * * * * * * * //

dimensions      [0 0 0 0 0 0 0];

internalField   nonuniform List<scalar> 
10028
(
0.76699
0.76699
0.76699
0.76699
0.76699
0.76699
0.76699
0.76699
0.76699
0.76699
0.76699
0.76699
0.76699
0.76699
0.76699
0.76699
0.76699
0.76699
0.76699
0.76699
0.76699
0.76699
0.76699
0.76699
0.76699
0.76699
0.76699
0.76699
0.76699
0.76699
0.76699
0.76699
0.76699
0.76699
0.76699
0.76699
0.76699
0.76699
0.76699
0.76699
0.76699
0.76699
0.76699
0.76699
0.76699
0.76699
0.76699
0.76699
0.76699
0.76699
0.76699
0.76699
0.76699
0.76699
0.76699
0.76699
0.76699
0.76699
0.76699
0.76699
0.76699
0.76699
0.76699
0.76699
0.76699
0.76699
0.76699
0.76699
0.76699
0.76699
0.76699
0.76699
0.76699
0.76699
0.76699
0.76699
0.76699
0.76699
0.76699
0.76699
0.76699
0.76699
0.76699
0.76699
0.76699
0.76699
0.76699
0.76699
0.76699
0.76699
0.76699
0.76699
0.76699
0.76699
0.76699
0.76699
0.76699
0.76699
0.76699
0.76699
0.76699
0.76699
0.76699
0.76699
0.76699
0.76699
0.76699
0.76699
0.76699
0.76699
0.76699
0.76699
0.76699
0.76699
0.76699
0.76699
0.76699
0.76699
0.76699
0.76699
0.76699
0.76699
0.76699
0.76699
0.76699
0.76699
0.76699
0.76699
0.76699
0.76699
0.76699
0.76699
0.76699
0.76699
0.76699
0.76699
0.76699
0.76699
0.76699
0.76699
0.76699
0.76699
0.76699
0.76699
0.76699
0.76699
0.76699
0.76699
0.76699
0.76699
0.76699
0.76699
0.76699
0.76699
0.76699
0.76699
0.76699
0.76699
0.76699
0.76699
0.76699
0.76699
0.76699
0.76699
0.76699
0.76699
0.76699
0.76699
0.76699
0.76699
0.76699
0.76699
0.76699
0.76699
0.76699
0.76699
0.76699
0.76699
0.76699
0.76699
0.76699
0.76699
0.76699
0.76699
0.76699
0.76699
0.76699
0.76699
0.76699
0.76699
0.76699
0.76699
0.76699
0.76699
0.76699
0.76699
0.76699
0.76699
0.76699
0.76699
0.76699
0.76699
0.76699
0.76699
0.76699
0.76699
0.76699
0.76699
0.76699
0.76699
0.76699
0.76699
0.76699
0.76699
0.76699
0.76699
0.76699
0.76699
0.76699
0.76699
0.76699
0.76699
0.76699
0.76699
0.76699
0.76699
0.76699
0.76699
0.76699
0.76699
0.76699
0.76699
0.76699
0.76699
0.76699
0.76699
0.76699
0.76699
0.76699
0.76699
0.76699
0.76699
0.76699
0.76699
0.76699
0.76699
0.76699
0.76699
0.76699
0.76699
0.76699
0.76699
0.76699
0.76699
0.76699
0.76699
0.76699
0.76699
0.76699
0.76699
0.76699
0.76699
0.76699
0.76699
0.76699
0.76699
0.76699
0.76699
0.76699
0.76699
0.76699
0.76699
0.76699
0.76699
0.76699
0.76699
0.76699
0.76699
0.76699
0.76699
0.76699
0.76699
0.76699
0.76699
0.76699
0.76699
0.76699
0.76699
0.76699
0.76699
0.76699
0.76699
0.76699
0.76699
0.76699
0.76699
0.76699
0.76699
0.76699
0.76699
0.76699
0.76699
0.76699
0.76699
0.76699
0.76699
0.76699
0.76699
0.76699
0.76699
0.76699
0.76699
0.76699
0.76699
0.76699
0.76699
0.76699
0.76699
0.76699
0.76699
0.76699
0.76699
0.76699
0.76699
0.76699
0.76699
0.76699
0.76699
0.76699
0.76699
0.76699
0.76699
0.76699
0.76699
0.76699
0.76699
0.76699
0.76699
0.76699
0.76699
0.76699
0.76699
0.76699
0.76699
0.76699
0.76699
0.76699
0.76699
0.76699
0.76699
0.76699
0.76699
0.76699
0.76699
0.76699
0.76699
0.76699
0.76699
0.76699
0.76699
0.76699
0.76699
0.76699
0.76699
0.76699
0.76699
0.76699
0.76699
0.76699
0.76699
0.76699
0.76699
0.76699
0.76699
0.76699
0.76699
0.76699
0.76699
0.76699
0.76699
0.76699
0.76699
0.76699
0.76699
0.76699
0.76699
0.76699
0.76699
0.76699
0.76699
0.76699
0.76699
0.76699
0.76699
0.76699
0.76699
0.76699
0.76699
0.76699
0.76699
0.76699
0.76699
0.76699
0.76699
0.76699
0.76699
0.76699
0.76699
0.76699
0.76699
0.76699
0.76699
0.76699
0.76699
0.76699
0.76699
0.76699
0.76699
0.76699
0.76699
0.76699
0.76699
0.76699
0.76699
0.76699
0.76699
0.76699
0.76699
0.76699
0.76699
0.76699
0.76699
0.76699
0.76699
0.76699
0.76699
0.76699
0.76699
0.76699
0.76699
0.76699
0.76699
0.76699
0.76699
0.76699
0.76699
0.76699
0.76699
0.76699
0.76699
0.76699
0.76699
0.76699
0.76699
0.76699
0.76699
0.76699
0.76699
0.76699
0.76699
0.76699
0.76699
0.76699
0.76699
0.76699
0.76699
0.76699
0.76699
0.76699
0.76699
0.76699
0.76699
0.76699
0.76699
0.76699
0.76699
0.76699
0.76699
0.76699
0.76699
0.76699
0.76699
0.76699
0.76699
0.76699
0.76699
0.76699
0.76699
0.76699
0.76699
0.76699
0.76699
0.76699
0.76699
0.76699
0.76699
0.76699
0.76699
0.76699
0.76699
0.76699
0.76699
0.76699
0.76699
0.76699
0.76699
0.76699
0.76699
0.76699
0.76699
0.76699
0.76699
0.76699
0.76699
0.76699
0.76699
0.76699
0.76699
0.76699
0.76699
0.76699
0.76699
0.76699
0.76699
0.76699
0.76699
0.76699
0.76699
0.76699
0.76699
0.76699
0.76699
0.76699
0.76699
0.76699
0.76699
0.76699
0.76699
0.76699
0.76699
0.76699
0.76699
0.76699
0.76699
0.76699
0.76699
0.76699
0.76699
0.76699
0.76699
0.76699
0.76699
0.76699
0.76699
0.76699
0.76699
0.76699
0.76699
0.76699
0.76699
0.76699
0.76699
0.76699
0.76699
0.76699
0.76699
0.76699
0.76699
0.76699
0.76699
0.76699
0.76699
0.76699
0.76699
0.76699
0.76699
0.76699
0.76699
0.76699
0.76699
0.76699
0.76699
0.76699
0.76699
0.76699
0.76699
0.76699
0.76699
0.76699
0.76699
0.76699
0.76699
0.76699
0.76699
0.76699
0.76699
0.76699
0.76699
0.76699
0.76699
0.76699
0.76699
0.76699
0.76699
0.76699
0.76699
0.76699
0.76699
0.76699
0.76699
0.76699
0.76699
0.76699
0.76699
0.76699
0.76699
0.76699
0.76699
0.76699
0.76699
0.76699
0.76699
0.76699
0.76699
0.76699
0.76699
0.76699
0.76699
0.76699
0.76699
0.76699
0.76699
0.76699
0.76699
0.76699
0.76699
0.76699
0.76699
0.76699
0.76699
0.76699
0.76699
0.76699
0.76699
0.76699
0.76699
0.76699
0.76699
0.76699
0.76699
0.76699
0.76699
0.76699
0.76699
0.76699
0.76699
0.76699
0.76699
0.76699
0.76699
0.76699
0.76699
0.76699
0.76699
0.76699
0.76699
0.76699
0.76699
0.76699
0.76699
0.76699
0.76699
0.76699
0.76699
0.76699
0.76699
0.76699
0.76699
0.76699
0.76699
0.76699
0.76699
0.76699
0.76699
0.76699
0.76699
0.76699
0.76699
0.76699
0.76699
0.76699
0.76699
0.76699
0.76699
0.76699
0.76699
0.76699
0.76699
0.76699
0.76699
0.76699
0.766989
0.766989
0.76699
0.76699
0.76699
0.76699
0.76699
0.76699
0.76699
0.76699
0.76699
0.76699
0.76699
0.76699
0.76699
0.76699
0.76699
0.76699
0.76699
0.76699
0.76699
0.76699
0.76699
0.76699
0.76699
0.76699
0.76699
0.76699
0.76699
0.76699
0.76699
0.76699
0.76699
0.76699
0.76699
0.76699
0.76699
0.76699
0.76699
0.76699
0.76699
0.766989
0.766988
0.766987
0.766985
0.766986
0.766989
0.766988
0.766989
0.76699
0.766989
0.76699
0.76699
0.76699
0.76699
0.76699
0.76699
0.76699
0.76699
0.76699
0.76699
0.76699
0.76699
0.76699
0.76699
0.76699
0.76699
0.76699
0.76699
0.76699
0.76699
0.76699
0.76699
0.76699
0.76699
0.76699
0.76699
0.76699
0.76699
0.76699
0.76699
0.76699
0.76699
0.76699
0.766989
0.766988
0.766983
0.766976
0.766965
0.766956
0.766982
0.766962
0.766988
0.766981
0.766988
0.76699
0.766988
0.766988
0.76699
0.76699
0.76699
0.76699
0.76699
0.76699
0.76699
0.76699
0.76699
0.76699
0.76699
0.76699
0.76699
0.76699
0.76699
0.76699
0.76699
0.76699
0.76699
0.76699
0.76699
0.76699
0.76699
0.76699
0.76699
0.76699
0.76699
0.76699
0.76699
0.76699
0.76699
0.76699
0.766988
0.766983
0.76697
0.766942
0.7669
0.766854
0.766912
0.766798
0.766957
0.766894
0.76698
0.766954
0.766981
0.766989
0.766982
0.766984
0.76699
0.766989
0.76699
0.76699
0.76699
0.76699
0.76699
0.76699
0.76699
0.76699
0.76699
0.76699
0.76699
0.76699
0.76699
0.76699
0.76699
0.76699
0.76699
0.76699
0.76699
0.76699
0.76699
0.76699
0.76699
0.76699
0.76699
0.76699
0.76699
0.76699
0.76699
0.766989
0.766986
0.766973
0.766938
0.766868
0.766761
0.766636
0.76668
0.766523
0.766765
0.766619
0.76688
0.766736
0.766954
0.766874
0.766957
0.766986
0.766962
0.766969
0.76699
0.766988
0.76699
0.76699
0.76699
0.76699
0.76699
0.76699
0.76699
0.76699
0.76699
0.76699
0.76699
0.76699
0.76699
0.76699
0.76699
0.76699
0.76699
0.76699
0.76699
0.76699
0.76699
0.76699
0.76699
0.76699
0.76699
0.76699
0.76699
0.76699
0.76699
0.766989
0.766983
0.766956
0.766885
0.766757
0.766588
0.766403
0.766404
0.766257
0.766469
0.766325
0.766577
0.766415
0.766715
0.766543
0.766877
0.766706
0.766887
0.766976
0.766903
0.766925
0.766989
0.766982
0.76699
0.76699
0.76699
0.76699
0.76699
0.76699
0.76699
0.76699
0.76699
0.76699
0.76699
0.76699
0.76699
0.76699
0.76699
0.76699
0.76699
0.76699
0.76699
0.76699
0.76699
0.76699
0.76699
0.76699
0.76699
0.76699
0.76699
0.76699
0.76699
0.766989
0.766978
0.766936
0.766822
0.766637
0.766406
0.766185
0.766157
0.766049
0.766189
0.766077
0.766263
0.766125
0.766368
0.766207
0.766517
0.766331
0.766712
0.766504
0.766733
0.766948
0.766771
0.766826
0.766987
0.766967
0.766989
0.76699
0.76699
0.76699
0.76699
0.76699
0.76699
0.76699
0.76699
0.76699
0.76699
0.76699
0.76699
0.76699
0.76699
0.76699
0.76699
0.76699
0.76699
0.76699
0.76699
0.766989
0.766989
0.766989
0.766989
0.76699
0.76699
0.76699
0.76699
0.766989
0.766977
0.766913
0.766761
0.766508
0.766237
0.766058
0.766009
0.76598
0.766012
0.765976
0.766034
0.765983
0.766078
0.766003
0.766161
0.766046
0.766304
0.766129
0.766508
0.76629
0.766529
0.766879
0.76657
0.766642
0.76698
0.766927
0.766987
0.76699
0.766989
0.76699
0.76699
0.76699
0.76699
0.76699
0.76699
0.76699
0.76699
0.76699
0.76699
0.76699
0.76699
0.76699
0.76699
0.76699
0.76699
0.766989
0.766989
0.766988
0.766988
0.766988
0.766988
0.766989
0.766989
0.766989
0.76699
0.766989
0.766977
0.766901
0.766702
0.766406
0.766141
0.766012
0.765973
0.765976
0.765963
0.765962
0.765963
0.765957
0.765969
0.765956
0.765984
0.76596
0.766022
0.765971
0.766109
0.766008
0.766293
0.766101
0.766314
0.766738
0.766356
0.766424
0.766962
0.766841
0.766981
0.76699
0.766988
0.76699
0.76699
0.76699
0.76699
0.76699
0.76699
0.76699
0.76699
0.76699
0.76699
0.76699
0.76699
0.76699
0.76699
0.76699
0.766989
0.766988
0.766986
0.766984
0.766982
0.766982
0.766984
0.766985
0.766987
0.766988
0.766989
0.766989
0.76698
0.766901
0.766667
0.76633
0.766105
0.766023
0.765985
0.766005
0.765971
0.765995
0.765963
0.765984
0.765958
0.765973
0.765954
0.765963
0.765953
0.765953
0.765963
0.765948
0.765999
0.765956
0.766108
0.765997
0.766127
0.766532
0.766164
0.766227
0.766917
0.766677
0.766965
0.76699
0.766984
0.766989
0.76699
0.76699
0.76699
0.76699
0.76699
0.76699
0.76699
0.76699
0.76699
0.76699
0.76699
0.76699
0.76699
0.766989
0.766988
0.766984
0.766979
0.766972
0.766968
0.766967
0.76697
0.766975
0.76698
0.766984
0.766987
0.766989
0.766983
0.766907
0.766666
0.76629
0.766105
0.766052
0.76611
0.766036
0.766103
0.766024
0.766073
0.766008
0.766048
0.765987
0.766018
0.765964
0.765987
0.765948
0.765959
0.765941
0.765941
0.76595
0.765934
0.766002
0.765947
0.766013
0.766325
0.766037
0.766081
0.766826
0.766467
0.766926
0.76699
0.766974
0.766987
0.76699
0.76699
0.76699
0.76699
0.76699
0.76699
0.76699
0.76699
0.76699
0.76699
0.76699
0.76699
0.76699
0.766989
0.766985
0.766977
0.766963
0.766947
0.766934
0.766928
0.766933
0.766945
0.766961
0.766974
0.766983
0.766987
0.766985
0.766923
0.766675
0.766291
0.76611
0.766099
0.766233
0.766219
0.766316
0.766122
0.766174
0.766084
0.766119
0.766047
0.766075
0.766009
0.766031
0.765974
0.765987
0.765946
0.765948
0.765929
0.76592
0.765926
0.765911
0.765947
0.765919
0.765952
0.766157
0.765963
0.765989
0.766658
0.766277
0.766842
0.766981
0.76694
0.766956
0.766989
0.76699
0.76699
0.76699
0.76699
0.76699
0.76699
0.76699
0.76699
0.76699
0.76699
0.76699
0.766989
0.766987
0.766981
0.766965
0.766937
0.766905
0.766878
0.766866
0.76687
0.766888
0.766917
0.766948
0.766971
0.766983
0.766985
0.766946
0.766699
0.766302
0.766116
0.766137
0.766352
0.766399
0.766509
0.766261
0.766371
0.766155
0.766199
0.766101
0.766127
0.766051
0.766064
0.765995
0.765995
0.76594
0.765924
0.765901
0.765865
0.765885
0.765837
0.765892
0.765844
0.765913
0.765874
0.765911
0.76604
0.765914
0.765929
0.766456
0.766127
0.766686
0.76696
0.766816
0.766845
0.766986
0.766989
0.76699
0.76699
0.76699
0.76699
0.76699
0.76699
0.76699
0.76699
0.76699
0.76699
0.766989
0.766986
0.766975
0.766949
0.766904
0.766851
0.766809
0.766787
0.766789
0.766812
0.76685
0.766895
0.766943
0.766973
0.766983
0.766962
0.766749
0.766332
0.76612
0.766148
0.766413
0.766575
0.766615
0.7665
0.766613
0.766264
0.76641
0.766153
0.76619
0.76607
0.766072
0.765988
0.765973
0.765897
0.765865
0.765816
0.765759
0.765764
0.765679
0.765761
0.765652
0.765803
0.765685
0.76586
0.76577
0.765853
0.765959
0.765855
0.765867
0.766266
0.76601
0.766412
0.766714
0.766492
0.766433
0.766984
0.766988
0.76699
0.76699
0.76699
0.76699
0.76699
0.76699
0.76699
0.76699
0.76699
0.766989
0.766985
0.76697
0.766932
0.766868
0.766794
0.76673
0.766695
0.766693
0.766721
0.766767
0.766825
0.76689
0.766947
0.766976
0.766968
0.766809
0.766391
0.766124
0.766146
0.766407
0.766647
0.76668
0.766714
0.766577
0.766706
0.76623
0.766443
0.766081
0.766117
0.76595
0.765933
0.765831
0.765794
0.765702
0.765655
0.765605
0.765557
0.765565
0.765523
0.765564
0.765514
0.765627
0.765519
0.765747
0.765588
0.765739
0.765888
0.765748
0.76577
0.766081
0.765918
0.766147
0.766633
0.766151
0.766139
0.766983
0.766988
0.76699
0.76699
0.76699
0.76699
0.76699
0.76699
0.76699
0.76699
0.766989
0.766984
0.766966
0.766919
0.766837
0.766739
0.766651
0.766595
0.766585
0.766615
0.766672
0.766743
0.766825
0.766899
0.766959
0.766968
0.766861
0.766464
0.766133
0.766132
0.76637
0.76656
0.766742
0.766676
0.766763
0.766764
0.766654
0.766787
0.76622
0.766502
0.765942
0.766015
0.76576
0.765755
0.765618
0.765595
0.765527
0.76551
0.765504
0.765491
0.765499
0.765502
0.765493
0.76551
0.765494
0.76549
0.765567
0.765477
0.765566
0.7658
0.765583
0.765616
0.765955
0.765836
0.765986
0.766286
0.765987
0.765979
0.766983
0.766989
0.76699
0.76699
0.76699
0.76699
0.76699
0.76699
0.76699
0.766989
0.766984
0.766964
0.76691
0.766814
0.766694
0.766578
0.766496
0.766469
0.766501
0.766569
0.766654
0.766748
0.766838
0.766921
0.766963
0.7669
0.766549
0.766157
0.766107
0.766297
0.766447
0.766585
0.766763
0.766697
0.766824
0.766812
0.766738
0.766857
0.766271
0.766596
0.765811
0.765979
0.765601
0.765649
0.765506
0.765516
0.765484
0.765484
0.765513
0.765529
0.765561
0.765627
0.76556
0.765684
0.765496
0.765633
0.765464
0.765498
0.765456
0.765668
0.765448
0.76545
0.765541
0.765875
0.765792
0.765703
0.765906
0.766467
0.765917
0.765967
0.766984
0.766989
0.76699
0.76699
0.76699
0.76699
0.76699
0.76699
0.766989
0.766984
0.766964
0.766908
0.766803
0.766665
0.766523
0.76641
0.766366
0.766399
0.766471
0.766564
0.766667
0.766771
0.766871
0.766948
0.766918
0.766637
0.766208
0.766089
0.766225
0.766343
0.76645
0.766657
0.766571
0.766788
0.766721
0.766874
0.766847
0.766824
0.766911
0.766378
0.76671
0.765776
0.766028
0.76555
0.765643
0.765493
0.76552
0.765545
0.765561
0.765681
0.765717
0.765805
0.765894
0.765816
0.765982
0.765685
0.765924
0.765492
0.765718
0.765597
0.765437
0.765481
0.765454
0.765593
0.765481
0.765418
0.765442
0.76546
0.765411
0.765841
0.765766
0.765731
0.765626
0.765794
0.765879
0.765825
0.766531
0.765905
0.765871
0.765846
0.765892
0.766021
0.765926
0.766985
0.766989
0.76699
0.76699
0.76699
0.76699
0.76699
0.766989
0.766985
0.766966
0.76691
0.766802
0.766655
0.766494
0.766352
0.766295
0.76632
0.766388
0.766483
0.76659
0.766703
0.766817
0.766915
0.76692
0.766713
0.766272
0.766088
0.766165
0.766255
0.766329
0.76648
0.766702
0.766634
0.766829
0.766769
0.766915
0.766881
0.766898
0.76695
0.766533
0.766827
0.765841
0.766162
0.765594
0.765751
0.765589
0.765649
0.765741
0.765766
0.76595
0.765985
0.766095
0.766163
0.765984
0.766079
0.766135
0.766185
0.765831
0.765955
0.766127
0.76614
0.766052
0.765717
0.765574
0.765703
0.765839
0.765552
0.765411
0.765507
0.765417
0.765419
0.765493
0.765524
0.765403
0.765701
0.765662
0.765541
0.765739
0.765776
0.766245
0.766012
0.765843
0.765809
0.765875
0.765908
0.766987
0.76699
0.76699
0.76699
0.76699
0.76699
0.766989
0.766986
0.766971
0.766918
0.766811
0.766661
0.76649
0.766329
0.766257
0.766265
0.766323
0.766419
0.766527
0.76664
0.766761
0.766875
0.766915
0.766769
0.766345
0.766094
0.766119
0.766184
0.766229
0.766343
0.766649
0.766562
0.766777
0.766714
0.766883
0.766835
0.766948
0.76692
0.766949
0.766971
0.766711
0.766915
0.766017
0.766366
0.76577
0.765977
0.765809
0.765897
0.766012
0.766048
0.766206
0.766245
0.766212
0.766237
0.76625
0.766268
0.766175
0.766213
0.766236
0.765958
0.766064
0.766192
0.766192
0.766142
0.765831
0.765676
0.765813
0.765955
0.765648
0.765393
0.765429
0.765388
0.765459
0.765612
0.765572
0.765427
0.76558
0.765624
0.765454
0.76567
0.765716
0.765912
0.765978
0.766279
0.765993
0.765762
0.765807
0.76585
0.765881
0.766988
0.76699
0.76699
0.76699
0.76699
0.76699
0.766987
0.766975
0.766931
0.766832
0.766687
0.766509
0.766332
0.766248
0.766236
0.766275
0.766372
0.766484
0.766593
0.766709
0.76683
0.7669
0.766801
0.766421
0.766116
0.766091
0.766129
0.766149
0.766233
0.766499
0.766416
0.766747
0.766681
0.766861
0.766808
0.766937
0.766904
0.766971
0.766959
0.766972
0.76698
0.766863
0.76696
0.76627
0.766602
0.766051
0.766276
0.766109
0.766216
0.766288
0.766344
0.766282
0.766303
0.766323
0.766352
0.766248
0.766259
0.766267
0.766277
0.76622
0.766235
0.76624
0.766061
0.766138
0.766214
0.766199
0.766184
0.765941
0.765785
0.765919
0.76605
0.765751
0.765397
0.765383
0.765374
0.765526
0.765709
0.765661
0.765476
0.76549
0.765537
0.765387
0.765588
0.765644
0.765856
0.765885
0.766715
0.766117
0.765703
0.76576
0.765813
0.766989
0.76699
0.76699
0.76699
0.76699
0.766988
0.766979
0.766944
0.766856
0.766725
0.766566
0.766372
0.766256
0.766231
0.766246
0.766333
0.766455
0.766565
0.766672
0.766788
0.766875
0.766808
0.766485
0.766157
0.766082
0.766091
0.76609
0.766147
0.766365
0.766612
0.766539
0.766857
0.766802
0.766935
0.766902
0.766969
0.766957
0.766981
0.766977
0.766982
0.766985
0.766941
0.766977
0.766552
0.766816
0.766377
0.766581
0.766418
0.766521
0.766379
0.766417
0.766452
0.766501
0.766291
0.76631
0.766333
0.766363
0.76624
0.766237
0.766235
0.766237
0.766219
0.766214
0.7662
0.766128
0.766169
0.766196
0.76617
0.766178
0.766031
0.765887
0.766004
0.766111
0.765848
0.765426
0.765358
0.765381
0.765604
0.765799
0.765742
0.765539
0.765404
0.765443
0.765346
0.765498
0.765562
0.765766
0.765824
0.765893
0.766788
0.766139
0.765632
0.765703
0.766989
0.76699
0.76699
0.76699
0.766989
0.766983
0.766956
0.766881
0.766761
0.766626
0.766466
0.766294
0.766238
0.766237
0.766296
0.766424
0.76655
0.766656
0.76676
0.766844
0.766805
0.766534
0.766202
0.766083
0.766069
0.766052
0.766087
0.766264
0.766608
0.766544
0.766741
0.766678
0.766941
0.766912
0.76697
0.766959
0.766982
0.766978
0.766985
0.766985
0.766985
0.766987
0.76697
0.766982
0.766795
0.766925
0.766653
0.766792
0.766585
0.766683
0.766398
0.766438
0.76648
0.766524
0.766246
0.766264
0.76629
0.766325
0.766182
0.766164
0.766151
0.766147
0.766178
0.76615
0.766116
0.766149
0.766155
0.766139
0.766102
0.76614
0.766087
0.765968
0.766057
0.766126
0.765923
0.76547
0.765343
0.765399
0.765675
0.765867
0.765801
0.765597
0.765343
0.765357
0.765317
0.765405
0.765474
0.765637
0.765714
0.765791
0.765893
0.766465
0.76605
0.765554
0.76699
0.76699
0.76699
0.766989
0.766986
0.766966
0.766906
0.766798
0.766683
0.766563
0.766402
0.766271
0.766241
0.766273
0.766378
0.766525
0.766644
0.766743
0.76681
0.766797
0.766567
0.766245
0.766092
0.766061
0.76603
0.766047
0.766193
0.766531
0.76676
0.766694
0.766871
0.766819
0.766973
0.766964
0.766984
0.76698
0.766987
0.766986
0.766987
0.766988
0.766986
0.766987
0.766977
0.766984
0.766909
0.766959
0.766783
0.766872
0.766577
0.766634
0.766742
0.766689
0.766368
0.766417
0.766468
0.766522
0.766151
0.766169
0.7662
0.766244
0.766083
0.766053
0.766031
0.766023
0.766098
0.766051
0.766003
0.766133
0.766115
0.766049
0.766006
0.76607
0.766101
0.766017
0.766071
0.766109
0.765967
0.76551
0.765337
0.765418
0.765723
0.765904
0.765827
0.765631
0.765298
0.765292
0.765291
0.765317
0.765385
0.765474
0.765573
0.765667
0.765775
0.765875
0.76618
0.765958
0.76699
0.76699
0.766989
0.766987
0.766974
0.766929
0.766835
0.766733
0.766649
0.766532
0.766372
0.766269
0.766271
0.76633
0.766472
0.766621
0.766724
0.76678
0.766773
0.766575
0.766281
0.766112
0.766061
0.766022
0.766025
0.766147
0.76645
0.766819
0.766792
0.7669
0.766862
0.766949
0.766929
0.766985
0.766982
0.766988
0.766987
0.766989
0.766989
0.766988
0.766988
0.766986
0.766987
0.766979
0.766983
0.766939
0.766968
0.76679
0.766835
0.766894
0.766555
0.766619
0.766737
0.76668
0.766297
0.766358
0.766423
0.766489
0.766027
0.766049
0.766089
0.766144
0.765958
0.76592
0.765895
0.765888
0.76599
0.765929
0.765872
0.766097
0.766046
0.765936
0.765893
0.765976
0.766086
0.766031
0.766057
0.76608
0.765975
0.765529
0.765333
0.76542
0.765736
0.765904
0.765819
0.765632
0.765261
0.765239
0.765266
0.765242
0.765303
0.765401
0.765516
0.765636
0.765761
0.765861
0.766346
0.765982
0.76699
0.76699
0.766988
0.76698
0.766948
0.766871
0.766774
0.766712
0.766639
0.766521
0.766359
0.766287
0.76631
0.766394
0.766558
0.766685
0.766752
0.766743
0.766574
0.766313
0.766137
0.766066
0.766022
0.766015
0.766115
0.766399
0.76681
0.766926
0.766894
0.76696
0.766946
0.766977
0.76697
0.766989
0.766988
0.766989
0.766989
0.766989
0.766989
0.766988
0.766988
0.766985
0.766986
0.766978
0.766981
0.766946
0.766969
0.766788
0.766834
0.766873
0.766911
0.766518
0.766591
0.766722
0.766659
0.766211
0.766286
0.766364
0.766442
0.765894
0.765924
0.765977
0.766049
0.765822
0.765782
0.765757
0.765752
0.765863
0.765795
0.765735
0.766036
0.765967
0.765807
0.765777
0.765877
0.766058
0.766017
0.766025
0.766028
0.76596
0.765521
0.765322
0.765407
0.765722
0.765886
0.765791
0.765613
0.765222
0.76519
0.765238
0.765182
0.765233
0.76534
0.76547
0.76561
0.765742
0.765856
0.766683
0.76608
0.76699
0.766989
0.766984
0.766962
0.766902
0.766811
0.766754
0.76671
0.766644
0.766518
0.766355
0.766315
0.766344
0.766444
0.766592
0.766703
0.766711
0.766565
0.766339
0.766166
0.76608
0.766027
0.766015
0.766098
0.766354
0.766773
0.766954
0.766944
0.766971
0.766963
0.766981
0.766977
0.766987
0.766984
0.76699
0.76699
0.76699
0.76699
0.766989
0.766989
0.766987
0.766987
0.766981
0.766981
0.766972
0.766969
0.766936
0.766956
0.766967
0.766779
0.76683
0.766875
0.766911
0.766492
0.766572
0.766714
0.766646
0.766133
0.766223
0.766316
0.766406
0.765763
0.765806
0.765877
0.765968
0.765682
0.765641
0.76562
0.765619
0.765725
0.765655
0.765593
0.765965
0.765878
0.765678
0.765656
0.765771
0.766013
0.76598
0.765976
0.76596
0.765918
0.765498
0.765298
0.765376
0.765684
0.765832
0.765731
0.765569
0.76518
0.765143
0.765199
0.765131
0.765176
0.765291
0.765435
0.76559
0.765731
0.76587
0.766418
0.766035
0.766989
0.766986
0.766972
0.766928
0.766847
0.766785
0.766754
0.766727
0.766663
0.76652
0.766363
0.766339
0.766366
0.766463
0.766597
0.76666
0.766545
0.766345
0.766196
0.766103
0.766043
0.766021
0.766093
0.766325
0.76673
0.766946
0.766979
0.766973
0.766985
0.766982
0.766988
0.766987
0.766989
0.766989
0.76699
0.76699
0.76699
0.76699
0.766987
0.766989
0.766982
0.766986
0.766965
0.766963
0.766961
0.766955
0.766936
0.766938
0.766955
0.766963
0.766961
0.766775
0.766829
0.766882
0.766915
0.766488
0.766573
0.76672
0.76665
0.766075
0.766185
0.766293
0.766394
0.765643
0.765697
0.765784
0.765899
0.765541
0.765505
0.765492
0.765497
0.765586
0.765512
0.765453
0.765881
0.765777
0.765546
0.765531
0.765656
0.765943
0.765922
0.765904
0.765878
0.765842
0.765445
0.765253
0.765317
0.765618
0.765749
0.765644
0.765497
0.765135
0.765098
0.765152
0.765086
0.765131
0.765254
0.765409
0.765573
0.76574
0.765892
0.76667
0.766071
0.766987
0.766979
0.766948
0.766882
0.766811
0.766782
0.766773
0.766759
0.766682
0.766517
0.766372
0.766349
0.766373
0.766464
0.766551
0.766506
0.766342
0.766215
0.766126
0.766064
0.766039
0.766098
0.766313
0.766704
0.766937
0.766985
0.766987
0.766986
0.766989
0.766988
0.76699
0.766989
0.76699
0.76699
0.76699
0.76699
0.766989
0.76699
0.766984
0.766987
0.766966
0.766976
0.766919
0.766913
0.766948
0.766941
0.766892
0.76687
0.766938
0.766953
0.76695
0.766951
0.766783
0.766838
0.766894
0.766921
0.766508
0.766597
0.766745
0.766675
0.766035
0.76617
0.766297
0.766409
0.765533
0.765601
0.765704
0.765839
0.765407
0.765381
0.765378
0.765391
0.765449
0.765376
0.765322
0.765784
0.765666
0.765416
0.765405
0.765535
0.765858
0.765838
0.765806
0.765778
0.765751
0.76537
0.765197
0.765247
0.765524
0.76565
0.765531
0.765397
0.765091
0.765057
0.765105
0.76505
0.765097
0.765228
0.765394
0.765571
0.765757
0.765906
0.766817
0.76611
0.766984
0.766962
0.766911
0.76684
0.766802
0.766795
0.766807
0.76679
0.766695
0.766512
0.766376
0.766352
0.766371
0.766424
0.766422
0.766327
0.766218
0.766141
0.766084
0.766063
0.766118
0.766318
0.766692
0.766932
0.766984
0.76699
0.766989
0.766989
0.766989
0.76699
0.76699
0.76699
0.76699
0.76699
0.76699
0.76699
0.76699
0.766988
0.766989
0.76697
0.766983
0.766918
0.766943
0.766816
0.766795
0.766917
0.766905
0.766835
0.766823
0.766938
0.766948
0.766926
0.766933
0.766805
0.766856
0.766903
0.766922
0.76655
0.76664
0.766781
0.766717
0.765999
0.766164
0.766317
0.766445
0.765444
0.765524
0.765641
0.76579
0.765288
0.765277
0.765281
0.765313
0.765321
0.765253
0.765209
0.76567
0.765542
0.765292
0.765279
0.765406
0.765745
0.765737
0.765694
0.765653
0.765646
0.765286
0.765143
0.765185
0.765404
0.765526
0.7654
0.765298
0.765049
0.765022
0.765059
0.76502
0.765072
0.76521
0.765387
0.765578
0.765767
0.765923
0.766508
0.766066
0.766975
0.766933
0.76687
0.766819
0.766807
0.766824
0.766842
0.766815
0.766704
0.766508
0.766378
0.766351
0.766345
0.766334
0.766285
0.766213
0.76615
0.766102
0.766091
0.76615
0.766345
0.7667
0.766931
0.766983
0.76699
0.76699
0.76699
0.76699
0.76699
0.76699
0.76699
0.76699
0.76699
0.76699
0.76699
0.766989
0.76699
0.766984
0.766988
0.766926
0.766968
0.766804
0.766856
0.766696
0.766662
0.766566
0.76687
0.766853
0.766739
0.766714
0.766932
0.766934
0.766887
0.766899
0.766835
0.766876
0.766901
0.76691
0.766601
0.76669
0.766816
0.766761
0.765967
0.766155
0.766334
0.766484
0.765376
0.765471
0.765597
0.765754
0.765194
0.765193
0.765215
0.765261
0.765205
0.765149
0.765128
0.765537
0.765405
0.765176
0.765156
0.765273
0.765623
0.765614
0.765553
0.765524
0.765495
0.765208
0.765088
0.76512
0.765294
0.765376
0.765273
0.765211
0.765013
0.764992
0.765019
0.764995
0.765054
0.765201
0.76539
0.765592
0.765788
0.765923
0.76677
0.76607
0.766956
0.766896
0.766839
0.766816
0.766827
0.766855
0.766871
0.766836
0.766709
0.766509
0.76638
0.766336
0.766299
0.766256
0.76621
0.766161
0.766123
0.766125
0.766197
0.766397
0.766728
0.766937
0.766983
0.766989
0.76699
0.76699
0.76699
0.76699
0.76699
0.76699
0.76699
0.76699
0.76699
0.76699
0.76699
0.76699
0.766989
0.76699
0.766972
0.766986
0.766812
0.766924
0.766582
0.766675
0.766552
0.766545
0.766322
0.766299
0.766794
0.766767
0.766607
0.766573
0.766912
0.766909
0.766821
0.766843
0.766856
0.766884
0.766882
0.766881
0.766629
0.766718
0.766827
0.766782
0.765941
0.766142
0.766337
0.766502
0.765335
0.765436
0.765564
0.765723
0.765126
0.765135
0.765175
0.765229
0.765104
0.765077
0.765071
0.765398
0.765259
0.765069
0.765023
0.765122
0.765459
0.765435
0.765348
0.765334
0.765324
0.76514
0.765047
0.765081
0.765204
0.765244
0.76518
0.765153
0.764983
0.764966
0.764988
0.764975
0.76504
0.765202
0.765401
0.765614
0.765801
0.765919
0.766756
0.766058
0.766926
0.76686
0.766825
0.766826
0.766854
0.766885
0.766899
0.766851
0.766716
0.766524
0.766383
0.766315
0.766265
0.76622
0.766181
0.766157
0.766177
0.766266
0.766478
0.766773
0.766947
0.766985
0.76699
0.76699
0.76699
0.76699
0.76699
0.76699
0.76699
0.76699
0.76699
0.76699
0.76699
0.76699
0.76699
0.76699
0.766988
0.76699
0.76694
0.766979
0.766597
0.766821
0.766239
0.766376
0.766349
0.766328
0.766097
0.766115
0.766684
0.766645
0.766431
0.766387
0.766876
0.766862
0.766722
0.766757
0.766856
0.766875
0.766843
0.766836
0.76664
0.766725
0.766817
0.766782
0.765912
0.76612
0.766328
0.766507
0.765304
0.765402
0.765527
0.765683
0.765076
0.765105
0.765145
0.765201
0.765032
0.765016
0.765015
0.765191
0.76505
0.764979
0.764952
0.764979
0.765231
0.765238
0.765142
0.765119
0.765176
0.765111
0.765016
0.76505
0.76515
0.765158
0.765147
0.765119
0.764953
0.764943
0.764956
0.764959
0.765038
0.765207
0.765419
0.765632
0.765805
0.765899
0.76185
0.765951
0.766889
0.766835
0.766825
0.766846
0.766883
0.766914
0.766921
0.766862
0.766732
0.766559
0.766404
0.766316
0.766262
0.766229
0.766221
0.766263
0.766372
0.76659
0.76683
0.766959
0.766986
0.76699
0.76699
0.76699
0.76699
0.76699
0.76699
0.76699
0.76699
0.76699
0.76699
0.76699
0.76699
0.76699
0.76699
0.76699
0.766986
0.766989
0.766871
0.766964
0.766299
0.766631
0.765892
0.765948
0.766002
0.766128
0.766104
0.765846
0.765853
0.76653
0.766479
0.766215
0.766167
0.766815
0.766788
0.766582
0.766632
0.766837
0.766845
0.766779
0.766756
0.766636
0.766719
0.766787
0.766764
0.76587
0.766081
0.7663
0.766493
0.76527
0.765354
0.765469
0.765613
0.765031
0.765062
0.7651
0.765146
0.764967
0.764965
0.76497
0.76502
0.764975
0.764941
0.764915
0.764944
0.765083
0.765127
0.76508
0.765018
0.765135
0.765082
0.764978
0.765024
0.765126
0.765127
0.765112
0.765093
0.764929
0.764927
0.76493
0.764954
0.765039
0.765218
0.765436
0.765646
0.765802
0.765891
0.741246
0.765221
0.766851
0.766825
0.766835
0.766869
0.766911
0.766941
0.766937
0.766874
0.766762
0.766621
0.766482
0.766387
0.766344
0.766349
0.766402
0.766526
0.766717
0.766888
0.766971
0.766987
0.76699
0.76699
0.76699
0.76699
0.76699
0.76699
0.76699
0.76699
0.76699
0.76699
0.76699
0.76699
0.76699
0.76699
0.76699
0.76699
0.766981
0.766988
0.766758
0.766934
0.766015
0.766397
0.765681
0.765758
0.765674
0.765843
0.765876
0.765853
0.76561
0.765635
0.766329
0.766269
0.76596
0.765913
0.76672
0.766678
0.766393
0.766457
0.766797
0.766795
0.766679
0.766632
0.766605
0.766692
0.766732
0.766724
0.765792
0.766002
0.766231
0.766443
0.765208
0.765283
0.765369
0.765491
0.764984
0.765013
0.765047
0.765088
0.764925
0.764919
0.764921
0.764989
0.764962
0.764901
0.764772
0.764942
0.765048
0.765083
0.765045
0.764989
0.765094
0.765053