/*--------------------------------*- C++ -*----------------------------------*\
  =========                 |
  \\      /  F ield         | OpenFOAM: The Open Source CFD Toolbox
   \\    /   O peration     | Website:  https://openfoam.org
    \\  /    A nd           | Version:  dev
     \\/     M anipulation  |
\*---------------------------------------------------------------------------*/
FoamFile
{
    version     2.0;
    format      ascii;
    class       volScalarField;
    location    "2500";
    object      nut;
}
// * * * * * * * * * * * * * * * * * * * * * * * * * * * * * * * * * * * * * //

dimensions      [0 2 -1 0 0 0 0];

internalField   nonuniform List<scalar> 
10028
(
0.000131895
0.000135143
0.00012739
0.000122903
0.00016037
0.000112627
0.000111858
0.000169699
0.000150519
0.000107005
0.000108116
0.000164032
0.000171149
0.000128229
0.000105229
0.000104932
0.00014853
0.000185046
0.000157538
0.000116687
0.000103929
0.000103262
0.000130775
0.000185552
0.000179721
0.000133885
0.000111945
0.000102965
0.000102478
0.000121948
0.000179464
0.000191761
0.000159027
0.000120792
0.000109161
0.000102322
0.000102253
0.000114691
0.000163392
0.000200164
0.000182265
0.000136089
0.000114731
0.000107238
0.000101822
0.000102111
0.000110209
0.000142451
0.0001988
0.000197481
0.000157113
0.000122709
0.000111451
0.000105867
0.000101448
0.000101991
0.000107418
0.000130525
0.000190869
0.000206905
0.000181565
0.000135822
0.000116053
0.000109359
0.000104738
0.000101146
0.00010176
0.000105712
0.00012128
0.000172285
0.00021263
0.000199712
0.000154443
0.00012324
0.000112359
0.00010761
0.000103747
0.000100928
0.000101379
0.000104764
0.000115265
0.000150278
0.000209938
0.000211447
0.000176734
0.000134919
0.000116575
0.000110172
0.000106121
0.00010299
0.000100751
0.000101054
0.000104258
0.000111525
0.000137004
0.000200621
0.000219622
0.000199263
0.000150955
0.000123108
0.000112929
0.000108351
0.000104914
0.000102399
0.000100595
0.000100819
0.000103886
0.00010924
0.000127077
0.000180592
0.000224244
0.000214093
0.000170977
0.000133352
0.000116619
0.000110814
0.000106825
0.000103981
0.000101894
0.000100493
0.000100643
0.000103581
0.000107758
0.000120201
0.00015889
0.000221018
0.000224093
0.000193244
0.00014692
0.000122617
0.00011297
0.000108814
0.000105556
0.000103174
0.000101454
0.000100325
0.000100522
0.000103318
0.000106706
0.000115833
0.000143215
0.000211598
0.000231864
0.000213596
0.000164654
0.000130957
0.000116423
0.00011084
0.000107209
0.000104519
0.00010246
0.000101094
0.00010022
0.000100443
0.000103061
0.000105922
0.000112887
0.000133483
0.00019201
0.000236723
0.000227047
0.000185959
0.000142775
0.00012126
0.000112839
0.000108927
0.000105911
0.000103641
0.000101962
0.000100752
0.000100137
0.000100383
0.000102835
0.000105372
0.000110873
0.000125936
0.000170333
0.000233415
0.000236897
0.000207295
0.000158137
0.000128749
0.000115619
0.000110615
0.000107312
0.000104905
0.000102947
0.000101486
0.00010047
0.000100067
0.000100355
0.000102628
0.000104919
0.000109469
0.000120821
0.000151494
0.000225143
0.000243991
0.000226829
0.000177013
0.000138203
0.000120157
0.000112324
0.000108723
0.000105948
0.000104077
0.000102372
0.000101017
0.000100241
0.00010001
0.00010035
0.000102449
0.00010453
0.000108447
0.000117354
0.00014196
0.00020869
0.000249373
0.000239221
0.000198046
0.000151736
0.000126064
0.000114952
0.000110119
0.000107138
0.000105004
0.000103349
0.000101797
0.000100608
0.000100057
9.99702e-05
0.000100349
0.000102302
0.000104215
0.000107665
0.00011497
0.000134185
0.000186693
0.000248139
0.000248969
0.000219019
0.000167819
0.000134386
0.000118785
0.000111801
0.000108367
0.000105692
0.000104203
0.000102642
0.000101207
0.000100262
9.99172e-05
9.99529e-05
0.000100363
0.000102174
0.000103958
0.000107194
0.000113271
0.000128384
0.000167325
0.000242616
0.000255852
0.000238136
0.000187156
0.000145111
0.000123902
0.000114332
0.000109708
0.000106902
0.000104663
0.000103473
0.00010196
0.000100706
0.000100002
9.98141e-05
9.99342e-05
0.000100414
0.000102062
0.000103755
0.000106838
0.000112056
0.000124289
0.000153729
0.00023016
0.000262275
0.000250639
0.000206601
0.000159159
0.000130557
0.000117749
0.000111479
0.000108122
0.00010576
0.000103994
0.000102833
0.000101335
0.000100317
9.98299e-05
9.97743e-05
9.99196e-05
0.000100496
0.000101977
0.000103608
0.000106584
0.000111192
0.000121333
0.000146407
0.000212743
0.000265265
0.000260656
0.000228167
0.000175299
0.000139336
0.000121983
0.000113924
0.000109553
0.000106923
0.000104887
0.000103459
0.000102251
0.000100804
9.99815e-05
9.97532e-05
9.98175e-05
9.99411e-05
0.000100554
0.000101925
0.000103562
0.000106473
0.000110576
0.000119236
0.000140491
0.000193952
0.000261931
0.000267857
0.000246652
0.000194049
0.000150641
0.000127251
0.000116965
0.000111499
0.000108174
0.000106025
0.000104348
0.000102983
0.000101734
0.000100433
9.97847e-05
9.98565e-05
9.98789e-05
9.99651e-05
0.000100571
0.000101869
0.000103698
0.000106589
0.000110243
0.000117803
0.000135811
0.000178142
0.000256155
0.000274704
0.000261075
0.000212963
0.000164474
0.000134295
0.000120422
0.000113856
0.000109889
0.000107233
0.000105456
0.000104045
0.000102701
0.000101376
0.000100219
9.97423e-05
0.000100074
0.000100054
9.99674e-05
0.000100623
0.000101822
0.000103768
0.000106965
0.000110227
0.000116937
0.000132533
0.000165651
0.000245869
0.000280024
0.000271131
0.000233103
0.000180285
0.000143241
0.000124626
0.000116509
0.00011191
0.000108868
0.000106674
0.000105198
0.000103772
0.000102416
0.000101251
0.000100389
0.000100045
0.000100378
0.00010032
0.000100025
0.000100708
0.000101937
0.000103632
0.00010722
0.000110639
0.000116698
0.000130528
0.000158584
0.000234491
0.000282807
0.000279498
0.000251612
0.000197219
0.000154176
0.000130027
0.000119384
0.000114191
0.000110743
0.000108361
0.000106531
0.000105041
0.000103629
0.000102268
0.000101302
0.000100814
0.000100747
0.000101048
0.000100967
0.000100319
0.000100708
0.00010218
0.000103979
0.000106779
0.000111322
0.000117122
0.000129768
0.000154945
0.000222975
0.000282506
0.00028586
0.000267265
0.000215013
0.000166887
0.000136831
0.000122674
0.000116571
0.000112914
0.000110453
0.000108269
0.000106566
0.000105213
0.000103809
0.000102515
0.000101967
0.000101831
0.000101873
0.00010174
0.000101234
0.000100471
0.000100671
0.000102387
0.000104914
0.00010655
0.000111864
0.000118512
0.000130114
0.000153575
0.000214617
0.000280334
0.000291558
0.000279508
0.000232182
0.000181132
0.000145003
0.000126585
0.000118997
0.000115183
0.000112785
0.000110579
0.000108597
0.000106896
0.000105451
0.000104098
0.000102991
0.000102887
0.000103171
0.000103254
0.000102602
0.000101435
0.000100487
0.00010067
0.000102932
0.000105729
0.000107214
0.000111366
0.000121089
0.000132333
0.000153806
0.000210344
0.000278424
0.000296699
0.000287955
0.000249501
0.000196221
0.000154749
0.000131517
0.000121625
0.000117442
0.000115186
0.000113127
0.00011134
0.00010964
0.000107907
0.000106245
0.000105013
0.000104302
0.000104449
0.000105308
0.000105957
0.000104487
0.000102014
0.000100497
0.000100712
0.000103546
0.000106045
0.000108686
0.000111811
0.000121602
0.000137571
0.000156251
0.000209305
0.000277819
0.000301382
0.00029484
0.000265461
0.000211651
0.000166077
0.000137708
0.00012459
0.000119719
0.000117601
0.000115783
0.000114349
0.000112786
0.000110941
0.00010912
0.000107373
0.000106513
0.000106758
0.000107333
0.000108445
0.000108829
0.000106604
0.000102629
0.00010053
0.000100778
0.000103886
0.000106546
0.000110127
0.000114374
0.000122829
0.00014206
0.000164344
0.000211942
0.000279115
0.000306145
0.000301131
0.000278536
0.00022694
0.000178634
0.000145044
0.000128081
0.000121888
0.000120044
0.000118581
0.000117425
0.000116323
0.000115152
0.000113371
0.000111526
0.000109941
0.000109486
0.000110488
0.000111669
0.000112597
0.000111561
0.000107969
0.000103127
0.000100512
0.000100787
0.000103804
0.000106897
0.000111466
0.000118528
0.000127446
0.000146136
0.00018239
0.000224777
0.00028394
0.000311269
0.000307254
0.000289306
0.000241239
0.000191761
0.000153846
0.000132602
0.000124276
0.000122308
0.000121475
0.000121008
0.000120602
0.000119636
0.000118431
0.000116866
0.000115462
0.000114903
0.000114986
0.000115976
0.000116405
0.000115467
0.000112415
0.000108072
0.000102027
0.000104297
0.000100262
0.000101986
0.000100787
0.000100609
0.000103086
0.000106901
0.000112545
0.000122773
0.00013625
0.000154401
0.000198556
0.000244863
0.000294613
0.000318084
0.000313422
0.000298502
0.000254237
0.000205099
0.000164209
0.000138454
0.000127499
0.000124826
0.000124332
0.000124891
0.000124715
0.000124225
0.000123647
0.000122953
0.000121819
0.00012019
0.000119516
0.000118179
0.000117683
0.000116497
0.000115016
0.00011104
0.000105927
0.000107232
0.000104021
0.00010028
0.000101905
0.000100677
0.000100725
0.000102337
0.000106482
0.00011326
0.000126682
0.000147745
0.000173664
0.000216734
0.000267977
0.000311175
0.000327662
0.000320693
0.000306669
0.000265947
0.000218586
0.000175857
0.000145445
0.00013184
0.000128094
0.000127686
0.000129074
0.000129906
0.000130169
0.000130009
0.000129281
0.00012732
0.000125061
0.000122163
0.000120474
0.000118874
0.000116085
0.000114123
0.000112294
0.000112248
0.00010852
0.000111025
0.000109072
0.000105455
0.000106316
0.00010369
0.000100242
0.00010156
0.000100519
0.000100296
0.000101737
0.000105771
0.000113661
0.000130116
0.00015852
0.000208521
0.000245392
0.000293002
0.000332951
0.00034014
0.000330061
0.000314696
0.000276438
0.00023191
0.000188453
0.000154124
0.000137349
0.000132335
0.000131496
0.000134285
0.000137012
0.000138495
0.000138058
0.000136198
0.00013317
0.000129064
0.000126047
0.00012389
0.000121673
0.000118257
0.000106935
0.000110802
0.000105631
0.000109329
0.000107337
0.000107528
0.000105936
0.000104448
0.000105424
0.000102985
0.000100115
0.000101146
0.000100312
0.000100265
0.00010131
0.000105086
0.00011417
0.000133366
0.000168063
0.000240548
0.000283269
0.000322358
0.000358093
0.00035634
0.000342206
0.000323604
0.000286596
0.00024544
0.000201937
0.000165158
0.000145037
0.000137775
0.000136301
0.000139135
0.000143813
0.000147357
0.00014731
0.000144079
0.000140048
0.000135051
0.000132037
0.000132572
0.00013587
0.000140509
0.000142872
9.8967e-05
0.000103619
0.000103432
9.60743e-05
0.000101834
0.00010452
0.000100728
0.000100261
0.000103795
0.000103231
0.00010236
0.000100005
0.000100741
0.000100151
0.000100569
0.000102137
0.000106473
0.000116523
0.000138756
0.000177504
0.000267912
0.000324885
0.000357274
0.000386221
0.00037674
0.00035816
0.000334376
0.000297708
0.000258655
0.000216359
0.000180417
0.000157141
0.000145768
0.000141848
0.000143948
0.00014885
0.000149051
0.000148754
0.000145997
0.000146037
0.000144831
0.000142506
0.000152621
0.000171909
0.000189063
0.000202371
0.000145834
0.000247453
0.000105086
0.000150625
9.44686e-05
0.000105032
9.30135e-05
9.99502e-05
9.21666e-05
9.17965e-05
0.000100709
9.94212e-05
9.99462e-05
0.000100024
0.000100401
0.000100139
0.000101655
0.000106624
0.000115508
0.000128794
0.000151658
0.00019154
0.000293411
0.000366403
0.000396818
0.000417362
0.00040092
0.000378285
0.000347454
0.00030996
0.000271655
0.000234683
0.000201592
0.00017592
0.000158472
0.000150565
0.000150202
0.00014701
0.000141823
0.000143367
0.000147652
0.000156247
0.000158463
0.000171539
0.000200047
0.000246604
0.00033419
0.000409222
0.00034264
0.000450898
0.000273977
0.000377414
0.000162107
0.00028819
0.000102823
0.00016323
9.95842e-05
9.15983e-05
9.69924e-05
9.18672e-05
8.74733e-05
9.2924e-05
8.7753e-05
0.000100118
0.000100239
0.000100274
0.000108942
0.00012203
0.000141961
0.000162943
0.000183719
0.0002227
0.000326055
0.000407001
0.00043939
0.000450497
0.000428227
0.000401753
0.000362889
0.000323551
0.000289348
0.000259848
0.00022914
0.000200907
0.000178426
0.000166105
0.000161773
0.000145255
0.000137393
0.000138535
0.000146037
0.000168995
0.000176141
0.000208025
0.000273055
0.000366528
0.000464953
0.000512294
0.000488027
0.000531167
0.000452436
0.000498686
0.00038863
0.000458091
0.000294211
0.000392301
0.000153751
0.00029041
0.00013756
8.55434e-05
0.000123466
0.00010731
7.51124e-05
8.37053e-05
6.73057e-05
7.96934e-05
7.22284e-05
6.72427e-05
0.000143148
0.000166779
0.000198349
0.000238913
0.000270924
0.000303231
0.000375031
0.000447643
0.000482319
0.00048402
0.000458368
0.000427315
0.000381327
0.0003416
0.000314207
0.000287669
0.000259896
0.000230901
0.000206795
0.000191692
0.000185403
0.00015358
0.000139224
0.000135628
0.000144666
0.000175879
0.000194503
0.000249159
0.000345695
0.000475545
0.000541255
0.000561887
0.000544936
0.000566706
0.000528431
0.000545517
0.000500465
0.000525943
0.000457413
0.000498975
0.000389506
0.000454369
0.000274116
0.000379653
0.00024855
9.22887e-05
0.000214156
0.000167094
7.69564e-05
8.5115e-05
5.76466e-05
3.77677e-05
4.41099e-05
3.42937e-05
0.000147559
0.000239574
0.00026857
0.000308528
0.000345037
0.000372436
0.000423823
0.000486223
0.000522346
0.000517771
0.000490459
0.000453429
0.000402739
0.000363925
0.000340351
0.000317031
0.000292271
0.000265107
0.000239849
0.000222624
0.000213484
0.000180643
0.000153767
0.000141421
0.000142918
0.000176908
0.000211224
0.000285172
0.000420228
0.000552521
0.000588476
0.000597989
0.000581568
0.000605629
0.000566842
0.000587369
0.000549028
0.0005702
0.000526152
0.000551322
0.000495829
0.000529071
0.000448304
0.000494015
0.000362228
0.000438766
0.000340039
0.000122728
0.000308696
0.000261317
8.01713e-05
9.70494e-05
5.65266e-05
1.9333e-05
3.04237e-05
2.00804e-05
0.000146599
0.000290052
0.000300381
0.000333375
0.000364056
0.000396525
0.000447426
0.000510192
0.000552915
0.000549349
0.000523137
0.000480012
0.000426616
0.000388522
0.000366741
0.00034649
0.000322787
0.000297548
0.000268268
0.000242732
0.000228054
0.000222567
0.000196898
0.000161477
0.000149313
0.000169849
0.000220877
0.000320043
0.000483123
0.00060498
0.000629898
0.000632238
0.000629715
0.000664056
0.000614199
0.000648111
0.000596251
0.000628677
0.000578604
0.000607806
0.000556858
0.000588822
0.000530617
0.000566752
0.000491622
0.000533849
0.000425442
0.000488009
0.000409142
0.000200886
0.000383625
0.000348529
8.45864e-05
0.000136696
6.90193e-05
9.95538e-06
2.80068e-05
1.43089e-05
0.000150222
0.000304621
0.000330945
0.000333298
0.000359479
0.000394468
0.00044796
0.000513166
0.000565027
0.000573316
0.000552999
0.000505141
0.000450769
0.000413428
0.000392417
0.000371557
0.000349379
0.000317065
0.000285523
0.000260311
0.000243918
0.000233658
0.000228404
0.00022307
0.000174365
0.000169872
0.000221732
0.000340302
0.000537787
0.000644832
0.000661613
0.000693017
0.000699715
0.000735947
0.000685978
0.000716444
0.000661028
0.00068811
0.000635188
0.000656973
0.000612919
0.000628703
0.00059625
0.000609751
0.00057491
0.000596307
0.000537704
0.000582048
0.000481137
0.000541027
0.000472751
0.00029463
0.000457682
0.000431689
0.000101544
0.000220793
8.20718e-05
6.35815e-06
3.59258e-05
1.08227e-05
0.000158093
0.000309454
0.000363443
0.000342484
0.00034108
0.000372142
0.000431662
0.000504978
0.000563432
0.000582806
0.000574341
0.000527018
0.000473334
0.000437632
0.000414871
0.000394452
0.000370593
0.000350231
0.000341614
0.000329932
0.000309194
0.000285001
0.000263863
0.000250971
0.000233226
0.00019237
0.000223114
0.000340808
0.0005803
0.000671782
0.000690826
0.000728138
0.000764105
0.000739731
0.000759937
0.000709559
0.000727417
0.000676967
0.000692274
0.0006461
0.000655512
0.000619534
0.000625064
0.000601496
0.000604034
0.000595903
0.000594094
0.000587589
0.000596652
0.00054288
0.000591172
0.000540761
0.000390868
0.000532706
0.000515264
0.000148419
0.000329193
0.000103789
6.7186e-06
5.243e-05
1.76136e-05
0.000177605
0.000314154
0.000381301
0.000362658
0.000345547
0.000348777
0.000394123
0.000473211
0.000550449
0.000582307
0.000581739
0.000541774
0.000491536
0.000458774
0.000435721
0.000422282
0.000416695
0.000433709
0.000439148
0.000425305
0.00039931
0.0003684
0.00033347
0.000303095
0.000277432
0.000243729
0.00023016
0.000334427
0.000588145
0.000692638
0.000704347
0.000755572
0.00076945
0.00071998
0.000700342
0.000736962
0.000732083
0.000692476
0.000685601
0.000653352
0.000642809
0.000620545
0.000605258
0.000598231
0.000580924
0.000588576
0.000571152
0.000587964
0.000573974
0.000597565
0.000584344
0.000594871
0.000600223
0.000596617
0.000485884
0.00059414
0.000585392
0.000246279
0.00044098
0.000161479
2.30124e-05
0.000106978
7.94551e-05
0.000219497
0.000322532
0.000382449
0.000396632
0.000356468
0.000350881
0.000367559
0.000433335
0.000516193
0.000573931
0.000580689
0.000546481
0.000503374
0.000475874
0.000459735
0.000467138
0.000496785
0.000534591
0.000540702
0.000522186
0.000490405
0.000452656
0.000413643
0.000372609
0.000334671
0.000299198
0.000252994
0.000313927
0.000583062
0.000707335
0.000709168
0.000766961
0.000776763
0.000678638
0.000658228
0.000601678
0.000569033
0.000667265
0.000636867
0.000617922
0.00058403
0.000578083
0.000546699
0.000554385
0.000529556
0.000545079
0.000523261
0.000546765
0.000521615
0.000560602
0.000529213
0.000581857
0.000549599
0.000604413
0.000581616
0.000610226
0.000567508
0.000616888
0.000621439
0.000371975
0.000537283
0.000284216
6.06714e-05
0.000209455
0.000147101
0.00030819
0.000330557
0.00037156
0.000411499
0.000388269
0.000358067
0.000364685
0.000403312
0.000479601
0.000547137
0.000572733
0.000545099
0.000508266
0.00048767
0.000485347
0.000519825
0.000583198
0.000631436
0.000632241
0.000606454
0.000568963
0.000528539
0.000487838
0.000445312
0.000401057
0.000358211
0.000305479
0.000310622
0.000559939
0.000715103
0.00071745
0.000784503
0.000791255
0.000651484
0.000659189
0.000537595
0.000518585
0.000504097
0.000483904
0.000547508
0.000522413
0.000516249
0.000492236
0.000506964
0.000485836
0.00050263
0.000483154
0.000498771
0.000478022
0.000499845
0.000474219
0.000512905
0.000479735
0.000541814
0.00049888
0.000584205
0.00053761
0.000590604
0.000618618
0.00060126
0.000613543
0.000446593
0.000555131
0.000353563
0.000297346
0.000274702
0.00028068
0.000364425
0.000363388
0.0004093
0.000429065
0.000377584
0.000371696
0.000392269
0.00044882
0.000512924
0.000549397
0.000537231
0.000507444
0.000493656
0.000508154
0.000568303
0.000665861
0.000713436
0.000703426
0.000668733
0.000624661
0.000584708
0.000547337
0.00050889
0.000465564
0.000419253
0.000363306
0.000329605
0.000502502
0.000718389
0.000721144
0.000793593
0.000823587
0.000661812
0.000521124
0.000534637
0.000451958
0.000433223
0.000471417
0.000452881
0.000479303
0.000476043
0.000467697
0.00045736
0.000465651
0.000449474
0.000459696
0.000443691
0.000454473
0.000442132
0.000456416
0.000445525
0.000465899
0.000451497
0.000489118
0.000459436
0.000538098
0.000483174
0.000544274
0.000617607
0.000556508
0.000573125
0.00045663
0.000523173
0.000405202
0.00029896
0.000437979
0.000288012
0.000376543
0.000403293
0.000444351
0.000424724
0.000382117
0.000397271
0.000430168
0.000481499
0.000518587
0.000515593
0.000500704
0.000493275
0.000523754
0.00061102
0.000735011
0.000771647
0.000753389
0.000708655
0.000657071
0.000616284
0.000585048
0.000554144
0.000517015
0.000472776
0.00041981
0.000358432
0.000451706
0.000714285
0.000716213
0.000789991
0.000854106
0.000776602
0.000524176
0.000618326
0.000448716
0.000485735
0.000410998
0.000395237
0.000452297
0.000432051
0.000453786
0.000455995
0.0004372
0.000434429
0.000431435
0.000424785
0.000433667
0.000429394
0.000443989
0.000447803
0.000453645
0.000473982
0.000453893
0.000480818
0.0004556
0.000465058
0.00048186
0.0004517
0.000486717
0.000567294
0.00049692
0.0005079
0.000467952
0.000509749
0.000491552
0.000266181
0.000567088
0.000205175
0.000407019
0.000446421
0.000469157
0.000409649
0.000402938
0.000426391
0.000457356
0.000488036
0.000487026
0.000480482
0.000488708
0.000529574
0.000639476
0.000780692
0.000809513
0.000786085
0.000728309
0.000666304
0.00062246
0.000597972
0.000578499
0.000552294
0.000514227
0.000466669
0.000406997
0.000426869
0.000697105
0.000705961
0.000773699
0.000883695
0.000883625
0.000688138
0.000505493
0.000576866
0.00041361
0.000449888
0.000387185
0.000367551
0.000458091
0.000421618
0.000443535
0.000459681
0.000428749
0.000442573
0.000431182
0.000441288
0.000456662
0.000469274
0.000497443
0.000516283
0.000516158
0.000538758
0.000504831
0.000532889
0.000472517
0.000510028
0.000447875
0.000468463
0.000443948
0.000524703
0.000442521
0.000442111
0.000476067
0.000482977
0.000517867
0.000528819
0.000554645
0.000326304
0.000554896
0.000223381
0.000445498
0.000479506
0.000467907
0.000416948
0.000431133
0.000443334
0.000461833
0.000458378
0.000454191
0.000471939
0.000528078
0.000650618
0.000807591
0.000836056
0.000805331
0.000732469
0.000659322
0.000615754
0.000595378
0.000582823
0.000567763
0.000541385
0.000498672
0.000449891
0.000428671
0.000652109
0.000697822
0.000754286
0.000908295
0.000959284
0.000828521
0.000597826
0.000681261
0.000467289
0.000534519
0.000378962
0.000411987
0.000359153
0.000326734
0.000462513
0.000387202
0.000471219
0.000486568
0.000459751
0.000490196
0.000483436
0.000499791
0.000527645
0.000532648
0.000548855
0.000554781
0.000548385
0.000541889
0.000517121
0.000495093
0.000498847
0.000457418
0.000456707
0.000450608
0.00047845
0.000438132
0.000445877
0.000444402
0.000489209
0.000450568
0.000425353
0.000427888
0.000436241
0.000421279
0.000532659
0.000522472
0.000490443
0.000496397
0.000506078
0.000563032
0.000544553
0.000297196
0.000534353
0.000528991
0.00053315
0.000488694
0.000204414
0.000294796
0.000479139
0.000490564
0.000456202
0.000436686
0.000442053
0.000442316
0.000432937
0.000426892
0.000447485
0.000514775
0.000648817
0.000818592
0.000852776
0.000815205
0.000725282
0.000650612
0.000607123
0.000587426
0.000580198
0.000569057
0.000550988
0.000518155
0.000478099
0.000441694
0.000599855
0.000692971
0.00073553
0.000919644
0.00100771
0.000957522
0.000761823
0.000529756
0.000537629
0.000385963
0.000440687
0.000304629
0.000322967
0.000309381
0.000243596
0.000437145
0.000326297
0.000508624
0.000497135
0.000516526
0.0005253
0.000535097
0.00053873
0.000557138
0.000547328
0.000535406
0.00053193
0.000499394
0.000521978
0.000468152
0.000428216
0.000477188
0.000448862
0.000466909
0.000400067
0.000397947
0.000397272
0.000428497
0.00042636
0.000461175
0.000423393
0.000438826
0.000451383
0.000419662
0.000454456
0.000420604
0.000417201
0.000429351
0.000440524
0.000409131
0.00050953
0.000502944
0.000459832
0.000511582
0.000509354
0.000281285
0.00016581
0.000506553
0.000503637
0.000425636
0.000240075
0.000504977
0.000484078
0.000456567
0.000445327
0.000433163
0.000412267
0.000401277
0.000421009
0.000488377
0.000627995
0.000817725
0.000861037
0.000818824
0.000716684
0.000648929
0.000600314
0.000579931
0.000570844
0.000565011
0.000551006
0.000524275
0.000490902
0.000454228
0.000555554
0.000688563
0.000723384
0.00091164
0.00104739
0.0010586
0.00089737
0.000541422
0.000658661
0.00041891
0.000507736
0.000298958
0.00035436
0.000217006
0.000243185
0.000239829
0.000163484
0.000370981
0.000242116
0.000518768
0.000471842
0.000539426
0.000521279
0.000517939
0.00049959
0.000524755
0.000511696
0.000506898
0.0004903
0.000508376
0.000499456
0.00049177
0.000482095
0.00045101
0.000461543
0.000494789
0.000407244
0.000403883
0.00044205
0.000428888
0.000399898
0.000423383
0.000436178
0.000411357
0.000395335
0.000429803
0.000402402
0.0004224
0.000398206
0.000416442
0.000426728
0.000427341
0.000404189
0.000465209
0.00047084
0.000425673
0.000473447
0.000473082
0.000150994
0.000174986
0.000349814
0.000190825
0.000473652
0.000479029
0.000399036
0.00026405
0.000515401
0.000477687
0.000453107
0.000433948
0.000399522
0.00037907
0.000394627
0.000458189
0.000588514
0.000802846
0.00086204
0.000823042
0.000711901
0.000659845
0.000608914
0.000576067
0.000566757
0.000558322
0.000545234
0.000524277
0.000493283
0.000462518
0.000524085
0.000679036
0.000715775
0.000890594
0.0010801
0.00113082
0.00101685
0.000678331
0.000802632
0.000464722
0.000532943
0.000345846
0.000402181
0.0002285
0.000292121
0.000159168
0.000183058
0.00015223
0.000118774
0.000273373
0.000171343
0.000485963
0.000400702
0.000470264
0.000428933
0.000480949
0.000438928
0.000470948
0.00044864
0.000471355
0.00046195
0.000450709
0.000441226
0.000486553
0.000476955
0.000468142
0.000458668
0.000451191
0.000483579
0.000476817
0.000388274
0.000394775
0.000452389
0.000440035
0.000411204
0.000388973
0.000402164
0.000383936
0.000377621
0.000398621
0.000392021
0.000395055
0.000381735
0.000416621
0.000400759
0.000405123
0.000401727
0.00042935
0.000432755
0.000394313
0.000434957
0.000437138
0.000274303
0.000119425
0.000217794
0.000246095
0.000441679
0.000450251
0.00044604
0.000509942
0.000468136
0.000436147
0.000396987
0.000361185
0.000370697
0.000426461
0.000547205
0.000759534
0.000857603
0.000829698
0.000710118
0.000667528
0.000641061
0.000592687
0.000564209
0.000554409
0.000542081
0.00052315
0.000492905
0.000464806
0.000504187
0.000663933
0.000707107
0.000870054
0.00110147
0.0011841
0.00111288
0.000858126
0.000602925
0.000604479
0.000336784
0.000396316
0.000246381
0.000286654
0.000183157
0.00021388
0.000123934
0.000144486
0.000108529
0.000103744
0.000182651
0.000109194
0.000374299
0.000284492
0.000414311
0.000324726
0.00042302
0.000387472
0.000429529
0.000418137
0.000404812
0.000389304
0.000449187
0.000439554
0.000429511
0.000419075
0.000469234
0.000461943
0.000455406
0.000448577
0.000477062
0.000470538
0.000464769
0.000385172
0.000402752
0.000465278
0.000448165
0.000424542
0.00037394
0.000380257
0.000371819
0.000377771
0.00038201
0.000386057
0.00037413
0.000370743
0.000410634
0.000386043
0.00039428
0.000396504
0.000395159
0.000396774
0.000369032
0.000398758
0.000402666
0.000413999
0.000253865
0.000148946
0.000132709
0.000231525
0.000408377
0.000416013
0.000493711
0.000443724
0.00039831
0.000351364
0.000349804
0.000395875
0.000502762
0.000693972
0.000842747
0.000834558
0.000712416
0.000668349
0.000657039
0.000636254
0.000584296
0.000555564
0.000541028
0.000522794
0.00049312
0.000465381
0.000497661
0.000647614
0.000700422
0.00085518
0.00110978
0.00122625
0.0011902
0.000969145
0.000598275
0.000659746
0.000461136
0.000525074
0.000244911
0.000277343
0.000196604
0.000219543
0.000162091
0.000175102
0.000112188
0.000134778
9.14602e-05
9.61386e-05
0.000120071
8.93055e-05
0.000249592
0.000172805
0.000336379
0.000236085
0.000356248
0.000318286
0.000407801
0.000395938
0.000383587
0.00037118
0.000441498
0.000433453
0.000424234
0.000413443
0.000459763
0.000455648
0.00045339
0.000449093
0.000465033
0.000460725
0.000457461
0.000395332
0.000413908
0.000458306
0.000449991
0.000432624
0.000375451
0.000372576
0.000375183
0.000389818
0.000377243
0.000378823
0.00035802
0.000360427
0.000402174
0.000385774
0.000396499
0.000386512
0.000365977
0.000364497
0.00034902
0.000365284
0.000369476
0.000381339
0.000385802
0.00022551
0.000208457
0.000173484
0.000224043
0.000375147
0.000461991
0.000402428
0.000348261
0.000335642
0.00036679
0.000459181
0.000621391
0.00081095
0.000838814
0.000724473
0.000664107
0.000658823
0.000667954
0.000651549
0.000582082
0.000541909
0.000523584
0.000495528
0.000468902
0.000502378
0.000630145
0.000696197
0.000846759
0.00111561
0.00126098
0.00125164
0.00105879
0.000670487
0.000435886
0.000508725
0.000320911
0.000374779
0.000209831
0.000230289
0.000166858
0.00018771
0.000145879
0.000151787
0.000109264
0.000138647
8.25033e-05
8.83121e-05
9.8863e-05
8.02414e-05
0.000171057
0.000126952
0.000262424
0.000184935
0.000336093
0.000315798
0.000272492
0.000294865
0.000400908
0.000386734
0.000371319
0.000354612
0.000444946
0.000438649
0.000430365
0.000419686
0.000455441
0.000454512
0.000454211
0.000453376
0.000454818
0.000452189
0.000450856
0.000406674
0.000421169
0.000446529
0.000436246
0.000434534
0.000388226
0.000379192
0.000390926
0.000402287
0.000387998
0.000367955
0.000344464
0.000347588
0.000390502
0.000400533
0.000394101
0.000371722
0.000341488
0.000336867
0.0003309
0.00033575
0.000338701
0.00034377
0.000352001
0.000364027
0.000328127
0.000248536
0.000131792
8.29151e-05
0.000415097
0.000350293
0.000323878
0.000344008
0.000418502
0.000555619
0.000758882
0.000829551
0.000750893
0.000645673
0.000653698
0.000677346
0.000701646
0.000662116
0.000572981
0.00052174
0.000498942
0.000479849
0.000507057
0.0006166
0.000688892
0.000845742
0.00111943
0.00128954
0.00129995
0.00113236
0.0007507
0.000375522
0.000405783
0.000308336
0.000342563
0.000252375
0.00027816
0.000185119
0.000204062
0.000149392
0.000164707
0.000138949
0.000141236
0.000105236
0.000138233
7.61231e-05
8.54867e-05
8.9165e-05
7.96714e-05
0.000136119
0.000107127
0.000250819
0.000228203
0.000159168
0.000333281
0.000311687
0.000267649
0.000289693
0.000406297
0.000390527
0.000372964
0.000353786
0.000450749
0.000446071
0.00043902
0.000428845
0.000450627
0.000451339
0.000451957
0.000453435
0.000443453
0.000441441
0.000440593
0.000412683
0.000420668
0.000431982
0.000418941
0.000424873
0.000402279
0.000398808
0.000405696
0.000408514
0.000407254
0.000351007
0.000328512
0.000329036
0.000373648
0.000395
0.000374798
0.000351436
0.000320323
0.000313206
0.000313086
0.000310363
0.000312043
0.000317562
0.000329733
0.000346975
0.000346546
0.000130988
0.00015047
9.30536e-05
0.000359176
0.000320105
0.000323815
0.000384571
0.00049895
0.000684427
0.000800997
0.000770786
0.000649408
0.000629513
0.000672332
0.000719695
0.000727107
0.00066541
0.000560234
0.000504572
0.000491854
0.000516125
0.000618736
0.000693665
0.000856295
0.00112548
0.00131119
0.00133937
0.00119246
0.000825871
0.00038434
0.000303604
0.000332328
0.000260234
0.000280852
0.000222988
0.000240641
0.00016652
0.00018473
0.00014124
0.000149643
0.000134039
0.000137242
0.000104056
0.000132691
7.93034e-05
9.13377e-05
9.44696e-05
8.9428e-05
0.000121424
0.000102716
0.000246605
0.000210485
0.000159534
0.000140518
0.000339526
0.000317133
0.000265124
0.00029414
0.000415378
0.000399168
0.000380883
0.000360884
0.000452378
0.000448946
0.000443393
0.000434412
0.000440681
0.000441654
0.000442869
0.000444791
0.000428324
0.000425719
0.000424177
0.000410068
0.000410355
0.000413052
0.000397513
0.000405771
0.000406898
0.000409191
0.000405187
0.000403992
0.000393685
0.000328006
0.00030997
0.000306993
0.000351102
0.000374431
0.000350487
0.000326119
0.000300746
0.000292497
0.000294048
0.000288773