/*--------------------------------*- C++ -*----------------------------------*\
  =========                 |
  \\      /  F ield         | OpenFOAM: The Open Source CFD Toolbox
   \\    /   O peration     | Website:  https://openfoam.org
    \\  /    A nd           | Version:  dev
     \\/     M anipulation  |
\*---------------------------------------------------------------------------*/
FoamFile
{
    version     2.0;
    format      ascii;
    class       volScalarField;
    location    "2500";
    object      O2;
}
// * * * * * * * * * * * * * * * * * * * * * * * * * * * * * * * * * * * * * //

dimensions      [0 0 0 0 0 0 0];

internalField   nonuniform List<scalar> 
10028
(
0.23301
0.23301
0.23301
0.23301
0.23301
0.23301
0.23301
0.23301
0.23301
0.23301
0.23301
0.23301
0.23301
0.23301
0.23301
0.23301
0.23301
0.23301
0.23301
0.23301
0.23301
0.23301
0.23301
0.23301
0.23301
0.23301
0.23301
0.23301
0.23301
0.23301
0.23301
0.23301
0.23301
0.23301
0.23301
0.23301
0.23301
0.23301
0.23301
0.23301
0.23301
0.23301
0.23301
0.23301
0.23301
0.23301
0.23301
0.23301
0.23301
0.23301
0.23301
0.23301
0.23301
0.23301
0.23301
0.23301
0.23301
0.23301
0.23301
0.23301
0.23301
0.23301
0.23301
0.23301
0.23301
0.23301
0.23301
0.23301
0.23301
0.23301
0.23301
0.23301
0.23301
0.23301
0.23301
0.23301
0.23301
0.23301
0.23301
0.23301
0.23301
0.23301
0.23301
0.23301
0.23301
0.23301
0.23301
0.23301
0.23301
0.23301
0.23301
0.23301
0.23301
0.23301
0.23301
0.23301
0.23301
0.23301
0.23301
0.23301
0.23301
0.23301
0.23301
0.23301
0.23301
0.23301
0.23301
0.23301
0.23301
0.23301
0.23301
0.23301
0.23301
0.23301
0.23301
0.23301
0.23301
0.23301
0.23301
0.23301
0.23301
0.23301
0.23301
0.23301
0.23301
0.23301
0.23301
0.23301
0.23301
0.23301
0.23301
0.23301
0.23301
0.23301
0.23301
0.23301
0.23301
0.23301
0.23301
0.23301
0.23301
0.23301
0.23301
0.23301
0.23301
0.23301
0.23301
0.23301
0.23301
0.23301
0.23301
0.23301
0.23301
0.23301
0.23301
0.23301
0.23301
0.23301
0.23301
0.23301
0.23301
0.23301
0.23301
0.23301
0.23301
0.23301
0.23301
0.23301
0.23301
0.23301
0.23301
0.23301
0.23301
0.23301
0.23301
0.23301
0.23301
0.23301
0.23301
0.23301
0.23301
0.23301
0.23301
0.23301
0.23301
0.23301
0.23301
0.23301
0.23301
0.23301
0.23301
0.23301
0.23301
0.23301
0.23301
0.23301
0.23301
0.23301
0.23301
0.23301
0.23301
0.23301
0.23301
0.23301
0.23301
0.23301
0.23301
0.23301
0.23301
0.23301
0.23301
0.23301
0.23301
0.23301
0.23301
0.23301
0.23301
0.23301
0.23301
0.23301
0.23301
0.23301
0.23301
0.23301
0.23301
0.23301
0.23301
0.23301
0.23301
0.23301
0.23301
0.23301
0.23301
0.23301
0.23301
0.23301
0.23301
0.23301
0.23301
0.23301
0.23301
0.23301
0.23301
0.23301
0.23301
0.23301
0.23301
0.23301
0.23301
0.23301
0.23301
0.23301
0.23301
0.23301
0.23301
0.23301
0.23301
0.23301
0.23301
0.23301
0.23301
0.23301
0.23301
0.23301
0.23301
0.23301
0.23301
0.23301
0.23301
0.23301
0.23301
0.23301
0.23301
0.23301
0.23301
0.23301
0.23301
0.23301
0.23301
0.23301
0.23301
0.23301
0.23301
0.23301
0.23301
0.23301
0.23301
0.23301
0.23301
0.23301
0.23301
0.23301
0.23301
0.23301
0.23301
0.23301
0.23301
0.23301
0.23301
0.23301
0.23301
0.23301
0.23301
0.23301
0.23301
0.23301
0.23301
0.23301
0.23301
0.23301
0.23301
0.23301
0.23301
0.23301
0.23301
0.23301
0.23301
0.23301
0.23301
0.23301
0.23301
0.23301
0.23301
0.23301
0.23301
0.23301
0.23301
0.23301
0.23301
0.23301
0.23301
0.23301
0.23301
0.23301
0.23301
0.23301
0.23301
0.23301
0.23301
0.23301
0.23301
0.23301
0.23301
0.23301
0.23301
0.23301
0.23301
0.23301
0.23301
0.23301
0.23301
0.23301
0.23301
0.23301
0.23301
0.23301
0.23301
0.23301
0.23301
0.23301
0.23301
0.23301
0.23301
0.23301
0.23301
0.23301
0.23301
0.23301
0.23301
0.23301
0.23301
0.23301
0.23301
0.23301
0.23301
0.23301
0.23301
0.23301
0.23301
0.23301
0.23301
0.23301
0.23301
0.23301
0.23301
0.23301
0.23301
0.23301
0.23301
0.23301
0.23301
0.23301
0.23301
0.23301
0.23301
0.23301
0.23301
0.23301
0.23301
0.23301
0.23301
0.23301
0.23301
0.23301
0.23301
0.23301
0.23301
0.23301
0.23301
0.23301
0.23301
0.23301
0.23301
0.23301
0.23301
0.23301
0.23301
0.23301
0.23301
0.23301
0.23301
0.23301
0.23301
0.23301
0.23301
0.23301
0.23301
0.23301
0.23301
0.23301
0.23301
0.23301
0.23301
0.23301
0.23301
0.23301
0.23301
0.23301
0.23301
0.23301
0.23301
0.23301
0.23301
0.23301
0.23301
0.23301
0.23301
0.23301
0.23301
0.23301
0.23301
0.23301
0.23301
0.23301
0.23301
0.23301
0.23301
0.23301
0.23301
0.23301
0.23301
0.23301
0.23301
0.23301
0.23301
0.23301
0.23301
0.23301
0.23301
0.23301
0.23301
0.23301
0.23301
0.23301
0.23301
0.23301
0.23301
0.23301
0.23301
0.23301
0.23301
0.23301
0.23301
0.23301
0.23301
0.23301
0.23301
0.23301
0.23301
0.23301
0.23301
0.23301
0.23301
0.23301
0.23301
0.23301
0.23301
0.23301
0.23301
0.23301
0.23301
0.23301
0.23301
0.23301
0.23301
0.23301
0.23301
0.23301
0.23301
0.23301
0.23301
0.23301
0.23301
0.23301
0.23301
0.23301
0.23301
0.23301
0.23301
0.23301
0.23301
0.23301
0.23301
0.23301
0.23301
0.23301
0.23301
0.23301
0.23301
0.23301
0.23301
0.23301
0.23301
0.23301
0.23301
0.23301
0.23301
0.23301
0.23301
0.23301
0.23301
0.23301
0.23301
0.23301
0.23301
0.23301
0.23301
0.23301
0.23301
0.23301
0.23301
0.23301
0.23301
0.23301
0.23301
0.23301
0.23301
0.23301
0.23301
0.23301
0.23301
0.23301
0.23301
0.23301
0.23301
0.23301
0.23301
0.23301
0.23301
0.23301
0.23301
0.23301
0.23301
0.23301
0.23301
0.23301
0.23301
0.23301
0.23301
0.23301
0.23301
0.23301
0.23301
0.23301
0.23301
0.23301
0.23301
0.23301
0.23301
0.23301
0.23301
0.23301
0.23301
0.23301
0.23301
0.23301
0.23301
0.23301
0.23301
0.23301
0.23301
0.23301
0.23301
0.23301
0.23301
0.23301
0.23301
0.23301
0.23301
0.23301
0.23301
0.23301
0.23301
0.23301
0.23301
0.23301
0.23301
0.23301
0.23301
0.23301
0.23301
0.23301
0.23301
0.23301
0.23301
0.23301
0.23301
0.23301
0.23301
0.23301
0.23301
0.23301
0.23301
0.23301
0.23301
0.23301
0.23301
0.23301
0.23301
0.23301
0.23301
0.23301
0.23301
0.23301
0.23301
0.23301
0.23301
0.23301
0.23301
0.23301
0.23301
0.23301
0.23301
0.23301
0.23301
0.23301
0.23301
0.23301
0.23301
0.23301
0.23301
0.23301
0.23301
0.23301
0.23301
0.23301
0.23301
0.23301
0.23301
0.23301
0.23301
0.23301
0.23301
0.23301
0.23301
0.23301
0.23301
0.23301
0.23301
0.23301
0.23301
0.23301
0.23301
0.23301
0.23301
0.23301
0.23301
0.23301
0.23301
0.23301
0.23301
0.23301
0.23301
0.23301
0.23301
0.23301
0.23301
0.23301
0.23301
0.233009
0.233009
0.233008
0.233008
0.233009
0.23301
0.233009
0.23301
0.23301
0.23301
0.23301
0.23301
0.23301
0.23301
0.23301
0.23301
0.23301
0.23301
0.23301
0.23301
0.23301
0.23301
0.23301
0.23301
0.23301
0.23301
0.23301
0.23301
0.23301
0.23301
0.23301
0.23301
0.23301
0.23301
0.23301
0.23301
0.23301
0.23301
0.23301
0.23301
0.23301
0.23301
0.233009
0.233007
0.233004
0.232998
0.232992
0.232995
0.233008
0.233001
0.233008
0.23301
0.233008
0.233008
0.23301
0.23301
0.23301
0.23301
0.23301
0.23301
0.23301
0.23301
0.23301
0.23301
0.23301
0.23301
0.23301
0.23301
0.23301
0.23301
0.23301
0.23301
0.23301
0.23301
0.23301
0.23301
0.23301
0.23301
0.23301
0.23301
0.23301
0.23301
0.23301
0.23301
0.23301
0.23301
0.233008
0.233001
0.232985
0.232955
0.232916
0.232882
0.232979
0.232905
0.233001
0.232974
0.233001
0.233009
0.233002
0.233004
0.23301
0.233009
0.23301
0.23301
0.23301
0.23301
0.23301
0.23301
0.23301
0.23301
0.23301
0.23301
0.23301
0.23301
0.23301
0.23301
0.23301
0.23301
0.23301
0.23301
0.23301
0.23301
0.23301
0.23301
0.23301
0.23301
0.23301
0.23301
0.23301
0.23301
0.23301
0.233009
0.233004
0.232984
0.232932
0.232827
0.23267
0.232493
0.232713
0.232281
0.232885
0.232644
0.232973
0.232872
0.232975
0.233006
0.23298
0.232987
0.23301
0.233007
0.23301
0.23301
0.23301
0.23301
0.23301
0.23301
0.23301
0.23301
0.23301
0.23301
0.23301
0.23301
0.23301
0.23301
0.23301
0.23301
0.23301
0.23301
0.23301
0.23301
0.23301
0.23301
0.23301
0.23301
0.23301
0.23301
0.23301
0.23301
0.23301
0.233008
0.232995
0.232945
0.232813
0.232545
0.232139
0.231663
0.231832
0.231237
0.232157
0.2316
0.232592
0.232046
0.232872
0.23257
0.232883
0.232994
0.232903
0.23293
0.233009
0.233001
0.233009
0.23301
0.23301
0.23301
0.23301
0.23301
0.23301
0.23301
0.23301
0.23301
0.23301
0.23301
0.23301
0.23301
0.23301
0.23301
0.23301
0.23301
0.23301
0.23301
0.23301
0.23301
0.23301
0.23301
0.23301
0.23301
0.23301
0.23301
0.23301
0.233006
0.232982
0.232882
0.232611
0.232126
0.231484
0.23078
0.230782
0.230225
0.231029
0.230482
0.23144
0.230825
0.231965
0.23131
0.232581
0.23193
0.232617
0.232958
0.232678
0.232761
0.233006
0.232981
0.233008
0.23301
0.23301
0.23301
0.23301
0.23301
0.23301
0.23301
0.23301
0.23301
0.23301
0.23301
0.23301
0.23301
0.23301
0.23301
0.23301
0.23301
0.23301
0.23301
0.233009
0.233009
0.233009
0.233009
0.233009
0.23301
0.23301
0.23301
0.23301
0.233006
0.232966
0.232806
0.232372
0.231667
0.230792
0.229949
0.229844
0.229435
0.229968
0.22954
0.230249
0.229722
0.230648
0.230035
0.231211
0.230507
0.231954
0.231163
0.232033
0.23285
0.232176
0.232387
0.232997
0.232923
0.233005
0.23301
0.233009
0.23301
0.23301
0.23301
0.23301
0.23301
0.23301
0.23301
0.23301
0.23301
0.23301
0.23301
0.23301
0.23301
0.23301
0.23301
0.23301
0.233009
0.233008
0.233007
0.233007
0.233007
0.233008
0.233008
0.233009
0.233009
0.23301
0.233006
0.232959
0.232717
0.232141
0.23118
0.230149
0.229467
0.229281
0.229173
0.229294
0.229155
0.229377
0.229183
0.229544
0.229258
0.229861
0.229422
0.230403
0.229737
0.231178
0.230349
0.231258
0.232587
0.231413
0.231686
0.232971
0.23277
0.232997
0.23301
0.233007
0.23301
0.23301
0.23301
0.23301
0.23301
0.23301
0.23301
0.23301
0.23301
0.23301
0.23301
0.23301
0.23301
0.23301
0.23301
0.233009
0.233007
0.233005
0.233002
0.233001
0.233001
0.233003
0.233005
0.233006
0.233008
0.233009
0.233007
0.232962
0.23267
0.231915
0.230792
0.229782
0.229294
0.229145
0.229156
0.229108
0.229105
0.229107
0.229085
0.229128
0.229079
0.229186
0.229094
0.229333
0.229138
0.229661
0.229276
0.230361
0.229633
0.230439
0.232051
0.230601
0.23086
0.232903
0.232444
0.232974
0.23301
0.233003
0.233009
0.23301
0.23301
0.23301
0.23301
0.23301
0.23301
0.23301
0.23301
0.23301
0.23301
0.23301
0.23301
0.23301
0.233009
0.233007
0.233002
0.232994
0.232986
0.232981
0.232981
0.232986
0.232992
0.232998
0.233003
0.233006
0.233007
0.23297
0.232673
0.231781
0.230503
0.229646
0.229335
0.229192
0.229267
0.229137
0.229228
0.229108
0.229185
0.229088
0.229146
0.229073
0.229105
0.229069
0.229069
0.229106
0.229049
0.229245
0.229079
0.229657
0.229237
0.229731
0.23127
0.229871
0.23011
0.232734
0.23182
0.232914
0.23301
0.232989
0.233007
0.23301
0.23301
0.23301
0.23301
0.23301
0.23301
0.23301
0.23301
0.23301
0.23301
0.23301
0.23301
0.233009
0.233008
0.233002
0.232989
0.232967
0.232942
0.232926
0.232923
0.232934
0.232952
0.232972
0.232989
0.233
0.233005
0.232985
0.232693
0.231777
0.23035
0.229646
0.229446
0.229664
0.229382
0.22964
0.22934
0.229524
0.229277
0.229429
0.229197
0.229317
0.229112
0.229197
0.229052
0.229092
0.229025
0.229022
0.229059
0.228996
0.229253
0.229047
0.229298
0.230484
0.229389
0.229555
0.232386
0.231022
0.232765
0.233009
0.23295
0.232997
0.233009
0.233009
0.23301
0.23301
0.23301
0.23301
0.23301
0.23301
0.23301
0.23301
0.23301
0.23301
0.233009
0.233005
0.232992
0.232961
0.232907
0.232847
0.232798
0.232776
0.232792
0.232841
0.232901
0.23295
0.232982
0.232999
0.23299
0.232754
0.231812
0.230352
0.229665
0.229625
0.230134
0.23008
0.230447
0.22971
0.229908
0.229568
0.229702
0.229426
0.229531
0.229282
0.229367
0.229148
0.229199
0.229041
0.229049
0.228976
0.228945
0.228966
0.228911
0.229047
0.228939
0.229064
0.229844
0.229108
0.229207
0.231748
0.2303
0.232447
0.232977
0.232821
0.232882
0.233007
0.233009
0.23301
0.23301
0.23301
0.23301
0.23301
0.23301
0.23301
0.23301
0.23301
0.23301
0.233008
0.233
0.232976
0.232915
0.232809
0.232687
0.232585
0.232538
0.232554
0.232624
0.232731
0.232851
0.232938
0.232983
0.232991
0.232843
0.231905
0.230396
0.229688
0.22977
0.230586
0.230763
0.231182
0.230239
0.230658
0.229838
0.230003
0.229632
0.229728
0.229439
0.229492
0.22923
0.229227
0.229021
0.228959
0.228873
0.228736
0.228812
0.228627
0.228839
0.228654
0.228917
0.228769
0.228908
0.229399
0.228922
0.228976
0.230981
0.229732
0.231855
0.232898
0.232349
0.232461
0.232995
0.233005
0.233008
0.23301
0.23301
0.23301
0.23301
0.23301
0.23301
0.23301
0.23301
0.23301
0.233007
0.232995
0.232955
0.232854
0.232682
0.232483
0.232321
0.232239
0.232247
0.232335
0.232478
0.232649
0.23283
0.232944
0.232983
0.232903
0.232095
0.23051
0.229702
0.22981
0.230817
0.231431
0.231586
0.231148
0.231575
0.23025
0.230805
0.22983
0.229971
0.229514
0.229523
0.229202
0.229146
0.228857
0.228735
0.228547
0.22833
0.228352
0.228028
0.228341
0.227924
0.2285
0.228052
0.228716
0.228372
0.228689
0.229093
0.228696
0.228742
0.230258
0.229286
0.230813
0.231961
0.231116
0.230893
0.232988
0.233004
0.233008
0.23301
0.23301
0.23301
0.23301
0.23301
0.23301
0.23301
0.233009
0.233006
0.232991
0.232935
0.232791
0.232548
0.232264
0.232024
0.231889
0.231883
0.231987
0.232164
0.232382
0.232631
0.232847
0.232958
0.232926
0.232321
0.230732
0.229719
0.229801
0.230795
0.231707
0.231833
0.231961
0.231439
0.231931
0.230123
0.230933
0.229557
0.229694
0.229056
0.228994
0.228606
0.228466
0.228116
0.227935
0.227747
0.227563
0.227594
0.227433
0.22759
0.2274
0.22783
0.227419
0.228286
0.227681
0.228257
0.228823
0.228291
0.228375
0.229554
0.228936
0.229804
0.231652
0.229821
0.229775
0.232983
0.233004
0.233009
0.23301
0.23301
0.23301
0.23301
0.23301
0.23301
0.233009
0.233006
0.232988
0.23292
0.232739
0.232429
0.232055
0.23172
0.23151
0.23147
0.231584
0.2318
0.232072
0.232383
0.232664
0.232894
0.232926
0.232521
0.231012
0.229753
0.229749
0.230655
0.231377
0.232068
0.231817
0.232149
0.23215
0.231733
0.232239
0.230083
0.231155
0.229025
0.229305
0.228336
0.228315
0.227796
0.227708
0.22745
0.227386
0.227362
0.227314
0.227342
0.227355
0.227319
0.227387
0.227325
0.227308
0.227602
0.227259
0.227599
0.228487
0.227661
0.227788
0.229076
0.228624
0.229195
0.230334
0.229198
0.229169
0.232983
0.233005
0.233009
0.23301
0.23301
0.23301
0.23301
0.23301
0.233009
0.233006
0.232988
0.232913
0.232707
0.232342
0.231884
0.231445
0.231131
0.23103
0.231152
0.231409
0.231733
0.232092
0.232433
0.232748
0.232909
0.232667
0.231336
0.229845
0.229655
0.230376
0.230945
0.231471
0.232147
0.231898
0.23238
0.232333
0.232054
0.232503
0.230278
0.231512
0.228529
0.229169
0.227733
0.227913
0.227369
0.227409
0.227286
0.227287
0.227398
0.227459
0.227579
0.227831
0.227577
0.228048
0.227333
0.227854
0.227212
0.227341
0.227179
0.227984
0.227149
0.227157
0.227502
0.228772
0.228457
0.228118
0.228891
0.231023
0.228932
0.229123
0.232986
0.233006
0.233009
0.23301
0.23301
0.23301
0.23301
0.23301
0.233007
0.232988
0.232913
0.232697
0.232298
0.231775
0.231237
0.230804
0.23064
0.230762
0.231037
0.231391
0.231782
0.232176
0.232557
0.23285
0.232738
0.231669
0.230037
0.229587
0.230104
0.230551
0.230957
0.231743
0.231419
0.232242
0.231986
0.232569
0.232468
0.23238
0.232711
0.230684
0.231947
0.228395
0.229354
0.227539
0.22789
0.22732
0.227424
0.227517
0.227578
0.228037
0.228174
0.228507
0.228844
0.228548
0.229179
0.228051
0.228957
0.227316
0.228176
0.227715
0.227107
0.227276
0.227174
0.227701
0.227276
0.227037
0.227128
0.227197
0.22701
0.228642
0.22836
0.228225
0.227824
0.228464
0.228786
0.228584
0.231264
0.228888
0.228756
0.228663
0.228837
0.229326
0.228967
0.232992
0.233008
0.23301
0.23301
0.23301
0.23301
0.23301
0.233007
0.232992
0.232919
0.232704
0.232296
0.231737
0.231124
0.230585
0.230369
0.230462
0.230722
0.231084
0.231491
0.231917
0.232352
0.232727
0.232744
0.231957
0.230281
0.22958
0.229875
0.230217
0.230499
0.231071
0.231915
0.231658
0.232399
0.232169
0.232724
0.232594
0.232659
0.232857
0.231273
0.232391
0.228645
0.229863
0.227705
0.228302
0.227684
0.227913
0.228264
0.228358
0.229057
0.229189
0.22961
0.229866
0.229186
0.229548
0.229761
0.229952
0.228604
0.229077
0.229728
0.22978
0.229445
0.228173
0.227627
0.22812
0.228634
0.227543
0.227008
0.227372
0.227032
0.227039
0.227319
0.227437
0.22698
0.228111
0.227963
0.227504
0.228255
0.228396
0.230179
0.229293
0.22865
0.228522
0.228774
0.228899
0.232998
0.233009
0.23301
0.23301
0.23301
0.23301
0.233008
0.232996
0.232936
0.232737
0.232329
0.231758
0.23111
0.230497
0.230226
0.230253
0.230473
0.230842
0.231252
0.231682
0.232139
0.232573
0.232725
0.23217
0.230559
0.229604
0.229699
0.229946
0.230117
0.230551
0.231712
0.231383
0.232201
0.231961
0.232603
0.23242
0.232849
0.232746
0.232853
0.232937
0.231951
0.232725
0.229313
0.230637
0.228375
0.229161
0.228523
0.228856
0.229294
0.22943
0.230031
0.230177
0.230052
0.230147
0.230198
0.230265
0.229913
0.230057
0.230144
0.229089
0.229492
0.229976
0.229979
0.229786
0.228605
0.228018
0.228537
0.229075
0.227908
0.22694
0.227076
0.22692
0.227191
0.227775
0.227619
0.227068
0.227653
0.22782
0.227171
0.227992
0.228167
0.228914
0.229164
0.230307
0.22922
0.228342
0.228513
0.228676
0.228795
0.233002
0.233009
0.23301
0.23301
0.23301
0.233008
0.233
0.232954
0.232784
0.23241
0.231859
0.231183
0.23051
0.230191
0.230143
0.230292
0.230662
0.231087
0.2315
0.231943
0.232401
0.232667
0.23229
0.230847
0.229688
0.229592
0.229739
0.229813
0.230131
0.231143
0.23083
0.232085
0.231835
0.23252
0.232317
0.232808
0.232685
0.232937
0.232891
0.232942
0.232974
0.232526
0.232897
0.230273
0.231536
0.229442
0.230296
0.229662
0.230069
0.230342
0.230554
0.230318
0.230399
0.230474
0.230585
0.23019
0.23023
0.230261
0.230302
0.230084
0.230142
0.23016
0.22948
0.229774
0.230061
0.230002
0.229948
0.229025
0.228431
0.22894
0.229439
0.228302
0.226956
0.226904
0.22687
0.227445
0.228143
0.227957
0.227254
0.22731
0.227488
0.226918
0.227681
0.227894
0.2287
0.228811
0.231965
0.229691
0.228117
0.228337
0.228537
0.233006
0.23301
0.23301
0.23301
0.233009
0.233003
0.23297
0.232834
0.232501
0.232003
0.2314
0.230662
0.230219
0.230124
0.230181
0.230511
0.230977
0.231397
0.231803
0.232242
0.232574
0.232317
0.231091
0.229844
0.229558
0.229595
0.229591
0.229808
0.230633
0.231573
0.231297
0.232503
0.232294
0.232802
0.232676
0.232932
0.232883
0.232975
0.232961
0.232978
0.23299
0.232824
0.232961
0.231344
0.23235
0.230681
0.231454
0.230834
0.231228
0.230687
0.230833
0.230966
0.231151
0.230352
0.230424
0.230514
0.230629
0.230158
0.230148
0.230142
0.230149
0.230079
0.230062
0.230007
0.229734
0.22989
0.229994
0.229893
0.229922
0.229366
0.228819
0.229261
0.22967
0.228669
0.227066
0.226806
0.226895
0.227742
0.228484
0.228267
0.227496
0.226984
0.227131
0.226763
0.227341
0.227582
0.228357
0.228579
0.228842
0.232241
0.229775
0.227851
0.228119
0.233007
0.23301
0.23301
0.233009
0.233005
0.232983
0.23288
0.232597
0.23214
0.231626
0.231017
0.230365
0.230151
0.230147
0.230374
0.230858
0.231338
0.231741
0.232136
0.232456
0.232308
0.231278
0.230016
0.229564
0.229511
0.229443
0.229577
0.23025
0.23156
0.231315
0.232064
0.231823
0.232822
0.232714
0.232936
0.232891
0.232981
0.232964
0.232992
0.23299
0.232991
0.232998
0.232932
0.232981
0.232268
0.232762
0.231728
0.232256
0.231471
0.231844
0.230759
0.230912
0.231071
0.231241
0.230183
0.230249
0.23035
0.230484
0.229937
0.229869
0.22982
0.229806
0.229925
0.229818
0.229689
0.229814
0.229837
0.229775
0.229634
0.229778
0.22958
0.229124
0.229463
0.229728
0.228954
0.227231
0.226749
0.226964
0.22801
0.228743
0.228492
0.227714
0.22675
0.226803
0.22665
0.226985
0.227248
0.227869
0.228161
0.228454
0.228839
0.231013
0.229436
0.227551
0.233008
0.23301
0.23301
0.233007
0.232993
0.232919
0.232692
0.232279
0.231845
0.231389
0.230776
0.230278
0.230164
0.230286
0.230683
0.231244
0.231693
0.232073
0.232326
0.232275
0.231401
0.230179
0.229595
0.229479
0.229361
0.229427
0.22998
0.231264
0.232135
0.231886
0.232556
0.23236
0.232947
0.23291
0.232986
0.232971
0.232999
0.232995
0.233
0.233001
0.232995
0.233
0.232962
0.232986
0.232701
0.232892
0.232224
0.232561
0.231439
0.231659
0.232068
0.231865
0.230646
0.230831
0.231028
0.231232
0.229821
0.22989
0.230009
0.230175
0.229561
0.229447
0.229365
0.229337
0.229621
0.229442
0.229257
0.229751
0.229684
0.229435
0.229272
0.229512
0.22963
0.229313
0.229519
0.22966
0.22912
0.227386
0.226729
0.227037
0.228193
0.228881
0.22859
0.227847
0.226579
0.226557
0.226552
0.226652
0.226912
0.227247
0.227624
0.227983
0.228392
0.228773
0.229931
0.229087
0.233009
0.23301
0.233008
0.232998
0.23295
0.232778
0.23242
0.232035
0.231714
0.231271
0.230662
0.230271
0.230277
0.230503
0.231042
0.231608
0.231998
0.232213
0.232187
0.231434
0.230316
0.229675
0.229479
0.229331
0.229341
0.229804
0.230958
0.232359
0.232259
0.232669
0.232525
0.232855
0.232776
0.232991
0.23298
0.233003
0.232999
0.233005
0.233005
0.233002
0.233004
0.232995
0.232999
0.232968
0.232985
0.232816
0.232925
0.232251
0.232421
0.232646
0.231355
0.2316
0.232048
0.231832
0.230378
0.230609
0.230854
0.231105
0.22935
0.229432
0.229584
0.229796
0.229087
0.228944
0.228847
0.228821
0.229209
0.228979
0.22876
0.229617
0.229421
0.229003
0.228842
0.229157
0.229573
0.229367
0.229463
0.22955
0.229152
0.227457
0.226711
0.227043
0.228243
0.228884
0.228561
0.227849
0.226439
0.226357
0.226459
0.226368
0.226597
0.226971
0.227406
0.227865
0.228339
0.22872
0.230562
0.22918
0.233009
0.233009
0.233002
0.232973
0.232848
0.232556
0.23219
0.231952
0.231676
0.231227
0.230611
0.230337
0.230425
0.230745
0.231369
0.231852
0.232104
0.232071
0.231427
0.230438
0.229768
0.229497
0.229331
0.229306
0.229686
0.230763
0.232327
0.232766
0.232646
0.232896
0.232841
0.232962
0.232935
0.233005
0.233002
0.233008
0.233007
0.233007
0.233008
0.233001
0.233004
0.232991
0.232994
0.232966
0.232976
0.232842
0.232931
0.232244
0.232419
0.232567
0.232709
0.231218
0.231495
0.231992
0.231754
0.23005
0.230334
0.230631
0.230928
0.228843
0.228959
0.229162
0.229433
0.228571
0.228419
0.228322
0.228307
0.228726
0.228467
0.228239
0.229385
0.229122
0.228516
0.228402
0.228781
0.229469
0.229311
0.229343
0.229353
0.229097
0.227426
0.226671
0.226995
0.22819
0.228813
0.228454
0.227778
0.226291
0.22617
0.226353
0.226139
0.226331
0.226738
0.227231
0.227767
0.228267
0.228702
0.231841
0.229553
0.233009
0.233005
0.232988
0.232903
0.232675
0.232329
0.232114
0.231945
0.231694
0.231216
0.230596
0.230446
0.230554
0.230936
0.231498
0.231918
0.231951
0.231394
0.230535
0.229879
0.229552
0.229351
0.229304
0.22962
0.230593
0.232186
0.232872
0.232835
0.232937
0.232906
0.232977
0.23296
0.232997
0.232989
0.233009
0.233008
0.233009
0.233009
0.233005
0.233008
0.232997
0.233
0.232976
0.232976
0.23294
0.232932
0.232804
0.232882
0.232923
0.232207
0.2324
0.232571
0.232709
0.231116
0.231422
0.23196
0.231703
0.229751
0.230097
0.230447
0.23079
0.228348
0.22851
0.22878
0.229128
0.228038
0.227885
0.227802
0.2278
0.228204
0.227936
0.227701
0.229115
0.228782
0.228022
0.227942
0.228376
0.229295
0.229173
0.229157
0.229097
0.228934
0.227338
0.22658
0.226875
0.228048
0.22861
0.228225
0.227608
0.22613
0.225989
0.226203
0.225943
0.226116
0.226552
0.227099
0.227689
0.228226
0.228752
0.230834
0.229382
0.233006
0.232995
0.232943
0.232774
0.232468
0.232232
0.232112
0.23201
0.231767
0.231223
0.230626
0.230537
0.230637
0.231006
0.231515
0.231754
0.231318
0.23056
0.229991
0.229639
0.229411
0.229328
0.229602
0.230483
0.232023
0.232844
0.232967
0.232945
0.232991
0.232981
0.233002
0.232997
0.233007
0.233005
0.23301
0.23301
0.233008
0.233009
0.233
0.233005
0.232981
0.232994
0.232913
0.232908
0.232899
0.232877
0.232806
0.23281
0.232878
0.232906
0.232898
0.232192
0.232398
0.232598
0.232724
0.231101
0.231426
0.231985
0.231719
0.229531
0.22995
0.23036
0.230745
0.22789
0.228097
0.228426
0.228865
0.227502
0.227365
0.227319
0.227337
0.227675
0.227394
0.227169
0.228796
0.228402
0.227523
0.227466
0.227941
0.22903
0.228949
0.228883
0.228784
0.228649
0.227137
0.226408
0.22665
0.227797
0.228295
0.227896
0.227334
0.225959
0.22582
0.226024
0.225775
0.225945
0.226412
0.227001
0.227623
0.228259
0.228836
0.231795
0.229516
0.233
0.23297
0.232851
0.232599
0.232331
0.232219
0.232184
0.232133
0.231839
0.231212
0.230661
0.230574
0.230664
0.23101
0.231342
0.23117
0.230548
0.230063
0.229726
0.229489
0.229396
0.229622
0.230437
0.231923
0.232809
0.232992
0.232998
0.232993
0.233006
0.233003
0.233008
0.233007
0.233009
0.233009
0.23301
0.23301
0.233006
0.233009
0.232988
0.233
0.232918
0.232955
0.232739
0.232717
0.232849
0.232822
0.232636
0.232554
0.232812
0.232868
0.232859
0.232862
0.232224
0.232431
0.232644
0.232746
0.231179
0.231515
0.232078
0.231814
0.229379
0.229894
0.230375
0.230801
0.227473
0.227731
0.228122
0.228634
0.226995
0.226893
0.226884
0.226933
0.227154
0.226874
0.226672
0.228425
0.227978
0.227029
0.226986
0.227478
0.228706
0.228631
0.228508
0.228403
0.228303
0.226852
0.226195
0.226387
0.22744
0.227919
0.227464
0.226955
0.225792
0.225664
0.225846
0.225635
0.225816
0.226312
0.226945
0.227619
0.228322
0.228889
0.232353
0.229665
0.232986
0.232905
0.23271
0.23244
0.232294
0.232271
0.232315
0.232251
0.23189
0.231193
0.230677
0.230585
0.230659
0.230858
0.230851
0.230492
0.230076
0.229784
0.229565
0.229485
0.229695
0.230456
0.231879
0.23279
0.232986
0.233009
0.233005
0.233008
0.233007
0.233009
0.233009
0.23301
0.233009
0.23301
0.23301
0.233009
0.23301
0.233001
0.233007
0.232934
0.232984
0.232736
0.23283
0.23235
0.232269
0.232733
0.232688
0.232421
0.232373
0.232811
0.232851
0.232768
0.232792
0.232308
0.232499
0.232681
0.23275
0.231339
0.231681
0.232216
0.231971
0.229242
0.229872
0.230454
0.230938
0.227134
0.22744
0.227883
0.228448
0.226542
0.226499
0.226515
0.226637
0.226665
0.226407
0.226243
0.227994
0.227507
0.226556
0.226507
0.22699
0.228278
0.228247
0.228086
0.227928
0.227902
0.226536
0.225989
0.226149
0.226981
0.227447
0.226969
0.226578
0.225632
0.225529
0.22567
0.225521
0.225719
0.226246
0.226916
0.227645
0.228364
0.228956
0.231179
0.2295
0.232951
0.232794
0.232555
0.23236
0.232315
0.232381
0.232446
0.232347
0.231925
0.23118
0.230683
0.23058
0.23056
0.230515
0.230329
0.230058
0.229818
0.229633
0.229592
0.229819
0.230558
0.231908
0.232787
0.232984
0.233008
0.233009
0.23301
0.23301
0.23301
0.23301
0.23301
0.23301
0.23301
0.23301
0.23301
0.233008
0.23301
0.232987
0.233003
0.232765
0.232926
0.232302
0.232502
0.231894
0.231764
0.231397
0.232554
0.232489
0.232055
0.231961
0.232788
0.232798
0.23262
0.232664
0.23242
0.232576
0.232672
0.232707
0.23153
0.23187
0.232348
0.232139
0.229123
0.229838
0.230516
0.231088
0.226876
0.227236
0.227717
0.228313
0.226183
0.226181
0.226263
0.22644
0.226225
0.226012
0.225934
0.227486
0.226987
0.226116
0.226041
0.226485
0.227815
0.227781
0.227547
0.227438
0.227329
0.226239
0.225781
0.225902
0.226566
0.226874
0.226484
0.22625
0.225496
0.225416
0.225518
0.225427
0.225651
0.22621
0.226931
0.227697
0.228443
0.228955
0.232175
0.229512
0.232881
0.232651
0.232435
0.232348
0.232391
0.232496
0.232559
0.232427
0.231944
0.231183
0.230691
0.230526
0.230382
0.230221
0.230047
0.229859
0.229714
0.229724
0.229996
0.230755
0.232013
0.232808
0.232985
0.233008
0.23301
0.23301
0.23301
0.23301
0.23301
0.23301
0.23301
0.23301
0.23301
0.23301
0.23301
0.23301
0.233006
0.233009
0.232941
0.232995
0.232335
0.23276
0.231459
0.231814
0.231344
0.231319
0.230472
0.230385
0.232265
0.232161
0.231555
0.231426
0.232712
0.232701
0.232368
0.232452
0.232502
0.232606
0.232599
0.232598
0.23164
0.231977
0.232391
0.232221
0.229023
0.229788
0.23053
0.231157
0.226719
0.227102
0.227591
0.228195
0.225926
0.225961
0.226111
0.226316
0.225842
0.225739
0.225715
0.226961
0.226432
0.225708
0.225533
0.22591
0.227192
0.227101
0.226768
0.226717
0.226677
0.225977
0.225625
0.225754
0.226222
0.226375
0.226131
0.226028
0.225382
0.225318
0.2254
0.22535
0.225599
0.226213
0.226972
0.227781
0.22849
0.228939
0.232122
0.229468
0.232768
0.232515
0.232381
0.232387
0.232494
0.23261
0.232662
0.232482
0.231967
0.23124
0.230702
0.230445
0.230253
0.230085
0.229936
0.229845
0.229922
0.230257
0.231065
0.232185
0.232846
0.232989
0.233008
0.23301
0.23301
0.23301
0.23301
0.23301
0.23301
0.23301
0.23301
0.23301
0.23301
0.23301
0.23301
0.23301
0.233002
0.233008
0.23282
0.232969
0.231515
0.232368
0.230157
0.230676
0.230574
0.230496
0.229617
0.229684
0.231845
0.231699
0.230887
0.230719
0.232578
0.232523
0.231993
0.232126
0.232502
0.232572
0.232452
0.232424
0.23168
0.232003
0.232353
0.232219
0.228914
0.229704
0.230495
0.231174
0.226601
0.226973
0.22745
0.228044
0.225734
0.225847
0.226
0.226209
0.225567
0.225509
0.225502
0.226173
0.225638
0.225365
0.225266
0.225368
0.226325
0.226352
0.225986
0.2259
0.226117
0.22587
0.225506
0.225636
0.226016
0.226048
0.226005
0.225901
0.22527
0.22523
0.225278
0.22529
0.225591
0.226232
0.227038
0.227849
0.228505
0.228862
0.213475
0.22906
0.232626
0.232419
0.232383
0.232463
0.232602
0.23272
0.232748
0.232524
0.232029
0.231372
0.230781
0.230448
0.230242
0.230117
0.230087
0.230246
0.230663
0.231491
0.232403
0.232892
0.232995
0.233009
0.23301
0.23301
0.23301
0.23301
0.23301
0.23301
0.23301
0.23301
0.23301
0.23301
0.23301
0.23301
0.23301
0.23301
0.232993
0.233006
0.23256
0.232911
0.230386
0.231647
0.228837
0.229052
0.229256
0.229733
0.229643
0.228664
0.228687
0.231261
0.231069
0.230064
0.229881
0.232344
0.232244
0.231459
0.231649
0.23243
0.232459
0.232209
0.232119
0.231665
0.231979
0.23224
0.232152
0.228753
0.229554
0.230386
0.23112
0.226474
0.226794
0.227229
0.227778
0.225563
0.225681
0.225826
0.226002
0.225321
0.225313
0.225333
0.225521
0.225353
0.225221
0.225125
0.225235
0.225761
0.225931
0.22575
0.225515
0.225959
0.225757
0.225362
0.225536
0.225926
0.225931
0.225873
0.225802
0.225175
0.22517
0.22518
0.225274
0.225594
0.226275
0.227106
0.227901
0.228495
0.228833
0.13517
0.226286
0.232482
0.232385
0.23242
0.23255
0.23271
0.232826
0.23281
0.232568
0.232142
0.231609
0.23108
0.230719
0.230554
0.230575
0.230777
0.231248
0.231971
0.232621
0.232936
0.233
0.233009
0.23301
0.23301
0.23301
0.23301
0.23301
0.23301
0.23301
0.23301
0.23301
0.23301
0.23301
0.23301
0.23301
0.23301
0.23301
0.232974
0.233003
0.232129
0.232799
0.229304
0.230755
0.228034
0.228326
0.228007
0.22865
0.228778
0.22869
0.227764
0.227859
0.230498
0.230269
0.229096
0.228916
0.231983
0.231825
0.23074
0.230986
0.232275
0.232268
0.231826
0.231649
0.231548
0.231878
0.23203
0.231998
0.228457
0.229256
0.230127
0.23093
0.226238
0.226522
0.226848
0.227313
0.225386
0.225498
0.225624
0.22578
0.22516
0.225139
0.225146
0.225407
0.225303
0.225071
0.224579
0.225227
0.22563
0.225763
0.225618