/*--------------------------------*- C++ -*----------------------------------*\
  =========                 |
  \\      /  F ield         | OpenFOAM: The Open Source CFD Toolbox
   \\    /   O peration     | Website:  https://openfoam.org
    \\  /    A nd           | Version:  dev
     \\/     M anipulation  |
\*---------------------------------------------------------------------------*/
FoamFile
{
    version     2.0;
    format      ascii;
    class       volScalarField;
    location    "2500";
    object      omega;
}
// * * * * * * * * * * * * * * * * * * * * * * * * * * * * * * * * * * * * * //

dimensions      [0 0 -1 0 0 0 0];

internalField   nonuniform List<scalar> 
10028
(
1.26813
1.28073
1.22607
1.19574
1.37119
1.10834
1.09022
1.38118
1.30251
1.04133
1.03868
1.34489
1.37307
1.16413
1.02402
1.01569
1.25574
1.39591
1.29224
1.07495
1.0161
1.00451
1.14957
1.38685
1.36246
1.15754
1.04154
1.01009
0.99595
1.07875
1.34992
1.38511
1.26104
1.07363
1.02575
1.006
0.989087
1.03598
1.27104
1.39176
1.33602
1.13535
1.0383
1.01528
1.00314
0.985417
1.00943
1.17635
1.38127
1.37202
1.22114
1.06103
1.02077
1.00762
1.00073
0.983644
0.99447
1.09377
1.34801
1.38309
1.30154
1.10674
1.02834
1.00881
1.00155
0.99898
0.983881
0.986237
1.04521
1.28132
1.38864
1.34846
1.1784
1.04423
1.01025
1.00107
0.997752
0.997505
0.985154
0.980419
1.01411
1.19348
1.38101
1.37418
1.25594
1.07694
1.01414
0.997081
0.995258
0.994486
0.996457
0.986272
0.975774
0.995506
1.1058
1.35366
1.38447
1.31939
1.13773
1.02463
0.995055
0.98886
0.990522
0.991377
0.995577
0.987138
0.972942
0.984017
1.05456
1.29795
1.39387
1.35576
1.20813
1.04893
0.997178
0.980509
0.982492
0.986328
0.988597
0.994845
0.98781
0.971346
0.977035
1.02072
1.21621
1.38996
1.38098
1.27605
1.0979
1.00494
0.978092
0.972781
0.978158
0.982502
0.986135
0.994264
0.988307
0.970411
0.972863
0.998953
1.13232
1.3696
1.39367
1.33098
1.16258
1.02372
0.979778
0.964499
0.967503
0.974286
0.978961
0.984024
0.993772
0.988656
0.970236
0.970355
0.985703
1.07169
1.3264
1.40713
1.36619
1.22725
1.06312
0.985968
0.961966
0.957045
0.963383
0.970616
0.97578
0.982222
0.993349
0.988804
0.970326
0.96836
0.977804
1.03364
1.25562
1.41012
1.39318
1.28944
1.11693
1.00076
0.963364
0.949637
0.95178
0.959864
0.967247
0.972874
0.980685
0.992984
0.988891
0.970594
0.967134
0.973304
1.00888
1.17655
1.39782
1.41108
1.34098
1.17905
1.03099
0.968354
0.946967
0.941867
0.947971
0.956802
0.964073
0.970181
0.979393
0.992699
0.989047
0.971225
0.966531
0.970732
0.993953
1.10472
1.36598
1.42804
1.38063
1.23855
1.07544
0.979807
0.948083
0.935768
0.936747
0.945051
0.954026
0.960932
0.967823
0.978307
0.992501
0.989159
0.972056
0.966548
0.969242
0.985178
1.06206
1.31527
1.43848
1.41076
1.29791
1.12888
1.00221
0.951972
0.933447
0.928459
0.93342
0.9427
0.951178
0.957937
0.96588
0.97751
0.992422
0.98917
0.972959
0.967104
0.968554
0.979833
1.0347
1.24688
1.43481
1.43446
1.34997
1.18671
1.03622
0.960633
0.934374
0.923572
0.923704
0.931221
0.94055
0.948263
0.955237
0.964388
0.977053
0.992377
0.989236
0.974076
0.968061
0.968561
0.976587
1.01653
1.18141
1.41965
1.45243
1.39489
1.24385
1.08074
0.976438
0.937388
0.921973
0.917203
0.920933
0.929584
0.938355
0.9455
0.953097
0.9632
0.976934
0.992399
0.989365
0.975748
0.969626
0.969139
0.974954
1.00442
1.12498
1.38886
1.46828
1.42868
1.29925
1.1319
1.00106
0.943734
0.922691
0.914007
0.913292
0.91926
0.928238
0.936247
0.943148
0.951414
0.9626
0.977199
0.992573
0.989653
0.978101
0.97211
0.970513
0.9745
0.997062
1.08857
1.34994
1.47812
1.45633
1.35319
1.18531
1.03554
0.954389
0.924748
0.91285
0.909005
0.911262
0.918535
0.927154
0.934292
0.941362
0.950437
0.962975
0.977484
0.99268
0.990095
0.980375
0.975834
0.972977
0.97521
0.993051
1.06569
1.30152
1.47824
1.47803
1.4016
1.23962
1.07783
0.97074
0.928863
0.913328
0.907117
0.906515
0.910885
0.918509
0.92622
0.932838
0.940559
0.951443
0.964692
0.978556
0.99282
0.990585
0.982027
0.979488
0.976953
0.977813
0.99201
1.05189
1.25592
1.4712
1.49759
1.44148
1.29136
1.12506
0.99495
0.935594
0.914595
0.90681
0.904505
0.906339
0.911721
0.919126
0.92565
0.931846
0.940369
0.953322
0.96704
0.980169
0.993289
0.991458
0.984603
0.981434
0.981752
0.982921
0.994325
1.04545
1.22114
1.45679
1.51431
1.47318
1.34286
1.17402
1.02734
0.945539
0.916893
0.907161
0.904508
0.904831
0.90762
0.913802
0.920429
0.9267
0.933247
0.943781
0.957984
0.971011
0.981847
0.993024
0.993056
0.988897
0.983497
0.984725
0.991061
1.00172
1.04577
1.20022
1.44194
1.52691
1.49955
1.39141
1.2225
1.06531
0.960127
0.920355
0.907905
0.905295
0.905487
0.907612
0.911797
0.917048
0.922481
0.927932
0.935413
0.948448
0.964675
0.977137
0.985891
0.993767
0.99515
0.992488
0.989211
0.985379
0.998857
1.01639
1.05456
1.19327
1.43278
1.53681
1.521
1.43504
1.26963
1.10623
0.981473
0.925266
0.908733
0.906924
0.907215
0.909095
0.912914
0.917742
0.922808
0.927948
0.934053
0.943434
0.957931
0.974224
0.985527
0.991702
0.995336
0.997068
0.995985
0.995339
0.991485
0.998607
1.03835
1.07802
1.20002
1.43136
1.54626
1.53838
1.47175
1.31404
1.14846
1.00937
0.932729
0.909727
0.908367
0.910054
0.912901
0.916283
0.920659
0.925286
0.929976
0.935528
0.943954
0.957519
0.974692
0.98815
0.994799
0.996095
0.996718
0.998421
0.99964
1.00151
1.00365
1.00451
1.0449
1.12897
1.23277
1.43974
1.55729
1.55531
1.50072
1.35518
1.1906
1.04138
0.944385
0.911162
0.90946
0.912836
0.918761
0.923431
0.926855
0.931278
0.935534
0.940149
0.947298
0.959679
0.977405
0.995566
1.00714
1.00636
1.00098
0.998164
0.999229
1.00252
1.00814
1.01631
1.02584
1.05506
1.17552
1.31097
1.46869
1.57366
1.57254
1.52461
1.39301
1.23001
1.07654
0.96333
0.913612
0.910499
0.915407
0.924965
0.933341
0.939234
0.942699
0.946988
0.950687
0.955727
0.966407
0.984188
1.00617
1.0258
1.03604
1.02338
1.009
0.998105
0.99931
1.00373
1.01337
1.02855
1.0577
1.09124
1.20863
1.39442
1.52313
1.60069
1.59148
1.5456
1.42545
1.26538
1.11291
0.988365
0.918508
0.911494
0.917692
0.931579
0.946337
0.955219
0.961144
0.966487
0.970668
0.974239
0.982807
0.999328
1.02411
1.04997
1.07365
1.08227
1.05344
1.0031
1.0191
0.99765
1.00342
0.997845
0.997836
1.00298
1.01587
1.03901
1.08862
1.17535
1.2759
1.46921
1.59534
1.63933
1.61591
1.56568
1.45227
1.29715
1.14958
1.01724
0.928361
0.913126
0.91966
0.938056
0.958644
0.97341
0.983893
0.988995
0.995304
1.00234
1.00804
1.02211
1.04842
1.08067
1.10988
1.12944
1.13626
1.054
1.10569
1.02036
0.997155
1.00461
0.996975
0.993124
0.999584
1.01496
1.04635
1.1171
1.27681
1.41591
1.55039
1.67453
1.6912
1.64736
1.58824
1.47401
1.3254
1.18556
1.04953
0.947376
0.917306
0.922011
0.942986
0.97106
0.996604
1.0113
1.01847
1.02349
1.02907
1.03866
1.06199
1.108
1.16902
1.21762
1.22837
1.17853
1.22094
1.1519
1.20861
1.20279
1.06704
1.13149
1.0289
0.996129
1.00411
0.99544
0.989643
0.992806
1.00984
1.04927
1.14101
1.36633
1.56766
1.66278
1.75561
1.75415
1.69003
1.61505
1.49318
1.35072
1.21938
1.08407
0.973901
0.92849
0.926699
0.947965
0.987634
1.02249
1.04577
1.05743
1.0611
1.06966
1.09352
1.15958
1.29793
1.50933
1.7389
1.81286
1.31412
1.61117
1.31255
1.18528
1.30842
1.28688
1.09311
1.15645
1.03352
0.995064
1.00336
0.993844
0.989808
0.988239
1.00298
1.04853
1.16056
1.44237
1.71772
1.79715
1.84639
1.82389
1.74452
1.64756
1.51265
1.37409
1.24889
1.12161
1.01251
0.954822
0.938053
0.95579
0.999447
1.04158
1.08173
1.10762
1.12378
1.14783
1.21435
1.40771
1.87127
2.62456
3.51086
4.32941
2.49843
4.93901
1.63507
2.70006
1.63146
1.24847
1.58357
1.50122
1.10118
1.18368
1.03745
0.994259
1.00259
0.992866
0.99447
0.991568
1.00469
1.05587
1.18634
1.51262
1.85879
1.94493
1.95012
1.89969
1.80686
1.68661
1.5334
1.39641
1.28054
1.17052
1.06906
1.00127
0.965433
0.970433
1.01072
1.0542
1.11048
1.16679
1.21121
1.27242
1.45697
1.98457
3.16833
5.16656
7.52647
9.73011
8.33302
11.2309
5.4637
9.47517
2.73909
5.74645
2.63461
1.38841
2.41426
2.11747
1.1076
1.26865
1.03837
0.99459
1.00271
0.994345
1.00375
1.01079
1.04104
1.10732
1.25271
1.60918
1.98917
2.09534
2.06473
1.98182
1.87492
1.73181
1.55984
1.42449
1.32729
1.23795
1.14733
1.06805
1.01516
1.00325
1.03189
1.07202
1.13673
1.2168
1.30305
1.42398
1.8013
2.93276
5.14457
8.08981
10.4423
11.8056
11.9814
12.5119
11.4884
12.2788
9.73785
11.6271
5.65329
9.78512
5.20592
1.81304
4.45285
3.70076
1.14495
1.51784
1.05242
0.997697
1.00926
1.00217
1.04182
1.07363
1.14763
1.27141
1.46328
1.78361
2.11453
2.23679
2.1835
2.0714
1.94778
1.78365
1.59723
1.46664
1.39164
1.32022
1.23972
1.15703
1.09219
1.06619
1.07534
1.10536
1.16662
1.25572
1.37254
1.57802
2.19845
4.03287
7.16992
10.115
11.5205
12.2494
12.5165
12.5366
12.5803
12.6148
12.355
12.6305
11.6748
12.4076
9.61244
11.637
9.18213
2.94886
8.32344
7.0705
1.26259
2.17857
1.10052
1.00277
1.03735
1.02788
1.11751
1.25608
1.35765
1.53924
1.74019
1.97276
2.23448
2.35802
2.3007
2.17146
2.02523
1.84119
1.64553
1.52475
1.46494
1.41114
1.34893
1.27597
1.2088
1.16514
1.15289
1.17014
1.21652
1.29769
1.42002
1.69579
2.6234
5.10324
8.83037
11.1546
11.9737
12.3235
12.4895
12.5462
12.6017
12.6375
12.6639
12.7218
12.6725
12.7721
12.4372
12.7413
11.4966
12.4064
11.2093
5.34496
10.7071
9.89212
1.58638
3.53278
1.2443
1.02272
1.12549
1.11016
1.1743
1.33117
1.47119
1.66803
1.88588
2.08535
2.30914
2.44218
2.40353
2.27232
2.10346
1.90185
1.70377
1.59563
1.54912
1.52257
1.49434
1.44753
1.38364
1.33276
1.30197
1.29771
1.3157
1.36676
1.46826
1.74899
3.01679
6.07019
9.99498
11.742
12.244
12.517
12.7115
13.0609
12.8137
13.1782
12.9001
13.28
12.9516
13.323
12.9485
13.326
12.8265
13.2172
12.3223
12.9317
12.197
8.48757
11.9701
11.5543
2.36036
6.24569
1.63084
1.10609
1.3564
1.34902
1.22768
1.43046
1.45957
1.6686
1.88873
2.09717
2.31902
2.468
2.46973
2.36033
2.17711
1.96299
1.76918
1.67761
1.65491
1.67588
1.70583
1.70825
1.68612
1.65521
1.62267
1.58379
1.52216
1.50404
1.55233
1.77678
3.16521
6.8567
10.6952
12.0552
12.4284
12.8896
13.5316
14.0754
13.7582
14.3364
13.8692
14.4704
13.8794
14.525
13.8436
14.4715
13.7636
14.4198
13.5415
14.2584
13.0241
13.874
13.1299
10.682
13.1321
12.9599
3.84237
9.19764
2.49133
1.24352
1.9284
1.71003
1.2672
1.49549
1.48532
1.53715
1.783
2.03907
2.28025
2.45178
2.48331
2.41387
2.23947
2.02494
1.8397
1.76985
1.79237
1.90575
2.04833
2.1832
2.28573
2.28844
2.21827
2.10568
1.98394
1.82589
1.72681
1.8385
3.14098
7.1616
11.0962
12.2062
12.5675
13.5295
14.5084
14.9443
14.7952
15.0836
14.891
15.1267
14.9656
15.1906
15.0206
15.3083
15.0498
15.4252
15.0046
15.5732
14.7649
15.5673
14.1721
15.2368
14.4702
12.5512
14.65
14.6748
6.6221
11.6274
4.18816
1.19994
2.98769
2.12115
1.30106
1.52856
1.54795
1.49702
1.57499
1.84516
2.1532
2.384
2.46478
2.42225
2.27685
2.07922
1.90948
1.87168
1.98225
2.26575
2.62845
2.96305
3.09666
3.05698
2.92384
2.74609
2.55877
2.37877
2.16106
2.00281
2.9991
7.1167
11.247
12.259
12.5766
13.8492
15.0565
15.2324
15.3118
15.2499
15.3143
15.2804
15.2798
15.3769
15.3445
15.5831
15.5425
15.8586
15.8929
16.077
16.2935
16.0962
16.5827
15.7016
16.6024
16.0711
14.4674
16.339
16.4699
9.98919
13.9819
7.47624
1.39342
5.14793
3.5133
1.37659
1.54843
1.59184
1.52446
1.5071
1.62883
1.91968
2.22035
2.39724
2.40469
2.28326
2.11331
1.97277
1.98961
2.24777
2.79742
3.38649
3.79959
3.86781
3.77464
3.59513
3.39084
3.15772
2.94157
2.72561
2.47577
2.90775
6.88213
11.2276
12.2413
12.5633
13.7957
14.793
14.957
14.6301
15.2858
15.1397
15.2094
15.0115
15.2091
14.9284
15.4061
15.1236
15.7989
15.5702
16.2805
16.1757
16.7733
16.7958
17.0956
17.3171
17.056
17.6032
17.4674
16.4247
17.8188
18.0788
13.0274
16.1662
11.6341
5.13608
10.1778
9.4849
1.57747
1.58449
1.59466
1.57626
1.51392
1.53597
1.70672
2.00221
2.24307
2.34263
2.2712
2.12246
2.02353
2.11839
2.57598
3.40946
4.16318
4.51503
4.51605
4.36865
4.15275
3.91547
3.68426
3.4518
3.23503
3.02447
3.02488
6.24166
11.0942
12.1822
12.44
13.5223
14.2367
14.3399
13.7292
13.9993
13.6619
14.6865
14.3411
14.5617
14.1663
14.8109
14.4761
15.3145
15.0376
15.9921
15.826
16.7818
16.8025
17.462
17.6825
17.9073
18.2576
18.1101
18.5347
18.6068
18.1997
19.073
19.4778
15.6518
18.153
15.1496
6.67464
14.7757
16.8738
2.04076
1.67166
1.58483
1.58908
1.55089
1.52941
1.58969
1.80205
2.05872
2.21209
2.2265
2.11599
2.05334
2.2323
2.90523
3.99353
4.81889
5.07999
5.02163
4.82748
4.58292
4.32907
4.09374
3.87273
3.66368
3.47725
3.38983
5.4614
10.773
12.0654
12.1646
13.0846
13.4863
13.1226
12.5026
13.2261
12.4395
13.5112
13.2676
13.8463
13.6429
14.1309
13.8128
14.7424
14.4338
15.6683
15.4996
16.8499
16.8747
18.0015
18.345
18.8136
19.545
19.1177
20.0892
19.1609
19.9747
19.7624
19.7922
20.3174
20.8233
18.0014
20.049
17.5981
14.2757
17.7127
20.0137
2.03382
1.63387
1.598
1.59636
1.54406
1.56152
1.6698
1.88757
2.06528
2.12767
2.08611
2.05826
2.31251
3.18148
4.48726
5.32154
5.50688
5.39556
5.1648
4.89118
4.63194
4.40029
4.19548
4.00441
3.83846
3.7283
4.94646
10.0624
11.9486
11.8806
12.6767
12.9638
11.0625
11.5362
10.6286
12.5997
11.3012
13.4863
13.2536
13.5921
13.5177
14.1326
13.9104
15.2972
15.0744
16.8444
16.7435
18.5894
18.6351
20.2246
20.6246
21.2877
22.3309
21.3525
23.0518
20.7672
22.5189
21.4357
21.3122
21.9624
22.3897
19.983
21.6909
19.3276
16.4119
18.7117
20.5203
2.02316
1.66811
1.63379
1.59222
1.56502
1.61494
1.75729
1.92354
2.01179
2.01035
2.04263
2.34467
3.36667
4.85052
5.67367
5.81016
5.67136
5.41539
5.11341
4.84069
4.60916
4.41572
4.24851
4.10404
4.00412
4.69256
9.02411
11.7785
11.558
12.2863
12.6214
10.9466
9.21462
9.24001
10.103
9.39103
12.3211
10.4748
14.1181
13.7097
13.8888
14.0332
14.8802
14.831
16.5455
16.326
18.5447
18.3047
20.7226
20.5383
22.8744
22.7903
24.43
24.9078
24.6819
26.3301
23.5023
26.0753
24.1727
22.786
24.5137
24.6052
21.5305
22.9666
20.301
21.9439
19.1865
22.6988
2.06772
1.72297
1.64615
1.58324
1.60923
1.67874
1.80275
1.89666
1.91134
1.98142
2.338
3.44029
5.07125
5.90647
6.02592
5.8836
5.60154
5.25859
4.95246
4.71763
4.54117
4.39755
4.27522
4.19968
4.6053
7.90995
11.4745
11.2122
11.8836
12.3708
11.0629
9.31261
8.48127
8.65985
9.04548
8.49668
12.1337
9.78931
14.9659
13.9371
14.9546
15.1778
16.1711
16.1512
17.9713
17.6713
20.1239
19.5644
22.3103
21.5667
24.4795
23.6428
26.5731
25.8685
27.9219
28.0619
27.2829
29.1678
27.9587
24.5577
28.1192
28.0393
26.1221
22.6362
23.4402
24.3785
21.2464
24.1729
19.778
27.2368
2.08248
1.73857
1.6291
1.61513
1.6513
1.71182
1.79242
1.80926
1.88348
2.27156
3.43156
5.15297
6.04106
6.17412
6.04389
5.74067
5.359
5.01031
4.75304
4.58354
4.46079
4.36232
4.31384
4.57156
6.95152
11.0032
10.9858
11.4782
12.1437
11.2796
9.82626
8.62761
9.01641
8.02263
8.29312
8.3314
7.90714
11.5975
8.99735
15.2463
13.7091
16.1668
15.9436
17.3939
17.088
18.9957
18.4607
20.7851
20.0284
22.6981
21.6794
24.8164
23.4248
27.1476
25.8011
29.3189
28.3952
30.2828
30.1806
30.2275
29.6749
30.8931
27.9841
25.7255
27.5911
29.9473
31.5145
31.4116
29.9122
22.788
23.7177
24.1639
25.3769
23.2217
21.2776
22.3619
24.6855
20.75
20.6271
21.5513
21.5889
31.1201
24.7754
2.04621
1.71451
1.63391
1.65137
1.66438
1.70183
1.71399
1.77877
2.13238
3.30576
5.13454
6.09162
6.26627
6.15633
5.84156
5.44693
5.05725
4.76195
4.57966
4.46386
4.38015
4.34813
4.54677
6.25831
10.3712
10.8416
11.0799
11.9289
11.4627
10.2434
9.29987
8.18043
8.60637
7.5072
7.83436
7.67103
7.34555
10.6381
7.97955
15.061
12.7932
16.715
16.1395
17.9269
17.3911
19.3041
18.6038
20.6294
19.6021
21.9067
20.4467
24.1002
22.5001
27.2587
26.4555
25.6684
25.0071
29.7396
29.2535
27.1604
27.8259
28.4235
30.82
31.2869
31.37
30.3118
31.7529
29.7351
27.184
29.3884
31.6278
32.5121
32.161
31.6588
24.4157
24.9959
26.6914
23.7889
22.8931
32.1526
32.95
21.3182
22.0222
21.9705
24.2051
1.97281
1.68469
1.66044
1.6548
1.63967
1.62776
1.67757
1.9758
3.0375
4.96252
6.08349
6.30386
6.22187
5.91157
5.56627
5.15659
4.78965
4.5696
4.44669
4.37251
4.34547
4.50635
5.79178
9.60894
10.6662
10.7542
11.6978
11.5742
10.5644
9.80282
8.33363
8.73294
7.4937
7.85922
6.77824
7.11299
6.8905
6.64278
9.11833
6.78097
14.1414
11.1019
16.7595
15.8037
17.8648
17.0519
18.6641
17.7745
19.1425
18.0269
20.9466
19.4624
24.3385
23.8336
23.2728
22.7626
26.342
25.8684
25.4743
29.7557
29.0697
27.1874
28.1746
28.4779
30.9361
31.8246
31.564
30.3791
32.2998
31.5325
28.8914
31.1999
32.767
32.7424
33.1263
32.9582
26.1065
25.3695
28.2667
24.5459
23.5667
26.966
30.5383
59.2119
58.538
22.6297
21.898
22.1941
23.3003
1.87613
1.68825
1.65807
1.61486
1.56063
1.58455
1.82107
2.72645
4.57959
6.00098
6.3008
6.24966
5.96439
5.73034
5.39094
4.91897
4.60147
4.44544
4.36501
4.33721
4.48668
5.48877
8.84041
10.4382
10.4926
11.4283
11.6236
10.838
10.158
9.12624
9.42133
7.46433
7.96681
6.56946
7.00736
5.86651
6.16596
5.98302
5.78166
7.33663
5.67469
12.4514
8.78547
16.0857
14.7112
16.8585
15.8921
17.0839
16.2155
18.0914
16.8996
22.1711
21.5011
20.7833
19.9659
25.2286
25.0124
24.7794
24.4531
26.9737
26.9298
26.9905
29.7381
29.2448
28.1702
29.3313
29.1448
31.0112
32.1267
31.6391
30.4224
32.6593
33.0269
30.6929
32.8592
33.4718
33.1348
33.5477
33.7739
27.4955
26.5649
29.9827
25.533
24.4307
22.417
28.878
65.351
79.6963
23.3551
22.3668
22.14
1.80674
1.67586
1.61266
1.52645
1.50465
1.67956
2.41315
4.09115
5.77336
6.25527
6.25354
5.98881
5.86254
5.66982
5.29919
4.7996
4.51418
4.38608
4.34681
4.49372
5.38361
8.20494
10.1094
10.26
11.1606
11.6281
11.0747
10.4428
9.58087
8.39708
8.89684
6.42877
6.9107
5.52872
5.95325
4.91292
5.15587
5.09153
4.90185
6.24997
5.22388
10.2959
7.30367
14.7218
13.0058
15.2319
14.1946
15.8767
14.9224
19.1599
18.2885
17.5055
16.7261
23.9828
23.3518
22.5657
21.6484
27.1299
27.2262
27.2065
27.0066
28.4172
28.835
29.3116
30.0502
30.0267
29.8723
31.1961
30.4007
31.0771
32.223
31.6952
30.77
32.7796
33.9997
32.4118
34.0996
33.9399
33.3
33.7977
34.3237
29.0586
27.9581
31.6774
26.7505
25.4595
21.9718
22.4663
35.6442
65.8349
76.6622
24.1511
22.817
1.75099
1.6233
1.51856
1.45035
1.55469
2.12101
3.56679
5.40614
6.12059
6.23113
5.98587
5.9046
5.87751
5.74185
5.32829
4.78265
4.50023
4.40752
4.5427
5.39695
7.77786
9.73996
10.0184
10.9033
11.6
11.2615
10.711
9.91493
8.34612
8.59285
7.39582
7.84843
5.30035
5.7543
4.55498
4.87474
4.36693
4.39264
4.71381
4.45468
5.83096
5.09577
8.8328
6.86023
12.9595
11.0974
13.9266
12.9779
15.8171
14.6746
20.6341
19.5654
18.4945
17.4554
26.5631
25.8764
24.9594
23.8679
29.7483
30.0449
30.0824
29.9356
30.5979
31.3769
32.1222
30.7957
31.3378
32.1793
33.5273
32.3034
31.4091
32.26
31.9755
31.4515
32.8088
34.7098
33.8693
35.0277
34.3137
33.3701
33.9897
34.8219
30.7034
29.519
33.2527
28.1103
26.5576
23.2951
22.0851
23.23
34.9704
78.2243
56.0915
24.9565
1.67188
1.52662
1.41367
1.46374
1.86324
3.04916
4.90272
5.88162
6.14023
5.95523
5.89441
5.96805
6.11823
5.93746
5.44597
4.87971
4.6036
4.68468
5.47885
7.57808
9.43024
9.78259
10.65
11.5301
11.392
10.9496
10.2402
8.63709
7.22896
7.76073
6.22562
6.71468
4.45248
4.75611
4.15386
4.25488
4.1829
4.13358
4.61219
4.32166
5.74148
5.10474
8.46052
6.83254
11.8234
10.2471
13.6222
12.7072
17.9214
16.893
15.3029
16.0994
22.6562
21.3985
20.1536
18.9813
29.3711
28.5254
27.3848
26.0355
32.7324
33.1118
33.1408
32.9407
33.2242
34.2528
35.1631
32.0766
33.1771
34.8161
36.1196
34.5948
32.0044
32.4723
32.4568
32.5893
32.9832
35.4016
35.0923
36.0285
34.7038
33.6081
34.4251
35.4652
32.388
31.1
34.7836
29.4504
27.6216
25.732
23.8529
22.4467
23.6861
29.8004
68.982
40.1201
1.56096
1.41113
1.39057
1.66557
2.57204
4.27796
5.56966
5.95161
5.90345
5.80395
5.95789
6.30131
6.42864
6.15287
5.6491
5.13505
5.01262
5.68729
7.54138
9.15072
9.58757
10.4457
11.4347
11.4779
11.1404
10.5395
9.03752
6.6562
6.81444
5.88075
6.29339
5.1173
5.48943
4.11465
4.23464
4.03737
4.0488
4.15184
4.06909
4.62999
4.32014
5.90275
5.37504
8.71649
7.43723
11.6233
10.2175
14.7533
14.1897
13.7081
19.0953
17.9944
16.1679
17.0262
24.57
23.0849
21.6483
20.3121
32.2096
31.1208
29.6703
27.9847
35.8754
36.2949
36.3232
35.9748
36.0913
37.2778
38.3025
33.7918
35.3314
37.6481
38.872
37.0733
32.9552
32.9158
33.3046
34.068
33.5169
36.4476
36.3901
37.3377
35.4556
34.3582
35.4809
36.7497
33.9122
32.4801
36.0687
30.6507
28.5842
26.4526
24.4199
22.8842
23.3015
26.0044
74.083
49.7735
1.42836
1.36099
1.50695
2.18018
3.61857
5.16441
5.70619
5.79723
5.57725
5.8311
6.30323
6.68098
6.72704
6.44332
5.97172
5.64424
6.04559
7.55485
8.8671
9.38246
10.2866
11.3413
11.5347
11.2904
10.7772
9.47761
6.70863
5.48976
5.87492
4.88379
5.16196
4.40965
4.64317
4.00651
4.03351
4.02583
4.00578
4.25204
4.09465
4.88078
4.50761
6.60693
6.09214
9.88372
8.77062
12.5898
11.2272
15.4318
14.7505
15.0729
14.3712
20.0853
18.9625
17.147
17.9885
26.2018
24.4479
22.8198
21.3646
35.1168
33.7386
31.9018
29.7795
39.0933
39.5789
39.6199
39.2533
39.0956
40.407
41.5299
35.635
37.5318
40.6206
41.6805
39.5786
34.2841
33.808
34.6165
35.7709
34.6119
38.0022
37.5177
38.5234
37.068
35.7648
37.4884
38.5849
35.1029
33.6294
37.076
31.6993
29.4062
27.0887
24.9322
22.9908
22.8962
28.0029
44.3989
53.9927
1.35351
1.41121
1.86626
3.01877
4.62837
5.41486
5.62626
5.44894
5.47117
6.13483
6.69809
7.03931
7.0969
6.83031
6.47082
6.54186
7.61693
8.69533
9.23187
10.1841
11.2709
11.5703
11.4157
10.9738
9.84773
7.19318
4.81738
4.89055
4.56119
4.69854
4.31549
4.43655
4.08952
4.18819
3.98898
3.96915
4.11629
4.02489
4.61797
4.30643
5.52757
5.01978
7.94691
7.43549
11.6473
11.0658
13.7833
13.0975
12.7053
16.4141
15.7455
15.8666
15.1665
20.7707
19.6568
17.926
18.721
27.5796
25.49
23.6458
22.0839
38.2553
36.6047
34.3194
31.6344
42.444
43.0107
43.0629
42.8095
42.2432
43.6807
44.9666
37.6857
39.913
43.7121
44.7517
42.3079
35.969
35.2904
36.4106
37.7897
36.3343
39.346
38.5603
39.8349
39.1663
38.1119
39.816
40.1127
36.1774
34.6836
38.2574
32.5451
30.0914
27.6922
25.338
23.1481
23.2302
29.1135
49.179
45.5109
1.35713
1.65067
2.50441
3.98021
5.07233
5.40411
5.33482
5.15518
5.55832
6.52613
7.07762
7.47232
7.53907
7.33959
7.23357
7.77842
8.68634
9.22471
10.1748
11.2408
11.6097
11.523
11.1431
10.1547
7.66605
4.71852
4.3104
4.41498
4.15878
4.22192
4.04451
4.10862
3.95356
3.96296
4.02339
3.95806
4.38931
4.14959
5.30214
4.75852
6.75064
5.99385
10.3874
9.83906
13.9269
13.9216
14.7022
14.4161
13.7047
14.0329
14.4539
17.2228
16.5493
16.9393
16.3538
21.2102
20.1501
18.6615
19.3214
28.8649
26.3246
24.2047
22.5351
41.6635
39.8396
37.2047
33.932
46.027
46.7033
46.807
46.5803
45.6037
47.2574
48.7173
40.0508
42.6454
47.1177
48.3053
45.4479
38.0613
37.309
38.765
40.234
39.014
41.1203
40.1149
42.016
40.9429
40.6505
41.9825
42.556
37.2909
35.5294
39.6112
33.2803
30.75
28.1594
25.6794
23.4477
24.0687
27.928
55.0698
57.9706
1.49453
2.12322
3.33247
4.637
5.13924
5.20254
4.99988
5.01702
5.81528
6.90407
7.53177
7.9425
8.05643
8.02381
8.17456
8.76472
9.28741
10.2203
11.2457
11.643
11.6094
11.2892
10.3977
8.04151
4.95824
3.65904
3.85215
3.84919
3.85293
3.85324
3.80926
3.84236
3.90519
3.83817
4.15589
3.99073
4.82219
4.41466
6.50117
5.46425
8.94384
7.76205
14.4718
13.849
15.5162
15.1384
18.1457
18.3208
15.7325
15.1111
16.0322
16.476
18.0823
17.5173
18.1069
17.6866
21.5108
20.5419
19.4052
19.8974
30.3704
27.1688
24.6459
22.8276
45.413
43.4331
40.541
36.818
49.9282
50.7333
50.8908
50.7034
49.3358
51.2732
52.9458
42.8938
45.9434
51.0765
52.6537
49.2672
40.7835
40.316
42.1486
43.4249
41.7962
44.1156
41.911
44.3968
44.2757
43.3491
46.4218
46.5128
38.2518
36.3786
40.8898
34.0056
31.2341
28.5165
26.0374
24.0464
24.3387
29.0564
42.9484
55.6855
1.79859
2.80869
4.08048
4.83358
5.03986
4.9127
4.73568
5.0087
6.11542
7.35077
8.00308
8.44553
8.67875
8.83183
9.06486
9.50612
10.3763
11.2863
11.6803
11.6745
11.4055
10.5741
8.2869
5.08827
3.72442
3.33532
3.63086
3.27036
3.62987
3.64325
3.63372
3.69979
3.65336
3.90159
3.79682
4.38904
4.10124
5.45244
4.7977
8.75919
6.73021
12.6941
10.9241
19.9228
19.6088
18.5494
18.2917
20.7923
20.4378
17.2747
16.8867
18.7309
18.8703
18.9726
18.5437
19.6175
19.3863
21.8368
21.024
20.3753
20.6295
32.5778
28.4785
25.2429
23.1494
49.6153
47.4753
44.4254
40.3458
54.3113
55.2649
55.4841
55.3498
53.6692
55.9584
57.9307
46.647
50.3203
55.931
58.362
54.3259
44.6002
43.4127
45.6692
47.7418
45.2021
47.2039
43.7332
47.0091
49.3005
49.1304
52.6455
50.445
39.3775
37.1972
42.4948
34.5059
31.6783
28.951
26.5788
24.4136
24.6238
29.2303
44.6082
45.8423
2.2724
3.55668
4.46723
4.82714
4.83123
4.6422
4.57316
5.06837
6.46269
7.79196
8.47837
8.99317
9.36468
9.64276
10.0262
10.7259
11.3992
11.7232
11.727
11.4746
10.6705
8.38456
5.1606
3.72668
3.13847
3.34807
3.16339
3.14672
3.38519
3.49638
3.43923
3.66005
3.55934
3.93689
3.79167
4.66394
4.24694
6.51431
5.27612
12.6814
9.13073
18.1948
15.8787
24.3042
24.4017
26.0779
21.164
21.0643
24.5929
24.5413
19.2007
19.0279
21.1704
21.1471
20.1348
19.8665
21.2765
21.1903
22.3836
21.8105
21.6391
21.6993
35.5431
30.6331
26.525
23.8286
54.3186
52.1595
49.0102
44.7165
59.4806
60.5922
60.9019
60.8395
58.98
61.7103
64.0952
51.5639
55.952
62.2405
65.7402
60.7752
48.7045
47.7914
51.3146
52.6103
52.6267
50.9208
46.0401
50.3821
54.4416
56.8443
59.6121
55.9259
40.4048
37.8498
43.9794
35.2163
32.366
29.574
26.8641
24.677
24.8319
27.5996
54.6296
47.0334
2.87648
4.09527
4.57806
4.72113
4.61666
4.45621
4.47848
5.14874
6.77186
8.20715
8.98151
9.55202
10.023
10.4651
11.0257
11.4993
11.7491
11.7388
11.4823
10.6731
8.27391
5.1208
3.67102
3.11108
2.9391
2.87279
3.21425
3.04357
2.97456
3.27846
3.42557
3.35218
3.64074
3.51352
3.99998
3.80246
4.96285
4.41302
8.51891
6.03104
18.2409
13.2723
24.7227
22.106
27.6297
27.1643
30.7133
30.4405
24.3038
24.4943
27.6606
27.7512
21.159
21.1451
24.0677
23.829
21.523
21.3927
23.2465
23.3119
23.6715
23.1984
23.1834
23.1597
39.4801
33.8069
28.7115
25.2202
59.9033
57.7695
54.6109
50.2851
65.9414
67.2343
67.6785
67.6996
65.8705
69.236
72.1801
57.6357
63.6428
70.5566
77.4306
70.4343
55.9808
57.0165
62.5269
61.9941
62.0633
56.1078
48.5176
54.7626
62.4403
66.1558
70.4406
63.381
41.5804
39.1857
46.3274
36.3038
33.1547
29.9965
27.3427
24.8857
24.577
26.0574
38.8444
61.752
3.47183
4.32738
4.58492
4.60976
4.4642
4.31933
4.3779
5.20143
6.9415
8.55158
9.46036
10.0789
10.6163
11.1176
11.5062
11.7372
11.72
11.4378
10.525
7.88896
4.9489
3.56861
3.00137
2.76773
2.8266
2.79414
3.11835
2.95484
2.89035
3.18181
3.3516
3.26586
3.62699
3.47294
4.07194
3.82703
5.37982
4.58219
12.0879
7.35658
24.2211
18.8192
30.8318
28.1956
31.4185
31.2795
33.8688
32.9995
27.2845
27.4895
31.2935
31.3957
23.4173
23.6492
26.9948
26.7114
23.1858
23.1797
25.6372
25.8376
25.7387
25.2596
25.3126
25.2333
44.8419
38.5888
32.3763
27.6867
66.8926
64.84
61.7784
57.6292
74.4567
76.0396
76.6674
76.7917
75.1606
79.5594
83.4263
69.5075
78.9504
83.749
102.351
89.5384
69.8162
68.6612
78.5142
79.557
74.7986
62.4936
52.7737
60.3223
71.9
81.0226
83.045
71.1094
43.9618
40.7295
49.7797
37.2617
33.8158
30.8646
27.6468
24.9513
24.1559
27.0366
188.73
105.353
3.91443
4.42055
4.5845
4.54722
4.3447
4.15815
4.21681
5.15894
6.97246
8.75226
9.78763
10.4845
11.0273
11.4269
11.6509
11.6197
11.2645
10.066
7.21945
4.62125
3.41624
2.89583
2.63835
2.53843
2.72493
2.65546
3.02423
2.86555
2.79223
3.10181
3.30573
3.20079
3.61592
3.44609
4.15031
3.8514
6.0256
4.75029
16.9174
9.52025
28.8241
24.0351
35.2321
33.8951
32.7681
34.5931
34.3427
37.1051
36.3456
30.9339
31.1348
34.8369
34.7774
26.0773
26.4229
30.5911
30.2579
25.3943
25.4613
28.7576
29.1017
29.0569
28.2636
28.2647
28.1853
52.2492
45.7891
38.7058
32.3511
76.2055
74.3191
71.4705
67.5739
86.5573
88.6665
89.6026
89.8378
89.637
95.6272
102.33
93.9735
115.657
113.734
173.764
148.282
92.2802
89.4498
113.995
114.346
100.362
68.8215
56.5809
65.0289
82.5257
104.395
105.013
80.6836
45.7836
41.9797
52.0642
38.4352
35.2824
31.4392
28.136
25.1101
24.2135
34.7357
350.305
155.839
4.21221
4.52441
4.65553
4.51407
4.19435
3.89233
3.92039
4.95992
6.75846
8.63443
9.87689
10.6309
11.1181
11.3651
11.2969
10.7613
9.05004
6.3141
4.18835
3.22248
2.77423
2.52264
2.39706
2.36262
2.57955
2.63178
2.94969
2.78912
2.70571
3.03869
3.2576
3.14079
3.59948
3.41493
4.21505
3.87059
6.97967
4.97537
21.1642
12.5811
31.1335
26.7551
37.4972
36.0186
36.1403
33.5435
38.1603
37.7382
39.8683
38.7393
34.653
34.7913
38.5936
38.4721
29.4002
29.8504
34.3518
34.0754
28.3515
28.5821
32.6862
33.0269
34.6509
32.6015
32.1226
32.1013
62.4899
56.1828
48.8335
40.945
89.6577
87.8176
85.2074
81.5324
106.686
110.022
110.887
111.236
127.064
146.28
170.341
146.125
177.93
173.861
407.559
175.436
151.513
139.55
180.518
181.801
146.506
77.5775
60.681
73.3256
103.619
149.802
150.069
100.686
48.1444
44.5508
57.2898
40.9777
36.3281
32.5681
28.6758
25.4464
25.5927
44.3908
250.772
114.257
4.49544
4.72075
4.72337
4.42926
3.91388
3.40811
3.48116
4.61759
6.29464
8.03248
9.3862
10.2093
10.5502
10.3956
9.43288
7.45329
5.23933
3.71804
3.00545
2.63972
2.41485
2.2779
2.23107
2.32182
2.48395
2.4311
2.23458
2.56377
2.87645
2.73625
2.65077
2.97371
3.21539
3.08159
3.58045
3.38416
4.25083
3.87281
8.17538
5.25093
22.5633
15.589
33.0675
34.842
30.348
27.384
39.7091
37.9367
37.0142
41.3066
40.7335
42.7375
41.3637
38.5195
38.5947
41.9418
41.7163
33.2859
33.6617
38.323
38.2063
32.2218
32.4842
37.4148
37.6251
46.103
39.6607
37.1162
37.6593
76.6094
70.4775
63.6114
55.1962
111.013
108.88
106.117
102.191
166.473
169.611
165.099
160.731
188.816
196.208
373.745
193.584
419.604
412.529
802.019
418.818
177.625
191.565
456.958
442.12
201.128
95.6992
73.8917
101.388
149.162
205.618
208.301
147.123
53.6483
48.6249
66.9149
42.7597
38.5227
33.6339
29.4273
26.2074
28.2634
54.44
198.666
136.224
4.8494
4.88583
4.70168
4.16087
3.36355
2.71581
3.07106
4.16906
5.52572
6.85783
7.89702
8.41472
8.19787
7.24607
5.68434
4.20362
3.26859
2.78121
2.49711
2.30415
2.17355
2.11333
2.10545
2.36352
2.24685
2.49905
2.19541
2.827
2.66819
2.58011
2.92884
3.182
3.03928
3.56105
3.35298
4.27438
3.86289
8.95072
5.51097
22.5649
16.4673
35.2477
32.6925
30.4524
28.2904
25.7946
41.6027
39.3767
37.9953
44.4385
43.7607
45.2775
43.5978
42.2132
42.144
45.3713
44.9498
37.7972
37.9394
42.291
42.4863
37.0875
37.2293
42.7291
42.7383
65.0614
56.2392
44.2453
47.4527
97.1778
89.722
82.5815
76.612
154.375
147.509
140.767
131.89
382.631
372.556
374.346
363.251
400.505
402.359
767.937
436.793
823.325
805.526
2439.48
798.015
450.001
463.299
852.409
839.928
472.828
152.237
84.3025
111.101
213.597
476.179
481.265
203.126
58.8883
51.6501
73.0483
46.816
40.2271
35.02
30.4646
27.5079
33.475
56.7586
155.959
137.662
5.11657
4.92076
4.46244
3.52884
2.46104
2.24019
2.73973
3.55162
4.4675
5.2781
5.71639
5.6285