/*--------------------------------*- C++ -*----------------------------------*\
  =========                 |
  \\      /  F ield         | OpenFOAM: The Open Source CFD Toolbox
   \\    /   O peration     | Website:  https://openfoam.org
    \\  /    A nd           | Version:  dev
     \\/     M anipulation  |
\*---------------------------------------------------------------------------*/
FoamFile
{
    version     2.0;
    format      ascii;
    class       volScalarField;
    location    "2500";
    object      p_rgh;
}
// * * * * * * * * * * * * * * * * * * * * * * * * * * * * * * * * * * * * * //

dimensions      [1 -1 -2 0 0 0 0];

internalField   nonuniform List<scalar> 
10028
(
0.00448359
0.00597745
0.00521665
0.006163
0.00885237
0.00437439
0.00583241
0.010171
0.00858501
0.00356665
0.00526691
0.0107355
0.0121335
0.00751933
0.00275091
0.00440535
0.0100209
0.0134681
0.0115086
0.00638185
0.00186674
0.0041187
0.00988982
0.0142017
0.0140371
0.00972579
0.00526216
0.00138464
0.00330267
0.00816105
0.0133869
0.0154305
0.013095
0.00856223
0.00419665
0.000741186
0.00330494
0.00783403
0.0132682
0.0165471
0.0154989
0.0118942
0.00694608
0.00314675
0.000297469
0.00258603
0.00736307
0.0126977
0.0164419
0.0169724
0.014575
0.0101243
0.00603624
0.00264067
-0.00029399
0.00257522
0.00649871
0.0115463
0.0154671
0.0178358
0.0163693
0.0128723
0.00841541
0.00499859
0.00209015
-0.000648344
0.00213003
0.00594716
0.0105272
0.014737
0.0182932
0.0181198
0.0152816
0.0113308
0.00746803
0.00409305
0.00145861
-0.00112455
0.00173612
0.00477221
0.00948057
0.0138632
0.0179161
0.0189514
0.017314
0.01386
0.00989595
0.0064005
0.00352134
0.000892603
-0.00151124
0.00150223
0.00466651
0.00801773
0.0129521
0.0171027
0.0191226
0.0186435
0.0158871
0.0122276
0.00861248
0.0055985
0.00290747
0.000358244
-0.00189115
0.00135477
0.00387552
0.00693588
0.0121934
0.015931
0.0188765
0.0193886
0.0177331
0.0142603
0.0106384
0.00766508
0.00479047
0.00222136
-5.92637e-05
-0.00224948
0.000898328
0.00355485
0.00675676
0.0109588
0.0146354
0.0183876
0.0196957
0.0189079
0.0162157
0.0130272
0.00951664
0.00669466
0.00420309
0.00183839
-0.000449627
-0.00261711
0.000720326
0.00297737
0.0056013
0.00892443
0.0130249
0.017622
0.0195668
0.0196469
0.0179134
0.0148439
0.0116102
0.00871939
0.0061669
0.00369093
0.00137326
-0.000845294
-0.0028947
0.000438741
0.0025194
0.00515941
0.00826581
0.0124445
0.0165766
0.0190563
0.0200534
0.0190297
0.0164464
0.0133758
0.0105211
0.00784217
0.00551672
0.00321393
0.000968598
-0.00111102
-0.00317078
5.9419e-05
0.00177921
0.0043602
0.00686316
0.0108704
0.0150891
0.0183932
0.0199434
0.0196506
0.0179271
0.0150983
0.0122669
0.00969169
0.00723114
0.00497852
0.00275594
0.000540631
-0.00134723
-0.00330221
-0.000271119
0.00152002
0.00349687
0.00588861
0.00975923
0.0127862
0.0174457
0.0195357
0.0200615
0.0188202
0.0165517
0.0138264
0.0112779
0.00879851
0.00663076
0.00452537
0.00240216
0.00034171
-0.00163967
-0.00347913
-0.000539855
0.0010524
0.00278908
0.00521772
0.00780434
0.0118071
0.0164327
0.0187976
0.019933
0.0195667
0.0177018
0.0152231
0.0127308
0.0104529
0.00825417
0.00617455
0.00404591
0.0019384
7.59057e-05
-0.00186482
-0.00369901
-0.000919751
0.00053376
0.00218636
0.00456871
0.00709227
0.0108303
0.0146926
0.0178987
0.019511
0.0197562
0.0185794
0.0164365
0.0140389
0.0118042
0.00974508
0.00762619
0.00574878
0.00367079
0.00164741
-0.00012637
-0.00200141
-0.00370689
-0.00109476
6.03282e-05
0.00169084
0.00355231
0.00585242
0.00907633
0.013345
0.0166956
0.0188385
0.019675
0.0190845
0.0174304
0.0151812
0.0130756
0.0110584
0.00919834
0.00724202
0.00538384
0.00340414
0.00147945
-0.000303301
-0.00211423
-0.00381994
-0.00137211
-0.00037902
0.000970694
0.00267907
0.00483914
0.00791399
0.0115837
0.0152602
0.0178476
0.0192319
0.0192979
0.0180843
0.0161388
0.0141778
0.0122836
0.0104328
0.00872327
0.0067997
0.00496306
0.00298034
0.00130787
-0.00043196
-0.00213504
-0.00376019
-0.00163331
-0.000814086
0.000320674
0.00196051
0.0039626
0.00662648
0.0100072
0.0137696
0.0167019
0.0185166
0.0191069
0.0185376
0.0170183
0.0150784
0.0133342
0.0115976
0.010022
0.00825185
0.00663561
0.00472176
0.00288989
0.00115848
-0.000631948
-0.00227473
-0.00373079
-0.00192543
-0.00129814
-0.000195258
0.00120681
0.00296262
0.00534979
0.00841403
0.0120624
0.015311
0.0175267
0.0185841
0.0185755
0.0175429
0.0159332
0.0142338
0.0127162
0.0111792
0.00965904
0.00806885
0.00639822
0.00452192
0.00278172
0.000976176
-0.000607601
-0.00225392
-0.00365901
-0.00227009
-0.00171923
-0.000823623
0.000380213
0.00202469
0.00413177
0.00703216
0.0104445
0.0138382
0.0163412
0.017845
0.0182267
0.0177275
0.0163843
0.0149909
0.0136322
0.0122227
0.0109478
0.00940043
0.00781781
0.00612565
0.00430374
0.00268648
0.000923611
-0.00066209
-0.00220242
-0.00361621
-0.00249682
-0.00206907
-0.00137492
-0.000245167
0.00113793
0.00305045
0.0055809
0.00881715
0.0121617
0.0149482
0.0168298
0.0176947
0.0176033
0.0168185
0.0154643
0.0141987
0.0131026
0.0119359
0.0104892
0.00913114
0.0076583
0.00598931
0.00412632
0.00249691
0.000837848
-0.000776582
-0.00213225
-0.00342042
-0.00282045
-0.00240048
-0.00183545
-0.000935719
0.000221318
0.00198768
0.00427784
0.00725959
0.0104861
0.0134123
0.0155626
0.0168949
0.0172457
0.0167964
0.01579
0.0147986
0.0136902
0.0126999
0.0117098
0.0103311
0.00897238
0.00739349
0.00587442
0.00403023
0.0023258
0.000756149
-0.000717584
-0.00209149
-0.00323877
-0.00308958
-0.00271504
-0.00236536
-0.00167887
-0.000553419
0.00100474
0.00300758
0.00576878
0.00881399
0.0117268
0.01411
0.015779
0.0165134
0.0164699
0.0159459
0.0150526
0.0141636
0.0134186
0.0125222
0.0115148
0.0103185
0.00881127
0.00725444
0.00553942
0.00387302
0.00223285
0.000677394
-0.000761707
-0.00201527
-0.00298223
-0.00342255
-0.00315058
-0.00272453
-0.00218698
-0.00135482
-2.83282e-05
0.00179366
0.00428381
0.00720704
0.0100336
0.012494
0.0143941
0.0154795
0.0158997
0.0156523
0.0150799
0.0144275
0.0137724
0.0131185
0.0124079
0.0113544
0.0101794
0.00874374
0.00712244
0.00544646
0.00376643
0.0021155
0.000600727
-0.000740075
-0.00188299
-0.00276872
-0.00376435
-0.00342211
-0.00312367
-0.00265726
-0.00212671
-0.000922776
0.000654541
0.00296909
0.00562925
0.00833007
0.0108153
0.0128606
0.0142624
0.014926
0.0150368
0.0147941
0.0144454
0.0140362
0.0136307
0.0131329
0.0123883
0.0114098
0.0101762
0.00869294
0.00703831
0.00534054
0.00362539
0.00200182
0.000545016
-0.000709893
-0.00170968
-0.00247672
-0.00408126
-0.00374937
-0.00348828
-0.00316218
-0.00264648
-0.00171428
-0.000356076
0.00167474
0.00407768
0.00658825
0.00902223
0.0111346
0.0127198
0.0137208
0.0141882
0.0142752
0.0141979
0.0140845
0.0139381
0.0136957
0.0132369
0.0125186
0.0115015
0.0102076
0.00864312
0.00694948
0.00519585
0.00347269
0.00187634
0.000486084
-0.000620224
-0.00148912
-0.00216067
-0.00449748
-0.0041258
-0.00376754
-0.00348732
-0.00296327
-0.00232782
-0.00122087
0.000439128
0.00264859
0.00499034
0.00729114
0.00937186
0.0110476
0.0122486
0.0130264
0.0134217
0.0136466
0.0138344
0.0139855
0.0140307
0.013878
0.0134548
0.0127034
0.011608
0.0102131
0.00859125
0.00682105
0.00501852
0.00328431
0.00172573
0.000473734
-0.000477229
-0.00120017
-0.00242194
-0.0049175
-0.00445473
-0.00411407
-0.0037999
-0.00336294
-0.00275837
-0.00192701
-0.000529817
0.0014189
0.00346174
0.00559004
0.00756125
0.00925307
0.0105806
0.0115671
0.0122425
0.0127671
0.0132626
0.0137346
0.0141027
0.014281
0.0141852
0.0137521
0.0129036
0.0117011
0.0102454
0.00850838
0.00664491
0.00478346
0.00304485
0.00157679
0.000464721
-0.00027008
-0.00101408
-0.000724809
-0.00235612
-0.0021922
-0.00199036
-0.00533044
-0.00478238
-0.00439919
-0.00419753
-0.00377398
-0.00320171
-0.00241202
-0.0012668
0.000315063
0.0021437
0.00400013
0.00576702
0.00737288
0.00872505
0.00981729
0.0107343
0.0115372
0.0123388
0.0131489
0.0138734
0.0144116
0.0146758
0.0145995
0.0140899
0.0131526
0.0118353
0.0102728
0.00838167
0.00640721
0.00449153
0.00276311
0.00139374
0.000194917
-0.000333837
8.54186e-05
-0.00146459
-0.0021878
-0.0014779
-0.00177367
-0.00575956
-0.00522083
-0.00474327
-0.00446637
-0.00408345
-0.00351533
-0.00278001
-0.00182234
-0.000531963
0.00101403
0.00256147
0.00405832
0.00546467
0.0067418
0.00786024
0.00891645
0.00994473
0.011037
0.0121883
0.0132968
0.0142287
0.0148902
0.0152012
0.0151095
0.0145294
0.0134354
0.0120193
0.0103259
0.00829197
0.00628018
0.00429074
0.00246078
0.00109261
0.00142039
0.000473946
0.000165391
0.000892241
-0.000740071
-8.65818e-05
-0.000841534
-0.00202026
-0.00115364
-0.00155792
-0.00610292
-0.00563641
-0.00513017
-0.00480448
-0.00453577
-0.00374213
-0.00295027
-0.00211174
-0.00110406
0.000119733
0.00135194
0.00251727
0.00362729
0.00468815
0.00572331
0.00681104
0.00799272
0.00933408
0.0108142
0.0123229
0.0136888
0.0147862
0.0155252
0.0158243
0.0156746
0.0149809
0.0138659
0.0124129
0.0109047
0.00925261
0.00770673
0.0052516
0.00194263
0.00321108
0.000956736
0.000537623
0.00148505
0.001251
-0.000150048
0.000546757
-0.000405125
-0.00185672
-0.000838039
-0.00132906
-0.00624543
-0.00605951
-0.00561907
-0.00513666
-0.0047183
-0.00389429
-0.00292049
-0.00216675
-0.00137721
-0.000496638
0.000407594
0.00121076
0.00195783
0.00269771
0.00350108
0.0044791
0.00569883
0.00721784
0.00899423
0.0109
0.012732
0.0143069
0.0155226
0.0163113
0.0164644
0.0163593
0.0157309
0.0151236
0.0149536
0.0161623
0.0184077
0.0203272
0.0065054
0.0162772
0.00248816
0.00652899
0.00281546
0.00130563
0.00257537
0.00255714
0.000397837
0.00125289
5.02101e-05
-0.00170644
-0.000483319
-0.00109703
-0.00616257
-0.00640523
-0.00609825
-0.00549874
-0.00470304
-0.00374994
-0.0027282
-0.00198195
-0.00134487
-0.000761072
-0.000220362
0.000200987
0.000517696
0.000850232
0.0012897
0.00199482
0.00312175
0.00470173
0.00670204
0.00896715
0.0112803
0.0133902
0.0151296
0.016462
0.0171535
0.0174268
0.0177344
0.0187009
0.0228299
0.0321633
0.0479292
0.0665814
0.03988
0.0906942
0.0183533
0.0479704
0.00691456
0.0201462
0.00658887
0.00246079
0.00621141
0.00561209
0.001037
0.00227167
0.000594068
-0.0015808
-9.42691e-05
-0.000872625
-0.00584385
-0.0065294
-0.00638379
-0.0054514
-0.00439826
-0.00356502
-0.00251009
-0.00157609
-0.00103014
-0.000659021
-0.000464027
-0.000454405
-0.000604278
-0.000780763
-0.000816015
-0.000559898
0.000327805
0.00181995
0.00393005
0.0064967
0.00927873
0.0119582
0.0142519
0.0161085
0.0174807
0.0182252
0.0197577
0.024647
0.0371423
0.0640927
0.106394
0.158006
0.141172
0.205397
0.105339
0.167777
0.0545515
0.118935
0.0202093
0.0577379
0.0192144
0.0048946
0.0171262
0.0142807
0.00190113
0.0041021
0.00125036
-0.00150531
0.000319991
-0.000671318
-0.00497772
-0.00614063
-0.00587912
-0.00493147
-0.00424658
-0.00358888
-0.00222924
-0.00110693
-0.000453044
-0.000218037
-0.000290747
-0.000680319
-0.0013351
-0.00207752
-0.00272047
-0.00299239
-0.00265843
-0.00142731
0.000696291
0.00349373
0.00668592
0.00989858
0.0128167
0.0152489
0.0172805
0.018922
0.021695
0.0320434
0.0588335
0.10777
0.173685
0.248114
0.251637
0.306913
0.228886
0.284615
0.186836
0.252427
0.129492
0.203204
0.0571977
0.13524
0.0537879
0.0110175
0.0472703
0.0376443
0.00320009
0.00799528
0.00209199
-0.00146448
0.000785287
-0.000462395
-0.00219777
-0.00410505
-0.00446829
-0.00430697
-0.00423665
-0.00350182
-0.0018304
-0.0006412
0.000272627
0.000528093
0.000281981
-0.000435289
-0.00157326
-0.00292276
-0.00429121
-0.0053377
-0.00557056
-0.00474042
-0.00280602
6.13116e-05
0.00350259
0.00719011
0.0107549
0.0138215
0.0163508
0.0188169
0.0237809
0.0396424
0.0824827
0.151674
0.239551
0.325973
0.342284
0.3793
0.334619
0.374098
0.31087
0.361682
0.273765
0.335623
0.216699
0.291899
0.134285
0.224899
0.126913
0.0267882
0.111619
0.0871232
0.00552161
0.0173157
0.00333789
-0.00161023
0.00135195
-0.000372369
-0.00111435
-0.0011907
-0.00317956
-0.00380107
-0.00384167
-0.00322494
-0.00151141
-0.000174816
0.00100151
0.00149144
0.00120983
0.000274464
-0.00128064
-0.00326672
-0.00543906
-0.00737075
-0.00844857
-0.00827714
-0.00670079
-0.00389497
-0.000208933
0.00391773
0.00803545
0.0117625
0.0148235
0.0175942
0.0240941
0.0475757
0.102844
0.194503
0.29518
0.365082
0.39088
0.398265
0.395196
0.405693
0.392673
0.408351
0.38231
0.407071
0.357077
0.398106
0.306637
0.373886
0.226409
0.31667
0.220609
0.0628298
0.205792
0.175891
0.0102968
0.0394786
0.0054619
-0.00209618
0.00200306
-0.000474497
-0.000757922
0.000260593
-0.00136141
-0.00263828
-0.0030917
-0.0028622
-0.00136976
0.000187021
0.00167211
0.00251312
0.00240631
0.00140569
-0.000457498
-0.00303233
-0.00602962
-0.00891435
-0.0110371
-0.0117164
-0.0107879
-0.00834036
-0.00461812
-9.42317e-05
0.00463813
0.00900445
0.0127021
0.016014
0.0223925
0.0507951
0.120268
0.22431
0.320739
0.373391
0.397811
0.393637
0.407324
0.405248
0.41285
0.412287
0.416403
0.417777
0.417503
0.422428
0.411125
0.425993
0.386604
0.42158
0.32004
0.39501
0.316128
0.133028
0.302435
0.276818
0.0210798
0.0839959
0.00960601
-0.00314536
0.00297782
-0.000945581
-0.00054269
0.000805311
0.000367678
-0.00110687
-0.00209114
-0.00230703
-0.00128057
0.000433587
0.00219632
0.0034747
0.00373447
0.00285956
0.00088641
-0.00215283
-0.00586345
-0.00968742
-0.0128486
-0.0145353
-0.0143759
-0.0124749
-0.00913998
-0.00462901
0.000515183
0.00551619
0.00991623
0.0135348
0.0196736
0.0481215
0.128121
0.241596
0.322435
0.360862
0.386887
0.377389
0.399663
0.388823
0.407721
0.398625
0.414145
0.406495
0.42065
0.414499
0.428012
0.423612
0.433456
0.433612
0.430357
0.441253
0.398388
0.437489
0.396462
0.23132
0.387064
0.365914
0.0453566
0.165438
0.0188085
-0.00576564
0.00500851
-0.00220656
-0.000459937
0.000906408
0.00137568
0.000446864
-0.000841899
-0.00145335
-0.000959968
0.000662721
0.00258283
0.00426377
0.00502392
0.00451044
0.00263044
-0.000605545
-0.00483741
-0.00935109
-0.0131275
-0.0154517
-0.0160448
-0.0146518
-0.0120307
-0.0083112
-0.00354529
0.00164162
0.00643129
0.0105749
0.01608
0.0430622
0.123113
0.245096
0.310311
0.33961
0.337257
0.372522
0.34663
0.383061
0.365113
0.392884
0.377923
0.4035
0.390897
0.415881
0.405046
0.428322
0.420021
0.440598
0.435026
0.449492
0.449246
0.442726
0.457945
0.445139
0.32735
0.442566
0.430977
0.0928432
0.266234
0.0401814
-0.010358
0.0103668
-0.00386743
-0.000465808
0.000704536
0.00156983
0.00152642
0.000536286
-0.00032969
-0.000283658
0.000986134
0.00287843
0.00486083
0.0061411
0.00616267
0.00465019
0.00149402
-0.00288517
-0.00747867
-0.0110159
-0.0129314
-0.0130411
-0.0118982
-0.00985947
-0.00799551
-0.00560081
-0.00176489
0.00249885
0.00695674
0.0121575
0.0343308
0.11399
0.23419
0.294461
0.309497
0.285014
0.308956
0.272808
0.346954
0.327324
0.364583
0.3518
0.379865
0.36967
0.395049
0.386127
0.411142
0.403724
0.427934
0.422899
0.44471
0.441719
0.459283
0.457819
0.465784
0.470098
0.47211
0.404126
0.475391
0.472171
0.176723
0.355236
0.0839878
-0.0102699
0.0275067
0.00788825
-0.000425625
0.000383276
0.00140041
0.00192898
0.00162865
0.000902588
0.000652756
0.00145734
0.00318933
0.00528164
0.00698875
0.00764294
0.00668316
0.00398216
-2.64996e-05
-0.00395956
-0.00620467
-0.00640915
-0.00519715
-0.0038376
-0.00278455
-0.0018752
-0.00189229
-0.00212613
-0.00072545
0.00292589
0.00760975
0.0231227
0.0999233
0.219606
0.277918
0.280311
0.230105
0.238696
0.194728
0.298892
0.257313
0.338616
0.322356
0.360392
0.351791
0.379094
0.374657
0.3997
0.399595
0.422194
0.425651
0.443158
0.45161
0.460763
0.472146
0.47299
0.483975
0.48103
0.488996
0.490767
0.457315
0.49796
0.50007
0.274689
0.424212
0.162462
-0.0140002
0.0901909
0.0594409
-0.000127717
0.000121211
0.00100928
0.00183698
0.00216508
0.00192835
0.00168175
0.00213967
0.00355295
0.00557654
0.00760682
0.00876242
0.0085497
0.00659396
0.00345914
0.000903238
0.000768598
0.00281244
0.00544909
0.00735852
0.00804609
0.00756356
0.00591665
0.00342776
-0.000539258
-0.000645364
0.00262843
0.0136918
0.078295
0.200077
0.262271
0.259628
0.192635
0.164289
0.142291
0.207107
0.160834
0.301168
0.246642
0.342444
0.328867
0.373854
0.374076
0.402082
0.408118
0.434025
0.444989
0.465719
0.483332
0.492278
0.517343
0.507005
0.539273
0.508313
0.544012
0.503903
0.531065
0.516118
0.493987
0.524276
0.527326
0.364332
0.477267
0.294322
0.066454
0.247698
0.256515
-1.40096e-05
0.000584518
0.00144903
0.00218513
0.00251371
0.00254211
0.0028897
0.00398985
0.00578418
0.00797712
0.00959676
0.0100841
0.0090619
0.00710936
0.00632648
0.00861268
0.0132803
0.0180427
0.0211501
0.0215916
0.0196417
0.0164625
0.0116652
0.00472755
-0.00121233
-0.00189489
0.00611316
0.0542891
0.173406
0.247297
0.243411
0.175708
0.116259
0.128907
0.107755
0.182033
0.128743
0.316221
0.236997
0.371267
0.357988
0.417749
0.425053
0.457282
0.470992
0.501293
0.516988
0.538631
0.551535
0.562725
0.570523
0.579423
0.588225
0.575963
0.606158
0.549941
0.601589
0.562747
0.525101
0.568265
0.567017
0.447917
0.516646
0.414263
0.145756
0.401238
0.393527
0.00012804
0.000911561
0.00183946
0.00260954
0.00305525
0.00349086
0.0044068
0.00598649
0.00798477
0.00998746
0.0111628
0.0111181
0.0104751
0.0115129
0.0162551
0.023749
0.0313122
0.0364023
0.0374008
0.0344006
0.0287538
0.0217185
0.0120236
0.00329621
-0.00443154
-0.000654987
0.0326577
0.143332
0.232246
0.23227
0.169703
0.124307
0.0877208
0.100216
0.0997566
0.0899662
0.155719
0.100198
0.321932
0.217835
0.422089
0.395659
0.484228
0.487512
0.529885
0.538945
0.559297
0.563944
0.57091
0.570456
0.58439
0.575264
0.605584
0.589178
0.626578
0.618205
0.620164
0.644357
0.630364
0.560492
0.632535
0.625989
0.500254
0.547729
0.479587
0.207463
0.467851
0.450579
0.000288806
0.00124504
0.00228797
0.003143
0.0038082
0.0046909
0.00613455
0.00790741
0.0100057
0.0117182
0.0126069
0.0131811
0.0158372
0.0227368
0.0329372
0.0436004
0.0516968
0.0543004
0.0503015
0.0424506
0.0327023
0.0212055
0.00995387
-0.0018383
-0.00652677
0.0155039
0.11105
0.214185
0.22619
0.176529
0.141609
0.113874
0.0799205
0.0913182
0.0781016
0.0729002
0.126426
0.0757975
0.305966
0.185572
0.468423
0.410022
0.538484
0.523778
0.566431
0.564227
0.570599
0.569642
0.564337
0.554217
0.561693
0.530226
0.582472
0.528169
0.627594
0.567743
0.65933
0.637183
0.671166
0.609332
0.680656
0.682832
0.653023
0.528443
0.561114
0.595293
0.506876
0.238811
0.492168
0.47789
0.000500111
0.00162692
0.00279199
0.0037675
0.00474001
0.00605267
0.00781397
0.00985857
0.011876
0.0134502
0.0150706
0.0189431
0.0274395
0.0398169
0.0533243
0.0647849
0.0687819
0.0640452
0.0551133
0.0439812
0.0312809
0.0177905
0.00321126
-0.009381
0.00400438
0.0794758
0.190455
0.219804
0.184424
0.157043
0.137271
0.0951314
0.113112
0.0713655
0.0838588
0.0607876
0.0607376
0.0962567
0.0566977
0.269524
0.144946
0.48186
0.394997
0.55492
0.526447
0.567801
0.561231
0.546796
0.541268
0.504716
0.487575
0.475639
0.435227
0.491765
0.421553
0.55952
0.463291
0.647874
0.553758
0.602063
0.677791
0.656233
0.682916
0.634827
0.673376
0.689968
0.675239
0.666859
0.693867
0.536123
0.566693
0.583166
0.621821
0.552391
0.510975
0.535149
0.189094
0.498012
0.510329
0.522075
0.501148
0.446651
0.483749
0.000687709
0.00201449
0.00331788
0.00446969
0.00578468
0.00749515
0.00952008
0.0116687
0.0137074
0.016072
0.0208666
0.030222
0.0438828
0.0594654
0.0736648
0.0783579
0.0739673
0.0652741
0.0537994
0.04058
0.0258313
0.00900571
-0.00732338
-0.00297557
0.0523654
0.164448
0.210316
0.19064
0.169719
0.157427
0.127111
0.0803696
0.0920729
0.0575929
0.0681022
0.0468435
0.0496538
0.0698554
0.0431105
0.214264
0.101887
0.460626
0.349152
0.539943
0.489928
0.533809
0.51676
0.476941
0.468344
0.407699
0.389857
0.369343
0.334001
0.432593
0.393224
0.366552
0.341657
0.508446
0.458765
0.381524
0.38065
0.418362
0.557926
0.617418
0.565372
0.509152
0.627659
0.695286
0.663924
0.693033
0.685827
0.652573
0.63984
0.692682
0.588346
0.606293
0.649899
0.570079
0.551013
0.182597
0.427965
0.51891
0.534456
0.501611
0.478138
0.000879551
0.00239492
0.00383718
0.00523402
0.00693788
0.00890628
0.0111377
0.0134088
0.0161425
0.0212659
0.0311932
0.0454952
0.0620563
0.0778782
0.0833871
0.0806187
0.073053
0.0611275
0.0478577
0.0331837
0.0156535
-0.00318734
-0.00779349
0.0319899
0.137313
0.199664
0.194046
0.179284
0.173292
0.152109
0.0799461
0.0987887
0.0561264
0.067523
0.0394743
0.0463152
0.0353082
0.0358927
0.0506021
0.0349912
0.147946
0.0677127
0.399969
0.276305
0.479043
0.410635
0.455413
0.428424
0.376966
0.363847
0.308807
0.288006
0.325312
0.309757
0.29912
0.286954
0.356655
0.335848
0.320412
0.461232
0.417779
0.355467
0.359184
0.383944
0.514823
0.577347
0.523229
0.465376
0.589369
0.697287
0.688381
0.699017
0.666082
0.603195
0.618756
0.678765
0.633262
0.61369
0.678047
0.592701
0.57126
0.433622
0.406031
0.153853
0.394377
0.550072
0.52821
0.503827
0.474717
0.0010818
0.00273954
0.00434967
0.00606409
0.00805909
0.0102722
0.0126938
0.0155277
0.0204979
0.0299031
0.0439294
0.0613616
0.0786833
0.0851331
0.0840925
0.0786299
0.0663837
0.0524086
0.0386653
0.0220911
0.00259818
-0.00880407
0.0190417
0.111225
0.185717
0.193566
0.185698
0.184918
0.170122
0.110824
0.128595
0.0499328
0.0632696
0.028901
0.0382156
0.0206703
0.022894
0.0266146
0.0220551
0.0404051
0.0300983
0.0888494
0.0482038
0.308894
0.188038
0.378019
0.301102
0.344239
0.309378
0.268561
0.247793
0.276901
0.264326
0.253663
0.239728
0.309221
0.298897
0.289769
0.279882
0.337872
0.325164
0.316343
0.421941
0.388478
0.344477
0.354085
0.365753
0.472265
0.534684
0.481746
0.428077
0.54775
0.690071
0.699869
0.698157
0.635864
0.563198
0.580852
0.65453
0.662528
0.642267
0.697224
0.619914
0.595305
0.478142
0.465954
0.109595
0.40196
0.568799
0.540412
0.509731
0.0012969
0.00308769
0.00488522
0.00693063
0.009154
0.0115807
0.0144505
0.0189984
0.0276175
0.0403332
0.0558359
0.0747928
0.0850792
0.0852707
0.0820734
0.0709821
0.0551491
0.0411322
0.026658
0.00851459
-0.00636862
0.0128091
0.0897925
0.16815
0.188903
0.188797
0.192136
0.182826
0.134087
0.0774214
0.0922715
0.0160477
0.0270155
0.00460291
0.00826776
0.00901674
0.00525968
0.0218552
0.0148326
0.0344653
0.0263314
0.0554779
0.0383418
0.202583
0.104078
0.254909
0.183637
0.22292
0.188744
0.228222
0.212729
0.199948
0.182193
0.269504
0.257635
0.244951
0.230664
0.309654
0.303739
0.297648
0.290688
0.335686
0.330303
0.328342
0.394706
0.374119
0.348173
0.361356
0.364936
0.436471
0.493823
0.447149
0.402474
0.508176
0.672593
0.703695
0.688608
0.601094
0.525393
0.545357
0.624281
0.688963
0.672351
0.706264
0.649081
0.622216
0.523736
0.497302
0.488116
0.0570645
0.384304
0.590938
0.557011
0.00149573
0.0034216
0.00545094
0.00774088
0.0101879
0.0129639
0.0170625
0.0245462
0.0361656
0.0494186
0.0647319
0.08103
0.0852079
0.0835119
0.0754468
0.0588003
0.0420738
0.0280179
0.0123638
-0.00146149
0.00996521
0.0732038
0.151118
0.182219
0.188483
0.19522
0.190515
0.152312
0.0693022
0.0840441
0.0396075
0.0531663
-0.00986144
-0.00641768
-0.00678178
-0.00965835
0.00395765
-0.00206413
0.0184728
0.0109154
0.0301409
0.0230474
0.0402077
0.032443
0.105844
0.0577973
0.144612
0.0969591
0.150619
0.118603
0.215883
0.199883
0.184196
0.168248
0.28136
0.26968
0.25554
0.239139
0.327837
0.327207
0.324936
0.319535
0.347681
0.350751
0.355748
0.383294
0.375353
0.365666
0.381947
0.374852
0.411931
0.460134
0.423213
0.392558
0.475793
0.648994
0.702677
0.674333
0.568796
0.494979
0.51763
0.595805
0.705641
0.698524
0.710839
0.679076
0.650471
0.578444
0.545119
0.520137
0.486918
0.079625
0.364118
0.616182
0.00159707
0.00372869
0.00598726
0.00849598
0.0112278
0.0148216
0.0211249
0.0313259
0.0426032
0.0541761
0.0692412
0.0816902
0.083778
0.0786061
0.0650463
0.0450706
0.028852
0.0146568
0.00490888
0.0100841
0.0624061
0.136059
0.174625
0.185291
0.194767
0.193638
0.163513
0.0829966
0.0265471
0.0419211
0.00162613
0.0129418
-0.0192789
-0.0210757
-0.0110072
-0.0158266
0.00133548
-0.0051827
0.0157347
0.00833304
0.0263757
0.0200078
0.0324246
0.0277206
0.0562143
0.0394081
0.0871319
0.0593854
0.145041
0.125793
0.0913308
0.108153
0.221115
0.202004
0.182696
0.163604
0.311878
0.299383
0.283118
0.26338
0.360618
0.364063
0.364514
0.360039
0.373292
0.383153
0.39319
0.384814
0.385397
0.393944
0.411318
0.395394
0.402158
0.436975
0.412381
0.39392
0.454302
0.625837
0.696223
0.657849
0.544315
0.475682
0.501313
0.575297
0.715972
0.71657
0.713539
0.706012
0.678649
0.642487
0.602197
0.56644
0.5272
0.469426
0.163653
0.370844
0.00167727
0.00402402
0.00647028
0.00922357
0.0124854
0.017604
0.0261686
0.035946
0.0445634
0.0552779
0.0705405
0.0810276
0.0798233
0.0718209
0.0529809
0.0321394
0.0179241
0.0108703
0.0144494
0.0581505
0.123764
0.165354
0.180719
0.191627
0.193387
0.169004
0.0993284
0.00686589
0.0127791
-0.0129932
-0.00432321
-0.0208948
-0.0183603
-0.0220817
-0.0255307
-0.0126094
-0.0177322
-0.000479965
-0.00682779
0.0132175
0.006325
0.0227081
0.0169496
0.0267616
0.0231956
0.0386571
0.0306702
0.076433
0.0630068
0.0442432
0.148021
0.126541
0.0888007
0.10681
0.241278
0.21772
0.193898
0.170489
0.35201
0.337841
0.318029
0.293694
0.401706
0.407404
0.408741
0.40365
0.40819
0.422465
0.435153
0.392304
0.404656
0.429529
0.445304
0.422899
0.401873
0.425859
0.411472
0.3983
0.444869
0.6102
0.689657
0.64955
0.532125
0.468589
0.497242
0.567337
0.723487
0.730354
0.715901
0.727935
0.704778
0.667275
0.624243
0.578976
0.523428
0.45557
0.141794
0.397557
0.00176171
0.00428545
0.00693119
0.0100211
0.0142715
0.0210722
0.0297772
0.0365747
0.0438643
0.0546772
0.071076
0.0788492
0.0755386
0.0647844
0.042598
0.0249652
0.0168257
0.0210127
0.057253
0.113967
0.15629
0.175862
0.187466
0.190802
0.1715
0.10835
0.0075579
-0.0214549
-0.0134848
-0.0282691
-0.0259455
-0.0278492
-0.0288074
-0.0226634
-0.026273
-0.0135352
-0.0184203
-0.00193887
-0.00806567
0.0107147
0.00430649
0.0188432
0.0137803
0.0215231
0.0190213
0.0298397
0.0241916
0.0728937
0.0593911
0.0442485
0.0334959
0.156039
0.131862
0.0900435
0.109844
0.266616
0.237992
0.209485
0.181937
0.394225
0.376511
0.351597
0.32141
0.444861
0.450837
0.451612
0.445022
0.44798
0.464243
0.477162
0.407817
0.426039
0.46808
0.478136
0.450696
0.405091
0.424634
0.415593
0.409816
0.443199
0.605981
0.686147
0.6471
0.529985
0.468109
0.499387
0.567014
0.732071
0.742637
0.718749
0.744698
0.726744
0.688548
0.641445
0.585705
0.522528
0.473086
0.106009
0.408703
0.0018443
0.00452115
0.00741374
0.0110701
0.0165241
0.0238957
0.0299295
0.035275
0.0417128
0.0540974
0.0716176
0.0761707
0.0729298
0.0604408
0.0408821
0.0265075
0.0280886
0.0589415
0.107555
0.147458
0.169731
0.182933
0.1871
0.171579
0.116493
0.0172868
-0.0273669
-0.0243879
-0.0316747
-0.0298932
-0.0323162
-0.0324886
-0.0291569
-0.0311733
-0.0228857
-0.0261665
-0.0144205
-0.0190309
-0.00383962
-0.00920992
0.00807242
0.00202576
0.01582
0.0115765
0.0173608
0.0171598
0.0264603
0.0209505
0.017942
0.0725995
0.0573044
0.0401778
0.0297772
0.160097
0.133584
0.0886088
0.109739
0.288093
0.253743
0.22044
0.189029
0.433366
0.411151
0.37992
0.342511
0.487164
0.492491
0.491374
0.483083
0.488864
0.505074
0.517739
0.425634
0.449493
0.504618
0.510368
0.479228
0.413649
0.429895
0.424538
0.425546
0.450466
0.60742
0.687637
0.650926
0.535435
0.477841
0.51205
0.575588
0.741247
0.754212
0.725515
0.758831
0.744423
0.705518
0.653486
0.591188
0.534159
0.496088
0.159784
0.427845
0.00191689
0.00476444
0.00798619
0.0124198
0.0183814
0.0241855
0.0283505
0.0324404
0.0391411
0.0544077
0.0716443
0.0753369
0.0730675
0.0617961
0.0451421
0.0388452
0.0636106
0.105733
0.139801
0.162577
0.176933
0.182747
0.169723
0.121627
0.0291598
-0.0218713
-0.0313709
-0.0290666
-0.0332879
-0.0327413
-0.0323835
-0.0331577
-0.0288785
-0.0309519
-0.0234071
-0.0263038
-0.0156743
-0.0197429
-0.00580162
-0.011175
0.00630562
5.54466e-05
0.0164328
0.0134592
0.0151819
0.0173734
0.0220144
0.0223906
0.0180052
0.0142215
0.0136005
0.0699967
0.053734
0.0334255
0.0242615
0.15487
0.127119
0.0812013
0.102723
0.301133
0.25984
0.221053
0.18613
0.466595
0.440245
0.403683
0.358193
0.526571
0.529644
0.524702
0.51403
0.52747
0.5437
0.554295
0.446237
0.474696
0.53892
0.541031
0.508006
0.429454
0.441938
0.440601
0.444781
0.466691
0.617885
0.694922
0.661024
0.551178
0.497863
0.534652
0.591623
0.750995
0.764917
0.734298
0.77083
0.758311
0.718022
0.662626
0.601531
0.545054
0.497726
0.14858
0.442738
0.00195586
0.00503736
0.00871174
0.0135521
0.0189893
0.0226238
0.0253771
0.0288801
0.037875
0.0562363
0.0728649
0.0773996
0.076429
0.0670889
0.0582251
0.0714047
0.10601
0.135243
0.156166
0.170601
0.176824
0.166549
0.123602
0.0372784
-0.0168775
-0.026868
-0.0312462
-0.0299863
-0.0325032
-0.0321721
-0.0315921
-0.0323023
-0.02862
-0.0303479
-0.0242395
-0.0269086
-0.0176837
-0.0212416
-0.00724692
-0.0129726
0.00836553
0.000353231
0.0267543
0.0262447
0.0163562
0.0189957
0.0322712
0.0396501
0.0183589
0.0150647
0.014496
0.0129739
0.0623114
0.0461735
0.0238718
0.0171897
0.139737
0.111483
0.0663514
0.087196
0.306785
0.256493
0.211055
0.172484
0.493143
0.462329
0.42056
0.368829
0.559867
0.558947
0.550094
0.536137
0.561995
0.576652
0.583799
0.469636
0.501355
0.569399
0.568685
0.536171
0.449031
0.460073
0.462509
0.468206
0.488685
0.631073
0.704341
0.672087
0.57362
0.52427
0.562277
0.610779
0.760441
0.774758
0.74303
0.780653
0.768791
0.727216
0.670243
0.609638
0.548611
0.501768
0.062801
0.426826
0.00192816
0.00534614
0.00940815
0.0138967
0.0177797
0.0200213
0.0218311
0.0262429
0.0383017
0.0590321
0.075812
0.0814378
0.0822226
0.0792726
0.085664
0.108234
0.133634
0.151913
0.164926
0.170519
0.16134
0.122545
0.0424882
-0.0120682
-0.0233104
-0.026372
-0.0288576
-0.0247966
-0.0301448
-0.031427
-0.0309872
-0.0310018
-0.0314208
-0.0288073
-0.0301072
-0.0260663
-0.0279274
-0.0197009
-0.0235611
-0.00553177
-0.0142984
0.0211366
0.00833893
0.0563195
0.0622146
0.0230539
0.0278152
0.0490708
0.0532938
0.013769
0.0122857
0.0186874
0.0147731
0.0485983
0.0342445
0.0141533
0.01103
0.115747
0.0873594
0.0459261
0.0643916
0.309502
0.248984
0.194106
0.150048
0.509634
0.474836
0.428894
0.373073
0.584365
0.57756
0.565723
0.544933
0.590085
0.600883
0.603253
0.495853
0.528963
0.594028
0.591815
0.562861
0.474179
0.485099
0.491131
0.49597
0.516823
0.643445
0.71274
0.679456
0.597638
0.553323
0.586618
0.626607
0.769244
0.782764
0.750837
0.788703
0.776677
0.73463
0.676883
0.614519
0.550272
0.498768
0.129773
0.421553
0.00182503
0.00558552
0.00938417
0.0133314
0.0156949
0.0169298
0.0192438
0.0254268
0.0402133
0.0627928
0.0799029
0.0870089
0.0920996
0.099827
0.11473
0.133338
0.149156
0.160317
0.164021
0.154419
0.1179
0.0441543
-0.00738925