/*--------------------------------*- C++ -*----------------------------------*\
  =========                 |
  \\      /  F ield         | OpenFOAM: The Open Source CFD Toolbox
   \\    /   O peration     | Website:  https://openfoam.org
    \\  /    A nd           | Version:  dev
     \\/     M anipulation  |
\*---------------------------------------------------------------------------*/
FoamFile
{
    version     2.0;
    format      ascii;
    class       surfaceScalarField;
    location    "2500";
    object      phi;
}
// * * * * * * * * * * * * * * * * * * * * * * * * * * * * * * * * * * * * * //

dimensions      [1 0 -1 0 0 0 0];

internalField   nonuniform List<scalar> 
19896
(
1.74283e-07
1.23408e-07
1.52211e-07
3.09941e-07
4.86414e-07
1.127e-07
1.25806e-07
4.32648e-07
4.80899e-07
3.15457e-07
7.08337e-07
9.61404e-08
1.04137e-07
5.25252e-07
4.47788e-07
4.65736e-07
7.32543e-07
2.912e-07
8.88692e-07
8.30998e-08
8.76213e-08
6.00194e-07
3.95926e-07
5.77082e-07
7.37066e-07
4.61191e-07
9.22394e-07
2.5743e-07
1.0487e-06
7.41206e-08
7.45784e-08
6.65369e-07
3.38275e-07
6.57767e-07
7.14861e-07
5.99259e-07
9.56103e-07
4.27444e-07
1.07637e-06
2.29738e-07
1.19449e-06
6.74477e-08
6.41671e-08
7.28693e-07
2.83323e-07
7.20391e-07
6.67404e-07
7.0522e-07
9.71852e-07
5.83528e-07
1.11827e-06
3.85569e-07
1.21754e-06
2.06707e-07
1.33098e-06
6.18713e-08
5.67002e-08
7.89739e-07
2.40411e-07
7.71508e-07
6.05204e-07
7.82557e-07
9.62353e-07
7.14694e-07
1.16102e-06
5.40576e-07
1.2553e-06
3.47789e-07
1.34776e-06
1.89807e-07
1.45591e-06
5.74054e-08
5.15571e-08
8.47372e-07
2.12895e-07
8.17102e-07
5.39005e-07
8.37629e-07
9.25864e-07
8.19016e-07
1.1887e-06
6.87109e-07
1.3042e-06
4.91631e-07
1.378e-06
3.17647e-07
1.47109e-06
1.746e-07
1.57433e-06
5.30957e-08
4.76812e-08
9.03433e-07
1.93888e-07
8.66324e-07
4.74475e-07
8.817e-07
8.66851e-07
8.96694e-07
1.19253e-06
8.15178e-07
1.35452e-06
6.36768e-07
1.42181e-06
4.4773e-07
1.49582e-06
2.92883e-07
1.58727e-06
1.61634e-07
1.68378e-06
4.91443e-08
4.51704e-08
9.5767e-07
1.802e-07
9.16918e-07
4.19928e-07
9.20823e-07
7.95813e-07
9.52746e-07
1.16924e-06
9.19939e-07
1.39345e-06
7.76228e-07
1.47625e-06
5.8228e-07
1.53211e-06
4.11404e-07
1.60962e-06
2.70511e-07
1.6959e-06
1.49504e-07
1.78619e-06
4.54049e-08
4.29573e-08
1.01266e-06
1.69247e-07
9.68556e-07
3.78726e-07
9.58238e-07
7.21438e-07
9.95221e-07
1.12132e-06
1.00057e-06
1.41119e-06
9.02159e-07
1.53464e-06
7.17807e-07
1.58155e-06
5.32645e-07
1.64077e-06
3.80205e-07
1.71582e-06
2.50567e-07
1.79783e-06
1.37849e-07
1.88093e-06
4.17855e-08
4.11666e-08
1.06782e-06
1.61931e-07
1.01991e-06
3.48779e-07
9.98452e-07
6.51016e-07
1.02864e-06
1.05529e-06
1.06113e-06
1.40185e-06
1.00988e-06
1.58478e-06
8.51963e-07
1.64081e-06
6.58675e-07
1.68247e-06
4.90914e-07
1.74425e-06
3.51701e-07
1.81702e-06
2.31288e-07
1.89213e-06
1.26625e-07
1.96912e-06
3.84327e-08
3.98942e-08
1.12227e-06
1.5572e-07
1.07397e-06
3.2526e-07
1.04327e-06
5.9123e-07
1.05818e-06
9.78817e-07
1.10502e-06
1.36571e-06
1.09726e-06
1.61633e-06
9.78312e-07
1.70556e-06
7.87222e-07
1.73577e-06
6.0534e-07
1.78143e-06
4.53741e-07
1.84383e-06
3.24897e-07
1.91066e-06
2.12726e-07
1.9797e-06
1.16036e-07
2.05083e-06
3.49792e-08
3.86186e-08
1.17707e-06
1.49514e-07
1.12845e-06
3.09029e-07
1.09013e-06
5.44697e-07
1.0898e-06
8.98848e-07
1.13817e-06
1.30898e-06
1.16172e-06
1.62327e-06
1.09032e-06
1.76669e-06
9.1718e-07
1.79902e-06
7.23839e-07
1.82882e-06
5.5796e-07
1.87778e-06
4.19735e-07
1.93596e-06
2.99581e-07
1.99798e-06
1.94404e-07
2.06176e-06
1.05065e-07
2.12565e-06
3.15204e-08
3.73782e-08
1.23163e-06
1.44661e-07
1.18187e-06
2.95767e-07
1.14166e-06
5.07121e-07
1.12767e-06
8.20886e-07
1.16786e-06
1.23855e-06
1.20849e-06
1.60411e-06
1.18084e-06
1.81304e-06
1.04396e-06
1.86991e-06
8.46374e-07
1.88667e-06
6.65859e-07
1.92044e-06
5.15231e-07
1.96913e-06
3.8647e-07
2.02377e-06
2.73764e-07
2.07994e-06
1.76208e-07
2.13646e-06
9.42425e-08
2.19333e-06
2.79987e-08
3.65373e-08
1.28573e-06
1.3973e-07
1.23656e-06
2.82959e-07
1.19471e-06
4.78289e-07
1.17032e-06
7.52657e-07
1.19601e-06
1.16066e-06
1.24561e-06
1.56193e-06
1.25065e-06
1.83828e-06
1.15553e-06
1.94072e-06
9.73083e-07
1.95431e-06
7.78715e-07
1.97265e-06
6.13636e-07
2.00991e-06
4.7442e-07
2.05632e-06
3.53838e-07
2.10526e-06
2.48405e-07
2.15484e-06
1.5779e-07
2.20431e-06
8.32699e-08
2.25444e-06
2.44564e-08
3.5492e-08
1.34011e-06
1.35451e-07
1.28996e-06
2.73069e-07
1.24636e-06
4.54891e-07
1.21798e-06
6.96612e-07
1.22637e-06
1.07878e-06
1.27767e-06
1.50199e-06
1.30556e-06
1.83876e-06
1.25016e-06
2.00163e-06
1.0946e-06
2.03016e-06
8.97173e-07
2.03474e-06
7.16618e-07
2.05895e-06
5.64551e-07
2.09609e-06
4.34583e-07
2.13778e-06
3.21251e-07
2.18051e-06
2.2268e-07
2.22303e-06
1.39012e-07
2.26548e-06
7.22309e-08
2.3084e-06
2.07619e-08
3.43511e-08
1.39379e-06
1.32333e-07
1.34318e-06
2.61101e-07
1.30187e-06
4.31364e-07
1.2698e-06
6.51905e-07
1.26264e-06
9.96908e-07
1.30817e-06
1.43023e-06
1.34936e-06
1.81507e-06
1.32919e-06
2.04541e-06
1.20636e-06
2.10908e-06
1.01569e-06
2.1065e-06
8.25364e-07
2.11662e-06
6.58883e-07
2.14331e-06
5.17273e-07
2.17718e-06
3.95126e-07
2.21324e-06
2.88461e-07
2.24915e-06
1.96545e-07
2.2845e-06
1.19962e-07
2.3198e-06
6.08166e-08
2.35511e-06
1.69993e-08
3.36108e-08
1.44607e-06
1.28667e-07
1.39739e-06
2.48318e-07
1.3559e-06
4.13249e-07
1.32002e-06
6.17793e-07
1.30387e-06
9.21269e-07
1.33812e-06
1.3519e-06
1.38645e-06
1.77071e-06
1.39371e-06
2.06712e-06
1.30745e-06
2.18316e-06
1.13225e-06
2.18746e-06
9.34703e-07
2.18343e-06
7.58521e-07
2.19837e-06
6.03769e-07
2.2238e-06
4.70594e-07
2.25316e-06
3.55082e-07
2.28283e-06
2.54712e-07
2.31136e-06
1.6964e-07
2.33905e-06
1.00688e-07
2.36672e-06
4.91747e-08
2.39422e-06
1.30923e-08
3.29516e-08
1.49771e-06
1.23684e-07
1.45102e-06
2.38628e-07
1.40702e-06
3.97307e-07
1.37186e-06
5.87878e-07
1.34971e-06
8.55254e-07
1.36986e-06
1.2703e-06
1.41966e-06
1.71094e-06
1.44625e-06
2.06529e-06
1.39553e-06
2.24476e-06
1.24585e-06
2.27337e-06
1.04633e-06
2.25957e-06
8.58535e-07
2.26145e-06
6.95405e-07
2.27766e-06
5.49849e-07
2.30015e-06
4.23601e-07
2.32341e-06
3.14429e-07
2.34563e-06
2.20377e-07
2.36682e-06
1.41828e-07
2.38658e-06
8.08184e-08
2.40603e-06
3.73525e-08
2.42544e-06
9.68693e-09
3.20966e-08
1.54849e-06
1.19148e-07
1.5022e-06
2.30629e-07
1.459e-06
3.78908e-07
1.42535e-06
5.60606e-07
1.39901e-06
7.99923e-07
1.40499e-06
1.18863e-06
1.45137e-06
1.64087e-06
1.48968e-06
2.04171e-06
1.4698e-06
2.2879e-06
1.35238e-06
2.35852e-06
1.16068e-06
2.34468e-06
9.61194e-07
2.33323e-06
7.8673e-07
2.33935e-06
6.33612e-07
2.3543e-06
4.95637e-07
2.37115e-06
3.75797e-07
2.38781e-06
2.72181e-07
2.40238e-06
1.84747e-07
2.41481e-06
1.13559e-07
2.42669e-06
6.0138e-08
2.43797e-06
2.48082e-08
2.45122e-06
6.20077e-09
3.13314e-08
1.59801e-06
1.15387e-07
1.5522e-06
2.21197e-07
1.51156e-06
3.60559e-07
1.47728e-06
5.35366e-07
1.45056e-06
7.5417e-07
1.44473e-06
1.10943e-06
1.48408e-06
1.56436e-06
1.5278e-06
1.99958e-06
1.53177e-06
2.3098e-06
1.44786e-06
2.43572e-06
1.27513e-06
2.43582e-06
1.06952e-06
2.4136e-06
8.80778e-07
2.40918e-06
7.16853e-07
2.4158e-06
5.72014e-07
2.42639e-06
4.40326e-07
2.43744e-06
3.26106e-07
2.44581e-06
2.28687e-07
2.45167e-06
1.47833e-07
2.45562e-06
8.45929e-08
2.45908e-06
3.89685e-08
2.46321e-06
1.27892e-08
2.47054e-06
2.74154e-09
3.09847e-08
1.64626e-06
1.11245e-07
1.60212e-06
2.11864e-07
1.56149e-06
3.44746e-07
1.52728e-06
5.1065e-07
1.50193e-06
7.15031e-07
1.48961e-06
1.03559e-06
1.51841e-06
1.48501e-06
1.56338e-06
1.9434e-06
1.58391e-06
2.30992e-06
1.53163e-06
2.49876e-06
1.38482e-06
2.5291e-06
1.18182e-06
2.50205e-06
9.81033e-07
2.48631e-06
8.0367e-07
2.48475e-06
6.47839e-07
2.48914e-06
5.09178e-07
2.49454e-06
3.83145e-07
2.49697e-06
2.74796e-07
2.49688e-06
1.83393e-07
2.49322e-06
1.10178e-07
2.48888e-06
5.48012e-08
2.48346e-06
1.87157e-08
2.48025e-06
3.09979e-09
2.47653e-06
-3.3005e-10
3.0788e-08
1.69463e-06
1.06863e-07
1.65056e-06
2.04656e-07
1.60925e-06
3.29712e-07
1.57651e-06
4.85716e-07
1.5522e-06
6.79119e-07
1.53773e-06
9.69087e-07
1.55596e-06
1.40457e-06
1.59872e-06
1.87788e-06
1.62879e-06
2.2905e-06
1.6033e-06
2.54402e-06
1.48635e-06
2.61873e-06
1.2952e-06
2.59735e-06
1.08651e-06
2.57075e-06
8.96487e-07
2.56086e-06
7.27572e-07
2.55966e-06
5.77271e-07
2.55904e-06
4.44608e-07
2.55626e-06
3.23832e-07
2.55067e-06
2.20917e-07
2.54021e-06
1.36321e-07
2.52774e-06
7.12714e-08
2.5133e-06
2.49262e-08
2.49891e-06
2.01053e-11
2.48806e-06
-8.44724e-09
2.48538e-06
-3.9799e-09
3.00648e-08
1.74374e-06
1.04845e-07
1.69662e-06
1.98496e-07
1.65672e-06
3.149e-07
1.62403e-06
4.61395e-07
1.60073e-06
6.44426e-07
1.5868e-06
9.10002e-07
1.59665e-06
1.32595e-06
1.63445e-06
1.80723e-06
1.66927e-06
2.25452e-06
1.66472e-06
2.56912e-06
1.57815e-06
2.69848e-06
1.40659e-06
2.69605e-06
1.19646e-06
2.66261e-06
9.94673e-07
2.64418e-06
8.13114e-07
2.63678e-06
6.50308e-07
2.63149e-06
5.04754e-07
2.62416e-06
3.76624e-07
2.61257e-06
2.6186e-07
2.59601e-06
1.65035e-07
2.57546e-06
8.84722e-08
2.55289e-06
3.16288e-08
2.52856e-06
-4.75888e-09
2.50874e-06
-2.06744e-08
2.49667e-06
-1.97706e-08
2.477e-06
-8.3256e-09
2.90744e-08
1.79201e-06
1.05434e-07
1.74312e-06
1.92867e-07
1.7022e-06
3.02719e-07
1.66881e-06
4.38698e-07
1.64667e-06
6.10965e-07
1.63412e-06
8.57189e-07
1.63945e-06
1.25106e-06
1.67139e-06
1.73425e-06
1.70729e-06
2.20607e-06
1.71762e-06
2.57482e-06
1.65896e-06
2.76419e-06
1.51241e-06
2.79425e-06
1.30837e-06
2.76088e-06
1.09815e-06
2.73365e-06
9.05155e-07
2.7202e-06
7.29717e-07
2.71119e-06
5.70542e-07
2.69979e-06
4.29047e-07
2.68289e-06
3.06217e-07
2.66111e-06
1.96687e-07
2.6337e-06
1.06765e-07
2.60267e-06
3.86547e-08
2.56895e-06
-8.81292e-09
2.53817e-06
-3.42184e-08
2.5167e-06
-4.07101e-08
2.4887e-06
-3.14841e-08
2.46079e-06
-1.28582e-08
2.93602e-08
1.83867e-06
1.04734e-07
1.79268e-06
1.90178e-07
1.74582e-06
2.9251e-07
1.71236e-06
4.18168e-07
1.68929e-06
5.78908e-07
1.67861e-06
8.0885e-07
1.68229e-06
1.18159e-06
1.70874e-06
1.66141e-06
1.74406e-06
2.14966e-06
1.76358e-06
2.56295e-06
1.72942e-06
2.81268e-06
1.61043e-06
2.88616e-06
1.42039e-06
2.86262e-06
1.20662e-06
2.82874e-06
1.00289e-06
2.80976e-06
8.15506e-07
2.79727e-06
6.43557e-07
2.78275e-06
4.87517e-07
2.76259e-06
3.49257e-07
2.73567e-06
2.31598e-07
2.7017e-06
1.28589e-07
2.66235e-06
4.69702e-08
2.6198e-06
-1.22632e-08
2.57772e-06
-4.84078e-08
2.54582e-06
-6.33631e-08
2.50928e-06
-6.13146e-08
2.47344e-06
-4.41494e-08
2.43893e-06
-1.76407e-08
3.0716e-08
1.88842e-06
1.02407e-07
1.84097e-06
1.91552e-07
1.79126e-06
2.82952e-07
1.7553e-06
3.99226e-07
1.7312e-06
5.48887e-07
1.71919e-06
7.6452e-07
1.72272e-06
1.11829e-06
1.74537e-06
1.59118e-06
1.77875e-06
2.08929e-06
1.80427e-06
2.53658e-06
1.78983e-06
2.84294e-06
1.69912e-06
2.96739e-06
1.52923e-06
2.96469e-06
1.31828e-06
2.92886e-06
1.10653e-06
2.90434e-06
9.08297e-07
2.88914e-06
7.23591e-07
2.87287e-06
5.53298e-07
2.85048e-06
3.9956e-07
2.81969e-06
2.65076e-07
2.78043e-06
1.52812e-07
2.73314e-06
5.77538e-08
2.68141e-06
-1.47089e-08
2.62835e-06
-6.29327e-08
2.58444e-06
-8.70782e-08
2.5388e-06
-9.2924e-08
2.49369e-06
-8.16108e-08
2.45104e-06
-5.62832e-08
2.40833e-06
-2.16623e-08
3.31829e-08
1.94338e-06
1.02858e-07
1.88797e-06
1.93778e-07
1.83872e-06
2.75873e-07
1.79827e-06
3.81344e-07
1.77311e-06
5.22116e-07
1.75785e-06
7.24348e-07
1.75913e-06
1.06172e-06
1.77905e-06
1.52541e-06
1.8109e-06
2.02783e-06
1.84002e-06
2.49996e-06
1.84078e-06
2.85545e-06
1.77725e-06
3.03395e-06
1.63253e-06
3.06255e-06
1.43133e-06
3.03139e-06
1.21576e-06
3.00249e-06
1.00818e-06
2.98565e-06
8.11608e-07
2.96946e-06
6.2701e-07
2.94628e-06
4.57393e-07
2.91336e-06
3.05821e-07
2.8698e-06
1.75602e-07
2.81569e-06
7.01374e-08
2.75493e-06
-1.58633e-08
2.69085e-06
-7.73026e-08
2.63356e-06
-1.12106e-07
2.57781e-06
-1.26126e-07
2.52231e-06
-1.21564e-07
2.47066e-06
-1.01275e-07
2.42115e-06
-6.91293e-08
2.37193e-06
-2.42411e-08
3.58655e-08
2.00498e-06
1.07787e-07
1.9384e-06
1.97479e-07
1.8842e-06
2.70716e-07
1.84385e-06
3.62862e-07
1.81668e-06
4.98394e-07
1.79671e-06
6.90605e-07
1.79139e-06
1.01268e-06
1.80792e-06
1.46599e-06
1.8382e-06
1.96838e-06
1.87011e-06
2.45705e-06
1.88272e-06
2.85208e-06
1.84404e-06
3.08386e-06
1.72728e-06
3.15166e-06
1.54342e-06
3.1324e-06
1.3303e-06
3.10273e-06
1.11566e-06
3.08567e-06
9.08168e-07
3.07143e-06
7.09569e-07
3.04988e-06
5.23363e-07
3.01621e-06
3.54456e-07
2.96967e-06
2.05845e-07
2.91083e-06
8.03637e-08
2.84127e-06
-1.62901e-08
2.76606e-06
-9.1159e-08
2.69473e-06
-1.38549e-07
2.6269e-06
-1.61256e-07
2.56056e-06
-1.64426e-07
2.49856e-06
-1.49496e-07
2.4406e-06
-1.20771e-07
2.38511e-06
-8.23461e-08
2.32998e-06
-2.44437e-08
3.79068e-08
2.07244e-06
1.18319e-07
1.99444e-06
2.02508e-07
1.93342e-06
2.72838e-07
1.8821e-06
3.43674e-07
1.86302e-06
4.78342e-07
1.83665e-06
6.65185e-07
1.8219e-06
9.72751e-07
1.83102e-06
1.4144e-06
1.85921e-06
1.91345e-06
1.89284e-06
2.41117e-06
1.91577e-06
2.83584e-06
1.89885e-06
3.11556e-06
1.81227e-06
3.22766e-06
1.65126e-06
3.22864e-06
1.44715e-06
3.20326e-06
1.22969e-06
3.18737e-06
1.0139e-06
3.17679e-06
8.02696e-07
3.1595e-06
5.99855e-07
3.12814e-06
4.11345e-07
3.081e-06
2.43017e-07
3.01777e-06
9.88062e-08
2.94111e-06
-1.95714e-08
2.85509e-06
-1.05417e-07
2.76915e-06
-1.65654e-07
2.68887e-06
-2.00579e-07
2.60821e-06
-2.08953e-07
2.53633e-06
-2.02243e-07
2.46889e-06
-1.77829e-07
2.40569e-06
-1.41405e-07
2.34292e-06
-9.53376e-08
2.28533e-06
-2.41336e-08
4.13713e-08
2.14706e-06
1.32334e-07
2.05838e-06
2.12027e-07
1.98494e-06
2.81963e-07
1.92423e-06
3.34823e-07
1.89092e-06
4.60273e-07
1.88091e-06
6.51028e-07
1.8506e-06
9.44739e-07
1.84961e-06
1.37232e-06
1.87278e-06
1.86491e-06
1.90742e-06
2.36488e-06
1.93887e-06
2.81136e-06
1.94009e-06
3.12974e-06
1.88458e-06
3.28661e-06
1.75328e-06
3.31543e-06
1.56443e-06
3.30014e-06
1.35023e-06
3.2878e-06
1.1292e-06
3.28358e-06
9.07012e-07
3.27366e-06
6.88425e-07
3.24804e-06
4.79852e-07
3.20302e-06
2.89225e-07
3.13764e-06
1.23039e-07
3.05505e-06
-1.52388e-08
2.95942e-06
-1.24e-07
2.85764e-06
-1.93998e-07
2.76338e-06
-2.4024e-07
2.66834e-06
-2.60773e-07
2.58226e-06
-2.5494e-07
2.50529e-06
-2.38697e-07
2.43317e-06
-2.05358e-07
2.36342e-06
-1.61968e-07
2.29405e-06
-1.04124e-07
2.23799e-06
-2.62172e-08
4.39946e-08
2.22857e-06
1.46997e-07
2.13241e-06
2.29359e-07
2.0411e-06
2.95047e-07
1.97168e-06
3.41441e-07
1.91753e-06
4.48516e-07
1.90249e-06
6.51132e-07
1.88057e-06
9.34048e-07
1.86093e-06
1.34406e-06
1.87752e-06
1.82549e-06
1.91179e-06
2.32127e-06
1.95072e-06
2.78053e-06
1.96949e-06
3.12896e-06
1.94074e-06
3.32669e-06
1.84444e-06
3.38932e-06
1.67937e-06
3.38945e-06
1.4751e-06
3.38431e-06
1.25366e-06
3.38861e-06
1.02408e-06
3.38985e-06
7.90706e-07
3.37422e-06
5.6213e-07
3.3351e-06
3.47655e-07
3.27041e-06
1.56353e-07
3.18355e-06
-5.56848e-09
3.07894e-06
-1.34857e-07
2.96361e-06
-2.30049e-07
2.85402e-06
-2.84706e-07
2.73955e-06
-3.11509e-07
2.639e-06
-3.17572e-07
2.54978e-06
-2.99486e-07
2.46939e-06
-2.7498e-07
2.39253e-06
-2.34545e-07
2.31263e-06
-1.80642e-07
2.239e-06
-4.32545e-08
-6.19898e-08
1.08694e-06
-4.60688e-09
1.0862e-06
-1.64218e-08
4.46882e-08
2.31431e-06
1.56607e-07
2.21897e-06
2.47958e-07
2.11385e-06
3.10292e-07
2.02585e-06
3.59984e-07
1.95319e-06
4.55352e-07
1.91053e-06
6.62293e-07
1.89105e-06
9.49139e-07
1.86508e-06
1.33589e-06
1.86867e-06
1.79888e-06
1.90367e-06
2.28463e-06
1.94808e-06
2.74483e-06
1.98617e-06
3.11679e-06
1.9815e-06
3.34667e-06
1.92068e-06
3.44476e-06
1.78897e-06
3.46623e-06
1.60256e-06
3.47241e-06
1.38694e-06
3.48823e-06
1.15395e-06
3.50469e-06
9.09129e-07
3.50354e-06
6.61268e-07
3.47529e-06
4.21827e-07
3.41626e-06
2.01698e-07
3.32844e-06
1.136e-08
3.21695e-06
-1.43679e-07
3.08798e-06
-2.59309e-07
2.96049e-06
-3.36591e-07
2.82874e-06
-3.73963e-07
2.70693e-06
-3.79493e-07
2.60599e-06
-3.73841e-07
2.51623e-06
-3.46389e-07
2.43213e-06
-3.14649e-07
2.35e-06
-2.72005e-07
2.25952e-06
-9.00527e-08
-1.11223e-07
1.09127e-06
-4.76155e-08
1.0972e-06
-6.79503e-08
1.06539e-06
-4.06262e-09
1.08431e-06
-4.5758e-08
1.06812e-06
-1.91803e-08
4.07453e-08
2.40142e-06
1.54393e-07
2.31654e-06
2.58924e-07
2.20803e-06
3.2844e-07
2.09568e-06
3.88968e-07
1.99684e-06
4.85983e-07
1.92241e-06
6.90462e-07
1.88211e-06
9.84731e-07
1.85506e-06
1.3539e-06
1.84662e-06
1.79328e-06
1.8738e-06
2.26121e-06
1.92668e-06
2.71125e-06
1.98136e-06
3.09503e-06
2.00772e-06
3.3473e-06
1.98077e-06
3.47571e-06
1.88968e-06
3.52439e-06
1.73078e-06
3.54674e-06
1.52819e-06
3.57791e-06
1.29719e-06
3.61404e-06
1.04449e-06
3.63337e-06
7.79179e-07
3.62216e-06
5.14276e-07
3.57437e-06
2.63602e-07
3.48977e-06
4.02666e-08
3.37269e-06
-1.44508e-07
3.23145e-06
-2.87254e-07
3.08379e-06
-3.82668e-07
2.93059e-06
-4.38494e-07
2.78993e-06
-4.57009e-07
2.66784e-06
-4.4139e-07
2.5666e-06
-4.2427e-07
2.4799e-06
-3.94234e-07
2.38617e-06
-1.64077e-07
-1.86828e-07
1.14462e-06
-1.41354e-07
1.14601e-06
-1.61877e-07
1.09878e-06
-9.16689e-08
1.10829e-06
-1.20778e-07
1.08594e-06
-6.96248e-08
1.05169e-06
-3.81086e-09
1.06618e-06
-4.38572e-08
1.05181e-06
-1.93317e-08
2.92931e-08
2.48288e-06
1.34954e-07
2.42088e-06
2.54066e-07
2.32144e-06
3.46212e-07
2.19029e-06
4.28484e-07
2.05612e-06
5.42114e-07
1.94055e-06
7.45276e-07
1.86731e-06
1.03961e-06
1.82679e-06
1.39806e-06
1.81041e-06
1.81098e-06
1.8284e-06
2.25404e-06
1.88053e-06
2.68815e-06
1.94943e-06
3.06882e-06
2.00732e-06
3.33276e-06
2.02212e-06
3.4813e-06
1.97512e-06
3.55857e-06
1.85548e-06
3.60124e-06
1.67626e-06
3.65198e-06
1.45406e-06
3.71218e-06
1.19895e-06
3.75863e-06
9.19093e-07
3.77207e-06
6.29127e-07
3.74165e-06
3.46869e-07
3.66552e-06
8.77446e-08
3.54714e-06
-1.34293e-07
3.39512e-06
-3.08279e-07
3.2247e-06
-4.28233e-07
3.04768e-06
-4.99787e-07
2.8795e-06
-5.28099e-07
2.73889e-06
-5.28098e-07
2.62368e-06
-4.98533e-07
2.52349e-06
-4.67938e-07
2.44309e-06
-2.13275e-07
-2.37967e-07
1.15975e-06
-1.79234e-07
1.17592e-06
-2.03026e-07
1.11519e-06
-1.48293e-07
1.15885e-06
-1.92111e-07
1.12914e-06
-1.75873e-07
1.08902e-06
-9.48024e-08
1.09459e-06
-1.26401e-07
1.06679e-06
-7.02944e-08
1.04042e-06
-3.47007e-09
1.05076e-06
-4.2854e-08
1.03956e-06
-1.84975e-08
9.46229e-09
2.54664e-06
9.74048e-08
2.52045e-06
2.30125e-07
2.44487e-06
3.59384e-07
2.30836e-06
4.79274e-07
2.1395e-06
6.26978e-07
1.97117e-06
8.33977e-07
1.85153e-06
1.12065e-06
1.7858e-06
1.46771e-06
1.75663e-06
1.85457e-06
1.76629e-06
2.26641e-06
1.81554e-06
2.67504e-06
1.89325e-06
3.03958e-06
1.9784e-06
3.30331e-06
2.03661e-06
3.46657e-06
2.03678e-06
3.56655e-06
1.96713e-06
3.63001e-06
1.82669e-06
3.70414e-06
1.62404e-06
3.79159e-06
1.37455e-06
3.87194e-06
1.08551e-06
3.91855e-06
7.7247e-07
3.91407e-06
4.56563e-07
3.85322e-06
1.5905e-07
3.73891e-06
-1.04156e-07
3.57904e-06
-3.18259e-07
3.39013e-06
-4.73779e-07
3.19092e-06
-5.71494e-07
2.99851e-06
-6.18775e-07
2.84289e-06
-6.32093e-07
2.72779e-06
-6.3226e-07
2.63845e-06
-6.13676e-07
2.56787e-06
-2.66384e-07
-3.26594e-07
1.19149e-06
-2.28869e-07
1.21588e-06
-2.62428e-07
1.17279e-06
-2.17013e-07
1.10286e-06
-1.56613e-07
1.14103e-06
-2.04055e-07
1.1137e-06
-1.86784e-07
1.06991e-06
-9.79866e-08
1.07463e-06
-1.31179e-07
1.05037e-06
-6.99588e-08
1.032e-06
-2.9861e-09
1.036e-06
-3.93587e-08
1.02983e-06
-1.63723e-08
-1.47017e-08
2.56999e-06
5.67197e-08
2.58735e-06
1.97235e-07
2.55339e-06
3.70949e-07
2.43331e-06
5.45984e-07
2.24159e-06
7.47162e-07
2.01924e-06
9.64373e-07
1.84035e-06
1.2361e-06
1.73559e-06
1.56697e-06
1.68599e-06
1.9269e-06
1.68375e-06
2.30338e-06
1.7288e-06
2.67662e-06
1.81353e-06
3.01344e-06
1.91908e-06
3.25957e-06
2.02194e-06
3.42759e-06
2.07551e-06
3.54474e-06
2.05855e-06
3.63002e-06
1.96711e-06
3.72742e-06
1.80337e-06
3.84439e-06
1.57116e-06
3.9664e-06
1.27997e-06
4.05476e-06
9.49132e-07
4.08655e-06
5.99824e-07
4.05095e-06
2.58693e-07
3.94823e-06
-5.04219e-08
3.79061e-06
-3.15805e-07
3.59262e-06
-5.20791e-07
3.38102e-06
-6.63854e-07
3.17603e-06
-7.48898e-07
3.03266e-06
-8.08374e-07
2.97999e-06
-8.84261e-07
2.96944e-06
-9.63661e-07
2.99142e-06
-4.13861e-07
-6.24554e-07
1.26638e-06
-3.17062e-07
1.37779e-06
-4.38465e-07
1.19375e-06
-2.49923e-07
1.24501e-06
-3.13913e-07
1.16198e-06
-2.38061e-07
1.08208e-06
-1.64139e-07
1.1317e-06
-2.22152e-07
1.09726e-06
-2.02069e-07
1.05336e-06
-1.01057e-07
1.05528e-06
-1.33182e-07
1.03353e-06
-6.75568e-08
1.02533e-06
-1.08901e-09
1.02281e-06
-3.24042e-08
1.01958e-06
-1.06564e-08
-4.00242e-08
2.5303e-06
3.21179e-08
2.59459e-06
1.77833e-07
2.60666e-06
3.97059e-07
2.52714e-06
6.4302e-07
2.33589e-06
9.12281e-07
2.07624e-06
1.14519e-06
1.83788e-06
1.39543e-06
1.68046e-06
1.70173e-06
1.60025e-06
2.03206e-06
1.58024e-06
2.36938e-06
1.61719e-06
2.69887e-06
1.70609e-06
2.9946e-06
1.83203e-06
3.20732e-06
1.97111e-06
3.366e-06
2.08341e-06
3.49058e-06
2.12963e-06
3.59041e-06
2.09817e-06
3.71237e-06
1.98214e-06
3.86692e-06
1.78078e-06
4.03338e-06
1.50406e-06
4.17181e-06
1.16276e-06
4.25345e-06
7.82054e-07
4.25691e-06
3.93694e-07
4.18174e-06
2.50991e-08
4.03733e-06
-2.97336e-07
3.84301e-06
-5.66204e-07
3.63236e-06
-7.72e-07
3.44008e-06
-9.27442e-07
3.37699e-06
-1.09246e-06
3.47579e-06
-1.30347e-06
3.69692e-06
-1.61202e-06
3.94504e-06
-8.37084e-07
-1.08268e-06
1.61127e-06
-6.48239e-07
1.9051e-06
-9.19878e-07
1.38042e-06
-4.53114e-07
1.63134e-06
-6.9084e-07
1.21611e-06
-3.04321e-07
1.36189e-06
-4.60472e-07
1.18203e-06
-2.88673e-07
1.06477e-06
-1.73741e-07
1.14079e-06
-2.65957e-07
1.09838e-06
-2.35915e-07
1.03285e-06
-1.00473e-07
1.03471e-06
-1.35153e-07
1.01709e-06
-6.19254e-08
1.0228e-06
2.59012e-09
1.01141e-06
-2.43118e-08
1.01523e-06
-3.13392e-09
-5.41383e-08
2.41222e-06
3.48916e-08
2.52728e-06
1.9315e-07
2.57885e-06
4.58365e-07
2.54445e-06
7.88106e-07
2.38152e-06
1.12984e-06
2.11812e-06
1.38399e-06
1.8369e-06
1.60838e-06
1.62428e-06
1.87885e-06
1.50271e-06
2.17434e-06
1.45737e-06
2.46893e-06
1.48013e-06
2.74716e-06
1.56843e-06
2.98924e-06
1.7111e-06
3.15293e-06
1.88618e-06
3.28462e-06
2.05237e-06
3.40376e-06
2.17016e-06
3.50856e-06
2.21148e-06
3.65334e-06
2.15721e-06
3.8456e-06
2.00341e-06
4.05986e-06
1.75418e-06
4.25937e-06
1.41634e-06
4.4062e-06
1.00982e-06
4.47162e-06
5.67153e-07
4.44236e-06
1.32953e-07
4.32337e-06
-2.61114e-07
4.13992e-06
-5.94297e-07
3.94271e-06
-8.7607e-07
3.80602e-06
-1.1367e-06
3.89783e-06
-1.44586e-06
4.25788e-06
-1.87184e-06
4.7755e-06
-2.38105e-06
5.16421e-06
-1.32338e-06
-1.51081e-06
2.22792e-06
-1.16154e-06
2.55091e-06
-1.40748e-06
1.95275e-06
-9.71655e-07
2.26695e-06
-1.23637e-06
1.62945e-06
-7.22471e-07
1.95534e-06
-1.0192e-06
1.32693e-06
-4.5008e-07
1.59954e-06
-7.35236e-07
1.27139e-06
-4.20118e-07
1.05553e-06
-1.94771e-07
1.2043e-06
-3.72649e-07
1.13235e-06
-3.13403e-07
1.01109e-06
-9.45806e-08
1.01803e-06
-1.42279e-07
9.98733e-07
-4.93569e-08
1.0288e-06
8.5969e-09
1.00214e-06
-1.1301e-08
1.01512e-06
1.05007e-08
-2.20248e-08
2.11267e-06
1.15205e-07
2.33103e-06
3.06215e-07
2.41249e-06
6.08445e-07
2.42751e-06
1.00447e-06
2.32755e-06
1.40233e-06
2.10878e-06
1.68125e-06
1.82026e-06
1.88067e-06
1.56389e-06
2.10607e-06
1.39637e-06
2.35905e-06
1.31737e-06
2.60682e-06
1.3189e-06
2.82746e-06
1.39935e-06
3.00461e-06
1.55268e-06
3.10357e-06
1.7602e-06
3.19221e-06
1.97846e-06
3.28506e-06
2.17101e-06
3.38316e-06
2.29552e-06
3.54474e-06
2.32001e-06
3.76734e-06
2.23538e-06
4.0324e-06
2.03074e-06
4.30181e-06
1.71158e-06
4.52962e-06
1.29271e-06
4.67684e-06
8.04377e-07
4.71434e-06
2.94983e-07
4.64215e-06
-1.85901e-07
4.47761e-06
-5.98837e-07
4.30465e-06
-9.55455e-07
4.2672e-06
-1.33401e-06
4.57918e-06
-1.81246e-06
5.24721e-06
-2.42833e-06
5.92962e-06
-3.02274e-06
6.19039e-06
-1.66931e-06
-1.74039e-06
2.81601e-06
-1.59031e-06
3.04737e-06
-1.74399e-06
2.57552e-06
-1.47263e-06
2.82434e-06
-1.65883e-06
2.27498e-06
-1.29412e-06
2.55989e-06
-1.52435e-06
1.92792e-06
-1.05371e-06
2.2417e-06
-1.33625e-06
1.53908e-06
-7.19913e-07
1.86636e-06
-1.06599e-06
1.45111e-06
-6.69015e-07
1.0645e-06
-2.4177e-07
1.3457e-06
-5.87991e-07
1.22784e-06
-4.7852e-07
9.9043e-07
-8.64408e-08
1.01216e-06
-1.64388e-07
9.79261e-07
-2.6618e-08
1.04483e-06
1.80027e-08
9.87095e-07
1.66247e-08
1.02295e-06
3.23303e-08
7.11313e-08
1.34583e-06
3.547e-07
1.8706e-06
6.12841e-07
2.02237e-06
9.18568e-07
2.10109e-06
1.31741e-06
2.11354e-06
1.72941e-06
1.99976e-06
2.02843e-06
1.76051e-06
2.21055e-06
1.4896e-06
2.38805e-06
1.28115e-06
2.59128e-06
1.16346e-06
2.78747e-06
1.13613e-06
2.94577e-06
1.20011e-06
3.04867e-06
1.35492e-06
3.07013e-06
1.58586e-06
3.09807e-06
1.8542e-06
3.1384e-06
2.12507e-06
3.21184e-06
2.34228e-06
3.37332e-06
2.46684e-06
3.61977e-06
2.46737e-06
3.94009e-06
2.32735e-06
4.28599e-06
2.04621e-06
4.60434e-06
1.63656e-06
4.84325e-06
1.12601e-06
4.97066e-06
5.47796e-07
4.96657e-06
-2.95383e-08
4.83999e-06
-5.47968e-07
4.70176e-06
-9.94447e-07
4.79252e-06
-1.47563e-06
5.36836e-06
-2.11247e-06
6.32411e-06
-2.87908e-06
6.94064e-06
-3.43229e-06
6.90313e-06
-1.84882e-06
-1.88692e-06
3.18626e-06
-1.81022e-06
3.31095e-06
-1.86721e-06
3.00551e-06
-1.77424e-06
3.11834e-06
-1.85952e-06
2.78323e-06
-1.69934e-06
2.92717e-06
-1.80613e-06
2.50952e-06
-1.56548e-06
2.70155e-06
-1.72032e-06
2.17316e-06
-1.36422e-06
2.42225e-06
-1.58927e-06
1.77225e-06
-1.04485e-06
2.07111e-06
-1.36897e-06
1.64758e-06
-9.74845e-07
1.10993e-06
-3.40894e-07
1.50259e-06
-8.66778e-07
1.34218e-06
-7.14578e-07
9.7086e-07
-7.83116e-08
1.01133e-06
-2.05732e-07
9.5652e-07
3.76485e-09
1.07949e-06
3.23185e-08
9.73752e-07
6.57062e-08
1.04375e-06
6.80244e-08
1.68875e-07
1.04266e-06
5.87562e-07
1.11117e-06
1.04062e-06
1.44144e-06
1.34135e-06
1.59793e-06
1.69927e-06
1.71796e-06
2.09749e-06
1.74421e-06
2.41048e-06
1.61665e-06
2.58846e-06
1.38168e-06
2.72375e-06
1.15308e-06
2.87345e-06
9.98287e-07
3.01457e-06
9.35765e-07
3.10723e-06
9.742e-07
3.12924e-06
1.11919e-06
3.06374e-06
1.36106e-06
3.00785e-06
1.67594e-06
2.96843e-06
2.02411e-06
2.9942e-06
2.34262e-06
3.13499e-06
2.58044e-06
3.4049e-06
2.68143e-06
3.77534e-06
2.63176e-06
4.19495e-06
2.41795e-06
4.60469e-06
2.04535e-06
4.95231e-06
1.52705e-06
5.18952e-06
9.06785e-07
5.2756e-06
2.38502e-07
5.2047e-06
-3.94254e-07
5.10234e-06
-9.45958e-07
5.33729e-06
-1.53138e-06
6.18606e-06
-2.27845e-06
7.36959e-06
-3.14055e-06
7.76117e-06
-3.69023e-06
7.45815e-06
-1.97081e-06
-2.02051e-06
3.3814e-06
-1.9213e-06
3.43309e-06
-1.94074e-06
3.1961e-06
-1.89053e-06
3.22209e-06
-1.89556e-06
3.01959e-06
-1.86967e-06
3.04379e-06
-1.88634e-06
2.82225e-06
-1.82353e-06
2.87584e-06
-1.86288e-06
2.59219e-06
-1.7398e-06
2.69295e-06
-1.82468e-06
2.30358e-06
-1.601e-06
2.45547e-06
-1.74578e-06
1.93005e-06
-1.3317e-06
2.153e-06
-1.59658e-06
1.76618e-06
-1.24296e-06
1.17886e-06
-5.11236e-07
1.59085e-06
-1.12032e-06
1.40438e-06
-9.4525e-07
9.51967e-07
-7.42869e-08
1.03324e-06
-2.8899e-07
9.31424e-07
4.57875e-08
1.14275e-06
6.09796e-08
9.62219e-07
1.47097e-07
1.06586e-06
1.44875e-07
2.38925e-07
9.42698e-07
8.29192e-07
7.99536e-07
1.31895e-06
8.3134e-07
1.72471e-06
1.05648e-06
2.06806e-06
1.22776e-06
2.4604e-06
1.3538e-06
2.79679e-06
1.3569e-06
2.99231e-06
1.21176e-06
3.10378e-06
1.00075e-06
3.20469e-06
8.21094e-07
3.28996e-06
7.22308e-07
3.31601e-06
7.26529e-07
3.25385e-06
8.49254e-07
3.09513e-06
1.08758e-06
2.93062e-06
1.43818e-06
2.78897e-06
1.85531e-06
2.7437e-06
2.27436e-06
2.85699e-06
2.62014e-06
3.15191e-06
2.83272e-06
3.55802e-06
2.89791e-06
4.03705e-06
2.78882e-06
4.53745e-06
2.48444e-06
5.00268e-06
1.99432e-06
5.36083e-06
1.35523e-06
5.56039e-06
6.21587e-07
5.56965e-06
-1.26282e-07
5.4972e-06
-7.86412e-07
5.83229e-06
-1.42937e-06
6.94834e-06
-2.27553e-06
8.31744e-06
-3.20542e-06
8.46855e-06
-3.84377e-06
7.89759e-06
-2.06423e-06
-2.07257e-06
3.43948e-06
-1.97936e-06
3.43652e-06
-2.01974e-06
3.19652e-06
-1.89801e-06
3.13617e-06
-1.88256e-06
3.01905e-06
-1.86808e-06
2.93902e-06
-1.81764e-06
2.86708e-06
-1.86331e-06
2.79524e-06
-1.81666e-06
2.71599e-06
-1.84924e-06
2.67719e-06
-1.82618e-06
2.52523e-06
-1.81323e-06
2.52503e-06
-1.82684e-06
2.28944e-06
-1.74227e-06
2.33481e-06
-1.79486e-06
1.96675e-06
-1.53716e-06
2.08378e-06
-1.71862e-06
1.77442e-06
-1.43151e-06
1.21434e-06
-6.97541e-07
1.56812e-06
-1.28925e-06
1.35776e-06
-1.09398e-06
9.32389e-07
-7.63921e-08
1.03723e-06
-3.975e-07
8.9725e-07
1.10207e-07
1.25962e-06
1.14032e-07
9.38895e-07
2.73856e-07
1.09992e-06
3.04533e-07
3.14595e-07
8.74418e-07
1.07371e-06
6.9708e-07
1.56391e-06
5.53369e-07
1.96769e-06
5.872e-07
2.37133e-06
7.52038e-07
2.77495e-06
9.12022e-07
3.14586e-06
1.00376e-06
3.38593e-06
9.62108e-07
3.50626e-06
8.08305e-07
3.57606e-06
6.28606e-07
3.61099e-06
4.99486e-07
3.57426e-06
4.63626e-07
3.42983e-06
5.50252e-07
3.17318e-06
7.71041e-07
2.88374e-06
1.13437e-06
2.62974e-06
1.5972e-06
2.50805e-06
2.09027e-06
2.6018e-06
2.52814e-06
2.90841e-06
2.86154e-06
3.34616e-06
3.04214e-06
3.87281e-06
3.05982e-06
4.45612e-06
2.86821e-06
5.02806e-06
2.45763e-06
5.50417e-06
1.84992e-06
5.82049e-06
1.09446e-06
5.93434e-06
2.56744e-07
5.89991e-06
-5.26485e-07
6.26602e-06
-1.20776e-06
7.59011e-06
-2.04724e-06
9.12284e-06
-3.06052e-06
9.16586e-06
-3.90141e-06
8.25417e-06
-4.20762e-06
3.39863e-06
-2.0286e-06
3.32379e-06
-2.00013e-06
3.03722e-06
-1.88248e-06
2.92926e-06
-1.91359e-06
2.80896e-06
-1.76977e-06
2.65609e-06
-1.73109e-06
2.66979e-06
-1.74437e-06
2.50164e-06
-1.65048e-06
2.57158e-06
-1.75921e-06
2.40795e-06
-1.65379e-06
2.46491e-06
-1.79064e-06
2.34747e-06
-1.70946e-06
2.31572e-06
-1.79638e-06
2.24352e-06
-1.75551e-06
2.11395e-06
-1.77594e-06
2.0835e-06
-1.766e-06
1.86397e-06
-1.63194e-06
1.87161e-06
-1.72973e-06
1.6407e-06
-1.50949e-06
1.15515e-06
-8.21467e-07
1.41272e-06
-1.34953e-06
1.19007e-06
-1.13444e-06
9.02525e-07
-8.39834e-08
9.74276e-07
-4.75045e-07
8.4309e-07
2.04893e-07
1.51674e-06
1.9369e-07
9.13162e-07
4.60238e-07
1.1907e-06
6.30495e-07
4.21545e-07
8.04816e-07
1.2998e-06
6.47282e-07
1.79826e-06
4.61606e-07
2.18019e-06
3.39991e-07
2.58514e-06
3.72399e-07
3.02361e-06
5.02289e-07
3.43456e-06
6.22255e-07
3.73543e-06
6.53071e-07
3.89841e-06
5.68911e-07
3.96817e-06
4.15391e-07
3.96952e-06
2.69493e-07
3.88034e-06
1.93016e-07
3.66188e-06
2.3134e-07
3.30873e-06
4.14585e-07
2.89599e-06
7.58714e-07
2.53355e-06
1.23009e-06
2.34339e-06
1.76022e-06
2.42357e-06
2.26503e-06
2.71507e-06
2.71626e-06
3.17749e-06
3.02375e-06
3.77027e-06
3.13812e-06
4.42278e-06
3.08777e-06
5.07737e-06
2.81512e-06
5.65183e-06
2.30769e-06
6.07626e-06
1.59297e-06