/*--------------------------------*- C++ -*----------------------------------*\
  =========                 |
  \\      /  F ield         | OpenFOAM: The Open Source CFD Toolbox
   \\    /   O peration     | Website:  https://openfoam.org
    \\  /    A nd           | Version:  dev
     \\/     M anipulation  |
\*---------------------------------------------------------------------------*/
FoamFile
{
    version     2.0;
    format      ascii;
    class       volScalarField;
    location    "2500";
    object      qr;
}
// * * * * * * * * * * * * * * * * * * * * * * * * * * * * * * * * * * * * * //

dimensions      [1 0 -3 0 0 0 0];

internalField   uniform 0;

boundaryField
{
    lowerOutlet
    {
        type            calculated;
        value           nonuniform List<scalar> 
138
(
1123.43
1127.17
1131.29
1135.81
1140.72
1146.04
1151.78
1157.95
1164.56
1171.63
1179.18
1187.24
1195.82
1204.96
1214.7
1225.06
1236.11
1247.89
1260.46
1273.89
1288.26
1303.67
1320.23
1338.07
1357.38
1378.33
1401.11
1425.96
1453.2
1483.19
1516.4
1553.41
1594.97
1642.16
1682.34
1740.97
1808.53
1886.9
1978.41
2086.12
2214.27
2375.56
2655.42
3088.07
3435.83
4094.64
4827.22
5537.48
-8873.72
3405.98
2938.15
2638.24
2391.93
2225.22
2092.9
1985.29
1895.89
1820.6
1756.35
1700.7
1651.96
1608.9
1560.94
1527.08
1496.61
1468.91
1443.59
1420.32
1398.84
1378.95
1360.45
1343.21
1327.13
1312.11
1298.01
1284.76
1272.3
1260.55
1249.47
1239.01
1229.14
1219.8
1210.99
1202.66
1194.79
1187.37
1180.36
1173.77
1167.57
1161.74
1156.29
1151.19
1146.45
1142.05
1137.99
1134.27
2030.01
2147.3
2289.09
2435.78
2732.34
3312.5
3963.72
4575.84
5416.87
4731.09
3584.3
3032.66
2704.2
2491.04
2303.44
2155.48
2036.46
1938.62
1856.68
1787.27
1930.84
4153.65
4929.55
5838.64
4041.08
3261.43
2853.05
2577.13
1727.57
3705.19
4310.17
5232.32
6026.9
3797.71
3139.14
2775.51
1710.64
1773.52
1846.23
1675.55
1629.79
1589.19
)
;
    }
    top
    {
        type            calculated;
        value           nonuniform List<scalar> 
100
(
1010.54
1008.13
1008.56
1010.08
1012.34
1015
1017.87
1020.8
1023.66
1026.43
1029.12
1031.73
1034.25
1036.66
1039.02
1041.29
1043.29
1044.58
1044.55
1042.64
1039.02
1034.88
1033.23
1035.77
1041.32
1050.71
1063.05
1076.23
1084.18
1088.6
1091.98
1094.96
1097.87
1100.72
1103.47
1106.13
1108.7
1111.17
1113.58
1115.91
1118.16
1120.17
1121.98
1123.63
1125.18
1126.61
1127.93
1129.14
1130.23
1131.2
1132.06
1132.81
1133.43
1133.94
1134.31
1134.53
1134.61
1134.49
1134.16
1133.63
1132.94
1132.13
1131.26
1130.41
1129.6
1128.81
1127.92
1127.72
1128.55
1139.19
1137.26
1135.23
1133.1
1130.87
1128.56
1126.17
1123.71
1121.17
1118.56
1115.9
1110.47
1107.07
1103.58
1099.96
1096.18
1092.21
1088.01
1083.56
1079.02
1074.78
1071.05
1067.76
1064.82
1062.26
1060.02
1058.13
1057.04
1061.56
1058.38
1055.26
)
;
    }
    sides
    {
        type            calculated;
        value           nonuniform List<scalar> 
100
(
1123.43
1126.43
1129.04
1131.29
1133.17
1134.68
1135.85
1136.66
1137.14
1137.29
1137.12
1136.65
1135.89
1134.86
1133.56
1132.02
1130.24
1128.24
1126.03
1123.64
1121.07
1118.33
1115.45
1112.42
1109.28
1106.02
1102.66
1099.22
1095.7
1092.11
1088.48
1084.8
1081.09
1077.36
1073.62
1069.88
1066.15
1062.45
1058.77
1055.12
1051.51
1047.96
1044.45
1040.99
1037.59
1034.25
1030.97
1027.74
1024.57
1021.47
1134.28
1137.35
1140.1
1142.53
1144.64
1146.43
1147.92
1149.1
1149.98
1150.57
1150.89
1150.93
1150.71
1150.25
1149.55
1148.62
1147.48
1146.13
1144.6
1142.89
1141.01
1138.98
1136.8
1134.5
1132.07
1129.53
1126.89
1124.17
1121.36
1118.48
1115.54
1112.54
1109.49
1106.39
1103.27
1100.11
1096.93
1093.73
1090.52
1087.3
1084.08
1080.85
1077.63
1074.41
1071.19
1067.98
1064.77
1061.58
1058.39
1055.26
)
;
    }
    front
    {
        type            empty;
    }
    back
    {
        type            empty;
    }
    roller
    {
        type            calculated;
        value           nonuniform List<scalar> 
142
(
4865.37
2753.26
2177.14
1769.36
1505.01
1286.16
1288.55
5545.34
5029.02
3892.64
3898.91
2962.14
3643.14
2290.18
2187.82
1523.95
1441.51
1397.41
1367.03
1334.73
1332.02
1291.21
1289.03
1294.66
1297.83
1287.09
5048.51
3630.76
2436.08
2349.53
1743.71
1483.14
1488.24
1395.37
1380.02
1322.45
1287.78
1289.97
5289.66
4100.33
2529.48
2267.13
1880.29
1837.48
1539.82
1477.33
1462.75
1428.97
1420.12
1293.18
1300.56
5793.1
4701.39
4382.72
3027.23
2858.06
2130.35
1656.24
1570.18
1501.59
1313.95
1285.29
6375.27
6507.4
6662.35
6611.54
6141.81
5905.52
1797.74
2012.89
1946.22
1679.69
1897.55
1762.57
1590.33
1722.22
1620.59
1516.79
1594.34
1564.6
1456.23
1444.35
1286.68
1285.28
4606.87
2574.57
2101.53
1926.38
2078
1633.53
1551.23
1386.43
1377.52
1348.41
1307.34
1301.66
1296.7
1319.04
1285.74
1285.54
6042.52
6218.02
6605.25
6659.49
6505.73
6345.8
5649.36
5383.03
4104.67
4310.95
3340.35
3148.62
3417.59
3212.96
2421.38
2738.94
2629.94
2035.91
1978.01
1711.74
1850.67
1805.54
1611.52
1684.99
1650.92
1533.38
1467.49
1408.3
1430.77
1415.86
1357.4
1363.65
1348.47
1339.96
1324.48
1314.41
1287.12
1291.82
1309.19
1304.73
1285.45
1286.06
)
;
    }
    burner
    {
        type            calculated;
        value           nonuniform List<scalar> 
16
(
-125792
-120321
-117456
-118235
-121484
-117894
-117560
-124131
-124395
-119337
-117230
-119387
-122851
-118526
-117251
-121215
)
;
    }
}


// ************************************************************************* //
