/*--------------------------------*- C++ -*----------------------------------*\
  =========                 |
  \\      /  F ield         | OpenFOAM: The Open Source CFD Toolbox
   \\    /   O peration     | Website:  https://openfoam.org
    \\  /    A nd           | Version:  dev
     \\/     M anipulation  |
\*---------------------------------------------------------------------------*/
FoamFile
{
    version     2.0;
    format      ascii;
    class       volScalarField;
    location    "2500";
    object      rAU;
}
// * * * * * * * * * * * * * * * * * * * * * * * * * * * * * * * * * * * * * //

dimensions      [-1 3 1 0 0 0 0];

internalField   nonuniform List<scalar> 
10028
(
0.00820973
0.00827632
0.00822302
0.00825096
0.00839579
0.00815376
0.00821812
0.00838946
0.00840091
0.00809393
0.0081886
0.00838731
0.00838595
0.00841376
0.0080379
0.00816628
0.00839091
0.00837759
0.00839647
0.00842337
0.00798681
0.0081466
0.00840091
0.00837779
0.00838116
0.00841126
0.00842771
0.00793974
0.00812623
0.00841
0.00838251
0.00837201
0.00839559
0.00842206
0.00842973
0.00789673
0.0081057
0.00841857
0.00839321
0.00836774
0.00838056
0.00841192
0.008427
0.00843079
0.00785658
0.00808507
0.00842266
0.00840623
0.0083692
0.00836908
0.00839768
0.00842231
0.00842971
0.00843177
0.00781954
0.00806632
0.00842477
0.00841615
0.00837569
0.00836242
0.00838181
0.00841355
0.00842746
0.00843112
0.0084325
0.00778525
0.00804751
0.00842688
0.0084239
0.00838783
0.00835986
0.00836915
0.00840065
0.0084235
0.00843038
0.00843215
0.00843302
0.00775362
0.00802853
0.00842766
0.00842874
0.00840184
0.00836274
0.00835991
0.00838567
0.00841584
0.0084287
0.00843188
0.00843321
0.00843341
0.0077243
0.00801075
0.00842884
0.0084313
0.00841291
0.00837055
0.00835455
0.00837087
0.00840457
0.00842499
0.00843129
0.00843301
0.00843398
0.00843367
0.00769735
0.00799339
0.00843003
0.00843289
0.00842145
0.00838293
0.00835258
0.00835979
0.00839055
0.00841833
0.00842979
0.00843287
0.00843395
0.0084345
0.00843394
0.00767276
0.00797577
0.00843184
0.00843459
0.00842701
0.00839676
0.00835559
0.00835192
0.00837573
0.00840881
0.00842685
0.00843246
0.00843395
0.0084348
0.00843511
0.00843415
0.00765054
0.00795852
0.00843322
0.00843487
0.00842956
0.00840825
0.00836314
0.00834644
0.00836209
0.00839668
0.00842143
0.00843138
0.00843412
0.00843512
0.00843551
0.00843555
0.00843427
0.00763058
0.00793991
0.0084347
0.00843562
0.0084322
0.00841746
0.0083759
0.00834382
0.00835126
0.00838219
0.00841368
0.0084288
0.00843391
0.00843523
0.00843592
0.00843608
0.00843589
0.00843445
0.00761296
0.00792089
0.00843427
0.00843578
0.00843324
0.00842352
0.00838984
0.00834677
0.00834287
0.00836688
0.00840333
0.00842484
0.00843307
0.00843549
0.00843631
0.00843657
0.0084365
0.00843614
0.00843459
0.00759775
0.00790491
0.00843362
0.00843576
0.0084341
0.00842752
0.00840178
0.00835362
0.00833775
0.00835293
0.00838943
0.00841891
0.0084314
0.0084354
0.00843654
0.00843715
0.0084371
0.0084369
0.00843653
0.00843464
0.00758498
0.00788758
0.00843571
0.00843584
0.00843492
0.00842935
0.00841106
0.00836525
0.00833486
0.00834253
0.00837399
0.00840934
0.00842862
0.00843517
0.00843684
0.00843759
0.00843781
0.0084375
0.00843719
0.00843682
0.00843467
0.00757449
0.00787058
0.00843565
0.00843595
0.00843558
0.00843158
0.00841805
0.00837859
0.00833629
0.00833454
0.00835884
0.00839707
0.00842305
0.00843426
0.00843734
0.00843787
0.00843836
0.00843831
0.00843794
0.00843758
0.00843709
0.00843472
0.00756568
0.00785421
0.00843565
0.00843616
0.00843556
0.00843253
0.00842234
0.00839183
0.00834124
0.00832923
0.00834542
0.00838295
0.00841504
0.00843129
0.00843757
0.00843871
0.00843875
0.00843903
0.00843876
0.00843842
0.008438
0.0084373
0.00843472
0.00743394
0.00783807
0.00843563
0.00843602
0.00843557
0.00843331
0.00842553
0.00840175
0.00834978
0.0083252
0.00833501
0.00836826
0.00840477
0.00842654
0.00843606
0.0084396
0.00843968
0.00843939
0.00843939
0.00843907
0.00843871
0.00843832
0.00843752
0.00826151
0.00746721
0.00782202
0.0084356
0.00843591
0.00843565
0.00843393
0.00842764
0.00840851
0.00836126
0.0083241
0.0083268
0.00835321
0.00839291
0.00842046
0.0084333
0.00843884
0.00844086
0.00844044
0.00843975
0.00843981
0.00843946
0.00843918
0.00843859
0.0084151
0.00832765
0.00754898
0.00780596
0.00843543
0.00843584
0.00843555
0.00843413
0.00842904
0.00841342
0.00837294
0.00832644
0.00832059
0.00833972
0.00837908
0.00841245
0.00843001
0.0084371
0.00844062
0.00844183
0.00844095
0.0084401
0.00844006
0.00843981
0.00843952
0.00843876
0.00843564
0.00843405
0.00754827
0.00779008
0.00843534
0.0084355
0.00843514
0.00843414
0.0084299
0.00841738
0.00838371
0.00833115
0.00831596
0.0083287
0.00836473
0.00840236
0.00842535
0.00843531
0.00843934
0.00844169
0.00844256
0.00844124
0.00844019
0.00844017
0.00844002
0.00843971
0.00843894
0.00843867
0.00843356
0.00755176
0.00777435
0.00843533
0.00843525
0.00843476
0.00843389
0.00843038
0.00841977
0.00839232
0.0083378
0.00831247
0.00832009
0.00835034
0.00839078
0.00841931
0.00843296
0.00843811
0.00844061
0.0084424
0.00844272
0.00844125
0.00844026
0.00844036
0.00844012
0.00843965
0.00843918
0.00843868
0.00843304
0.00755788
0.00775758
0.00843518
0.00843525
0.00843433
0.00843319
0.00843027
0.0084211
0.00839798
0.00834539
0.00831103
0.00831315
0.00833704
0.00837808
0.00841151
0.00842972
0.00843703
0.00843963
0.0084412
0.00844267
0.00844282
0.00844122
0.00844012
0.00844041
0.0084401
0.00843955
0.00843893
0.00843835
0.00843226
0.00756627
0.00773922
0.00843489
0.00843476
0.00843407
0.00843238
0.0084296
0.00842134
0.00840101
0.00835245
0.00831127
0.00830771
0.00832548
0.00836484
0.00840224
0.00842542
0.00843552
0.0084389
0.00844036
0.00844127
0.00844257
0.00844281
0.008441
0.00843994
0.00844011
0.00843991
0.008439
0.00843836
0.00843759
0.00843161
0.00757757
0.00771898
0.00843438
0.0084341
0.00843402
0.00843151
0.00842791
0.00842055
0.00840197
0.00835756
0.00831262
0.00830344
0.00831599
0.00835186
0.0083918
0.00841973
0.00843332
0.0084381
0.00843957
0.00844012
0.00844092
0.00844207
0.00844233
0.00844064
0.00843958
0.00843988
0.00843927
0.00843807
0.00843755
0.00843639
0.00843126
0.00759073
0.00769718
0.00843406
0.00843327
0.00843329
0.00843115
0.00842559
0.00841817
0.0084015
0.00836001
0.00831365
0.00829982
0.00830872
0.00833937
0.00838053
0.0084127
0.00843037
0.00843712
0.00843893
0.0084393
0.00843959
0.00844009
0.00844129
0.00844162
0.00844004
0.00843908
0.00843902
0.00843804
0.00843671
0.00843602
0.00843464
0.00843096
0.00760453
0.00767261
0.00843358
0.00843263
0.00843179
0.00843042
0.00842425
0.00841373
0.00839865
0.00836001
0.00831343
0.0082963
0.00830272
0.00832784
0.00836892
0.00840452
0.00842641
0.0084358
0.0084383
0.00843854
0.00843851
0.0084384
0.00843876
0.00844005
0.00844051
0.00843908
0.00843792
0.00843723
0.00843593
0.00843465
0.00843386
0.00843302
0.00843075
0.00761777
0.00764505
0.00843314
0.00843205
0.00843029
0.00842826
0.00842262
0.00840864
0.00839078
0.00835671
0.00831188
0.00829273
0.00829741
0.00831802
0.00835734
0.00839532
0.00842136
0.00843393
0.00843765
0.00843775
0.00843735
0.00843683
0.00843647
0.00843673
0.0084381
0.00843871
0.00843712
0.00843543
0.0084343
0.00843291
0.00843228
0.00843202
0.00843278
0.00841847
0.00767428
0.00761578
0.00843299
0.00843147
0.00842864
0.00842429
0.00840661
0.00836968
0.00832781
0.00823196
0.00830793
0.00828895
0.00829263
0.00830987
0.00834644
0.00838537
0.00841497
0.00843114
0.00843668
0.008437
0.0084361
0.00843507
0.00843418
0.00843372
0.00843391
0.0084353
0.00843595
0.00843379
0.008432
0.00843114
0.0084306
0.00843124
0.00843149
0.00841935
0.00831727
0.0081709
0.00670903
0.00829295
0.00815991
0.00758703
0.00843314
0.00843137
0.00842697
0.00841958
0.00839536
0.00835502
0.00830322
0.00815412
0.00829948
0.00828422
0.00828817
0.00830354
0.0083369
0.00837515
0.00840718
0.00842704
0.00843486
0.00843592
0.00843476
0.00843295
0.00843161
0.00843066
0.00843006
0.00843034
0.00843212
0.00843284
0.00843094
0.00842993
0.00843016
0.00843111
0.00841216
0.00847366
0.00816544
0.00815982
0.00814654
0.00669949
0.00815317
0.00813126
0.00756106
0.00843317
0.00843153
0.00842587
0.00841226
0.00839798
0.00836903
0.00833717
0.00824932
0.00828594
0.00827653
0.00828288
0.00824862
0.00832915
0.00836577
0.00839878
0.00842174
0.00843181
0.00843397
0.00843288
0.0084303
0.00842808
0.00842662
0.00842586
0.0084258
0.00842736
0.0084298
0.00843129
0.00843013
0.00842996
0.00843268
0.00841256
0.00829871
0.00814153
0.00815161
0.00828993
0.00814949
0.00814625
0.00814408
0.00814869
0.00670919
0.00815443
0.00813156
0.00751908
0.0084332
0.00843184
0.00842491
0.00839822
0.00838382
0.00835238
0.00832574
0.00829329
0.00826864
0.00826557
0.00827514
0.00824208
0.00823401
0.00835672
0.00839055
0.00841595
0.00842804
0.00843107
0.00843026
0.00842694
0.00842346
0.0084211
0.00842046
0.00842104
0.00842287
0.00842569
0.00842849
0.00842952
0.00842813
0.00837989
0.0083109
0.0081481
0.00815812
0.00814035
0.00814143
0.00814248
0.00814698
0.00814922
0.00814945
0.00815113
0.00671628
0.00815586
0.00813184
0.00735397
0.00840533
0.00843165
0.00842372
0.00838893
0.00836422
0.00832714
0.00829613
0.0082698
0.00824899
0.00825181
0.00826498
0.00828341
0.00822527
0.00834628
0.00838058
0.00840839
0.00842354
0.00842817
0.00842743
0.00842368
0.00841939
0.00841643
0.00841556
0.0084164
0.00841798
0.0084207
0.00842254
0.0084222
0.00838042
0.00831951
0.008195
0.00807809
0.00803989
0.00816178
0.0081161
0.00816154
0.00815217
0.00816366
0.00816642
0.00815368
0.00815846
0.00815673
0.00671978
0.00815884
0.00813152
0.00736674
0.00810869
0.00841105
0.00841391
0.00839054
0.00834946
0.0083048
0.00826431
0.00824235
0.00822714
0.00823526
0.00825247
0.00827433
0.00830339
0.00833496
0.00836757
0.00839584
0.00841478
0.0084236
0.00842503
0.00842224
0.00841827
0.00841646
0.00841443
0.00841347
0.00841251
0.00841224
0.00841114
0.00840528
0.00835493
0.00833676
0.00822584
0.00795993
0.00775443
0.00801405
0.00792324
0.00811177
0.00799989
0.00810944
0.00817013
0.00811862
0.00813294
0.00816868
0.00817553
0.00817476
0.0067195
0.00816402
0.00811016
0.00740342
0.00805763
0.00823742
0.0083254
0.00838465
0.00834256
0.00828331
0.0082329
0.00821204
0.00820308
0.00821616
0.00823726
0.00826381
0.00829328
0.00832285
0.00835151
0.00837819
0.00839929
0.00841308
0.00841887
0.00842008
0.00842163
0.00842189
0.00841838
0.00841221
0.00840493
0.00840107
0.0083911
0.00837566
0.00836211
0.00835094
0.00823526
0.00756854
0.00741091
0.0077455
0.00753682
0.00789887
0.00772406
0.0079992
0.00789611
0.00800548
0.00813544
0.0080221
0.00803804
0.008199
0.00816989
0.00820867
0.00648103
0.00816256
0.00774284
0.00749232
0.00806525
0.00814967
0.0082092
0.00832425
0.00832523
0.00825768
0.00820239
0.00818053
0.00817754
0.00819496
0.0082197
0.00825114
0.00828133
0.00830804
0.00833238
0.00835668
0.00837861
0.00839547
0.00840464
0.00841081
0.00842263
0.00842755
0.00842508
0.00841517
0.00839739
0.00838709
0.00836764
0.00834123
0.0083153
0.00817495
0.00809468
0.00715114
0.00703458
0.00739456
0.00715762
0.0075161
0.00732127
0.00772034
0.00751676
0.00791158
0.00774208
0.00793589
0.00807769
0.00795558
0.0079564
0.00821953
0.00812868
0.00824714
0.00675923
0.00807101
0.00814311
0.0077629
0.00813072
0.00818757
0.00822267
0.00826776
0.00827608
0.00822485
0.00817235
0.00814945
0.00815159
0.00817223
0.00820061
0.00823612
0.00813656
0.00822622
0.00830774
0.00833272
0.00835478
0.00837302
0.00838434
0.0083917
0.00841292
0.00842577
0.00842882
0.00841976
0.00839547
0.00837563
0.00834299
0.00831089
0.00819458
0.008033
0.00788908
0.00655071
0.0068509
0.00683511
0.00669235
0.00709968
0.00677464
0.00729876
0.00702342
0.00753393
0.00730336
0.00778185
0.00756445
0.00780503
0.00800019
0.00782875
0.00788812
0.00816429
0.00802788
0.00818002
0.00680247
0.00813262
0.00826451
0.00787444
0.0082276
0.00825437
0.00827217
0.0082602
0.008232
0.00819143
0.00814518
0.00812117
0.00812611
0.00814873
0.0081808
0.00821917
0.00813925
0.00808305
0.00822524
0.00830499
0.00832966
0.00834993
0.00836412
0.00837089
0.00838846
0.00841034
0.00842301
0.00842158
0.00839746
0.00836611
0.00832592
0.00828327
0.0081041
0.00794154
0.0079586
0.00684614
0.00680037
0.00680032
0.00698791
0.00693366
0.00686945
0.00669335
0.006902
0.00706584
0.00706177
0.00733381
0.00713262
0.00760973
0.00740263
0.00765491
0.0079645
0.00771448
0.00780197
0.00808636
0.00796122
0.00812094
0.00675987
0.00823361
0.00838374
0.00793794
0.00823069
0.00830071
0.00827489
0.00824612
0.0082148
0.00817478
0.00812902
0.00810039
0.0081032
0.00812569
0.008161
0.00818596
0.00815825
0.00811025
0.00820881
0.00828662
0.00830771
0.00832967
0.00834762
0.008358
0.00836458
0.00837741
0.00840238
0.0084144
0.00839978
0.00835901
0.00830711
0.00824816
0.008068
0.00816061
0.00791368
0.00705041
0.00674827
0.00656822
0.0064244
0.00657853
0.00634656
0.00656333
0.00624105
0.00627622
0.00606684
0.00711651
0.00665062
0.00728161
0.00717985
0.00748795
0.00734162
0.00753462
0.00782719
0.00757845
0.00766137
0.00801846
0.00794629
0.00810931
0.0066203
0.0083477
0.00839735
0.00798133
0.00824243
0.00828137
0.00827677
0.00825382
0.00822093
0.00817669
0.00812765
0.00809234
0.0080871
0.00810551
0.00814248
0.00818261
0.00817524
0.00815867
0.00821813
0.00826597
0.0082863
0.00830536
0.00832288
0.00833679
0.00834658
0.00835335
0.00836267
0.00839123
0.00839512
0.00835619
0.00828949
0.00821065
0.00804082
0.00811732
0.00833671
0.00598865
0.0060181
0.00689707
0.00693429
0.00684718
0.00697575
0.00678871
0.00704903
0.00649107
0.00704231
0.00634069
0.00685215
0.00668212
0.00655369
0.00679181
0.00628143
0.00739983
0.00685644
0.00742638
0.00774791
0.00745906
0.00751787
0.00796878
0.00781991
0.00811648
0.00631789
0.00833935
0.00838839
0.00800299
0.0082641
0.00826287
0.00827228
0.00826812
0.00824177
0.00819478
0.00813881
0.00809547
0.00808163
0.00809198
0.00812714
0.00816721
0.0081941
0.00819156
0.0082288
0.00824197
0.00811816
0.0082591
0.00825209
0.00814263
0.00830971
0.00832429
0.00833429
0.00835001
0.00837516
0.00835369
0.00828391
0.00818483
0.00802648
0.00808834
0.00828528
0.00788844
0.00686761
0.00672083
0.00692379
0.00688863
0.00699262
0.00695322
0.00708004
0.00700072
0.00713278
0.00702104
0.00707148
0.00711352
0.00664895
0.00714146
0.00659016
0.00698039
0.00730244
0.00722809
0.00730247
0.00759039
0.0073242
0.00736568
0.00793348
0.0076929
0.00809832
0.00582488
0.00826547
0.00791131
0.00800946
0.00828605
0.00824947
0.00825812
0.00826962
0.0082612
0.00822428
0.00816534
0.00810899
0.00808439
0.00808804
0.00811755
0.00815472
0.00818093
0.00819539
0.00820408
0.00810789
0.00805993
0.00802261
0.00819433
0.00780289
0.00790112
0.00827901
0.00829705
0.00831346
0.00833801
0.00834661
0.00828273
0.00818437
0.0080462
0.00808119
0.00825092
0.00799335
0.00682878
0.00682732
0.00685358
0.00683986
0.00694629
0.00694977
0.00696581
0.00697911
0.00698918
0.00695588
0.00695652
0.00684698
0.00717407
0.00704239
0.00720674
0.00725172
0.00720808
0.00722905
0.00720883
0.00719953
0.00720424
0.00741157
0.00721626
0.00723994
0.00779205
0.00748569
0.007957
0.00621571
0.00804645
0.00791298
0.00804591
0.00828906
0.00824748
0.00823779
0.00826125
0.00826451
0.00824674
0.00819738
0.00813664
0.0080953
0.0080911
0.00811536
0.00814728
0.00816883
0.00817862
0.00817374
0.00811402
0.00796336
0.00798891
0.0081229
0.00789449
0.00758916
0.00805689
0.00825462
0.00827304
0.00829636
0.00832392
0.00828482
0.00819203
0.00809086
0.00810715
0.00824474
0.00794168
0.00682512
0.00681678
0.00707178
0.0071015
0.00698019
0.00702162
0.00704501
0.00712303
0.00701126
0.00713916
0.00681291
0.00714109
0.00675336
0.00676482
0.00727401
0.00724128
0.00707671
0.00715159
0.00725044
0.00703386
0.00718414
0.00724859
0.00717572
0.0072611
0.00717561
0.00717768
0.00760299
0.00732029
0.00774799
0.00551879
0.007842
0.00769233
0.00806054
0.00828412
0.00825368
0.00822674
0.0082399
0.00826009
0.00825259
0.00822149
0.00816665
0.00811831
0.00810056
0.00811846
0.00814533
0.00816104
0.0081616
0.00814195
0.00811514
0.00804543
0.00802934
0.00812028
0.00816687
0.00789726
0.0078845
0.00816589
0.00823594
0.00825607
0.00828718
0.00828248
0.00819701
0.00814083
0.00814873
0.00822936
0.00813866
0.00676773
0.00666283
0.00712037
0.00712035
0.00729924
0.00730618
0.00721958
0.00726931
0.00727109
0.00735987
0.00726285
0.00739936
0.00679121
0.00724596
0.00710369
0.00692391
0.007464
0.00756676
0.00712008
0.00753872
0.00733842
0.00746663
0.00724005
0.00737285
0.00722989
0.00717601
0.00721982
0.00719857
0.0074857
0.00729946
0.00765138
0.00612537
0.00778011
0.00698812
0.0081859
0.00819105
0.00822868
0.00821598
0.00824494
0.00825063
0.00823182
0.00819112
0.0081451
0.00811993
0.00812676
0.00814754
0.00815764
0.00814738
0.00811349
0.0080738
0.0080706
0.00808678
0.00813958
0.00817306
0.00819248
0.0080484
0.00814965
0.00821166
0.00822284
0.00825041
0.0082699
0.0082069
0.00817857
0.00820099
0.00822475
0.00811583
0.0077831
0.0070915
0.00695566
0.00731886
0.00730861
0.00741888
0.0073972
0.00742354
0.00743331
0.00750561
0.00754106
0.00753949
0.007595
0.0072531
0.00742634
0.00763758
0.00739855
0.00763796
0.0076863
0.00760261
0.00735743
0.00752832
0.0076388
0.007373
0.00754593
0.00736433
0.00720666
0.00734448
0.00730726
0.00749405
0.00737392
0.00759325
0.00571273
0.00739897
0.00631287
0.00805751
0.00799195
0.00820458
0.00821596
0.00824345
0.0082331
0.00820668
0.00817027
0.00814411
0.00814387
0.00815443
0.00815822
0.00813814
0.0080903
0.00804062
0.00804813
0.00809293
0.00814818
0.00819167
0.0082116
0.00821278
0.00820696
0.00820075
0.008203
0.00821674
0.00824897
0.00821557
0.00819246
0.0082548
0.00823469
0.00810583
0.00809131
0.00688369
0.00674304
0.00725302
0.00717546
0.0074094
0.00739717
0.00746779
0.0074307
0.00754518
0.00752274
0.00764562
0.00765245
0.00768824
0.00771626
0.00771951
0.00773284
0.00770029
0.00769429
0.0072661
0.00753368
0.00749003
0.00740857
0.00765252
0.00765061
0.00755188
0.00766173
0.0075449
0.00732855
0.0075222
0.00739001
0.00749639
0.00738953
0.00743221
0.00525153
0.0069845
0.00633433
0.00782202
0.00820705
0.00818822
0.00822162
0.00823036
0.00821299
0.00819041
0.00816894
0.00816707
0.00817064
0.00816404
0.0081355
0.00807537
0.00801765
0.0080348
0.00809496
0.00816968
0.00822688
0.00824848
0.00824224
0.00822428
0.00820563
0.00819648
0.00819721
0.00821777
0.00821566
0.00817956
0.00828066
0.00825222
0.00811279
0.00806378
0.00783433
0.00708003
0.00700233
0.00733971
0.0071882
0.00744978
0.00745273
0.0074555
0.00743736
0.00761189
0.00753583
0.00772055
0.00766995
0.007728
0.00770928
0.00768653
0.00766012
0.00759876
0.00755342
0.007506
0.00748552
0.00756752
0.00748408
0.00764385
0.00755924
0.00767421
0.00746402
0.00752634
0.00719335
0.00735577
0.00543484
0.00538149
0.00722522
0.00522733
0.00514233
0.00710125
0.00598082
0.00645377
0.00674543
0.00799695
0.00818366
0.00818666
0.00821789
0.00821217
0.00820186
0.00819031
0.00819079
0.00819275
0.00817905
0.00814032
0.00807072
0.00800436
0.00802656
0.00810106
0.00819601
0.00826674
0.00829034
0.00828048
0.00825493
0.00822629
0.00820394
0.00819257
0.00819375
0.00820672
0.00817332
0.00826753
0.00826561
0.008122
0.00804625
0.0080923
0.00687007
0.0068305
0.00712139
0.00703189
0.00742137
0.00731178
0.00749334
0.00755241
0.0074209
0.00747359
0.00757608
0.00747462
0.00766861
0.00758232
0.0076264
0.00759061
0.0075259
0.00749997
0.00744023
0.00740998
0.00741896
0.00738383
0.00727457
0.00725829
0.00740263
0.00712483
0.00727392
0.00523203
0.00524944
0.00551035
0.00541508
0.00529621
0.00526814
0.00544519
0.00554502
0.00555504
0.00535873
0.0053782
0.0051716
0.00516094
0.00501757
0.00500081
0.00490302
0.00507042
0.00510002
0.00537439
0.00426577
0.00516573
0.00480895
0.00471585
0.00545419
0.00607896
0.00792719
0.0081743
0.00819038
0.00820581
0.0082037
0.00820481
0.00821052
0.00821447
0.00819911
0.00815386
0.00807572
0.00799942
0.00801971
0.00810531
0.00821853
0.00829712
0.00832635
0.0083187
0.00828905
0.00825499
0.00822396
0.00820058
0.00818797
0.00819754
0.00817249
0.00825056
0.00826459
0.00813405
0.00803852
0.00804706
0.00788702
0.00709414
0.00710731
0.00735441
0.00717756
0.00758255
0.00753563
0.00759733
0.00773905
0.0074277
0.00757345
0.00748212
0.00741051
0.00754103
0.00746884
0.00748797
0.00747418
0.007396
0.00738858
0.00736962
0.00736242
0.00721581
0.00718162
0.00522361
0.00524348
0.00519559
0.00518087
0.00525346
0.0053944
0.00523838
0.00544745
0.00540695
0.00523105
0.00537902
0.00540308
0.00522006
0.00526221
0.00539175
0.0051791
0.00536579
0.00541382
0.00537993
0.00532816
0.00546487
0.0049345
0.00497652
0.00514444
0.00490963
0.00489176
0.00518091
0.0057368
0.0049216
0.00490703
0.00524141
0.00591743
0.00786233
0.00817659
0.00819038
0.00820077
0.00821059
0.00822552
0.00823334
0.00821917
0.00817268
0.008089
0.00799983
0.00801313
0.0081033
0.00823005
0.00830998
0.00834993
0.00834961
0.00832124
0.00828398
0.00824946
0.00821974
0.00819647
0.00819367
0.00795517
0.00780911
0.00823996
0.00814456
0.00803612
0.00801739
0.00792819
0.00695117
0.00682957
0.00731747
0.00718018
0.00746415
0.00739833
0.00779413
0.00766682
0.00776525
0.00794165
0.00751458
0.00774721
0.00740638
0.00740119
0.00744301
0.00740878
0.00741897
0.00745037
0.00736125
0.0073664
0.00717913
0.0072097
0.00501678
0.00500346
0.00502667
0.00505142
0.00520837
0.00510144
0.00500774
0.00529668
0.00537376
0.0052674
0.00530701
0.00535584
0.00528175
0.00524958
0.00533317
0.00535831
0.00527956
0.00549051
0.00535228
0.00549942
0.00542935
0.00533732
0.00537284
0.0055096
0.00511063
0.00507701
0.00532656
0.0050595
0.00505355
0.00500711
0.00481972
0.00279184
0.00564107
0.00504018
0.00505211
0.00535623
0.00502053
0.00780633
0.00816669
0.00819372
0.0082103
0.00823465
0.00824992
0.00823851
0.00819398
0.00811082
0.00800573
0.0080022
0.00809149
0.00823012
0.00830686
0.00834979
0.0083676
0.00834416
0.0083079
0.00827365
0.00824228
0.00821519
0.00819972
0.00796619
0.00716846
0.00822039
0.00813662
0.00803806
0.00799876
0.0080493
0.00675684
0.00677676
0.00723772
0.00708905
0.00728561
0.00735796
0.00754016
0.00720922
0.00797879
0.00789292
0.00797561
0.00809618
0.00768073
0.00793308
0.00740721
0.00748437
0.00746097
0.00749527
0.00711382
0.00700797
0.00725524
0.00694336
0.00508959
0.00512548
0.0051673
0.00520296
0.0045403
0.0040033
0.00432371
0.00502267
0.00515565
0.00504197
0.00497038
0.00542571
0.00540889
0.00519302
0.0052485
0.00535166
0.0054015
0.00534706
0.00544708
0.00546403
0.0053693
0.00555911
0.00550655
0.00560371
0.00543379
0.00539593
0.00538506
0.0055294
0.00529736
0.00527065
0.0055015
0.00524789
0.00522528
0.00480941
0.0058207
0.00344388
0.00566003
0.00519117
0.00518543
0.00483253
0.00774509
0.00809915
0.00820805
0.00823759
0.00826301
0.00825697
0.00821705
0.00813817
0.00802725
0.00799172
0.00806481
0.00821156
0.00829874
0.0083313
0.00835926
0.00835595
0.00832194
0.00828892
0.00825986
0.00823404
0.00821133
0.00819928
0.00732853
0.00821152
0.00813276
0.00804081
0.00798289
0.00801346
0.00792028
0.00699594
0.00705708
0.00733944
0.00719648
0.00756306
0.00745633
0.00790797
0.00772949
0.0080926
0.00802113
0.00811846
0.00816561
0.00789836
0.00810423
0.00755117
0.00767706
0.00734172
0.0076369
0.00652829
0.00689086
0.00526769
0.00530852
0.00536061
0.00594135
0.00506057
0.00509603
0.00512747
0.00516314
0.00498714
0.0050235
0.00505297
0.00508142
0.00508267
0.00500961
0.00500803
0.00546071
0.00539366
0.00513755
0.00520404
0.00529988
0.00548947
0.0054515
0.00551429
0.00548335
0.00545725
0.00560157
0.00563559
0.00568036
0.00545324
0.00544477
0.00541868
0.00554187
0.00548695
0.00546665
0.00565426
0.005443
0.00540687
0.00382043
0.00519118
0.00607432
0.00314888
0.00528952
0.00535796
0.00531425
0.00763653
0.0080979
0.00823723
0.00827029
0.00827314
0.0082401
0.00816877
0.00806122
0.00799172
0.00803799
0.00817106
0.00828057
0.00831514
0.00832896
0.0083425
0.00832765
0.00829488
0.00826723
0.00824456
0.00822361
0.00820517
0.00798068
0.00819432
0.00813361
0.00803993
0.00796573
0.00798055
0.00807572
0.00686859
0.00696849
0.0070755
0.007066
0.00741125
0.00720281
0.00786967
0.00766144
0.00798165
0.00792978
0.00813495
0.008062
0.00819817
0.00819306
0.00808132
0.00819892
0.00775979
0.00791666
0.00761233
0.00778152
0.0067973
0.00679013
0.00521826
0.00525972
0.00529978
0.00557252
0.00510999
0.00513772
0.00516239
0.00519689
0.00504266
0.00507198
0.00509082
0.00510505
0.00504794
0.00504491
0.00506239
0.00542894
0.00534484
0.00511569
0.00519222
0.00526041
0.0055062
0.00549362
0.00550575
0.00544466
0.00548722
0.00563887
0.00574218
0.00574692
0.00548249
0.00544769
0.00543838
0.00557134
0.00566372
0.005659
0.00578699
0.00563548
0.00559428
0.00466433
0.00434993
0.00581359
0.00546162
0.0035596
0.00524338
0.00553949
0.00759243
0.00812572
0.00827334
0.00828492
0.0082617
0.0081988
0.00810088
0.00800594
0.00801561
0.0081257
0.00823927
0.00829742
0.00830377
0.00830179
0.00831157
0.00829637
0.00826957
0.00824783
0.00823405
0.00820734
0.00820699
0.00819531
0.0081356
0.00803366
0.00794777
0.0079513
0.00803747
0.00797824
0.00693808
0.00698302
0.00711446
0.00699292
0.00760767
0.00726976
0.00777273
0.00776483
0.0080293
0.00800605
0.00814445
0.00806878
0.00823343
0.00821121
0.00817083
0.00823527
0.00793198
0.00806667
0.00764523
0.00790078
0.00526365
0.0053462
0.00599316
0.00589935
0.00525419
0.00530305
0.00535676
0.00544125
0.00512056
0.00513839
0.00515454
0.00518376
0.00508415
0.00510647
0.00511511
0.00511963
0.0050842
0.00510905
0.00512009
0.00537147
0.00530239
0.00514998
0.00522082
0.00525272
0.0054617
0.00546846
0.00543732
0.00538397
0.00544877
0.00569447
0.00583447
0.00581889
0.00552941
0.00541196
0.00549353
0.00564065
0.00582112
0.00583707
0.00591073
0.00582223
0.0057785
0.00566939
0.0048922
0.0052447
0.00549839
0.00456195
0.00263455
0.00465442
0.00757608
0.00816471
0.00829346
0.0082794
0.00822715
0.00814013
0.00803441
0.0080074
0.00808034
0.00813976
0.00826116
0.00828444
0.00826652
0.00826857
0.0082781
0.00826865
0.0082503
0.00823796
0.00821273
0.0082028
0.00821717
0.00813407
0.00802474
0.00793133
0.00792514
0.00800341
0.00798466
0.00681971
0.00724492
0.00660336
0.00655734
0.00704176
0.00664241
0.00783759
0.00759816
0.00710278
0.00780398
0.00805535
0.00804472
0.00815459
0.0080731
0.00824689
0.00821891
0.00820729
0.00824112
0.00803609
0.00813839
0.00612183
0.00690744
0.0081788
0.0051384
0.00526748
0.00587872
0.0056626
0.00524032
0.00529352
0.00535787
0.00532563
0.00512367
0.00513222
0.00513826
0.00516023
0.00513163
0.00515048
0.00515397
0.00515237
0.00515382
0.00518365
0.00519462
0.00532909
0.0053013
0.0052254
0.00530228
0.00528929
0.00539416
0.00539372
0.0051662
0.00520226
0.00529426
0.0057795
0.00593614
0.00582753
0.0055027
0.00523592
0.00528865
0.00553329
0.00596467
0.00599552
0.00602969
0.0059658
0.00585261
0.00576038
0.00490386
0.00570652
0.00414177
0.0048348
0.00485058
0.0057638
0.0075736
0.00819107
0.00829405
0.00825189
0.0081769
0.00807462
0.008015
0.00804687
0.00815257
0.00800801
0.00825412
0.00824717
0.00822802
0.00823687
0.00824845
0.00824992
0.00823656
0.00820357
0.00816727
0.00821531
0.00813538
0.00801272
0.00791475
0.00789988
0.00797113
0.00798092
0.0078725
0.00667219
0.00703007
0.00646914
0.00648855
0.00735854
0.00646152
0.00797286
0.00792127
0.00629499
0.00792899
0.00795662
0.00749867
0.00816403
0.00808651
0.00823943
0.00821047
0.00820428
0.00821626
0.00794807
0.00816298
0.00602606
0.00685704
0.00666576
0.00679026
0.0051651
0.00547638
0.00587849
0.00573818
0.00521253
0.00526368
0.00533053
0.0052155
0.00514639
0.00514625
0.00514184
0.00515351
0.00513249
0.00507181
0.00502167
0.0049932
0.00524622
0.00527524
0.00513819
0.00508273
0.00506281
0.00533556
0.00511844
0.00507661
0.00505174
0.00507491
0.00488573
0.00494656
0.00503379
0.00557179
0.00586577
0.00563768
0.00529901
0.00506669
0.00509394
0.00534109
0.00603288
0.00600217
0.00591072
0.00595308
0.00590733
0.00585899
0.00573651
0.00574923
0.00430863
0.00541608
0.00358402
0.00580538
0.00757166
0.00819452
0.00827376
0.00820911
0.00811919
0.00803767
0.00803011
0.0081098
0.00800736
0.00769372
0.00822534
0.00820683
0.00819457
0.00820837
0.00823203
0.00822977
0.00817572
0.00811346
0.00817243
0.00813798
0.00799892
0.00789709
0.00787458
0.00794061
0.00801234
0.0078453
0.00729488
0.00720541
0.007085
0.00707241
0.00709783
0.00709395
0.00786699
0.00710324
0.00802036
0.00797758
0.00709532
0.00804915
0.00799084
0.0077979
0.00816057
0.00810099
0.00820728
0.00817325
0.0079235
0.00815944
0.00688581
0.00767119
0.00831513
0.00609883
0.00637373
0.00670808
0.00686752
0.00467599
0.00539774
0.00596487
0.00572736
0.00519736
0.00524144
0.00530469
0.00475374
0.00499373
0.00504112
0.00512544
0.00517856
0.00502829
0.00494649
0.00487356
0.00482176
0.00536161
0.0052195
0.00507111
0.00486221
0.00486645
0.00518629
0.00495498
0.00490238
0.00480079
0.00488808
0.00472433
0.00475914
0.00486269
0.00542351
0.00573001
0.00551245
0.00513081
0.00491468
0.00493224
0.00522559
0.00592632
0.00594746
0.00579241
0.00595469
0.00595743
0.0059796
0.00595017
0.00539599
0.00526626
0.00652993
0.00365315
0.00530508
0.0075617
0.00817486
0.00823799
0.00815946
0.00801646
0.00803377
0.008077
0.00814066
0.00714969
0.00747977
0.00819274
0.00816873
0.00816279
0.00818314
0.0082082
0.00814015
0.00804198
0.00811881
0.00812561
0.00796856
0.00787824
0.00785228
0.0079137
0.00802288
0.00794853
0.00809063
0.00768
0.0076917
0.00775118
0.00771264
0.0078447
0.00779754
0.00793025
0.00788669
0.00805175
0.0080284
0.00808827
0.00807117
0.00810433
0.00809968
0.00813074
0.00810252
0.00813512
0.00809609
0.00689224
0.00740042
0.00802629
0.00697481
0.00782391
0.00697491
0.00702555
0.00626883
0.00654016
0.0068854
0.00701101
0.00408457
0.00503808
0.00619007
0.00583308
0.0052085
0.00524123
0.0052388
0.00435794
0.00479753
0.00481184
0.0048635
0.00497176
0.00496132
0.00485809
0.00475896
0.00468108
0.00527785
0.00520919
0.00504018
0.00470514
0.00470706
0.0050288
0.00482113
0.00475276
0.00462534
0.0047374
0.00460747
0.00460349
0.00471473
0.00530455
0.00562262
0.005422
0.00502803
0.00477734
0.00484013
0.0051112
0.0058455
0.00590679
0.00569242
0.00597139
0.00601627
0.00606124
0.00599775
0.00552775
0.00637057
0.00597662
0.00475695
0.00597918
0.00754084
0.00814245
0.00819505
0.00798645
0.00799742
0.00805745
0.00812004
0.00790094
0.00686528
0.00811283
0.00815771
0.00813145
0.00812852
0.00814787
0.00812716
0.00810993
0.00804908