/*--------------------------------*- C++ -*----------------------------------*\
  =========                 |
  \\      /  F ield         | OpenFOAM: The Open Source CFD Toolbox
   \\    /   O peration     | Website:  https://openfoam.org
    \\  /    A nd           | Version:  dev
     \\/     M anipulation  |
\*---------------------------------------------------------------------------*/
FoamFile
{
    version     2.0;
    format      ascii;
    class       volScalarField;
    location    "2500";
    object      rDeltaT;
}
// * * * * * * * * * * * * * * * * * * * * * * * * * * * * * * * * * * * * * //

dimensions      [0 0 -1 0 0 0 0];

internalField   nonuniform List<scalar> 
10028
(
100
100
100
100
100
100
100
100
100
100
100
100
100
100
100
100
100
100
100
100
100
100
100
100
100
100
100
100
100
100
100
100
100
100
100
100
100
100
100
100
100
100
100
100
100
100
100
100
100
100
100
100
100
100
100
100
100
100
100
100
100
100
100
100
100
100
100
100
100
100
100
100
100
100
100
100
100
100
100
100
100
100
100
100
100
100
100
100
100
100
100
100
100
100
100
100
100
100
100
100
100
100
100
100
100
100
100
100
100
100
100
100
100
100
100
100
100
100
100
100
100
100
100
100
100
100
100
100
100
100
100
100
100
100
100
100
100
100
100
100
100
100
100
100
100
100
100
100
100
100
100
100
100
100
100
100
100
100
100
100
100
100
100
100
100
100
100
100
100
100
100
100
100
100
100
100
100
100
100
100
100
100
100
100
100
100
100
100
100
100
100
100
100
100
100
100
100
100
100
100
100
100
100
100
100
100
100
100
100
100
100
100
100
100
100
100
100
100
100
100
100
100
100
100
100
100
100
100
100
100
100
100
100
100
100
100
100
100
100
100
100
100
100
100
100
100
100
100
100
100
100
100
100
100
100
100
100
100
100
100
100
100
100
100
100
100
100
100
100
100
100
100
100
100
100
100
100
100
100
100
100
100
100
100
100
100
100
100
100
100
100
100
100
100
100
100
100
100
100
100
100
100
100
100
100
100
100
100
100
100
100
100
100
100
100
100
100
100
100
100
100
100
100
100
100
100
100
100
100
100
100
100
100
100
100
100
100
100
100
100
100
100
100
100
100
100
100
100
100
100
100
100
100
100
100
100
100
100
100
100
100
100
100
100
100
100
100
100
100
100
100
100
100
100
100
100
100
100
100
100
100
100
100
100
100
100
100
100
100
100
100
100
100
100
100
100
100
100
100
100
100
100
100
100
100
100
100
100
100
100
100
100
100
100
100
100
100
100
100
100
100
100
100
100
100
100
100
100
100
100
100
100
100
100
100
100
100
100
100
100
100
100
100
100
100
100
100
100
100
100
100
100
100
100
100
100
100
100
100
100
100
100
100
100
100
100
100
100
100
100
100
100
100
100
100
100
100
100
100
100
100
100
100
100
100
100
100
100
100
100
100
100
100
100
100
100
100
100
100
100
100
100
100
100
100
100
100
100
100
100
100
100
100
100
100
100
100
100
100
100
100
100
100
100
100
100
100
100
100
100
100
100
100
100
100
100
100
100
100
100
100
100
100
100
100
100
100
100
100
100
100
100
100
100
100
100
100
100
100
100
100
100
100
100
100
100
100
100
100
100
100
100
100
100
100
100
100
100
100
100
100
100
100
100
100
100
100
100
100
100
100
100
100
100
100
100
100
100
100
100
100
100
100
100
100
100
100
100
100
100
100
100
100
100
100
100
100
100
100
100
100
100
100
100
100
100
100
100
100
100
100
100
100
100
100
100
100
100
100
100
100
100
100
100
100
100
100
100
100
100
100
100
100
100
100
100
100
100
100
100
100
100
100
100
100
100
100
100
100
100
100
100
100
100
100
100
100
100
100
100
100
100
100
100
100
100
100
100
100
100
100
100
100
100
100
100
100
100
100
100
100
100
100
100
100
100
100
100
100
100
100
100
100
100
100
100
100
100
100
100
100
100
100
100
100
100
100
100
100
100
100
100
100
100
100
100
100
100
100
100
100
100
100
100
100
100
100
100
100
100
100
100
100
100
100
100
100
100
100
100
100
100
100
100
100
100
100
100
100
100
100
100
100
100
100
100
100
100
100
100
100
100
100
100
100
100
100
100
100
100
100
100
100
100
100
100
100
100
100
100
100
100
100
100
100
100
100
100
100
100
100
100
100
100
100
100
100
100
100
100
100
100
100
100
100
100
100
100
100
100
100
100
100
100
100
100
100
100
100
100
100
100
100
100
100
100
100
100
100
100
100
100
100
100
100
100
100
100
100
100
100
100
100
100
100
100
100
100
100
100
100
100
100
100
100
100
100
100
100
100
100
100
100
100
100
100
100
100
100
100
100
100
100
100
100
100
100
100
100
100
100
100
100
100
100
100
100
100
100
100
100
100
100
100
100
100
100
100
100
100
100
100
100
100
100
100
100
100
100
100
100
100
100
100
100
100
100
100
100
100
100
100
100
100
100
100
100
100
100
100
100
100
100
100
100
100
100
100
100
100
100
100
100
100
100
100
100
100
100
100
100
100
100
100
100
100
100
100
100
100
100
100
100
100
100
100
100
100
100
100
100
100
100
100
100
100
100
100
100
100
100
100
100
100
100
100
100
100
100
100
100
100
100
100
100
100
100
100
100
100
100
100
100
100
100
100
100
100
100
100
100
100
100
100
100
100
100
100
100
100
100
100
100
100
100
100
100
100
100
100
100
100
100
100
100
100
100
100
100
100
100
100
100
100
100
100
100
100
100
100
100
100
100
100
100
100
100
100
100
100
100
100
100
100
100
100
100
100
100
100
100
100
100
100
100
100
100
100
100
100
100
100
100
100
100
100
100
100
100
100
100
100
100
100
100
100
100
100
100
100
100
100
100
100
100
100
100
100
100
100
100
100
100
100
100
100
100
100
100
100
100
100
100
100
100
100
100
100
100
100
100
100
100
100
100
100
100
100
100
100
100
100
100
100
100
100
100
100
100
100
100
100
100
100
100
100
100
100
100
100
100
100
100
100
100
100
100
100
100
100
100
100
100
100
100
100
100
100
100
100
100
100
100
100
100
100
100
100
100
100
100
100
100
100
100
100
100
100
100
100
100
100
100
100
100
100
100
100
100
100
100
100
100
100
100
100
100
100
100
100
100
100
100
100
100
100
100
100
100
100
100
100
100
100
100
100
100
100
100
100
100
100
100
100
100
100
100
100
100
100
100
100
100
100
100
100
100
100
100
100
100
100
100
100
100
100
100
100
100
100
100
100
100
100
100
100
100
100
100
100
100
100
100
100
100
100
100
100
100
100
100
100
100
100
100
100
100
100
100
100
100
100
100
100
100
100
100
100
100
100
100
100
100
100
100
100
100
100
100
100
100
100
100
100
100
100
100
100
100
100
100
100
100
100
100
100
100
100
100
100
100
100
100
100
100
100
100
100
100
100
100
100
100
100
100
100
100
100
100
100
100
100
100
100
100
100
100
100
100
100
100
100
100
100
100
100
100
100
100
100
100
100
100
100
100
100
100
100
100
100
100
100
100
100
100
100
100
100
100
100
100
100
100
100
100
100
100
100
100
100
100
100
100
100
100
100
100
100
100
100
100
100
100
100
100
100
100
100
100
100
100
100
100
100
100
100
100
100
100
100
100
100
100
100
100
100
100
100
100
100
100
100
100
100
100
100
100
100
100
100
100
100
100
100
100
100
100
100
100
100
100
100
100
100
100
100
100
100
100
100
100
100
100
100
100
100
100
100
100
100
100
100
100
100
100
100
100
100
100
100
100
100
100
100
100
100
100
100
100
100
100
100
100
100
100
100
100
100
100
100
100
100
100
100
100
100
100
100
100
100
100
100
100
100
100
100
100
100
100
100
100
100
100
100
100
100
100
100
100
100
100
100
100
100
100
100
100
100
100
100
100
100
100
100
100
100
100
100
100
100
100
100
100
100
100
100
100
100
100
100
100
100
100
100
100
100
100
100
100
100
100
100
100
100
100
100
100
100
100
100
100
100
100
100
100
100
100
100
100
100
100
100
100
100
100
100
100
100
100
100
100
100
100
100
100
100
100
100
100
100
100
100
100
100
100
100
100
100
100
100
100
100
100
100
100
100
100
100
100
100
100
100
100
100
100
100
100
100
100
100
100
100
100
100
100
100
100
100
100
100
100
100
100
100
100
100
100
100
100
100
100
100
100
100
100
100
100
100
100
100
100
100
100
100
100
100
100
100
100
100
100
100
100
100
100
100
100
100
100
100
100
100
100
100
100
100
100
100
100
100
100
100
100
100
100
100
100
100
100
100
100
100
100
100
100
100
100
100
100
100
100
100
100
100
100
100
100
100
100
100
100
100
100
100
100
100
100
100
100
100
100
100
100
100
100
100
100
100
100
100
100
100
100
100
100
100
100
100
100
100
100
100
100
100
100
100
100
100
100
100
100
100
100
100
100
100
100
100
100
100
100
100
100
100
100
100
100
100
100
100
100
100
100
100
100
100
100
100
100
100
100
100
100
100
100
100
100
100
100
100
100
100
100
100
100
100
100
100
100
100
100
100
100
100
100
100
100
100
100
100
100
100
100
100
100
100
100
100
100
100
100
100
100
100
100
100
100
100
100
100
100
100
100
109.227
112.228
162.375
100
100
100
100
100.08
100
100
100
100
100
100
100
100
100
100
100
100
100
100
100
100
100
100
100
100
100
100
100
100
100
100
100
100
100
100
100
100
100
100
100
100
100
100
100
100
100
100
100
100
100
100
100
100
100
100
100
100
100
100
100
100
100
100
100
100
100
100
100
100
100
100
100
100
100
100
100
100
100
100
100
100
100
100
100
100
100
100
100
100
103.46
100
100
100
100
100
100
100
100
100
100
100
100
100
100
100
100
100
100
100
100
100
100
100
100
100
100
100
100
100
100
100
100
100
100
100
100
100
100
100
100
100
100
100
100
100
100
100
100
100
100
100
100
100
100
100
100
100
100
100
100
100
100
100
100
100
100
100
100
100
100
100
100
100
100
100
100
100
100
100
100
100
100
100
100
100
100
100
100
100
100
100
100
101.556
100
100
100
100
100
100
100
100
100
100
100
100
100
100
100
100
100
100
100
100
100
100
100
100
100
100
100
100
100
100
100
100
100
100
100
100
100
100
100
100
100
100
100
100
100
100
100
100
100
100
100
100
100
100
100
100
100
100
100
100
100
100
100
100
100
100
100
100
100
100
100
100
100
100
100
100
100
100
100
100
100
100
100
100
100
100
100
100
100
100
100
100
100
101.089
100.342
100
100
133.83
103.973
100
100
100
100
100
100
100
100
100
100
100
100
100
100
100
100
100
100
100
100
100
100
100
100
100
100
100
100
100
100
100
100
100
100
100
100
100
100
100
100
100
100
100
100
100
100
100
100
100
100
100
100
100
100
100
100
100
100
100
100
100
100
100
100
100
100
100
100
100
100
100
100
100
100
100
100
100
100
100
100
100
100
100
100
100
100
100
100
100
100
101.466
101.832
100
100
100
178.784
107.446
100
100
100
100
100
100
100
100
100
100
100
100
100
100
100
100
100
100
100
100
100
100
100
100
100
100
100
100
100
100
100
100
100
100
100
100
100
100
100
100
100
100
100
100
100
100
100
100
100
100
100
100
100
100
100
100
100
100
100
100
100
100
100
100
100
100
100
100
100
100
100
100
100
100.036
100
100
106.217
104.409
103.119
100
100
102.519
103.244
106.99
109.434
106.261
100
100
100
100.714
102.574
103.212
101.181
100
100
100
100
100
100
100
100
100
100
100
100
100
100
100
100
100
100
100
100
100
100
100
100
100
100
100
100
100
100
100
100
100
100
100
100
100
100
100
100
100
100
100
100
100
100
100
100
100
100
100
100
100
100
100
100
100
100
100
100
100
100
100
100
100
100
100
100
102.467
105.148
106.976
107.846
100
100.114
105.258
108.013
109.292
100
109.684
109.652
110.135
109.41
116.017
113.793
113.635
109.223
104.727
111.051
113.07
116.14
119.795
116.055
101.698
103.439
106.28
104.777
104.893
103.826
100.029
100
100
100
100
100
100
100
100
100
100
100
100
100
100
100
100
100
100
100
100
100
100
100
100
100
100
100
100
100
100
100
100
100
100
100
100
100
100
100
100
100
100
100
100
100
100
100
100
100
100
100
100
100
100
100
100
100
100
100
100
100
100
100
100
100
100
107.407
105.364
101.858
100
109.808
113.354
116.165
117.983
100.258
105.984
112.001
117.575
119.063
109.199
120.001
119.705
120.455
118.991
125.379
123.424
123.356
117.503
111.76
118.304
122.821
126.025
129.92
123.876
107.589
108.037
112.679
107.78
106.418
103.354
100.281
100
100
100
121.478
100
100
100
100
100
100
100
100
100
100
100
100
100
100
100
100
100
100
100
100
100
100
100
100
100
100
100
100
100
100
100
100
100
100
100
100
100
100
100
100
100
100
100
100
100
100
100
100
100
100
100
100
100
100
100
100
100
100
100
100
100
100
100
100
118.437
117.122
114.034
109.301
117.129
121.65
125.648
128.626
107.903
111.434
118.508
127.005
129.258
119.821
130.605
130.309
130.744
128.843
134.506
133.747
133.62
125.113
118.398
125.013
130.605
136.057
137.669
131.877
112.726
111.768
118.502
109.81
107.07
103.187
100.098
100
100
100
100
100
100
100
100
100
100
100
100
100
100
100
100
100
100
100
100
100
100
100
100
100
100
100
100
100
100
100
100
100
100
100
100
100
100
100
100
100
100
100
100
100
100
100
100
100
100
100
104.065
103.641
100
100
100
100
100
100
100
100
100
100
100
100
101.514
100
100
100
130.212
129.887
127.629
123.256
124.431
130.061
135.3
139.591
118.167
118.565
124.596
136.839
140.025
130.658
141.998
141.503
140.854
140.221
145.436
144.844
142.919
132.282
124.79
131.579
139.56
144.364
147.615
139.93
116.862
114.421
122.995
111.291
106.898
103.319
100
100
100
100
100
100
100
100
100
100
100
100
100
100
100
100
100
100
100
100
100
100
100
100
100
100
100
100
100
100
100
100
100
100
100
100
100
100
100
100
100
100
100
100
100
100
100
100
100
100
100
102.302
103.375
108.883
107.732
100
100
101.749
101.985
100
100
100
100
100
100
100
100
114.893
105.855
100
100
142.508
143.516
142.437
138.875
131.526
138.38
144.904
150.673
129.647
129.838
131.582
147.749
151.585
142.486
154.722
153.573
151.995
150.146
155.587
157.369
151.076
139.277
130.082
137.802
148.853
155.877
158.682
148.165
120.24
116.506
126.83
111.449
107.294
102.298
100
100
100
100
100
100
100
100
100
100
100
100
100
100
100
100
100
100
100
100
100
100
100
100
100
100
100
100
100
100
100
100
100
100
100
100
100
100
100
100
100
100
100
100
100
100
100
100
100
110.748
108.756
100
109.281
109.746
114.233
112.273
100.125
101.482
108.293
108.7
100
100
104.883
106.173
100
100
100
100
130.356
120.12
109.964
101.816
155.088
157.723
158.214
156.014
138.288
146.496
154.469
161.702
142.858
144.296
143.618
160.805
164.771
156.273
169.778
167.792
161.365
159.012
166.297
167.97
165.006
146.562
134.712
143.96
158.823
169.358
171.793
157.756
122.826
117.437
129.862
111.928
107.129
100.812
100
100
100
100
100
100
100
100
100
100
100
100
100
100
100
100
100
100
100
100
100
100
100
100
100
100
100
100
100
100
100
100
100
100
100
100
100
100
100
100
100
100
100
100
100
100
100
100
100
100
115.965
113.155
112.149
107.934
116.547
115.949
119.908
118.311
107.669
108.746
115.729
115.689
100
102.593
113.61
114.387
108.517
106.638
107.318
106.931
147.963
137.027
124.994
115.231
167.745
172.221
174.682
174.279
145.885
154.744
164.192
172.874
158.384
160.861
160.976
172.819
177.44
172.575
185.455
182.507
173.413
175.272
186.005
183.114
182.339
154.885
138.364
149.279
171.246
187.106
187.556
168.909
124.641
118.347
132.825
112.535
106.148
100
100
100
100
100
113
100
100
100
100
100
100
100
100
100
100
100
100
100
100
100
100
100
100
100
100
100
100
100
100
100
100
100
100
100
100
100
100
100
100
100
100
100
100
100
100
100
100
100
100
100
119.951
116.186
115.971
111.445
122.974
121.502
125.858
123.371
115.957
116.159
123.335
122.911
108.98
111.501
122.366
122.719
121.04
117.094
116.421
116.171
167.764
157.188
143.568
131.199
180.569
186.928
191.473
193.247
160.118
163.993
174.771
184.726
176.935
180.433
182.042
193.381
203.171
189.633
217.144
213.187
198.451
196.568
211.4
212.802
205.085
162.653
143.027
155.926
184.936
205.5
201.87
179.05
126.959
119.105
136.774
112.561
105.13
100
100
100
100
100
407.903
142.76
100
100
100
100
100
100
100
100
100
100
100
100
100
100
100
100
100
100
100
100
100
100
100
100
100
100
100
100
100
100
100
100
100
100
100
100
100
100
100
100
100
100
107.032
100.869
100
123.861
120.198
118.891
113.521
129.511
127.702
131.114
127.649
123.567
122.851
131.047
131.228
118.939
120.956
131.257
131.504
136.946
129.662
127.206
126.789
189.734
181.106
166.365
150.919
193.784
201.914
208.807
213.537
181.611
180.485
187.224
197.898
197.838
205.459
208.215
227.837
239.525
220.451
238.571
246.482
228.692
223.002
238.366
241.445
224.922
170.958
148.236
162.092
196.484
221.711
215.979
187.924
127.703
120.399
138.227
112.154
104.902
100
100
100
100
100
188.955
100
100
100
100
100
100
100
100
100
100
100
100
100
100
100
100
100
100
100
100
100
100
100
100
100
100
100
100
100
100
100
100
100
100
100
100
100
100
100
100
100
100
100
109.891
102.791
100
100
128.296
123.989
123.082
116.619
135.701
133.764
136.442
132.407
131.355
130.444
137.706
139.027
129.457
130.742
140.882
140.62
158.354
145.79
139.727
139.539
214.296
209.01
194.13
176.135
207.818
217.386
226.626
235.237
206.184
204.709
204.784
212.911
232.339
238.785
236.637
251.001
256.748
243.049
272.816
267.777
250.533
243.233
246.278
255.209
243.453
179.01
152.042
170.47
209.077
237.218
232.607
201.021
130.174
121.312
143.303
113.042
103.951
100
100
100
100
100
100
100
100
100
100
100
100
100
100
100
100
100
100
100
100
100
100
100
100
100
100
100
100
100
100
100
100
100
100
100
100
100
100
100
100
100
100
100
100
100
100
100
100
100
100
100
100
100
113.079
104.665
100
134.352
129.297
128.548
121.226
142.534
140.131
142.511
138.563
139.08
138.473
144.653
146.852
140.923
141.254
151.493
150.078
186.503
167.27
153.5
155.868
240.88
239.617
226.563
207.385
223.152
233.066
244.11
257.534
235.536
232.139
229.271
232.162
259.766
270.431
269.781
266.507
299.898
280.022
312.976
167.209
260.077
248.974
299.754
299.803
246.747
193.727
161.634
184.321
227.613
240.529
239.382
221.537
133.636
123.388
149.958
112.866
103.887
100
100
100
100
100
100
100
100
100
100
100
100
100
100
100
100
100
100
100
100
100
100
100
100
100
100
100
100
100
100
100
100
100
100
100
100
100
100
100
100
100
100
100
100
100
100
100
100
100
100
100
100
100
116.865
107.321
100
141.165
135.244
134.759
126.202
149.611
146.583
149.886
145.942
147.984
147.488
152.204
154.641
153.184
152.497
162.856
159.755
221.209
196.106
169.288
178.367
269.486
272.156
262.082
243.546
240.621
249.46
259.254
274.471
272.49
266.948
267.093
266.643
297.555
166.007
303.765
168.897
345.197
321.078
355.788
193.437
169.328
163.043
346.786
345.269
162.536
210.872
170.485
196.403
234.658
157.699
159.173
221.228
137.075
124.478
155.698
113.775
104.412
100
100
100
100
100
100
100
100
100
100
100
100
100
100
100
100
100
100
100
100
100
100
100
100
100
100
100
100
100
100
100
100
100
100
100
100
100
100
100
100
100
100
100
100
100
100
100
100
100
100
100
100
100
122.07
111.287
103.115
148.403
142.063
141.606
132.248
157.223
153.88
158.396
153.957
157.881
156.356
160.509
163.397
166.184
164.977
174.52
170.626
260.217
233.887
192.321
211.818
289.015
301.013
295.412
281.392
271.564
276.999
284.555
292.261
303.251
297.536
295.486
294.486
342.083
187.729
343.616
195.009
392.13
364.839
397.61
220.092
196.974
190.39
395.584
393.541
190.176
219.528
180.603
209.49
155.473
186.803
188.314
149.682
140.858
127.955
163.677
114.982
104.235
100
100
100
100
100
100
105.187
100
100
100
100
100
100
100
100
100
100
100
100
100
100
100
100
100
100
100
100
100
100
100
100
100
100
100
100
100
100
100
100
100
100
100
100
100
100
100
100
100
100
100
100
100
100
100
100
127.511
115.372
107.132
156.564
149.786
149.404
139.16
165.732
162.262
167.77
162.443
169.259
165.978
169.71
173.433
180.888
178.27
186.735
181.728
294.372
275.364
229.441
255.91
306.334
345.486
326.012
305.958
297.972
303.152
309.978
321.652
340.294
333.243
328.941
327.236
388.919
211.703
383.461
223.433
435.642
404.984
244.224
225.095
219.359
443.714
439.084
219.939
233.793
287.171
196.122
213.364
184.785
218.81
219.854
180.115
148.209
129.638
175.006
116.576
103.185
100
100
100
100
100
100
123.526
100
100
100
100
100
100
100
100
100
100
100
100
100
100
100
100
100
100
100
100
100
100
100
100
100
100
100
100
100
100
100
100
100
100
100
100
100
100
100
100
100
100
100
100
100
100
100
100
133.787
120.63
112.295
165.506
158.073
157.855
146.502
175.462
171.952
177.528
171.669
180.752
176.652
179.682
183.866
203.449
193.774
204.255
194.056
338.211
315.633
281.184
287.59
330.268
190.28
333.038
317.864
329.819
335.199
341.141
357.538
378.691
369.797
363.338
360.172
430.177
235.741
250.018
251.713
247.315
249.288
156.315
339.632
199.256
147.949
217.029
249.386
250.695
213.029
151.147
134.664
178.419
117.668
102.145
100
100
100
100
100
100
135.321
100
100
100
100
100
100
100
100
100
100
100
100
100
100
100
100
100
100
100
100
100
100
100
100
100
100
100
100
100
100
100
100
100
100
100
100
100
100
100
100
100
100
100
100
100
100
100
103.628
100
140.396
126.307
117.545
174.93
166.9
166.725
154.176
187.065
182.634
187.812
181.688
192.065
187.758
191.416
195.337
241.24
217.448
232.364
212.859
194.664
336.506
303.838
305.68
363.999
205.866
361.266
344.446
361.443
366.5
369.758
387.774
188.674
397.828
208.301
270.109
178.134
248.541
243.624
159.911
139.658
188.624
118.699
100.48
100
100
100
100
120.557
100
140.886
100
100
100
100
100
100
100
100
100
100
100
100
100
100
100
100
100
100
100
100
100
100
100
100
100
100
100
100
100
100
100
100
100
100
100
100
100
100
100
100
100
100
100
100
100
100
100
100
100
108.348
102.912
147.185
132.145
122.516
186.187
176.907
176.719
162.722
200.21
193.92
200.057
193.803
204.78
199.619
205.491
209.215
285.224
252.813
269.838
241.663
207.94
364.913
182.238
339.094
394.256
227.971
403.893
385.866
223.273
454.375
219.694
263.134
317.814
211.681
170.888
143.696
200.182
118.967
100
100
100
100
100
138.912
100
142.764
100
100
100
100
100
100
100
100
100
100
100
100
100
100
100
100
100
100
100
100
100
100
100
100
100
100
100
100
100
100
100
100
100
100
100
100
100
100
100
100
100
100
100
100
100
100
100
103.158
101.298
100
114.4
109.275
154.965
138.37
128.146
197.789
187.551
186.866
172.047
214.79
206.825
214.692
207.008
224.167
214.763
221.716
226.878
317.588
282.044
282.028
277.526
229.058
410.524
199.756
184.623
387.775
247.02
440.037
420.9
256.206
144.762
318.106
371.084
241.443
179.11
146.62
210.783
253.256
116.518
100
100
100
100
106.776
153.202
100
141.807
100
100
100
100
100
100
100
100
100
100
100
100
100
100
100
100
100
100
100
100
100
100
100
100
100
100
100
100
100
100
100
100
100
100
100
100
100
100
100
100
100
100
100
100
100
105.69
105.908
104.944
108.384
110.555
105.512
102.675
120.737
114.781
162.023
144.197
134.44
209.745
198.34
198.342
181.636
231.599
222.877
231.656
221.103
251.439
235.511
239.5
247.992
315.515
171.805
287.833
247.628
452.852
223.915
206.582
429.325
175.978
379.875
421.012
174.539
141.912
144.363
309.032
113.019
100
100
100
100
121.033
162.39
100
139.884
100
100
100
100
100
100
100
100
100
100
100
100
100
100
100
100
100
100
100
100
100
100
100
100
100
100
100
100
100
100
100
100
100
100
100
100
100
100
100
100
100
100
100
100
100
103.628
100
113.733
112.436
115.466
112.254
117.919
108.865
125.871
122.3
169.009
150.571
140.051
224.425
210.971
208.751
190.278
250.99
241.928
252.028
238.494
279.684
261.505
259.212
269.964
357.701
176.868
196.127
245.8
234.103
211.793
440.309
167.804
235.975
136.297
173.907
373.593
109.867
100
100
100
100
134.146
167.175
100
138.734
100
100
100
100
100
100
100
100
100
100
100
100
100
100
100
100
100
100
100
100
100
100
100
100
100
100
100
100
100
100
100
100
100
100
100
100
100
100
100
100
100
100
103.879
103.85
100
100
100
109.798
100
120.67
119.431
122.753
115.621
125.979
132.009
129.587
176.871
157.197
144.771
240.37
223.821
219.423
199.708
272.192
263.341
273.873
257.636
287.555
285.385
279.991
290.055
406.764
200.302
178.579
221.725
260.334
244.808
162.882
222.962
282.566
132.275
208.216
433.265
108.099
100
100
100
106.576
142.962
169.432
100
135.058
100
100
100
100
100
100
100
100
100
100
100
100
100
100
100
100
100
100
100
100
100
100
100
100
100
100
100
100
100
100
100
100
100
100
100
100
100
100
100
100
100
100
109.944
109.579
102.998
100
100
100
116.451
100
100
127.016
122.941
130.807
134.963
139.347
183.121
161.639
151.348
258.534
237.33
230.639
208.994
292.876
284.851
296.725
279.425
292.479
299.581
298.669
455.438
224.166
201.063
186.351
246.467
160.243
217.92
269.975
336.821
130.764
239.741
109.25
100
100
100
112.951
148.946
161.384
100
132.124
100
100
100
100
100
100
100
100
100
100
100
100
100
100
100
100
100
100
100
100
100
100
100
100
100
100
100
100
100
100
100
100
100
100
100
100
100
100
100
100
100
100
116.459
115.888
108.391
100.525
100
100
123.791
100
100
100
135.208
130.713
139.883
145.025
187.789
166.875
157.178
277.42
251.603
240.57
215.609
311.445
303.71
315.317
300.511
308.674
191.463
249.459
224.556
206.382
158.835
214.394
264.111
325.921
387.407
131.291
113.005
101.546
100
101.048
116.334
145.175
150.672
145.379
167.262
100
100
100
100
100
100
100
100
100
100
100
100
100
100
100
100
100
100
100
100
100
100
100
100
100
100
100
100
100
100
100
100
100
100
100
100
100
100
100
100
100
100
100
123.833
123.197
113.938
105.672
100
100
100
131.727
100
100
100
100
144.204
139.002
149.894
194.121
173.08
161.509
296.662
266.847
248.397
222.136
316.038
318.128
331.703
319.576
196.067
210.934
249.233
225.918
158.921
209.28
260.331
318.296
378.664
134.439
115.569
103.785
100
103.252
114.876
133.907
170.507
328.527
210.904
100
100
100
100
100
100
100
100
100
100
100
100
100
100
100
100
100
100
100
100
100
100
100
100
100
100
100
100
100
100
100
100
100
100
100
100
100
100
100
100
100
100
100
131.767
130.83
120.464
110.904
103.668
100
100
140.447
100
100
100
100
100
100
153.855
147.512
198.481
176.996
164.862
315.27
280.6
259.9
229.022
202.909
327.246
340.96
338.403
213.772
229.315
248.664
162.44
207.888
254.395
313.324
368.4
136.487
116.919
105.696
101.715
102.031
105.889
135.552
173.219
782.692
282.164
100
100
100
100
100
100
100
100
100
100
100
100
100
100
100
100
100
100
100
100
100
100
100
100
100
100
100
100
100
100
100
100
100
100
100
100
100
100
100
100
100
100
100
100
140.53
138.953
127.504
116.986
108.531
100
100
149.462
100
100
100
100
100
100
100
100
156.522
200.718
179.613
167.315
334.526
298.793
268.372
232.797
218.443
382.037
338.256
352.684
350.628
230.734
250.576
166.354
210.22
253.151
307.36
360.972
136.303
118.42
106.987
101.531
100
100.4
122.756
133.587
161.369
100
100
100
100
100
100
100
100
100
100
100
100
100
100
100
100
100
100
100
100
100
100
100
100
100
100
100
100
100
100
100
100
100
100
100
100
100
100
100
100
100
100
100
100
149.813
147.638
135.219
123.435
114.156
104.275
100
158.831
100
100
100
100
100
100
100
100
100
201.781
181.536
170.075
349.508
314.002
274.745
234.65
231.504
406.735
210.777
365.145
398.629
354.264
251.071
164.997
216.205
253.317
304.753
355.194
137.983
120.036
107.185
100
100
100
100
100
100
100
100
100
100
100
100
100
100
100
100
100
100
100
100
100
100
100
100
100
100
100
100
100
100
100
100
100
100
100
100
100
100
100
100
100
100
100
100
100
100
100
100
100
100
100
159.165
157.09
143.516
130.613
119.944
109.308
100.02
100
100
100
100
100
100
100
100
100
100
100
202.19
183.776
170.33
357.042
324.605
280.275
234.817
247.064
428.274
226.093
225.313
419.476
357.906
168.028
211.239
259.45
303.193
351.422
140.202
121.086
105.962
100
100
100
100
100
100
100
100
100
100
100
100
100
100
100
100
100
100
100
100
100
100
100
100
100
100
100
100
100
100
100
100
100
100
100
100
100
100
100
100
100
100
100
100
100
100
100
100
100
100
168.33
153.162
138.495
126.525
114.41
104.438
100
100
100
100
100
100
100
100
100
100
100
100
100
200.974
183.544
365.322
334.853
285.149
234.155
455.925
238.291
379.288
235.928
435.132
385.026
171.578
215.644
256.27
308.744
349.342
142.863
121.087
103.869
100
100
100
100
100
100
100
100
100
100
100
100
100
100
100
100
100
100
100
100
100
100
100
100
100
100
100
100
100
100
100
100
100
100
100
100
100
100
100
100
100
100
100
100
100
100
100
100
100
100
100
180.612
163.981
147.819
133.919
120.347
108.946
100
100
100
100
100
100
100
100
100
100
100
100
100
100
103.792
197.548
366.94
343.588
286.345
231.608
251.981
418.386
402.852
243.338
451.981
396.992
177.158
218.486
260.579
308.152
352.595
143.675
119.893
100.523
100
100
100
100
100
100
100
100
100
100
100
100
100
100
100
100
100
100
100
100
100
100
100
100
100
100
100
100
100
100
100
100
100
100
100
100
100
100
100
100
100
100
100
100
100
100
100
100
100
100
100
175.698
157.931
142.573
127.055
114.329
100
100
100
100.262
100
100.649
101.099
100.513
100
100
100
100
100.322
100
100
108.795
193.588
361.289
344.942
287.603
229.382
436.001
222.833
420.198
250.051
181.056
225.116
262.376
311.935
354.051
144.762
116.268
100
100
100
100
100
100
100
100
100
100
100
100
100
100
100
100
100
100
100
100
100
100
100
100
100
100
100
100
100
100
100
100
100
100
100
100
100
100
100
100
100
100
100
100
100
100
100
100
100
100
100
100
170.233
152.424
135.177
120.536
102.08
100
100.858
101.996
100
100.219
100.92
103.504
105.123
104.857
100
101.28
103.168
102.29
105.223
103.64
105.142
114.736
190.15
369.749
366.007
344.894
292.397
229.189
447.632
235.992
430.472
182.816
235.696
269.532
314.183
357.249
139.635
111.284
100
100
100
100
100
100
100
100
100
100
100
100
100
100
100
100
100
100
100
100
100
100
100
100
100
100
100
100
100
100
100
100
100
100
100
100
100
100
100
100
100
100
100
100
100
100
100
100
100
100
100
100
165.513
145.364
128.496
105.743
100
103.485
104.126
103.639
104.389
100
103.01
103.428
106.913
109.214
109.205
100
106.014
107.612
108.624
111.694
109.288
112.348
122.573
186.266
389.298
375.804
386.174
352.375
296.137
227.187
455.773
245.738
187.468
231.769
279.848
322.266
361.384
130.381
106.694
100
100
100
100
100
100
100
100
100
100
100
100
100
100
100
100
100
100
100
100
100
100
100
100
100
100
100
100
100
100
100
100
100
100
100
100
100
100
100
100
100
100
100
100
100
100
100
100
100
100
100
159.491
138.903
109.346
100
103.494
103.71
105.478
105.456
106.986
107.609
100
106.115
106.529
110.03
114.856
114.874
100
112.37
113.634
116.278
119.669
116.968
121.508
132.942
181.801
420.4
396.562
394.671
404.15
356.035
289.239
223.521
250.331
210.981
174.604
142.511
279.714
332.416
370.152
121.589
103.42
100
100
100
100
100
100
100
100
100
100
100
100
100
100
100
100
100
100
100
100
100
100
100
100
100
100
100
100
100
100
100
100
100
100
100
100
100
100
100
100
100
100
100
100
100
100
100
100
100
100
100
153.516
114.289
100
100
104.37
104.882
108.389
107.732
109.483
110.346
100
108.728
109.262
113.995
122.163
122.25
100
120.322
121.383
126.12
130.029
127.175
132.971
147.488
176.349
232.134
419.455
414.458
413.743
341.713
275.12
216.37
202.448
156.272
172.884
259.234
334.691
380.562
114.956
102.073
100.091
104.691
100
100
100
100
100
100
100
100
100
100
100
100
100
100
100
100
100
100
100
100
100
100
100
100
100
100
100
100
100
100
100
100
100
100
100
100
100
100
100
100
100
100
100
100
100
100
100
100
100