/*--------------------------------*- C++ -*----------------------------------*\
  =========                 |
  \\      /  F ield         | OpenFOAM: The Open Source CFD Toolbox
   \\    /   O peration     | Website:  https://openfoam.org
    \\  /    A nd           | Version:  dev
     \\/     M anipulation  |
\*---------------------------------------------------------------------------*/
FoamFile
{
    version     2.0;
    format      ascii;
    class       volScalarField;
    location    "2500";
    object      rho;
}
// * * * * * * * * * * * * * * * * * * * * * * * * * * * * * * * * * * * * * //

dimensions      [1 -3 0 0 0 0 0];

internalField   nonuniform List<scalar> 
10028
(
1.17172
1.17154
1.17162
1.1715
1.17123
1.17168
1.17152
1.17106
1.17123
1.17173
1.17156
1.17097
1.17083
1.17131
1.17178
1.17163
1.17101
1.17065
1.17086
1.1714
1.17184
1.17164
1.17099
1.17053
1.17055
1.17102
1.17148
1.17185
1.17171
1.17116
1.17057
1.17036
1.17062
1.17111
1.17155
1.17188
1.17169
1.17116
1.17054
1.17018
1.17032
1.17072
1.17124
1.17162
1.17189
1.17175
1.17118
1.17056
1.17014
1.1701
1.17039
1.17087
1.1713
1.17164
1.17191
1.17173
1.17125
1.17065
1.17021
1.16995
1.17014
1.17054
1.17102
1.17137
1.17166
1.17191
1.17176
1.17128
1.17073
1.17024
1.16983
1.16988
1.17022
1.17067
1.17109
1.17143
1.17168
1.17192
1.17179
1.17139
1.17081
1.17028
1.16981
1.16972
1.16993
1.17035
1.17079
1.17116
1.17146
1.17171
1.17193
1.17179
1.17137
1.17095
1.17034
1.16985
1.16963
1.16972
1.17006
1.17049
1.1709
1.17121
1.17148
1.17173
1.17193
1.17178
1.17143
1.17104
1.17037
1.16992
1.16958
1.16956
1.16978
1.17021
1.17063
1.17096
1.17127
1.17152
1.17174
1.17194
1.17181
1.17143
1.171
1.17046
1.17001
1.16956
1.16944
1.16957
1.16993
1.17031
1.17072
1.17103
1.1713
1.17153
1.17175
1.17194
1.1718
1.17147
1.17111
1.17067
1.17015
1.16958
1.16937
1.1694
1.16965
1.17005
1.17044
1.17078
1.17106
1.17132
1.17155
1.17176
1.17195
1.1718
1.17148
1.17111
1.17069
1.17014
1.16963
1.16934
1.16926
1.16944
1.16979
1.17019
1.17053
1.17084
1.1711
1.17134
1.17156
1.17176
1.17195
1.17182
1.17154
1.17116
1.17081
1.17027
1.16973
1.16933
1.16918
1.16927
1.16953
1.16992
1.17028
1.17059
1.17088
1.17113
1.17136
1.17158
1.17176
1.17194
1.17183
1.17152
1.17122
1.17088
1.17034
1.16995
1.16935
1.16913
1.16912
1.16933
1.16967
1.17004
1.17036
1.17067
1.17092
1.17115
1.17137
1.17158
1.17177
1.17195
1.17183
1.17154
1.17126
1.17089
1.17053
1.16999
1.16938
1.16911
1.16902
1.16914
1.16944
1.1698
1.17014
1.17043
1.1707
1.17094
1.17118
1.1714
1.17159
1.17178
1.17196
1.17185
1.17156
1.17128
1.1709
1.17054
1.17002
1.1695
1.16911
1.16896
1.169
1.16922
1.16956
1.16991
1.17022
1.17049
1.17075
1.17097
1.1712
1.17141
1.17159
1.17178
1.17195
1.17184
1.17158
1.17128
1.17097
1.17062
1.17016
1.16957
1.16914
1.16891
1.16888
1.16904
1.16933
1.16969
1.17
1.17028
1.17053
1.17077
1.17099
1.17121
1.17141
1.17159
1.17178
1.17195
1.17184
1.17159
1.17132
1.17102
1.17067
1.17022
1.1697
1.16921
1.16891
1.1688
1.16888
1.16913
1.16947
1.16979
1.17007
1.17034
1.17057
1.1708
1.17102
1.17124
1.17141
1.17159
1.17177
1.17194
1.17184
1.17161
1.17135
1.17104
1.1707
1.17029
1.1698
1.16928
1.16891
1.16874
1.16876
1.16894
1.16924
1.16958
1.16987
1.17014
1.17037
1.17061
1.17081
1.17103
1.17123
1.17141
1.1716
1.17178
1.17194
1.17184
1.17163
1.17136
1.17107
1.17075
1.17036
1.1699
1.16937
1.16895
1.16871
1.16866
1.16878
1.16904
1.16936
1.16967
1.16993
1.17018
1.1704
1.17061
1.17082
1.17104
1.17123
1.17142
1.17159
1.17177
1.17194
1.17186
1.17165
1.17139
1.17111
1.17079
1.17042
1.16996
1.16945
1.16899
1.1687
1.16859
1.16866
1.16886
1.16917
1.16946
1.16973
1.16998
1.1702
1.17042
1.17063
1.17084
1.17104
1.17122
1.17141
1.17158
1.17176
1.17194
1.17185
1.17165
1.17142
1.17113
1.17082
1.17046
1.17004
1.16953
1.16905
1.1687
1.16853
1.16854
1.1687
1.16895
1.16927
1.16956
1.16979
1.17002
1.17025
1.17045
1.17064
1.17084
1.17105
1.17122
1.1714
1.17158
1.17175
1.17193
1.17186
1.17165
1.17143
1.17116
1.17087
1.17051
1.17009
1.1696
1.16911
1.16872
1.1685
1.16844
1.16855
1.16878
1.16907
1.16935
1.16962
1.16985
1.17005
1.17027
1.17047
1.17067
1.17084
1.17104
1.17122
1.17138
1.17155
1.17174
1.17193
1.17186
1.17166
1.17147
1.17122
1.17091
1.17054
1.17014
1.16966
1.16917
1.16876
1.16849
1.16837
1.16843
1.16861
1.16887
1.16917
1.16944
1.16966
1.16988
1.17008
1.17028
1.17048
1.17067
1.17086
1.17103
1.1712
1.17136
1.17154
1.17172
1.17191
1.17187
1.17169
1.17147
1.17124
1.17096
1.1706
1.1702
1.16972
1.16921
1.16879
1.16848
1.16832
1.16833
1.16846
1.1687
1.16898
1.16926
1.16951
1.16972
1.16991
1.17012
1.1703
1.17049
1.17067
1.17084
1.17101
1.17117
1.17134
1.17151
1.1717
1.17191
1.17188
1.17169
1.1715
1.17126
1.17102
1.17065
1.17025
1.16975
1.16926
1.16882
1.16848
1.16828
1.16823
1.16834
1.16855
1.16881
1.16908
1.16933
1.16955
1.16975
1.16994
1.17013
1.17031
1.17048
1.17066
1.17082
1.17098
1.17113
1.1713
1.17148
1.17167
1.1719
1.17187
1.1717
1.17153
1.17131
1.17104
1.1707
1.17029
1.1698
1.1693
1.16885
1.16849
1.16825
1.16816
1.16822
1.16839
1.16864
1.1689
1.16915
1.16938
1.16958
1.16977
1.16996
1.17013
1.1703
1.17047
1.17063
1.17078
1.17093
1.17109
1.17125
1.17143
1.17164
1.17188
1.17188
1.17173
1.17154
1.17133
1.17104
1.17073
1.17033
1.16986
1.16934
1.16887
1.16849
1.16822
1.1681
1.16812
1.16825
1.16847
1.16873
1.16898
1.16921
1.16942
1.16961
1.16979
1.16996
1.17013
1.1703
1.17045
1.17059
1.17073
1.17088
1.17103
1.17119
1.17138
1.1716
1.17193
1.17189
1.17174
1.17158
1.17137
1.17109
1.17074
1.17037
1.16989
1.16936
1.16888
1.16848
1.16819
1.16804
1.16803
1.16812
1.16832
1.16856
1.16881
1.16904
1.16925
1.16945
1.16963
1.1698
1.16997
1.17013
1.17027
1.17041
1.17054
1.17067
1.1708
1.17095
1.17112
1.17131
1.17163
1.17149
1.172
1.17175
1.17185
1.17189
1.17174
1.1716
1.17144
1.17116
1.1708
1.17038
1.1699
1.16938
1.16888
1.16846
1.16816
1.16799
1.16794
1.16801
1.16818
1.1684
1.16864
1.16887
1.16909
1.16929
1.16948
1.16965
1.16981
1.16997
1.17012
1.17024
1.17036
1.17047
1.17058
1.17071
1.17086
1.17107
1.17135
1.17119
1.17157
1.172
1.17168
1.17184
1.17189
1.17177
1.17163
1.17148
1.17123
1.17087
1.17041
1.16992
1.16939
1.16887
1.16844
1.16813
1.16793
1.16786
1.16791
1.16804
1.16825
1.16848
1.16871
1.16893
1.16913
1.16932
1.1695
1.16966
1.16981
1.16996
1.17008
1.17017
1.17026
1.17035
1.17045
1.17059
1.17084
1.17071
1.17103
1.17089
1.17087
1.17138
1.17119
1.1715
1.172
1.17166
1.17183
1.17189
1.17177
1.17165
1.17154
1.17136
1.17095
1.17044
1.16992
1.16938
1.16885
1.16841
1.16808
1.16788
1.16779
1.16781
1.16792
1.1681
1.16832
1.16855
1.16876
1.16897
1.16917
1.16935
1.16952
1.16967
1.16981
1.16992
1.16999
1.17
1.17
1.16999
1.17013
1.17056
1.17032
1.17069
1.17099
1.17068
1.17078
1.1713
1.1711
1.17145
1.172
1.17163
1.17182
1.17189
1.17178
1.17168
1.17157
1.17141
1.17102
1.17046
1.16991
1.16936
1.16883
1.16837
1.16803
1.16782
1.16772
1.16772
1.16781
1.16797
1.16817
1.16839
1.1686
1.16881
1.16901
1.1692
1.16937
1.16955
1.16966
1.16975
1.16974
1.16958
1.16919
1.16868
1.16825
1.16986
1.16862
1.17041
1.16984
1.17041
1.17088
1.1705
1.1706
1.17124
1.17101
1.17141
1.17199
1.17161
1.17181
1.17189
1.17178
1.17168
1.17155
1.17136
1.17101
1.17047
1.1699
1.16933
1.16879
1.16832
1.16797
1.16775
1.16764
1.16763
1.16771
1.16785
1.16803
1.16824
1.16845
1.16866
1.16886
1.16905
1.16923
1.1694
1.16954
1.16956
1.16938
1.16867
1.16722
1.16501
1.16253
1.16574
1.15954
1.16836
1.16477
1.16981
1.16816
1.16991
1.17073
1.17004
1.17022
1.17117
1.17089
1.17136
1.17199
1.17158
1.1718
1.17191
1.17174
1.17158
1.1713
1.17111
1.17092
1.17047
1.16986
1.16928
1.16873
1.16826
1.1679
1.16767
1.16756
1.16754
1.16761
1.16773
1.16789
1.16809
1.1683
1.1685
1.1687
1.1689
1.16909
1.16925
1.1694
1.16933
1.16867
1.16686
1.1631
1.15749
1.15096
1.15328
1.14522
1.15781
1.15013
1.16402
1.15628
1.16821
1.16373
1.16841
1.17045
1.16877
1.16924
1.17109
1.1707
1.17131
1.17199
1.17156
1.17179
1.17182
1.17151
1.17109
1.17077
1.17079
1.17082
1.17041
1.16982
1.16921
1.16866
1.16818
1.16782
1.16758
1.16747
1.16745
1.1675
1.16762
1.16777
1.16795
1.16814
1.16834
1.16855
1.16875
1.16895
1.1691
1.16921
1.16905
1.16769
1.16392
1.1572
1.14849
1.13915
1.13921
1.132
1.14248
1.13533
1.14799
1.13981
1.15519
1.14625
1.16391
1.15472
1.16446
1.16977
1.16538
1.16666
1.17097
1.17029
1.17125
1.17198
1.17154
1.17179
1.17092
1.17042
1.17011
1.17007
1.17038
1.17056
1.17021
1.16975
1.16913
1.16857
1.16809
1.16772
1.16749
1.16737
1.16735
1.1674
1.16749
1.16762
1.16778
1.16797
1.16818
1.16839
1.16859
1.1688
1.16898
1.16906
1.16865
1.16654
1.16049
1.15091
1.13929
1.12844
1.12717
1.12205
1.12876
1.12341
1.13236
1.1257
1.13752
1.12966
1.14494
1.13571
1.15507
1.14433
1.15619
1.16807
1.15821
1.16123
1.17075
1.16932
1.17116
1.17198
1.17151
1.17179
1.17087
1.16889
1.16919
1.16944
1.16976
1.17007
1.1699
1.1696
1.16903
1.16846
1.16799
1.16762
1.16739
1.16727
1.16725
1.1673
1.16737
1.16747
1.1676
1.16777
1.16797
1.16818
1.16841
1.16864
1.16885
1.16899
1.16842
1.16519
1.15726
1.14432
1.13092
1.12236
1.12016
1.1188
1.12036
1.11864
1.12142
1.11903
1.12352
1.11999
1.12749
1.12203
1.1344
1.12597
1.14455
1.13372
1.14564
1.16419
1.14775
1.15151
1.17029
1.16699
1.17098
1.17199
1.17148
1.1718
1.17107
1.16839
1.16822
1.16864
1.16903
1.16946
1.16949
1.16936
1.16889
1.16834
1.16787
1.16751
1.16728
1.16717
1.16715
1.16718
1.16723
1.16728
1.16738
1.16753
1.16772
1.16794
1.16819
1.16845
1.1687
1.16886
1.16839
1.16438
1.15413
1.13914
1.12618
1.12013
1.11842
1.11851
1.11805
1.11795
1.11809
1.11777
1.11838
1.11776
1.11913
1.118
1.12096
1.11857
1.12504
1.12029
1.1339
1.12471
1.13494
1.15662
1.13707
1.1405
1.1692
1.16228
1.17061
1.172
1.17142
1.17182
1.17114
1.16837
1.1676
1.16784
1.16835
1.16884
1.16906
1.16902
1.1687
1.1682
1.16774
1.16739
1.16717
1.16706
1.16704
1.16703
1.16699
1.16695
1.16698
1.16709
1.16731
1.16758
1.16789
1.1682
1.1685
1.16876
1.16843
1.16436
1.15218
1.13533
1.1244
1.12054
1.11888
1.11972
1.11829
1.1193
1.118
1.11887
1.11783
1.11847
1.11771
1.11804
1.11771
1.11768
1.1182
1.11749
1.11993
1.11791
1.12503
1.11985
1.12599
1.14604
1.12778
1.13085
1.1667
1.15364
1.16971
1.17202
1.17124
1.17183
1.17107
1.16836
1.16726
1.16727
1.16775
1.16827
1.16861
1.16862
1.16843
1.16802
1.16759
1.16727
1.16706
1.16695
1.1669
1.16678
1.16653
1.16624
1.16607
1.16611
1.16638
1.16681
1.16731
1.16779
1.16824
1.1686
1.16849
1.16461
1.15206
1.13324
1.12429
1.12181
1.12428
1.12104
1.124
1.12061
1.12268
1.11994
1.12164
1.11907
1.1204
1.11813
1.11906
1.11748
1.11791
1.11722
1.11715
1.11767
1.1169
1.12007
1.11755
1.12065
1.13574
1.12179
1.1239
1.16176
1.14293
1.16755
1.17203
1.17068
1.17167
1.17079
1.16835
1.16716
1.16688
1.16725
1.16776
1.16814
1.16822
1.16812
1.16781
1.16744
1.16713
1.16694
1.16683
1.16669
1.16632
1.16561
1.16477
1.16408
1.1638
1.16413
1.16497
1.16606
1.16702
1.16781
1.16834
1.16846
1.16538
1.1525
1.1332
1.12448
1.12395
1.12999
1.12905
1.13357
1.12478
1.12702
1.12317
1.12462
1.12159
1.12272
1.11998
1.12086
1.11848
1.11898
1.11731
1.11728
1.11662
1.11617
1.11656
1.11587
1.11758
1.11627
1.1178
1.12758
1.11837
1.11961
1.15295
1.13351
1.16301
1.17146
1.16876
1.16981
1.17015
1.16822
1.16703
1.16662
1.16684
1.1673
1.16769
1.16785
1.16779
1.16757
1.16727
1.167
1.16683
1.1667
1.16641
1.16561
1.16412
1.16235
1.16086
1.16018
1.16045
1.16157
1.16331
1.16533
1.16697
1.16792
1.16835
1.1665
1.15371
1.13373
1.12468
1.12567
1.13571
1.13761
1.14307
1.13076
1.13605
1.12611
1.12797
1.12376
1.1247
1.12157
1.12198
1.11915
1.1189
1.1168
1.11589
1.1152
1.11342
1.11462
1.11232
1.11504
1.1128
1.11603
1.11426
1.11595
1.12202
1.11613
1.11681
1.14262
1.12626
1.15471
1.1703
1.16181
1.16347
1.16866
1.16775
1.16686
1.16643
1.16651
1.16689
1.16728
1.16748
1.16747
1.16732
1.16708
1.16689
1.16674
1.16658
1.16607
1.16469
1.16221
1.15931
1.15693
1.15571
1.15583
1.15716
1.15936
1.16207
1.16513
1.16714
1.1681
1.16719
1.15625
1.13516
1.12479
1.12602
1.13852
1.14638
1.14843
1.1425
1.14826
1.13067
1.13783
1.12572
1.12725
1.12192
1.1217
1.11837
1.1174
1.11444
1.11272
1.11098
1.10818
1.10893
1.10493
1.10904
1.10404
1.11106
1.10579
1.11367
1.10965
1.11339
1.11826
1.1135
1.11407
1.13311
1.12067
1.1405
1.15675
1.14464
1.14163
1.16688
1.16661
1.16627
1.16625
1.16653
1.1669
1.16713
1.16717
1.16709
1.16688
1.16676
1.16666
1.16647
1.16575
1.16375
1.16023
1.15609
1.15258
1.15059
1.15047
1.15196
1.15459
1.15793
1.16192
1.16549
1.16754
1.16739
1.15927
1.13799
1.12494
1.12583
1.13813
1.14997
1.15179
1.15352
1.14639
1.15318
1.12876
1.13948
1.12184
1.12334
1.11595
1.11477
1.11087
1.10887
1.10539
1.10298
1.10142
1.09903
1.10003
1.09794
1.10036
1.09798
1.10339
1.09861
1.10874
1.10183
1.10847
1.11504
1.1089
1.10989
1.12405
1.11637
1.12727
1.1527
1.12752
1.12701
1.16606
1.16608
1.16605
1.16624
1.16656
1.16682
1.16692
1.16687
1.16679
1.16666
1.16659
1.16639
1.1655
1.16297
1.15848
1.15305
1.1482
1.14515
1.14451
1.14608
1.14919
1.15322
1.15802
1.1625
1.16637
1.16729
1.16193
1.14162
1.12531
1.12512
1.1362
1.14545
1.15501
1.15145
1.15622
1.15622
1.15047
1.15758
1.12823
1.14254
1.11493
1.11827
1.10693
1.10631
1.10102
1.09963
1.09743
1.0964
1.09685
1.09603
1.09709
1.09689
1.09728
1.09775
1.09776
1.09739
1.10109
1.09725
1.10118
1.11118
1.10196
1.10344
1.11808
1.11274
1.11954
1.1347
1.11956
1.11922
1.16562
1.16585
1.16599
1.16626
1.16653
1.16668
1.16666
1.16669
1.16662
1.16656
1.16635
1.16537
1.16248
1.1572
1.1506
1.14431
1.13983
1.13831
1.13992
1.14351
1.14818
1.15356
1.15886
1.16395
1.16692
1.16381
1.14587
1.12642
1.12386
1.13249
1.13956
1.1465
1.15614
1.15255
1.15956
1.15885
1.15502
1.1614
1.13081
1.1475
1.1087
1.11653
1.09956
1.10143
1.09582
1.096
1.09535
1.09506
1.09707
1.09741
1.09958
1.10203
1.10011
1.10506
1.09793
1.10352
1.09694
1.09833
1.09678
1.10565
1.09663
1.09684
1.10044
1.11443
1.11088
1.10715
1.1158
1.14408
1.11624
1.11865
1.16544
1.16576
1.166
1.16627
1.16645
1.16651
1.16652
1.16652
1.1665
1.16633
1.16535
1.16232
1.15656
1.14904
1.14141
1.13535
1.13295
1.13448
1.13821
1.14319
1.14891
1.15488
1.16088
1.16588
1.16464
1.15027
1.12881
1.12292
1.12895
1.13427
1.13947
1.15031
1.14575
1.15749
1.15379
1.16231
1.1608
1.15969
1.16444
1.13626
1.1536
1.10703
1.11889
1.09721
1.10106
1.09513
1.09601
1.0977
1.09808
1.104
1.10525
1.10992
1.1135
1.11103
1.11797
1.10609
1.11604
1.09841
1.10777
1.10273
1.09626
1.09822
1.09706
1.10265
1.09819
1.09568
1.09685
1.09748
1.09547
1.11295
1.10983
1.10833
1.104
1.11098
1.11457
1.11232
1.14734
1.11571
1.11423
1.11318
1.11514
1.12125
1.11666
1.16539
1.16575
1.16602
1.16623
1.16636
1.16636
1.1664
1.16642
1.16631
1.16542
1.1624
1.15652
1.14851
1.13989
1.13242
1.12936
1.13042
1.13383
1.13879
1.14462
1.15097
1.15767
1.16378
1.16462
1.1541
1.13189
1.1228
1.12599
1.12984
1.13324
1.14089
1.15273
1.14908
1.15976
1.1564
1.16459
1.16264
1.16374
1.16662
1.14427
1.15992
1.11005
1.12545
1.09897
1.10591
1.099
1.10145
1.10603
1.10693
1.11576
1.11716
1.12281
1.1258
1.11844
1.12252
1.12497
1.12722
1.11244
1.11764
1.12479
1.12554
1.12174
1.10795
1.10213
1.10754
1.11297
1.10138
1.09549
1.09923
1.09579
1.09595
1.09921
1.10037
1.09539
1.10714
1.10551
1.10065
1.1087
1.11026
1.13242
1.12078
1.11306
1.11164
1.11442
1.11583
1.16543
1.16578
1.16602
1.16619
1.16623
1.1663
1.16635
1.1663
1.16559
1.16284
1.15699
1.14882
1.13971
1.1313
1.12757
1.12774
1.13048
1.13538
1.14114
1.14745
1.15441
1.16129
1.16426
1.15691
1.13546
1.12306
1.12375
1.12632
1.12811
1.1338
1.14981
1.14517
1.15683
1.15336
1.16273
1.16002
1.16647
1.16488
1.16662
1.16786
1.15369
1.16479
1.1184
1.13567
1.10682
1.11648
1.10875
1.11273
1.11834
1.11997
1.12781
1.12965
1.12844
1.12962
1.13026
1.13112
1.12692
1.12865
1.12973
1.11796
1.12243
1.12782
1.12799
1.12575
1.11284
1.1066
1.11227
1.11799
1.10557
1.09501
1.09628
1.09485
1.09791
1.10427
1.10273
1.09665
1.10225
1.10405
1.09728
1.10591
1.10779
1.11588
1.11911
1.13404
1.11958
1.10969
1.11156
1.11334
1.11462
1.16551
1.16582
1.16602
1.16615
1.16619
1.16627
1.16628
1.16578
1.16349
1.15815
1.15027
1.14076
1.13153
1.12722
1.12648
1.1282
1.13296
1.13878
1.14474
1.15145
1.15861
1.16325
1.15839
1.13916
1.12408
1.12236
1.12365
1.12412
1.12818
1.14182
1.13753
1.15512
1.15153
1.16146
1.15848
1.16578
1.16392
1.16782
1.16707
1.168
1.16846
1.16193
1.16737
1.13082
1.14791
1.12004
1.13111
1.12287
1.12811
1.13177
1.13456
1.1318
1.13285
1.13381
1.13525
1.13032
1.13086
1.13128
1.13183
1.12912
1.12986
1.13014
1.12246
1.12575
1.12899
1.12842
1.12775
1.1176
1.11129
1.11683
1.12216
1.11005
1.09549
1.09471
1.0946
1.10097
1.10849
1.10663
1.099
1.09874
1.10061
1.09485
1.10264
1.1049
1.11361
1.11473
1.15701
1.12572
1.10729
1.10965
1.11183
1.16559
1.16584
1.16603
1.16609
1.16619
1.16625
1.16594
1.16415
1.15943
1.15232
1.14383
1.13369
1.12768
1.12635
1.12699
1.13113
1.13734
1.14324
1.14931
1.15615
1.16172
1.15862
1.1423
1.12599
1.12192
1.12179
1.12124
1.12392
1.13483
1.14781
1.14394
1.16117
1.1581
1.16565
1.16374
1.16769
1.1669
1.16845
1.16818
1.16861
1.16879
1.16634
1.16842
1.14525
1.15941
1.13623
1.14677
1.13831
1.14367
1.13657
1.13849
1.14026
1.14275
1.1325
1.13344
1.13459
1.13607
1.13019
1.13015
1.13014
1.13027
1.12926
1.12911
1.12856
1.12544
1.1272
1.12836
1.12729
1.1276
1.1215
1.11568
1.12049
1.12485
1.1142
1.09704
1.09393
1.09526
1.10447
1.11237
1.1102
1.10195
1.09553
1.09702
1.09349
1.09917
1.10165
1.10987
1.11231
1.11508
1.16092
1.1268
1.10446
1.10731
1.16566
1.16588
1.166
1.16611
1.1662
1.16605
1.16476
1.1608
1.15426
1.14703
1.13864
1.12977
1.12682
1.12676
1.12965
1.13598
1.14257
1.1484
1.15454
1.15985
1.15844
1.14474
1.12811
1.12197
1.12073
1.11937
1.12092
1.12969
1.14759
1.14417
1.15478
1.15132
1.16589
1.16425
1.1677
1.16698
1.16851
1.16819
1.1688
1.1687
1.16889
1.16899
1.16804
1.16881
1.15825
1.16546
1.15062
1.15813
1.14715
1.15236
1.13776
1.13974
1.14183
1.14409
1.13076
1.1316
1.13287
1.13456
1.12782
1.12709
1.12655
1.12642
1.12764
1.12647
1.12504
1.12646
1.12673
1.12601
1.12449
1.12608
1.12397
1.11915
1.12281
1.1256
1.11745
1.09922
1.09364
1.0964
1.10763
1.11534
1.11282
1.10465
1.09334
1.09383
1.0926
1.09559
1.09822
1.10464
1.10774
1.11091
1.11505
1.14356
1.1223
1.10132
1.16572
1.16591
1.166
1.16614
1.16611
1.16526
1.16213
1.15624
1.1501
1.14382
1.13547
1.1287
1.12711
1.12885
1.13402
1.1416
1.14798
1.15366
1.15785
1.15791
1.14625
1.13014
1.12234
1.12032
1.11836
1.11901
1.12612
1.14345
1.15576
1.15218
1.16189
1.15901
1.16783
1.16721
1.16856
1.16826
1.16889
1.16876
1.169
1.16898
1.16903
1.1691
1.16859
1.16898
1.16462
1.1675
1.15777
1.16267
1.147
1.14998
1.15569
1.15285
1.13662
1.13898
1.14153
1.14423
1.12662
1.12748
1.12892
1.13095
1.12361
1.12232
1.12138
1.12106
1.12431
1.1223
1.12023
1.12586
1.12511
1.12228
1.12054
1.1232
1.12463
1.12131
1.12353
1.12494
1.11938
1.10132
1.09391
1.09775
1.10985
1.11698
1.1141
1.10641
1.09184
1.09151
1.09189
1.09232
1.09482
1.09817
1.10205
1.10582
1.11021
1.11428
1.12868
1.11772
1.16578
1.16592
1.16606
1.16612
1.16562
1.16332
1.15825
1.15277
1.14834
1.14231
1.13402
1.1287
1.12889
1.13199
1.13922
1.1471
1.15275
1.15615
1.15657
1.14658
1.13184
1.12329
1.12031
1.11802
1.11794
1.12384
1.13925
1.15892
1.15746
1.16349
1.16135
1.16633
1.16512
1.1686
1.16835
1.16893
1.16879
1.16909
1.16902
1.16912
1.16911
1.16911
1.16917
1.1688
1.16907
1.16645
1.16811
1.15829
1.16075
1.16404
1.14606
1.14936
1.15554
1.15254
1.13346
1.13636
1.13949
1.14275
1.12121
1.12218
1.12397
1.12649
1.1183
1.11668
1.11557
1.11526
1.11977
1.1172
1.11476
1.12445
1.12227
1.11757
1.1159
1.11936
1.12409
1.12201
1.12301
1.12381
1.11985
1.10255
1.09419
1.09819
1.11066
1.11716
1.11394
1.10676
1.09062
1.08964
1.09121
1.08959
1.0917
1.09536
1.09976
1.10455
1.10962
1.11376
1.13724
1.11884
1.16582
1.16593
1.16609
1.16585
1.16427
1.16018
1.15495
1.15165
1.14789
1.14179
1.13346
1.12981
1.13118
1.13554
1.14407
1.15089
1.15462
1.15483
1.14642
1.13337
1.12442
1.12053
1.11804
1.11752
1.12232
1.1366
1.15839
1.16489
1.1631
1.1669
1.16605
1.16801
1.16754
1.16891
1.16879
1.16911
1.16902
1.16917
1.16916
1.16919
1.16919
1.16919
1.16922
1.16887
1.16904
1.16697
1.16832
1.1583
1.16078
1.16307
1.16514
1.14438
1.14808
1.15489
1.15159
1.12955
1.13305
1.13678
1.14059
1.1155
1.1168
1.11912
1.12228
1.11264
1.11094
1.10984
1.10965
1.11451
1.11167
1.10917
1.12198
1.11908
1.11235
1.11127
1.11537
1.12304
1.12149
1.12181
1.12176
1.11936
1.1025
1.09412
1.09796
1.11029
1.11652
1.11302
1.10621
1.08929
1.08794
1.09047
1.08746
1.08913
1.09301
1.09795
1.10349
1.10883
1.11349
1.15513
1.12366
1.16586
1.166
1.16596
1.16498
1.16184
1.15693
1.1539
1.1516
1.14827
1.14181
1.13342
1.13156
1.13318
1.13841
1.14617
1.15213
1.15309
1.1459
1.13449
1.12579
1.12123
1.11833
1.11753
1.12149
1.13432
1.15637
1.16642
1.16585
1.16748
1.16697
1.1682
1.16789
1.16864
1.16845
1.16908
1.16899
1.1692
1.16916
1.16928
1.16923
1.16925
1.16928
1.16907
1.16907
1.16863
1.16854
1.16656
1.16771
1.16836
1.15791
1.16066
1.16319
1.16519
1.14314
1.14719
1.15454
1.151
1.12605
1.13023
1.13457
1.13891
1.11009
1.11187
1.1149
1.11887
1.10697
1.10529
1.10437
1.10433
1.10898
1.1061
1.10359
1.11913
1.11552
1.10722
1.10656
1.11115
1.12127
1.12012
1.11994
1.11908
1.11775
1.10178
1.09349
1.09703
1.10903
1.11465
1.11086
1.10465
1.08791
1.08636
1.08931
1.08569
1.0871
1.09118
1.09659
1.10268
1.10839
1.11398
1.14093
1.12133
1.16589
1.16598
1.16544
1.16321
1.15889
1.15554
1.15391
1.15264
1.14944
1.14207
1.13404
1.133
1.13449
1.13957
1.14668
1.15041
1.1448
1.13471
1.12718
1.12235
1.11915
1.11787
1.12128
1.13285
1.15405
1.16594
1.16791
1.16753
1.16838
1.16817
1.16868
1.16854
1.1689
1.16879
1.1692
1.16912
1.16929
1.16924
1.16933
1.16935
1.16911
1.16926
1.16829
1.16821
1.16812
1.16783
1.16685
1.16668
1.16768
1.16819
1.16807
1.15778
1.16069
1.16363
1.16547
1.14303
1.14732
1.15495
1.15129
1.12357
1.12858
1.1336
1.13844
1.1053
1.10753
1.11116
1.11608
1.10148
1.10003
1.09954
1.09973
1.10355
1.10064
1.09832
1.11583
1.11161
1.1022
1.10186
1.10675
1.11853
1.11789
1.11715
1.11587
1.11505
1.10007
1.09224
1.09543
1.10659
1.11156
1.10755
1.10224
1.08649
1.08492
1.08796
1.08422
1.08554
1.08983
1.09561
1.10198
1.10874
1.11494
1.15443
1.12304
1.16591
1.1657
1.16423
1.16073
1.15693
1.15538
1.15501
1.15448
1.15055
1.14204
1.13469
1.13366
1.135
1.13984
1.14482
1.14281
1.1345
1.12801
1.12346
1.12018
1.11879
1.12157
1.13224
1.15262
1.1654
1.16825
1.16846
1.16832
1.1687
1.16859
1.16888
1.16879
1.16904
1.16896
1.16926
1.16923
1.16942
1.16934
1.16924
1.16939
1.16833
1.16883
1.1659
1.16558
1.16743
1.16707
1.16448
1.16332
1.16677
1.16761
1.16757
1.16759
1.15828
1.16122
1.16435
1.16585
1.14414
1.14859
1.15629
1.15264
1.122
1.12809
1.13393
1.13928
1.10117
1.10392
1.10813
1.11379
1.09655
1.09553
1.09546
1.09599
1.09844
1.09564
1.09367
1.11204
1.10735
1.09745
1.0973
1.10223
1.11523
1.11485
1.11356
1.11202
1.1116
1.09804
1.09078
1.09372
1.10338
1.1077
1.10363
1.09947
1.08515
1.08363
1.08665
1.08306
1.0844
1.08891
1.09505
1.10196
1.10943
1.11552
1.16247
1.12507
1.1658
1.16492
1.16228
1.15847
1.15641
1.15615
1.15693
1.15622
1.15136
1.14191
1.13503
1.13394
1.13509
1.1382
1.13844
1.13372
1.12812
1.12418
1.12117
1.11997
1.12255
1.13251
1.15199
1.16508
1.16811
1.16867
1.16859
1.16861
1.1687
1.16885
1.16878
1.16899
1.16892
1.16915
1.16907
1.1694
1.16929
1.16946
1.16949
1.16859
1.16926
1.16582
1.16713
1.16045
1.15928
1.16585
1.16521
1.16149
1.1608
1.16681
1.16741
1.16633
1.16665
1.15953
1.16225
1.16494
1.16596
1.14635
1.1509
1.15827
1.15486
1.12069
1.12807
1.13511
1.14117
1.09809
1.10129
1.10597
1.1121
1.09244
1.09208
1.0923
1.09361
1.09388
1.09144
1.08997
1.10776
1.10279
1.09314
1.09298
1.09764
1.11113
1.11093
1.10907
1.10747
1.1074
1.09612
1.08945
1.09243
1.09997
1.10346
1.10005
1.09709
1.08392
1.08261
1.08547
1.08214
1.08361
1.08832
1.09488
1.10227
1.10989
1.11633
1.14578
1.12291
1.16541
1.16343
1.16008
1.15731
1.15672
1.15775
1.15883
1.15765
1.15195
1.14183
1.13524
1.13402
1.13406
1.13376
1.13141
1.12783
1.12456
1.12203
1.12135
1.12418
1.13389
1.15239
1.16499
1.16802
1.16856
1.16874
1.16878
1.16871
1.16882
1.16895
1.16888
1.16909
1.16901
1.16925
1.16917
1.16954
1.16944
1.16935
1.16953
1.16624
1.16852
1.15971
1.1625
1.15413
1.1523
1.14718
1.16337
1.16245
1.15642
1.15509
1.16654
1.16671
1.16428
1.16489
1.16117
1.1634
1.16487
1.16542
1.14899
1.15354
1.16018
1.15724
1.11965
1.12794
1.13611
1.14326
1.09606
1.09974
1.10471
1.11105
1.08951
1.08958
1.09054
1.09239
1.09006
1.08821
1.08764
1.10292
1.09789
1.08939
1.08896
1.09301
1.10609
1.10592
1.10346
1.10209
1.10242
1.09445
1.08824
1.09121
1.09746
1.09964
1.09768
1.09538
1.08306
1.08177
1.08426
1.08145
1.0831
1.08817
1.09508
1.10286
1.11077
1.11634
1.15991
1.12315
1.16452
1.16143
1.15836
1.15715
1.15783
1.15944
1.1605
1.15885
1.15229
1.14198
1.1355
1.13352
1.13179
1.12975
1.12751
1.12503
1.12304
1.12306
1.12651
1.13654
1.15385
1.16524
1.16796
1.16849
1.16872
1.16868
1.16884
1.16885
1.16879
1.1689
1.16904
1.16896
1.16918
1.16909
1.16932
1.16926
1.16961
1.16957
1.16877
1.1695
1.16011
1.16619
1.14796
1.15281
1.14661
1.14623
1.13481
1.1335
1.15937
1.15791
1.14957
1.14777
1.16552
1.16538
1.1608
1.16196
1.16239
1.16389
1.16391
1.16392
1.15054
1.15506
1.16084
1.15844
1.11888
1.12763
1.13649
1.14429
1.09519
1.09902
1.104
1.11031
1.08771
1.08819
1.08987
1.09196
1.08704
1.0863
1.08628
1.09733
1.09251
1.08627
1.08601
1.08839
1.10003
1.10051
1.09795
1.09597
1.09854
1.09367
1.08742
1.09074
1.09629
1.09749
1.09653
1.09484
1.08228
1.08109
1.08349
1.08098
1.08291
1.0883
1.09557
1.10379
1.11132
1.11618
1.1587
1.12261
1.16299
1.15947
1.15757
1.15772
1.15935
1.16111
1.16203
1.15971
1.15271
1.14288
1.13579
1.13252
1.13008
1.12792
1.12595
1.12468
1.1256
1.12994
1.14074
1.15627
1.16575
1.16795
1.16839
1.16862
1.16879
1.16873
1.16891
1.16892
1.16885
1.16898
1.16912
1.16903
1.16929
1.16918
1.16948
1.16936
1.16961
1.16965
1.16709
1.16921
1.14855
1.16057
1.13035
1.13714
1.1363
1.13519
1.12365
1.12438
1.1536
1.15157
1.14062
1.1383
1.16367
1.16294
1.15565
1.15748
1.16244
1.16347
1.1619
1.16154
1.15115
1.1555
1.16038
1.15847
1.11807
1.12696
1.13626
1.14462
1.09485
1.09858
1.10336
1.10941
1.08666
1.08808
1.0897
1.09189
1.08541
1.08532
1.08562
1.09188
1.08864
1.08531
1.08642
1.08705
1.095
1.0969
1.09514
1.09229
1.09687
1.09318
1.08691
1.09052
1.09554
1.09701
1.09653
1.09466
1.08166
1.08064
1.08288
1.08076
1.08298
1.08859
1.09633
1.10459
1.11152
1.11522
0.913623
1.11662
1.16099
1.15809
1.15759
1.15883
1.16092
1.16272
1.16332
1.16038
1.15364
1.14476
1.13692
1.13256
1.12989
1.12824
1.12778
1.12983
1.13534
1.14657
1.15933
1.16639
1.16797
1.16832
1.16851
1.16873
1.16886
1.16879
1.16898
1.16899
1.16892
1.16906
1.16921
1.16911
1.16943
1.16932
1.16958
1.1695
1.16957
1.16969
1.16335
1.16844
1.13304
1.15033
1.11336
1.11593
1.11834
1.12534
1.12407
1.11155
1.11167
1.14573
1.1431
1.12985
1.12736
1.16046
1.1591
1.14843
1.15102
1.1615
1.16196
1.1586
1.1574
1.15101
1.15522
1.15889
1.15761
1.11687
1.12565
1.1352
1.14408
1.09463
1.09799
1.1023
1.10773
1.08672
1.08831
1.09004
1.09194
1.08522
1.08544
1.08634
1.09026
1.08916
1.08634
1.08917
1.0889
1.09351
1.09609
1.09509
1.09197
1.09701
1.09323
1.0865
1.09053
1.09564
1.09737
1.09696
1.09481
1.08123
1.08042
1.08255
1.08074
1.08315
1.08913
1.09716
1.10523
1.11146
1.11512
0.494625
1.07596
1.15892
1.15757
1.15811
1.16007
1.1625
1.16428
1.16428
1.16106
1.15526
1.14804
1.14092
1.13613
1.13394
1.1342
1.13687
1.14323
1.15322
1.16241
1.16698
1.16798
1.16823
1.16842
1.1686
1.16882
1.16886
1.16893
1.16906
1.16906
1.169
1.16914
1.16936
1.16925
1.16949
1.16944
1.16964
1.16957
1.16939
1.16973
1.15715
1.16687
1.1187
1.1379
1.10338
1.10682
1.1027
1.11054
1.11327
1.11202
1.10055
1.10146
1.13568
1.1326
1.11758
1.11515
1.15556
1.15342
1.13892
1.14221
1.15942
1.15936
1.15346
1.1511
1.14955
1.15395
1.15612
1.1556
1.11456
1.12294
1.13255
1.14192
1.09435
1.0971
1.10038
1.10465
1.08759
1.08956
1.09099
1.09264
1.08724
1.08839
1.09121
1.09115
1.09116
1.0897
1.10778
1.09063
1.09457
1.09699
1.09734
1.09434
1.09835
1.09377
1.0865
1.09117
1.09614
1.09901
1.09855
1.09558
1.0811
1.08037
1.08254
1.08083
1.08344
1.08993
1.09805
1.10584
1.111
1.11265
0.424279
0.944233
1.15762
1.15763
1.15907
1.16156
1.16417
1.16558
1.16481
1.16205
1.15766
1.15238
1.14763
1.14469
1.14435
1.14673
1.15223
1.15937
1.16489
1.16742
1.16799
1.16816
1.1683
1.16849
1.16868
1.16894
1.16891
1.16898
1.16887
1.169
1.16917
1.16917
1.16907
1.16927
1.16942
1.16935
1.16954
1.16947
1.16971
1.16962
1.16903
1.16975
1.14991
1.16446
1.10861
1.10463
1.11868
1.13
1.09457
1.0981
1.0983
1.10117
1.10056
1.09015
1.09189
1.12369
1.12037
1.10461
1.10256
1.14846
1.14543
1.12727
1.13103
1.15594
1.15491
1.14552
1.14226
1.14521
1.15014
1.15146
1.15143
1.11032
1.11763
1.12686
1.1366
1.09439
1.09637
1.09855
1.10091
1.09192
1.09391
1.09442
1.09525
1.09026
1.09082
1.1084
1.09405
1.10818
1.10736
1.12419
1.107
1.09679
1.09939
1.11225
1.11001
1.10073
1.09402
1.0868
1.09152
1.09742
1.1012
1.09949
1.09683
1.08118
1.08046
1.08271
1.08107
1.0842
1.09086
1.09893
1.10606
1.11116
1.09663
0.361628
0.652299
1.15736
1.15834
1.16058
1.16347
1.16573
1.16616
1.16532
1.1634
1.16061
1.15762
1.15546
1.15496
1.15646
1.15986
1.16378
1.16651
1.16766
1.16797
1.16809
1.16821
1.16836
1.16856
1.16876
1.16903
1.16898
1.16906
1.1689
1.16925
1.16921
1.16914
1.16933
1.16944
1.16939
1.1696
1.16952
1.16979
1.1697
1.16857
1.16976
1.14714
1.16264
1.10193
1.10913
1.11666
1.12365
1.13424
1.08775
1.09258
1.09471
1.0895
1.08941
1.08126
1.08397
1.11037
1.10716
1.09174
1.09023
1.13876
1.13498
1.11396
1.11785
1.15021
1.14814
1.13453
1.13052
1.13455
1.14179
1.14328
1.14323
1.10393
1.10897
1.11659
1.12576
1.09607
1.09684
1.09832
1.0993
1.10812
1.10797
1.10794
1.10754
1.10695
1.10716
1.12343
1.10863
1.12493
1.12402
1.14361
1.12433
1.10921
1.11352
1.12752
1.12628
1.11449
1.09566
1.08671
1.09243
1.09866
1.11499
1.11536
1.0971
1.08153
1.0807
1.08339
1.08185
1.08501
1.09183
1.09987
1.10642
1.10986
1.02863
0.347657
0.480233
1.15792
1.15987
1.1627
1.1655
1.16644
1.16648
1.16592
1.16487
1.16359
1.16257
1.16227
1.16296
1.16456
1.16622
1.16731
1.16776
1.16792
1.16802
1.16812
1.16826
1.16841
1.16862
1.16883
1.1691
1.16907
1.16904
1.16895
1.16929
1.16926
1.16918
1.16936
1.1695
1.16942
1.16969
1.16959
1.16986
1.16978
1.16842
1.16976
1.14778
1.13387
1.16254
1.10157
1.10977
1.11696
1.1265
1.08236
1.08816
1.09373
1.0789
1.07957
1.07389
1.07757
1.09663
1.09383
1.07978
1.07903
1.12632