/*--------------------------------*- C++ -*----------------------------------*\
  =========                 |
  \\      /  F ield         | OpenFOAM: The Open Source CFD Toolbox
   \\    /   O peration     | Website:  https://openfoam.org
    \\  /    A nd           | Version:  dev
     \\/     M anipulation  |
\*---------------------------------------------------------------------------*/
FoamFile
{
    version     2.0;
    format      ascii;
    class       volScalarField;
    location    "2500";
    object      T;
}
// * * * * * * * * * * * * * * * * * * * * * * * * * * * * * * * * * * * * * //

dimensions      [0 0 0 1 0 0 0];

internalField   nonuniform List<scalar> 
10028
(
300.099
300.142
300.123
300.152
300.224
300.107
300.148
300.266
300.223
300.094
300.137
300.288
300.326
300.202
300.082
300.117
300.276
300.371
300.316
300.18
300.068
300.114
300.28
300.401
300.395
300.276
300.16
300.065
300.095
300.238
300.388
300.444
300.377
300.253
300.141
300.057
300.1
300.236
300.396
300.488
300.455
300.352
300.219
300.122
300.055
300.083
300.23
300.39
300.498
300.509
300.437
300.312
300.204
300.119
300.05
300.089
300.212
300.366
300.482
300.548
300.501
300.398
300.275
300.185
300.114
300.05
300.08
300.204
300.346
300.473
300.577
300.566
300.479
300.364
300.258
300.17
300.106
300.047
300.073
300.174
300.325
300.46
300.581
300.607
300.552
300.447
300.333
300.238
300.164
300.1
300.045
300.072
300.18
300.289
300.446
300.573
300.629
300.607
300.519
300.409
300.307
300.225
300.157
300.095
300.044
300.074
300.163
300.265
300.437
300.552
300.64
300.648
300.59
300.481
300.373
300.289
300.212
300.147
300.092
300.043
300.065
300.162
300.273
300.412
300.528
300.644
300.677
300.643
300.553
300.454
300.35
300.271
300.205
300.145
300.09
300.04
300.067
300.153
300.246
300.358
300.492
300.64
300.694
300.686
300.623
300.522
300.421
300.336
300.265
300.199
300.14
300.087
300.04
300.065
300.148
300.245
300.353
300.493
300.627
300.7
300.722
300.677
300.587
300.487
300.398
300.319
300.254
300.193
300.137
300.086
300.039
300.06
300.132
300.231
300.32
300.459
300.599
300.703
300.742
300.72
300.653
300.555
300.462
300.382
300.31
300.247
300.188
300.132
300.086
300.04
300.056
300.136
300.215
300.303
300.441
300.541
300.697
300.755
300.759
300.703
300.619
300.524
300.441
300.364
300.3
300.241
300.185
300.132
300.084
300.04
300.055
300.131
300.205
300.298
300.391
300.532
300.69
300.759
300.782
300.754
300.677
300.586
300.499
300.423
300.355
300.293
300.234
300.177
300.13
300.082
300.038
300.049
300.124
300.199
300.295
300.39
300.524
300.656
300.759
300.799
300.789
300.731
300.645
300.556
300.477
300.409
300.342
300.287
300.229
300.175
300.13
300.082
300.04
300.053
300.119
300.198
300.277
300.367
300.486
300.638
300.749
300.809
300.819
300.777
300.703
300.613
300.533
300.461
300.398
300.337
300.282
300.226
300.175
300.129
300.082
300.038
300.052
300.116
300.186
300.264
300.353
300.472
300.605
300.732
300.81
300.839
300.818
300.754
300.668
300.587
300.514
300.447
300.389
300.328
300.274
300.219
300.175
300.129
300.084
300.041
300.051
300.112
300.178
300.258
300.346
300.452
300.579
300.714
300.808
300.853
300.849
300.803
300.726
300.64
300.566
300.497
300.438
300.379
300.328
300.272
300.221
300.175
300.127
300.083
300.041
300.049
300.105
300.175
300.25
300.333
300.433
300.553
300.688
300.798
300.86
300.872
300.843
300.778
300.696
300.617
300.55
300.487
300.43
300.376
300.324
300.27
300.222
300.173
300.131
300.085
300.042
300.044
300.1
300.165
300.238
300.322
300.417
300.536
300.666
300.787
300.863
300.892
300.874
300.823
300.745
300.669
300.601
300.536
300.482
300.425
300.372
300.32
300.268
300.224
300.176
300.133
300.088
300.041
300.046
300.098
300.158
300.233
300.312
300.405
300.515
300.645
300.77
300.86
300.905
300.904
300.864
300.799
300.718
300.645
300.584
300.528
300.468
300.418
300.369
300.319
300.267
300.223
300.179
300.133
300.091
300.044
300.042
300.097
300.155
300.224
300.299
300.394
300.501
300.628
300.753
300.854
300.912
300.929
300.902
300.844
300.768
300.697
300.628
300.57
300.52
300.463
300.414
300.364
300.32
300.269
300.224
300.182
300.139
300.093
300.045
300.042
300.095
300.144
300.209
300.29
300.383
300.487
300.613
300.738
300.845
300.916
300.946
300.932
300.884
300.819
300.744
300.674
300.617
300.562
300.511
300.462
300.409
300.362
300.315
300.272
300.229
300.187
300.143
300.097
300.048
300.038
300.085
300.142
300.204
300.276
300.367
300.472
300.597
300.726
300.836
300.916
300.958
300.957
300.924
300.862
300.79
300.72
300.657
300.602
300.553
300.502
300.456
300.409
300.363
300.319
300.277
300.236
300.194
300.15
300.102
300.05
300.036
300.085
300.135
300.197
300.26
300.354
300.458
300.586
300.715
300.828
300.916
300.969
300.981
300.955
300.901
300.834
300.766
300.701
300.645
300.595
300.546
300.5
300.454
300.41
300.366
300.325
300.285
300.245
300.204
300.159
300.109
300.053
300.037
300.081
300.127
300.183
300.253
300.342
300.446
300.573
300.702
300.819
300.912
300.974
300.997
300.984
300.94
300.878
300.811
300.747
300.689
300.637
300.589
300.543
300.498
300.455
300.412
300.372
300.334
300.296
300.257
300.216
300.17
300.118
300.056
300.033
300.073
300.123
300.177
300.252
300.334
300.435
300.557
300.692
300.814
300.913
300.981
301.013
301.009
300.976
300.92
300.855
300.791
300.732
300.679
300.631
300.585
300.541
300.498
300.457
300.418
300.382
300.347
300.311
300.273
300.232
300.184
300.128
300.043
300.031
300.07
300.112
300.168
300.24
300.328
300.426
300.548
300.687
300.81
300.914
300.988
301.028
301.033
301.008
300.958
300.897
300.834
300.775
300.721
300.671
300.625
300.581
300.539
300.498
300.462
300.428
300.395
300.363
300.33
300.293
300.25
300.201
300.121
300.155
300.025
300.089
300.064
300.032
300.069
300.106
300.148
300.22
300.312
300.421
300.545
300.68
300.81
300.918
300.995
301.041
301.054
301.036
300.995
300.938
300.877
300.818
300.763
300.711
300.664
300.621
300.579
300.539
300.502
300.472
300.442
300.414
300.386
300.354
300.317
300.263
300.193
300.232
300.136
300.026
300.107
300.067
300.029
300.062
300.098
300.136
300.201
300.295
300.413
300.541
300.678
300.812
300.923
301.004
301.054
301.073
301.062
301.028
300.976
300.918
300.859
300.804
300.752
300.703
300.659
300.618
300.579
300.542
300.513
300.489
300.466
300.445
300.42
300.385
300.32
300.354
300.272
300.309
300.314
300.185
300.233
300.154
300.026
300.114
300.07
300.028
300.06
300.091
300.121
300.166
300.274
300.404
300.54
300.679
300.815
300.931
301.015
301.068
301.091
301.086
301.058
301.012
300.957
300.9
300.845
300.792
300.742
300.696
300.653
300.615
300.58
300.553
300.536
300.532
300.533
300.534
300.5
300.392
300.452
300.359
300.283
300.362
300.336
300.204
300.256
300.165
300.027
300.12
300.073
300.028
300.058
300.083
300.113
300.153
300.254
300.398
300.54
300.684
300.821
300.94
301.028
301.083
301.11
301.109
301.087
301.046
300.995
300.94
300.885
300.832
300.781
300.733
300.69
300.646
300.616
300.594
300.598
300.639
300.736
300.866
300.975
300.57
300.881
300.43
300.574
300.431
300.312
300.408
300.383
300.22
300.279
300.176
300.028
300.127
300.075
300.027
300.056
300.084
300.117
300.167
300.258
300.396
300.544
300.691
300.831
300.952
301.043
301.101
301.129
301.132
301.113
301.078
301.031
300.978
300.924
300.872
300.82
300.771
300.727
300.683
300.649
300.642
300.688
300.868
301.235
301.796
302.427
301.612
303.193
300.948
301.859
300.581
300.998
300.558
300.35
300.525
300.478
300.237
300.309
300.188
300.028
300.133
300.077
300.022
300.066
300.109
300.18
300.23
300.279
300.396
300.553
300.702
300.844
300.967
301.061
301.12
301.15
301.154
301.137
301.108
301.065
301.015
300.963
300.911
300.86
300.808
300.762
300.721
300.683
300.7
300.867
301.326
302.28
303.718
305.407
304.805
306.907
303.636
305.623
302.048
304.03
300.986
302.122
300.935
300.421
300.844
300.726
300.259
300.358
300.201
300.029
300.139
300.079
300.044
300.123
300.234
300.315
300.312
300.303
300.411
300.563
300.719
300.862
300.986
301.081
301.142
301.172
301.178
301.165
301.134
301.095
301.051
301.001
300.95
300.899
300.847
300.797
300.758
300.73
300.771
301.116
302.072
303.791
306.048
308.506
308.492
310.415
307.627
309.525
306.182
308.333
304.313
306.636
302.076
304.435
301.938
300.591
301.704
301.379
300.289
300.46
300.217
300.031
300.144
300.081
300.275
300.404
300.482
300.494
300.415
300.37
300.46
300.579
300.74
300.884
301.008
301.104
301.165
301.196
301.202
301.19
301.167
301.135
301.094
301.046
300.993
300.94
300.888
300.835
300.788
300.768
300.871
301.405
302.945
305.418
308.47
311.374
311.718
313.108
311.287
312.737
310.32
312.115
308.942
311.044
306.98
309.424
304.344
307.143
304.055
301.022
303.535
302.761
300.344
300.705
300.241
300.031
300.151
300.08
300.288
300.796
300.72
300.656
300.573
300.496
300.54
300.617
300.764
300.911
301.034
301.129
301.191
301.221
301.227
301.216
301.198
301.172
301.138
301.096
301.047
300.991
300.933
300.876
300.821
300.787
300.93
301.748
303.775
307.139
310.703
313.023
313.626
313.997
313.57
314.043
313.28
313.934
312.709
313.671
311.632
313.116
309.775
312.044
307.085
309.955
306.798
302.007
306.245
305.266
300.462
301.296
300.285
300.03
300.16
300.077
300.235
300.924
300.968
300.862
300.761
300.652
300.643
300.679
300.799
300.942
301.064
301.157
301.217
301.247
301.253
301.245
301.234
301.219
301.194
301.157
301.109
301.052
300.99
300.924
300.86
300.818
300.936
301.954
304.58
308.506
311.982
313.631
314.103
314.076
314.204
314.232
314.194
314.281
314.113
314.283
313.909
314.219
313.407
314.062
312.297
313.591
309.909
312.386
309.632
303.943
309.062
308.152
300.735
302.492
300.38
300.027
300.175
300.071
300.217
300.928
301.127
301.067
300.936
300.809
300.754
300.765
300.849
300.979
301.097
301.187
301.246
301.274
301.281
301.283
301.293
301.303
301.297
301.267
301.213
301.143
301.066
300.986
300.909
300.843
300.928
301.959
305.085
309.519
312.467
313.52
313.975
313.745
314.138
313.861
314.216
313.979
314.265
314.089
314.299
314.206
314.299
314.307
314.163
314.358
313.691
314.245
312.298
313.711
312.039
306.695
311.553
310.726
301.368
304.713
300.605
300.022
300.218
300.07
300.234
300.93
301.214
301.213
301.089
300.955
300.87
300.867
300.917
301.023
301.134
301.219
301.274
301.302
301.316
301.347
301.41
301.483
301.526
301.516
301.448
301.339
301.212
301.09
300.977
300.885
300.912
301.894
305.116
310.08
312.496
313.172
312.503
313.383
312.578
313.502
312.937
313.687
313.221
313.924
313.561
314.182
313.926
314.361
314.245
314.433
314.452
314.309
314.521
313.651
314.342
313.493
309.417
313.182
312.608
302.626
307.51
301.151
300.019
300.36
300.109
300.303
300.931
301.239
301.313
301.218
301.087
300.99
300.97
300.996
301.077
301.174
301.253
301.304
301.331
301.367
301.462
301.643
301.856
302.033
302.103
302.021
301.807
301.53
301.287
301.085
300.949
300.919
301.698
305.002
310.089
312.443
312.589
310.956
311.212
309.999
312.368
311.759
312.806
312.411
313.236
312.928
313.676
313.436
314.086
313.95
314.409
314.418
314.598
314.724
314.615
314.807
314.336
314.697
314.274
311.607
314.119
313.779
304.891
310.011
302.303
300.162
300.843
300.578
300.468
300.966
301.272
301.38
301.324
301.205
301.104
301.065
301.081
301.139
301.215
301.286
301.33
301.363
301.438
301.643
302.02
302.472
302.853
303.028
302.96
302.673
302.23
301.716
301.298
301.056
300.946
301.415
304.687
309.948
312.39
312.122
309.422
308.92
307.476
310.752
309.337
312.008
311.505
312.646
312.39
313.242
313.13
313.903
313.974
314.551
314.801
314.991
315.485
315.152
315.788
315.035
315.655
314.762
315.25
314.784
313.118
314.734
314.549
307.591
311.965
304.433
300.455
302.61
302.185
300.848
301.086
301.314
301.427
301.408
301.31
301.211
301.158
301.163
301.203
301.265
301.313
301.353
301.394
301.523
301.875
302.506
303.249
303.863
304.177
304.147
303.807
303.239
302.545
301.764
301.253
301.01
301.24
304.033
309.565
312.359
312.027
308.675
306.606
306.068
307.627
306.113
310.778
308.862
312.115
311.701
313.148
313.21
314.12
314.388
315.202
315.681
316.161
316.945
316.732
317.854
316.702
318.103
316.138
317.61
315.413
316.53
315.492
314.149
315.461
315.305
310.12
313.489
308.149
303.905
307.058
307.853
301.307
301.378
301.467
301.473
301.401
301.308
301.248
301.238
301.26
301.316
301.347
301.373
301.421
301.604
302.114
303.012
304.079
304.988
305.506
305.538
305.15
304.469
303.607
302.584
301.673
301.152
301.19
303.256
308.81
312.317
312.077
308.78
305.667
305.194
304.746
306.605
304.834
311.296
308.425
313.175
312.766
314.791
315.118
316.196
316.756
317.727
318.407
318.847
319.524
319.236
319.833
319.141
319.818
318.286
319.639
316.785
318.723
316.861
315.037
316.74
316.463
312.566
314.668
311.691
304.952
311.625
311.761
301.518
301.516
301.525
301.478
301.394
301.329
301.303
301.317
301.338
301.371
301.389
301.441
301.667
302.311
303.462
304.863
306.128
306.929
307.098
306.686
305.873
304.825
303.585
302.434
301.448
301.213
302.575
307.848
312.217
312.269
309.292
306.848
304.358
305.281
304.047
304.048
305.538
303.697
311.439
307.615
315.075
314.155
317.301
317.478
318.965
319.36
319.982
320.278
320.145
320.38
320.075
320.134
320.018
319.885
319.877
319.986
318.934
320.023
318.908
316.104
318.685
318.27
314.2
315.672
313.799
309.692
313.792
313.887
301.632
301.576
301.541
301.471
301.403
301.365
301.371
301.364
301.383
301.399
301.452
301.699
302.436
303.789
305.5
307.148
308.334
308.739
308.311
307.364
306.138
304.737
303.369
302.065
301.308
302.095
306.73
311.915
312.613
310.283
308.403
306.573
304.068
304.996
303.187
303.37
304.358
302.717
310.741
306.312
316.807
314.634
319.383
318.853
320.445
320.396
320.577
320.662
320.082
319.988
319.367
318.675
319.213
317.818
319.829
318.248
320.11
319.713
320.154
317.649
320.195
320.136
319.116
315.205
316.188
317.229
314.828
307.203
314.708
314.043
301.68
301.6
301.538
301.47
301.424
301.407
301.407
301.408
301.412
301.457
301.704
302.475
303.954
305.906
307.911
309.526
310.169
309.76
308.767
307.448
305.947
304.393
302.848
301.573
301.886
305.579
311.267
312.868
311.236
309.811
308.427
305.579
306.771
303.719
304.676
302.484
302.871
303.156
301.942
309.281
304.725
317.277
313.986
320.05
318.958
320.644
320.394
319.907
319.803
318.121
317.772
316.461
315.47
316.15
314.235
317.525
314.762
319.69
317.053
318.468
320.302
319.741
320.074
318.491
319.751
320.467
320.131
319.953
320.525
315.614
316.481
316.898
318.112
316.162
315.166
315.79
306.348
314.852
315.262
315.55
315.011
313.33
314.593
301.692
301.601
301.533
301.478
301.447
301.446
301.436
301.432
301.461
301.688
302.454
303.963
306.043
308.315
310.307
311.135
310.85
309.936
308.613
307.07
305.409
303.673
302.107
301.889
304.586
310.438
312.901
312.036
310.999
310.089
308.05
304.948
305.9
303.137
304
301.903
302.4
302.12
301.389
307.161
303.096
316.431
312.191
319.55
317.591
319.54
318.849
317.554
317.304
314.847
314.461
312.91
312.099
314.101
312.989
312.322
311.713
315.754
314.319
312.37
312.166
313.199
317.001
318.633
317.114
315.607
318.844
320.519
319.456
320.432
320.385
319.459
319.13
320.546
317.232
317.687
319.054
316.794
316.361
310.303
313.459
315.586
315.977
315.208
314.82
301.682
301.593
301.532
301.488
301.48
301.463
301.45
301.464
301.642
302.342
303.843
305.963
308.36
310.608
311.616
311.573
310.834
309.52
307.988
306.327
304.516
302.741
301.983
303.861
309.484
312.829
312.646
311.949
311.468
309.939
305.709
306.922
303.891
304.786
302.377
303.069
301.426
301.829
301.388
301.075
304.701
301.853
314.12
309.44
317.336
314.649
316.796
315.688
314.137
313.689
311.555
311.058
311.384
311.066
310.893
310.661
311.792
311.326
311.033
314.232
313.009
311.55
311.503
312.107
315.642
317.377
315.796
314.223
317.664
320.656
320.293
320.7
319.826
318.027
318.461
320.184
318.603
318.098
320.008
317.576
317.049
314.806
313.917
309.868
313.789
316.519
316
315.506
315.155
301.663
301.585
301.532
301.501
301.489
301.469
301.467
301.594
302.177
303.543
305.584
308.081
310.544
311.71
311.911
311.448
310.167
308.615
307.037
305.282
303.43
302.238
303.48
308.499
312.551
313.023
312.676
312.551
311.45
307.804
308.944
304.331
305.262
302.7
303.465
301.6
302.073
301.085
301.273
301.039
300.922
302.583
301.198
310.74
306.206
313.671
310.664
312.896
311.472
310.485
309.738
310.477
310.195
309.939
309.552
310.874
310.73
310.615
310.467
311.199
311
310.922
313
312.106
311.232
311.386
311.566
314.327
316.068
314.537
313.082
316.412
320.516
320.741
320.769
318.957
316.847
317.363
319.515
319.594
319.065
320.7
318.492
317.857
315.432
315.125
303.839
312.113
317.189
316.53
315.924
301.643
301.577
301.531
301.517
301.49
301.475
301.553
302.007
303.213
305.05
307.27
309.964
311.584
311.947
311.774
310.657
308.997
307.433
305.84
304.062
302.631
303.42
307.668
312.033
313.143
313.182
313.336
312.606
309.662
306.231
307.245
302.775
303.561
301.633
302.119
301.117
301.315
300.923
300.994
300.885
300.838
301.46
300.932
306.902
303.228
309.293
306.505
308.738
307.32
309.2
308.689
308.221
307.561
310.287
310.036
309.727
309.333
310.909
310.919
310.92
310.884
311.16
311.198
311.347
312.19
311.713
311.401
311.688
311.606
313.261
314.854
313.534
312.35
315.26
320.07
320.962
320.578
317.969
315.766
316.367
318.678
320.508
320.083
321.086
319.473
318.771
316.471
315.793
315.028
302.834
311.82
317.981
317.184
301.625
301.569
301.537
301.511
301.486
301.524
301.852
302.862
304.546
306.428
308.643
311.017
311.816
311.833
311.053
309.356
307.609
306.077
304.478
303.109
303.466
307.024
311.457
313.128
313.473
313.847
313.426
311.043
306.286
307.186
304.418
305.314
301.571
301.988
301.112
301.295
300.909
300.989
300.835
300.86
300.813
300.788
301.03
300.834
303.524
301.682
305.5
303.556
306.406
305.047
308.883
308.356
307.803
307.207
310.754
310.526
310.186
309.734
311.546
311.743
311.887
311.922
311.595
311.91
312.296
311.914
311.842
312.034
312.445
312.015
312.586
313.902
312.901
312.145
314.365
319.448
321.042
320.249
317.082
314.945
315.638
317.916
321.13
320.99
321.34
320.489
319.742
317.932
317.064
316.18
315.036
307.341
313.046
318.864
301.609
301.561
301.538
301.502
301.509
301.724
302.522
304.033
305.625
307.272
309.488
311.307
311.737
311.267
309.879
307.863
306.185
304.705
303.623
303.604
306.627
310.908
313.027
313.584
314.125
313.948
312.006
307.375
304.165
305.09
302.59
303.328
301.08
301.238
300.896
300.97
300.811
300.845
300.784
300.79
300.777
300.759
300.889
300.791
301.897
301.166
303.649
302.392
306.443
305.664
304.185
304.92
309.185
308.558
307.881
307.171
311.869
311.636
311.246
310.698
312.685
313.036
313.29
313.378
312.495
313.04
313.606
312.076
312.28
313.046
313.521
312.797
312.408
313.309
312.706
312.324
313.836
318.852
320.96
319.86
316.46
314.493
315.285
317.418
321.56
321.655
321.54
321.424
320.71
319.756
318.659
317.601
316.375
315.249
311.313
314.301
301.594
301.559
301.521
301.507
301.633
302.218
303.517
304.93
306.086
307.669
309.874
311.306
311.255
310.419
308.489
306.412
304.939
304.06
303.948
306.543
310.452
312.768
313.585
314.218
314.241
312.627
308.484
303.35
303.726
302.182
302.727
301.46
301.767
300.886
300.948
300.803
300.838
300.762
300.778
300.754
300.757
300.756
300.741
300.836
300.766
301.431
301.011
303.515
302.884
302.044
306.688
305.825
304.221
304.999
310.025
309.252
308.42
307.557
313.336
313.073
312.586
311.902
314.134
314.578
314.883
314.97
313.732
314.436
315.107
312.458
313.047
314.335
314.791
313.843
312.554
313.118
312.847
312.629
313.705
318.501
320.877
319.734
316.235
314.441
315.328
317.32
321.906
322.191
321.734
322.208
321.602
320.557
319.306
317.958
316.539
315.392
309.015
313.995
301.582
301.554
301.513
301.575
301.975
303.021
304.366
305.221
306.203
307.806
310.023
311.004
310.635
309.466
307.205
305.422
304.453
304.397
306.583
310.042
312.458
313.524
314.21
314.355
313.04
309.187
303.485
301.825
302.28
301.315
301.531
301.034
301.153
300.805
300.836
300.756
300.777
300.741
300.742
300.736
300.735
300.737
300.728
300.818
300.772
301.298
300.957
303.511
302.875
302.29
301.762
307.127
306.16
304.391
305.243
311.074
310.135
309.14
308.127
314.904
314.544
313.907
313.045
315.692
316.165
316.469
316.523
315.175
315.962
316.657
313.126
313.919
315.773
316.071
314.938
312.838
313.259
313.172
313.187
313.841
318.514
320.896
319.797
316.334
314.617
315.58
317.471
322.288
322.679
321.945
322.821
322.341
321.226
319.821
318.254
316.76
315.466
304.323
312.676
301.573
301.538
301.546
301.795
302.595
303.855
304.636
305.234
306.101
307.799
310.032
310.532
310.096
308.7
306.651
305.098
304.845
306.719
309.74
312.086
313.332
314.13
314.353
313.266
309.797
304.004
301.437
301.58
301.167
301.297
300.985
301.065
300.874
300.923
300.762
300.784
300.732
300.742
300.713
300.725
300.721
300.713
300.767
300.766
300.876
300.899
301.403
301.111
300.947
303.612
302.906
302.259
301.75
307.453
306.39
304.48
305.397
312.019
310.891
309.728
308.573
316.401
315.906
315.068
313.975
317.271
317.74
317.997
318.009
316.708
317.511
318.216
313.903
314.896
317.198
317.382
316.102
313.32
313.631
313.681
313.916
314.279
318.713
321.072
320.058
316.683
315.128
316.176
317.907
322.686
323.136
322.276
323.332
322.926
321.753
320.207
318.484
316.883
315.332
308.036
313.312
301.565
301.543
301.677
302.246
303.349
304.214
304.634
304.964
305.796
307.73
309.866
310.144
309.746
308.391
306.518
305.541
307.007
309.682
311.71
313.026
313.905
314.257
313.323
310.19
304.604
301.556
301.059
301.154
300.94
300.992
300.864
300.898
300.808
300.835
300.733
300.751
300.709
300.723
300.698
300.693
300.754
300.717
300.962
300.982
301.005
301.079
301.327
301.37
301.118
300.987
301.019
303.645
302.896
302.146
301.679
307.482
306.356
304.374
305.322
312.691
311.335
309.985
308.697
317.738
317.112
316.101
314.739
318.809
319.219
319.359
319.305
318.225
319.047
319.702
314.809
315.975
318.605
318.699
317.326
314.066
314.241
314.444
314.797
315.019
319.195
321.426
320.511
317.364
315.981
317.097
318.58
323.094
323.552
322.663
323.757
323.376
322.139
320.486
318.68
316.784
315.066
304.504
312.846
301.558
301.611
301.985
302.877
303.853
304.255
304.349
304.487
305.506
307.738
309.691
309.965
309.609
308.319
307.003
307.532
309.739
311.484
312.723
313.619
314.003
313.244
310.353
304.974
301.694
300.97
300.919
300.953
300.858
300.885
300.813
300.834
300.771
300.793
300.715
300.725
300.675
300.695
300.72
300.684
300.951
300.825
301.567
301.647
301.179
301.269
301.927
302.221
301.348
301.136
301.143
301.139
303.514
302.762
301.964
301.582
307.189
306.024
304.028
304.971
313.118
311.466
309.896
308.474
318.897
318.123
316.942
315.371
320.205
320.494
320.515
320.363
319.667
320.462
321.022
315.853
317.157
319.947
319.987
318.593
314.97
315.073
315.43
315.858
315.969
319.762
321.842
320.99
318.26
317.055
318.189
319.353
323.481
323.924
323.039
324.094
323.706
322.404
320.645
318.684
316.593
314.908
302.44
312.292
301.586
301.81
302.481
303.459
303.989
304.055
303.855
304.036
305.295
307.77
309.599
309.89
309.583
308.752
308.687
309.947
311.454
312.525
313.349
313.68
312.973
310.279
305.137
301.775
301.008
300.865
300.884
300.88
300.858
300.819
300.838
300.783
300.801
300.743
300.765
300.681
300.707
300.666
300.657
300.886
300.716
301.586
301.253
302.955
303.254
301.579
301.741
302.689
302.865
301.337
301.186
301.459
301.377
303.195
302.498
301.813
301.553
306.609
305.422
303.516
304.395
313.474
311.469
309.58
307.973
319.765
318.86
317.543
315.835
321.374
321.477
321.412
321.036
320.962
321.659
322.081
317.042
318.435
321.172
321.213
319.888
316.1
316.156
316.674
317.118
317.138
320.298
322.219
321.351
319.212
318.235
319.186
320.019
323.835
324.219
323.374
324.359
323.935
322.575
320.692
318.599
316.464
314.684
306.758
312.882
301.684
302.187
303.044
303.756
303.909
303.642
303.367
303.669
305.142
307.792
309.542
309.868
309.857
309.936
310.567
311.534
312.42
313.112
313.301
312.529
309.909
305.031
301.797
301.03
300.892
300.846
300.837
300.855
300.827
300.793
300.812
300.759
300.778
300.718
300.74
300.643
300.671
300.692
300.646
301.48
300.901
303.144
302.43
304.579
305.053
306.388
302.21
302.444
303.989
304.332
301.406
301.362
301.979
301.824
302.774
302.203
301.829
301.691
305.92
304.737
303.026
303.782
313.755
311.503
309.314
307.42
320.337
319.295
317.894
316.123
322.211
322.19
321.913
321.382
322.053
322.584
322.747
318.393
319.815
322.243
322.365
321.203
317.507
317.554
318.245
318.631
318.528
320.764
322.561
321.692
319.909
319.298
319.841
320.493
324.081
324.462
323.724
324.559
324.081
322.616
320.634
318.431
316.219
314.682
303.094
312.816
301.911
302.697
303.486
303.798
303.622
303.21
302.936
303.359
305.051
307.751
309.471
310.001
310.465
311.014
311.619
312.295
312.838
312.834
311.896
309.2
304.652
301.732
301.043
300.91
300.85
300.862
300.822
300.818
300.834
300.805
300.771
300.791
300.735
300.758
300.699
300.714
300.627
300.635
300.837
300.654
303.042
301.49
306.185
304.923
306.538
306.637
309.662
310.012
303.232
303.605
305.765
306.234
301.664
301.699
302.866
302.568
302.462
302.08
302.074
302.07
305.515
304.342
302.858
303.474
313.965
311.585
309.211
307.148
320.58
319.494
318.089
316.327
322.727
322.585
322.099
321.498
322.917
323.129
323.134
319.975
321.348
323.136
323.2
322.522
319.207
319.063
319.781
320.354
319.604
320.972
322.792
321.819
320.224
319.887
320.147
320.635
324.308
324.658
323.946
324.694
324.134
322.577
320.495
318.169
316.066
314.724
303.406
312.961
302.299
303.199
303.687
303.65
303.231
302.78
302.546
303.138
304.943
307.512
309.393
310.268
310.924
311.509
312.044
312.389
312.142
310.967
308.084
304.028
301.602
301.045
300.934
300.876
300.832
300.849
300.803
300.8
300.817
300.785
300.75
300.772
300.708
300.735
300.66
300.689
300.625
300.617
301.262
300.726
306.03
302.923
310.86
309.039
309.263
309.559
312.673
312.474
304.717
305.243
308.115
308.73
302.133
302.32
304.189
303.716
302.448
302.187
302.585
302.678
305.356
304.231
302.975
303.465
314.183
311.764
309.27
307.06
320.67
319.612
318.261
316.572
323.021
322.608
322.14
321.51
323.381
323.404
323.314
321.513
322.428
323.396
323.059
322.878
320.609
320.057
320.541
321.372
320.046
321.11
322.933
321.874
320.429
320.001
320.137
320.679
324.482
324.786
324.118
324.756
324.114
322.492
320.278
317.944
316.011
314.989
383.088
314.609
302.81
303.554
303.684
303.366
302.828
302.369
302.216
302.966
304.701
307.017
309.093
310.258
310.976
311.423
311.548
310.996
309.519
306.547
303.239
301.441
301.041
300.953
300.903
300.848
300.815
300.833
300.785
300.781
300.799
300.766
300.728
300.751
300.671
300.699
300.633
300.652
300.636
300.604
302.212
300.92
310.136
305.567
315.502
314.793
314.129
312.213
312.559
316.004
315.971
306.768
307.458
310.99
311.663
302.952
303.3
306.061
305.387
302.689
302.57
303.429
303.738
305.391
304.302
303.357
303.686
314.508
312.116
309.55
307.203
320.726
319.769
318.552
317.031
322.992
322.529
322.027
321.479
323.419
323.353
323.086
321.939
322.254
323.078
322.232
322.32
321.004
320.26
320.537
321.436
319.995
321.086
323.045
321.865
320.392
319.888
320.004
320.625
324.606
324.848
324.211
324.762
324.063
322.335
320.041
317.762
316.027
315.015
694.695
326.283
303.34
303.689
303.548
303.048
302.426
301.971
301.973
302.791
304.283
306.158
308.03
309.304
309.889
309.821
309.109
307.424
304.814
302.45
301.29
301.037
300.974
300.927
300.881
300.824
300.816
300.798
300.765
300.763
300.78
300.745
300.687
300.717
300.656
300.669
300.619
300.637
300.679
300.595
303.801
301.318
314.032
308.839
318.295
317.328
318.49
316.29
315.524
315.874
319.093
318.838
309.427
310.25
314.333
315.004
304.211
304.764
308.563
307.695
303.219
303.235
304.753
305.367
305.771
304.63
304.068
304.202
315.138
312.847
310.257
307.768
320.789
320.008
319.077
317.88
322.72
322.143
321.73
321.257
322.807
322.462
321.629
321.669
321.659
322.071
316.779
321.809
320.683
319.986
319.87
320.733
319.593
320.919
323.038
321.671
320.234
319.398
319.529
320.39
324.641
324.862
324.21
324.733
323.977
322.105
319.786
317.591
316.155
315.702
804.037
370.885
303.674
303.673
303.302
302.665
302
301.641
301.836
302.54
303.663
305.028
306.266
307.037
307.127
306.503
305.07
303.228
301.819
301.18
301.035
300.991
300.956
300.908
300.859
300.793
300.801
300.783
300.812
300.779
300.737
300.736
300.761
300.71
300.672
300.691
300.644
300.661
300.601
300.623
300.771
300.59
305.677
301.929
316.829
317.945
314.037
310.954
320.802
319.795
319.739
318.916
319.09
322.072
321.57
312.658
313.564
317.942
318.523
306.053
306.845
311.684
310.67
304.113
304.38
306.823
307.679
306.904
305.617
305.271
305.282
316.302
314.288
311.781
309.174
320.758
320.194
319.579
318.914
321.427
320.849
320.709
320.473
321.901
321.736
316.597
320.815
316.669
316.897
312.13
317.005
320.029
319.277
315.527
316.154
318.889
320.834
322.943
321.553
319.849
318.751
319.244
320.011
324.614
324.835
324.152
324.658
323.752
321.835
319.535
317.531
316.111
320.232
934.393
531.917
303.741
303.489
302.917
302.178
301.604
301.495
301.707
302.195
302.907
303.674
304.232
304.361
303.974
303.1
302.101
301.409
301.116
301.04
301.009
300.978
300.942
300.891
300.839
300.77
300.782
300.764
300.803
300.715
300.725
300.743
300.697
300.667
300.681
300.626
300.648
300.58
300.602
300.887
300.587
306.399
302.393
318.708
316.684
314.594
312.677
309.816
322.768
321.373
320.764
322.257
322.283
324.658
323.867
316.327
317.226
321.608
322.045
308.606
309.611
315.33
314.254
305.597
306.137
309.73
310.805
309.72
307.801
307.41
307.421
318.068
316.666
314.568
312.075
320.243
320.03
319.621
319.351
316.681
316.726
316.737
316.855
317.013
316.954
312.334
316.545
311.928
312.175
306.813
312.093
316.39
315.17
311.223
311.561
314.898
320.34
322.965
321.279
319.477
314.759
314.658
319.921
324.501
324.757
323.945
324.424
323.513
321.552
319.267
317.43
316.475
341.011
969.23
714.24
303.598
303.097
302.373
301.661
301.423
301.414
301.554
301.821
302.148
302.406
302.484
302.309
301.903
301.48
301.204
301.091
301.052
301.027
301
300.966
300.928
300.874
300.822
300.753
300.761
300.769
300.792
300.706
300.712
300.734
300.687
300.652
300.672
300.605
300.629
300.562
300.581
300.924
300.585
306.231
309.915
302.417
318.809
316.504
314.51
311.902
324.339
322.65
321.044
325.35
325.155
326.835
325.745
320.201
321.005
325.086
325.309
311.941
313.075
319.296
318.242
307.888
308.733
313.453