/*--------------------------------*- C++ -*----------------------------------*\
  =========                 |
  \\      /  F ield         | OpenFOAM: The Open Source CFD Toolbox
   \\    /   O peration     | Website:  https://openfoam.org
    \\  /    A nd           | Version:  dev
     \\/     M anipulation  |
\*---------------------------------------------------------------------------*/
FoamFile
{
    version     2.0;
    format      ascii;
    class       volVectorField;
    location    "2500";
    object      U;
}
// * * * * * * * * * * * * * * * * * * * * * * * * * * * * * * * * * * * * * //

dimensions      [0 1 -1 0 0 0 0];

internalField   nonuniform List<vector> 
10028
(
(0.00508229 0.00769818 -3.48879e-29)
(0.0123136 0.00694255 0)
(0.00505266 0.0204035 -1.49687e-28)
(0.0173559 0.0058436 0)
(0.013523 0.0206989 0)
(0.00440528 0.0296575 -9.61422e-29)
(0.0215034 0.00483476 0)
(0.0193323 0.0200429 0)
(0.0130549 0.0307461 0)
(0.00373722 0.0375254 0)
(0.0249184 0.0040701 0)
(0.0234222 0.0181721 0)
(0.0200614 0.031594 7.81295e-28)
(0.0116139 0.0385696 -1.08096e-28)
(0.00331661 0.044546 0)
(0.027849 0.0034285 -5.43888e-28)
(0.0264929 0.0156466 -8.87908e-28)
(0.0254021 0.0313178 8.51467e-28)
(0.0191155 0.0402123 0)
(0.0101987 0.0453393 -1.19122e-28)
(0.00300384 0.0508834 0)
(0.0306541 0.00291955 -5.41976e-28)
(0.0291566 0.0131685 -8.61964e-28)
(0.0292717 0.0297637 -7.6317e-29)
(0.0255598 0.0414721 -9.97371e-29)
(0.0172607 0.0468633 0)
(0.00918553 0.0515326 0)
(0.00274392 0.0567748 0)
(0.0333834 0.00254252 0)
(0.0317009 0.0110682 0)
(0.0320765 0.0273357 -1.07481e-27)
(0.0307021 0.0416947 0)
(0.0241436 0.0488364 0)
(0.0154766 0.0528134 0)
(0.00838448 0.0573036 0)
(0.00253507 0.0621698 -8.12882e-29)
(0.0359371 0.00229826 0)
(0.0341 0.00955495 -8.55338e-28)
(0.0341515 0.0244797 -1.1098e-27)
(0.0345451 0.0406714 -1.20538e-27)
(0.0302658 0.0505228 0)
(0.0219396 0.0547214 0)
(0.0140838 0.0582923 -4.91746e-28)
(0.00771866 0.0626296 -2.56182e-28)
(0.00235132 0.0672477 0)
(0.0383813 0.00213019 5.35106e-28)
(0.0364469 0.00862687 -8.642e-28)
(0.0359686 0.0216162 -5.8004e-29)
(0.0372314 0.038554 -1.90904e-35)
(0.035311 0.0512933 -1.23408e-27)
(0.0283649 0.0569892 -1.13907e-27)
(0.0198962 0.0598547 -1.42639e-27)
(0.0129546 0.0634802 0)
(0.00713069 0.0676823 0)
(0.00217315 0.0719465 -5.89992e-29)
(0.0407526 0.00200693 1.63962e-27)
(0.0387875 0.00799424 7.07382e-29)
(0.0378567 0.0190271 0)
(0.039141 0.0357178 1.21785e-27)
(0.0392088 0.0508839 -1.36292e-27)
(0.0342772 0.0590567 -1.20909e-27)
(0.0259161 0.062012 -1.23713e-28)
(0.0182338 0.0647741 0)
(0.0119602 0.0684287 0)
(0.00659769 0.0723634 2.98319e-28)
(0.00200453 0.0763398 4.63227e-28)
(0.0431084 0.00191222 1.12641e-27)
(0.0410973 0.00750651 0)
(0.0398077 0.0169759 1.03915e-28)
(0.0406471 0.0325196 -1.66252e-28)
(0.0420204 0.0493079 0)
(0.0393198 0.0603737 0)
(0.0319529 0.0645377 1.19002e-28)
(0.0236656 0.0666142 8.28116e-28)
(0.0168242 0.0695524 0)
(0.0110729 0.0730474 0)
(0.0060894 0.0767475 4.95563e-28)
(0.00184879 0.0804047 4.18075e-28)
(0.0454797 0.00183319 0)
(0.043399 0.00713117 1.71828e-27)
(0.0418698 0.0155097 0)
(0.0420759 0.0293614 -1.70966e-28)
(0.0440073 0.0467954 -1.90102e-28)
(0.0433438 0.0605977 -1.72516e-27)
(0.0377089 0.0669994 -1.33376e-27)
(0.0292822 0.0689834 1.17649e-27)
(0.0217538 0.0711279 0)
(0.0155665 0.0740578 -7.67018e-28)
(0.0102414 0.0774083 0)
(0.00560185 0.0807958 -1.59375e-28)
(0.00170076 0.0841885 0)
(0.0478259 0.00176871 1.18603e-27)
(0.0457313 0.00682626 3.53141e-27)
(0.0439993 0.0144291 0)
(0.0436225 0.0265303 0)
(0.0454778 0.043711 -1.95644e-28)
(0.0463971 0.0596099 -1.82089e-27)
(0.0428207 0.0688715 -2.31656e-28)
(0.0350053 0.0717339 -1.26924e-27)
(0.0268658 0.0731734 0)
(0.0200987 0.0754762 2.44635e-28)
(0.0143976 0.0783625 -2.39899e-28)
(0.00943353 0.0814419 1.75975e-28)
(0.00513486 0.084572 1.31108e-28)
(0.00155014 0.0876832 0)
(0.050161 0.00171463 1.22815e-27)
(0.048048 0.00656161 1.8137e-27)
(0.046212 0.0136151 0)
(0.0453268 0.024229 0)
(0.0466978 0.0403018 0)
(0.0486262 0.0575769 1.50369e-27)
(0.0470541 0.0697635 -4.59086e-28)
(0.0406215 0.0745456 -1.45207e-27)
(0.0321537 0.0757001 -1.21923e-28)
(0.0247508 0.0773038 8.96013e-28)
(0.0185848 0.0796826 4.17148e-28)
(0.013287 0.0823557 -1.34285e-27)
(0.00864503 0.0852054 7.09258e-28)
(0.00467345 0.0880754 1.07602e-28)
(0.0013967 0.0908822 0)
(0.0524892 0.00166145 -1.34508e-27)
(0.0503723 0.00633515 -1.8637e-27)
(0.0484861 0.0129889 -6.86626e-29)
(0.0472028 0.0224489 0)
(0.0479388 0.0368695 0)
(0.0502631 0.0547895 5.83626e-27)
(0.0503825 0.069526 -1.33577e-27)
(0.0457991 0.0769804 -1.15029e-27)
(0.0375816 0.078637 0)
(0.0295641 0.0795689 -1.19097e-28)
(0.0228473 0.0813525 9.43561e-28)
(0.017162 0.0836167 -4.51289e-28)
(0.0121966 0.0861023 -1.27883e-27)
(0.00786866 0.0887228 4.62866e-28)
(0.00420428 0.0912755 8.17172e-29)
(0.00124501 0.0937835 -6.88061e-28)
(0.0548125 0.00161574 -2.61337e-27)
(0.0527139 0.00611711 -2.01097e-27)
(0.0507466 0.0124429 -2.45126e-27)
(0.0492786 0.0210981 -1.61804e-28)
(0.0493361 0.0336649 -3.40451e-27)
(0.0515615 0.0515568 3.74966e-27)
(0.0529155 0.068184 -1.45613e-27)
(0.0502465 0.078614 -6.98405e-28)
(0.0430322 0.0817921 -7.1455e-35)
(0.034539 0.0822824 -4.73535e-28)
(0.0272374 0.0833902 -1.24289e-27)
(0.0210829 0.0852231 1.65736e-27)
(0.0157697 0.0873571 -1.11842e-27)
(0.0111076 0.0896066 -4.73558e-29)
(0.00708548 0.0919423 -1.94526e-28)
(0.0037348 0.094171 -5.56887e-29)
(0.00109107 0.0963948 -6.89927e-28)
(0.0571238 0.00157802 -1.33848e-27)
(0.0550235 0.00593053 -9.92614e-29)
(0.0530097 0.0119492 -5.03079e-27)
(0.0514825 0.0200123 -3.09929e-27)
(0.0509528 0.030966 -9.67822e-29)
(0.0527024 0.0480799 -4.00755e-27)
(0.054822 0.0659348 0)
(0.0538845 0.0792046 3.50338e-27)
(0.0482177 0.0847476 1.80994e-27)
(0.039703 0.0854217 9.3787e-28)
(0.0317775 0.0858524 -1.67683e-27)
(0.0250961 0.0871605 6.304e-28)
(0.0193732 0.0889431 -1.44522e-27)
(0.0143768 0.0908486 0)
(0.0100154 0.0928316 -3.23059e-28)
(0.00629048 0.0948553 -5.28178e-28)
(0.0032628 0.0967858 3.53368e-29)
(0.000930029 0.0986984 0)
(0.0594084 0.00153413 1.2301e-27)
(0.0573379 0.00579363 0)
(0.0553019 0.011467 -5.34507e-27)
(0.053721 0.0190382 -8.01863e-32)
(0.0528094 0.0288187 3.43816e-27)
(0.053894 0.0445162 -4.004e-27)
(0.0563211 0.0630567 -2.45042e-28)
(0.0567594 0.0786974 4.28933e-27)
(0.0528797 0.0871023 1.53761e-27)
(0.0449788 0.088835 9.29423e-28)
(0.0365033 0.0887497 4.47372e-28)
(0.0292448 0.0894666 0)
(0.0230504 0.0908275 -9.97242e-28)
(0.0176821 0.0924314 -1.91061e-28)
(0.0129794 0.0940735 -4.66669e-28)
(0.00890887 0.0957642 3.48377e-28)
(0.00548103 0.0974902 -5.16044e-28)
(0.00277727 0.0990979 -2.2474e-29)
(0.000763656 0.100696 0)
(0.0616555 0.00148868 2.74081e-27)
(0.0596368 0.00564167 1.7917e-27)
(0.057599 0.0109499 -2.7394e-27)
(0.0559892 0.0181497 2.90596e-27)
(0.0548618 0.0271553 3.59494e-27)
(0.0552783 0.0410858 -2.37061e-28)
(0.0576265 0.0597831 -1.28723e-28)
(0.0590285 0.0771945 4.45901e-27)
(0.0568478 0.0885505 2.43188e-28)
(0.0501306 0.0922348 4.64983e-28)
(0.041435 0.0920737 0)
(0.0335648 0.0921562 0)
(0.0268489 0.093034 0)
(0.0210532 0.0942959 0)
(0.0159878 0.0956738 9.16504e-29)
(0.0115636 0.0970282 -4.17137e-28)
(0.00777443 0.0984167 3.15563e-28)
(0.0046567 0.099829 -7.02493e-28)
(0.00228011 0.101093 5.17033e-28)
(0.000595754 0.102364 0)
(0.06386 0.00147101 1.38021e-27)
(0.0618871 0.00544978 4.01962e-27)
(0.0598827 0.0104774 2.38634e-27)
(0.0582404 0.01738 -3.49555e-27)
(0.0569782 0.0258316 1.23617e-28)
(0.0568722 0.0380206 4.03006e-27)
(0.0588355 0.0563235 -1.35417e-28)
(0.0608624 0.0748961 4.61176e-27)
(0.0601223 0.0889858 0)
(0.0549325 0.0952362 2.36477e-28)
(0.0464981 0.0957235 4.42732e-28)
(0.038068 0.0952551 -8.17249e-28)
(0.0308074 0.0955883 -9.16429e-28)
(0.0245324 0.0964599 -6.96052e-28)
(0.0190643 0.097564 7.72051e-28)
(0.0142642 0.0986656 -8.68894e-28)
(0.0101141 0.0997038 -3.67e-28)
(0.00660548 0.100779 -2.84227e-28)
(0.00381463 0.101848 1.02824e-28)
(0.00177277 0.10276 4.09862e-28)
(0.000425231 0.103706 0)
(0.0660182 0.00143724 -1.84137e-28)
(0.0641012 0.00524183 2.10123e-27)
(0.0621447 0.0100832 2.54197e-27)
(0.0604525 0.016648 -3.46924e-27)
(0.0591652 0.0246743 -1.39079e-28)
(0.0586304 0.0354359 4.71805e-27)
(0.0600734 0.0527737 -5.0567e-27)
(0.0623939 0.0720519 -5.164e-27)
(0.0627997 0.0884163 -4.02227e-28)
(0.0592158 0.0975525 0)
(0.0515531 0.0994847 0)
(0.0427597 0.0987479 3.78641e-27)
(0.0349332 0.0985151 -9.21855e-28)
(0.0281554 0.0989565 -1.54073e-28)
(0.0222316 0.0997449 -1.56536e-27)
(0.0170402 0.100596 -2.89814e-28)
(0.0125008 0.101392 -4.98579e-28)
(0.00861191 0.102096 0)
(0.00540726 0.102835 -7.47848e-29)
(0.00294803 0.103544 -5.64836e-28)
(0.00123847 0.104092 0)
(0.000268966 0.10477 -3.81578e-28)
(0.0681323 0.0013996 0)
(0.0662774 0.00508389 -3.85075e-28)
(0.0643476 0.00970229 2.53369e-27)
(0.0626631 0.0159028 3.18359e-27)
(0.0613937 0.0235559 4.08317e-27)
(0.0605806 0.0332788 -4.87193e-27)
(0.0614731 0.0492745 3.05746e-28)
(0.0637754 0.068871 -1.24203e-31)
(0.0649992 0.0869579 -2.8757e-28)
(0.0629019 0.0989717 -5.18846e-28)
(0.0564319 0.103059 -1.15467e-28)
(0.0476115 0.102581 4.36728e-27)
(0.0392361 0.101801 0)
(0.0319394 0.101808 -1.03088e-27)
(0.0255314 0.102246 -8.87889e-28)
(0.0199029 0.102817 0)
(0.01496 0.103392 -8.86209e-28)
(0.0106724 0.103847 0)
(0.0070613 0.104179 -2.73694e-28)
(0.00418355 0.104575 0)
(0.00204552 0.104899 2.53482e-37)
(0.00073408 0.105149 5.81785e-28)
(6.48952e-05 0.105573 3.28645e-28)
(0.0702077 0.00137888 0)
(0.0684003 0.00493133 -2.12431e-28)
(0.0664918 0.00932347 2.49529e-27)
(0.0648463 0.0151741 3.16657e-27)
(0.063587 0.0224481 5.29999e-28)
(0.0627129 0.031469 1.66586e-28)
(0.0630612 0.0459616 9.57056e-27)
(0.0651326 0.0654913 1.16923e-26)
(0.0668591 0.0847968 -5.90579e-27)
(0.0660121 0.0994429 -2.79668e-28)
(0.060962 0.106144 -2.42681e-28)
(0.0525604 0.106604 1.04748e-28)
(0.043732 0.105441 -1.77778e-28)
(0.0359005 0.104987 -1.75658e-27)
(0.0289996 0.10508 -1.23169e-27)
(0.02289 0.105361 0)
(0.0175042 0.105695 4.35557e-28)
(0.0128086 0.105923 5.53067e-28)
(0.00877493 0.105985 -3.7309e-28)
(0.0054719 0.105944 -2.33189e-28)
(0.00292671 0.105984 0)
(0.00112846 0.10592 5.36225e-28)
(0.000231884 0.10587 2.10974e-27)
(-0.000134236 0.105797 -1.93294e-27)
(0.072278 0.00137042 0)
(0.0704512 0.00477631 1.7915e-27)
(0.0686014 0.00898433 -2.18684e-28)
(0.0669593 0.0144769 0)
(0.0657344 0.0213734 3.97855e-28)
(0.0648921 0.0298799 4.76169e-27)
(0.0648544 0.0429395 5.42881e-27)
(0.066526 0.062031 5.19092e-27)
(0.0684966 0.0821374 -1.39475e-31)
(0.0686198 0.0990035 -6.32318e-27)
(0.0650223 0.108508 -5.23574e-28)
(0.0574593 0.110604 -2.1907e-28)
(0.0484213 0.109415 3.59303e-28)
(0.0400553 0.108474 -1.42937e-28)
(0.032655 0.108216 -1.20619e-27)
(0.0260475 0.108246 0)
(0.0201803 0.108325 -4.76197e-28)
(0.0150234 0.108305 7.1343e-32)
(0.0105671 0.108157 0)
(0.00680898 0.107797 -6.19857e-28)
(0.0038446 0.107398 0)
(0.00160558 0.107039 1.89797e-28)
(0.000343887 0.106563 6.76925e-28)
(-0.000260268 0.106173 -2.76774e-27)
(-0.000306432 0.105774 0)
(0.0743508 0.00135669 0)
(0.0724884 0.00465018 1.9663e-27)
(0.070642 0.00871605 -2.38202e-28)
(0.0690006 0.0138228 0)
(0.0678245 0.0203258 -4.45619e-28)
(0.0670338 0.0283888 1.26794e-27)
(0.0667967 0.0402559 -8.10775e-28)
(0.0680165 0.0585802 5.34368e-27)
(0.0700311 0.0791687 -1.5523e-31)
(0.0708403 0.0977661 6.83379e-28)
(0.0685621 0.110029 7.25574e-27)
(0.0621516 0.114309 1.18067e-35)
(0.0532561 0.113633 5.26444e-27)
(0.0444173 0.112274 3.36393e-42)
(0.0365003 0.111647 2.05227e-28)
(0.0293989 0.11144 3.15811e-28)
(0.0230226 0.111298 5.23761e-28)
(0.0173692 0.111031 -1.23086e-27)
(0.0124455 0.11066 -2.88713e-28)
(0.00822678 0.110057 -2.14718e-28)
(0.00478521 0.109288 0)
(0.00214707 0.108474 0)
(0.000373974 0.107689 0)
(-0.000514811 0.106969 7.20872e-28)
(-0.000829891 0.106179 0)
(-0.000489873 0.105442 -2.28348e-27)
(0.076396 0.00132315 0)
(0.0745628 0.00454465 0)
(0.0725869 0.00853735 -2.55238e-28)
(0.0709985 0.0132562 0)
(0.0698017 0.0193163 0)
(0.0690947 0.0269371 -6.20871e-27)
(0.0687996 0.0378618 9.08685e-28)
(0.0696436 0.0552558 1.27134e-26)
(0.0715337 0.0760458 -6.87627e-27)
(0.0727676 0.0959015 1.43949e-26)
(0.0716034 0.110683 7.87982e-27)
(0.0664945 0.117485 7.48662e-27)
(0.058129 0.11792 6.79602e-27)
(0.0489895 0.116373 -4.29963e-28)
(0.0405671 0.115368 3.27129e-42)
(0.032966 0.114907 1.21045e-28)
(0.026068 0.114573 1.46602e-27)
(0.0198859 0.114146 -4.21905e-28)
(0.0144413 0.113508 -9.20116e-29)
(0.00973849 0.112675 0)
(0.0057964 0.111622 -1.28214e-28)
(0.00269549 0.1104 -4.13143e-28)
(0.000440183 0.10915 0)
(-0.000869057 0.108106 1.9019e-28)
(-0.001433 0.106937 -7.05356e-28)
(-0.00136014 0.105853 -4.24115e-27)
(-0.000667198 0.104781 4.18997e-27)
(0.0784404 0.00129383 -2.60185e-28)
(0.0766327 0.00450332 -2.70483e-28)
(0.0745341 0.00832876 5.37545e-28)
(0.072901 0.0128908 -8.1639e-28)
(0.0716814 0.0183746 0)
(0.0710275 0.0255256 -3.64331e-27)
(0.0707686 0.0356939 -1.01922e-27)
(0.0713628 0.0521341 6.50398e-27)
(0.0730296 0.0728775 9.68515e-28)
(0.0745029 0.0935929 8.47447e-27)
(0.0742081 0.110516 0)
(0.0704064 0.11996 7.63734e-27)
(0.062898 0.122066 0)
(0.0537365 0.120704 0)
(0.0448721 0.119344 -1.82349e-28)
(0.0367745 0.118631 1.347e-28)
(0.02936 0.118151 0)
(0.022615 0.117581 2.66421e-27)
(0.016599 0.116757 -4.10547e-29)
(0.0113647 0.115677 0)
(0.00689983 0.114354 -1.16291e-28)
(0.00328513 0.112809 -2.863e-29)
(0.000539671 0.111106 -1.77126e-28)
(-0.00124927 0.109554 -2.54361e-28)
(-0.00215432 0.108095 -1.58479e-27)
(-0.0023378 0.106581 -1.99309e-27)
(-0.00188534 0.105203 3.31517e-27)
(-0.0008417 0.103818 3.63563e-27)
(0.0806082 0.00133307 0)
(0.078618 0.00458379 -2.73717e-28)
(0.0765208 0.00808615 -2.80012e-28)
(0.0747539 0.0125908 1.14777e-27)
(0.0735322 0.0175602 5.85612e-28)
(0.0727998 0.0242045 0)
(0.0726198 0.0337122 2.27884e-27)
(0.0730851 0.0492648 6.5732e-27)
(0.0745243 0.069772 0)
(0.0761091 0.09104 9.94051e-28)
(0.0764278 0.109661 8.28234e-27)
(0.0738554 0.121658 -7.61939e-27)
(0.0674352 0.125838 7.46682e-27)
(0.0585778 0.125129 -7.32853e-27)
(0.0494108 0.12355 0)
(0.0408461 0.122605 -6.70034e-29)
(0.032916 0.121998 -1.91127e-29)
(0.0256056 0.121313 3.28514e-27)
(0.0189815 0.120376 0)
(0.013142 0.119113 6.60631e-28)
(0.00812054 0.117507 -1.07764e-28)
(0.00395074 0.115651 -2.12899e-28)
(0.000685064 0.113585 8.27935e-29)
(-0.00162302 0.111474 1.19908e-28)
(-0.00294693 0.10956 0)
(-0.00343258 0.107726 -1.6145e-27)
(-0.00322618 0.105901 -1.94614e-27)
(-0.00238405 0.104244 6.0928e-27)
(-0.00100172 0.102557 2.60869e-27)
(0.083002 0.00142052 0)
(0.0807064 0.00465106 5.40945e-28)
(0.0784764 0.00820057 5.7069e-28)
(0.0766688 0.0119916 0)
(0.0753513 0.016986 6.21655e-28)
(0.0745376 0.0229568 2.53812e-27)
(0.0742954 0.031914 1.26412e-27)
(0.0746934 0.046688 7.78197e-27)
(0.0759648 0.0668221 1.21563e-27)
(0.0775556 0.0883862 0)
(0.0783097 0.108246 8.74478e-27)
(0.0768192 0.122555 -8.94209e-27)
(0.071633 0.129051 9.39021e-27)
(0.0634037 0.129482 -8.66132e-27)
(0.0541408 0.127936 0)
(0.0451958 0.126763 0)
(0.0367892 0.126051 6.02669e-29)
(0.0289129 0.125341 -1.29604e-28)
(0.0216509 0.124335 -1.46626e-28)
(0.0151361 0.122954 7.29277e-28)
(0.00947424 0.121144 -1.39165e-28)
(0.00470746 0.118939 -1.75664e-28)
(0.000883429 0.116526 -3.33953e-28)
(-0.0019591 0.11396 -6.64423e-29)
(-0.00376358 0.111472 0)
(-0.0046235 0.109206 1.63292e-27)
(-0.00468868 0.107041 -3.22591e-27)
(-0.0041132 0.104911 -4.77246e-27)
(-0.00288666 0.103 2.03164e-26)
(-0.00116142 0.101031 0)
(0.085643 0.00155843 0)
(0.0829163 0.00472911 0)
(0.080529 0.00861814 2.29519e-27)
(0.0785762 0.0114265 -1.58007e-27)
(0.0772648 0.0162222 2.96646e-27)
(0.0762866 0.0219738 1.362e-27)
(0.0758264 0.03032 -2.30998e-27)
(0.0761164 0.0444193 2.76836e-27)
(0.0772518 0.064113 -1.35839e-27)
(0.0788192 0.0857469 1.27748e-27)
(0.0799365 0.106484 -2.26968e-27)
(0.0793064 0.122737 0)
(0.0754112 0.131564 0)
(0.0680922 0.133541 9.20096e-27)
(0.0590318 0.132347 0)
(0.0498325 0.131041 7.41733e-27)
(0.041004 0.130293 0)
(0.0325813 0.129611 0)
(0.0246648 0.128634 4.58893e-32)
(0.0174204 0.127183 -2.25536e-28)
(0.0110292 0.125239 -5.45593e-35)
(0.00559256 0.122784 -4.10124e-29)
(0.00115333 0.11996 1.63407e-28)
(-0.00227477 0.116961 5.23311e-28)
(-0.00462422 0.113935 0)
(-0.0058842 0.11106 -3.548e-29)
(-0.0062661 0.108481 2.17466e-27)
(-0.00589294 0.106001 -8.08313e-27)
(-0.00494638 0.10363 3.6895e-27)
(-0.00334442 0.101482 -9.15159e-28)
(-0.00127298 0.0992292 0)
(0.088495 0.0016883 -4.04002e-28)
(0.0853767 0.00499881 0)
(0.0827037 0.00898211 1.54643e-27)
(0.0802996 0.0116839 -1.85327e-27)
(0.079256 0.0148618 2.53935e-27)
(0.0781338 0.0212848 0)
(0.0773296 0.0290284 -3.14927e-27)
(0.0773126 0.0425047 -4.53817e-27)
(0.0783069 0.0617062 4.53308e-27)
(0.0798619 0.0832592 -1.43878e-27)
(0.0812571 0.104536 0)
(0.0813104 0.122276 -2.22038e-27)
(0.0786821 0.133322 0)
(0.0724973 0.137144 1.01265e-26)
(0.0639816 0.136632 0)
(0.0547336 0.135366 8.80322e-27)
(0.0455688 0.13464 0)
(0.0366508 0.134089 -5.99681e-27)
(0.0280881 0.133227 -3.3093e-28)
(0.0200863 0.131819 3.56483e-27)
(0.0128877 0.129789 0)
(0.00665054 0.127144 3.71825e-28)
(0.00148422 0.123983 6.68707e-29)
(-0.00256189 0.120502 6.33382e-28)
(-0.00547733 0.116947 -6.94916e-28)
(-0.00724913 0.113515 2.08567e-27)
(-0.00793933 0.110329 2.60949e-27)
(-0.00790689 0.107482 0)
(-0.00712452 0.104696 -5.00983e-27)
(-0.00581322 0.102108 -6.93298e-27)
(-0.00384739 0.0997257 -7.76602e-27)
(-0.0014106 0.0972015 0)
(0.0916267 0.00178284 5.42547e-27)
(0.0881759 0.00546953 -4.36257e-27)
(0.0849209 0.0092191 -7.09421e-28)
(0.0824071 0.0123768 -3.01592e-27)
(0.0804972 0.0143535 -5.3787e-27)
(0.0801517 0.0200482 0)
(0.078775 0.0284296 0)
(0.078359 0.0410246 5.57491e-27)
(0.0790659 0.0596974 0)
(0.0805942 0.0810132 2.11174e-31)
(0.0821622 0.102516 -9.58452e-27)
(0.0828516 0.121333 -1.04124e-26)
(0.0813889 0.134312 0)
(0.0765705 0.140062 1.53153e-27)
(0.0688611 0.140601 0)
(0.059826 0.13965 0)
(0.0504873 0.138999 8.46869e-27)
(0.0411633 0.138664 -3.7946e-35)
(0.0319994 0.13806 6.52625e-27)
(0.0232251 0.136817 3.68607e-27)
(0.0151218 0.134808 4.34536e-28)
(0.00797705 0.132047 3.3979e-28)
(0.0019775 0.128613 1.06259e-28)
(-0.00279638 0.124694 2.53864e-29)
(-0.00634982 0.120573 1.0633e-27)
(-0.00870559 0.116471 -1.96608e-27)
(-0.00986797 0.112676 2.87003e-27)
(-0.00996511 0.109269 -1.34123e-31)
(-0.00951389 0.106268 7.00984e-27)
(-0.00838324 0.10327 0)
(-0.00665461 0.100402 -6.47378e-27)
(-0.00438537 0.0979073 2.32992e-27)
(-0.00156955 0.0951412 0)
(0.0950479 0.00188334 -9.8656e-28)
(0.0912637 0.00599822 2.63162e-27)
(0.0874121 0.00965146 -5.12682e-27)
(0.0846849 0.0129181 -2.34001e-27)
(0.0819393 0.0148562 0)
(0.0811543 0.0192897 -3.52029e-31)
(0.0804634 0.0279828 0)
(0.0791774 0.0403468 9.8356e-27)
(0.0794629 0.0581862 0)
(0.0808983 0.0791467 0)
(0.0826219 0.100558 -1.29119e-26)
(0.0839639 0.120138 1.06443e-26)
(0.0834162 0.134559 2.51042e-27)
(0.0801138 0.142228 -1.18021e-26)
(0.073552 0.144087 2.47156e-27)
(0.0650234 0.143696 5.36815e-28)
(0.0557358 0.143265 1.0056e-26)
(0.0461491 0.14323 8.63476e-27)
(0.0364508 0.143019 1.30255e-26)
(0.0269187 0.142128 -4.12377e-27)
(0.0178878 0.140304 0)
(0.00972623 0.137505 2.51647e-27)
(0.00270396 0.133854 1.01347e-27)
(-0.00299327 0.129531 -2.87126e-28)
(-0.00727445 0.124766 2.45736e-28)
(-0.0101326 0.120088 -3.46282e-27)
(-0.0117547 0.115566 0)
(-0.0123528 0.111542 0)
(-0.011897 0.107859 -4.39715e-27)
(-0.0110049 0.104727 8.66693e-27)
(-0.00952796 0.101498 0)
(-0.00738763 0.0982782 -8.71769e-27)
(-0.00485025 0.0956286 1.84325e-27)
(-0.00149226 0.092609 0)
(0.0986332 0.00195084 -1.56673e-27)
(0.0946507 0.00639263 -6.36322e-27)
(0.0903789 0.0103545 -8.53511e-28)
(0.0871859 0.0133748 -3.71556e-27)
(0.0839237 0.0155125 -4.33431e-27)
(0.0818475 0.0194389 -3.11537e-27)
(0.0812675 0.0280985 6.66375e-27)
(0.0799409 0.0403999 0)
(0.0794292 0.0574688 0)
(0.080691 0.0777596 0)
(0.0825472 0.0988636 3.71913e-26)
(0.0844799 0.118753 1.45604e-26)
(0.0847955 0.134289 -5.92836e-27)
(0.0828747 0.143549 -1.00817e-26)
(0.0778395 0.146983 0)
(0.0702392 0.147295 -1.07257e-26)
(0.061268 0.147275 6.94264e-29)
(0.0516002 0.147657 0)
(0.0415262 0.148021 7.43263e-27)
(0.0312815 0.147649 -1.371e-27)
(0.0213012 0.146166 4.72934e-27)
(0.0119994 0.143487 4.2811e-27)
(0.00380368 0.139722 0)
(-0.00295353 0.135088 0)
(-0.00813642 0.129887 -5.92124e-28)
(-0.0118123 0.124311 -5.84075e-28)
(-0.0139272 0.119062 -5.35743e-27)
(-0.0146807 0.114246 0)
(-0.0147461 0.110212 -2.45713e-28)
(-0.0137676 0.106366 -1.27161e-26)
(-0.0126163 0.103146 1.12468e-26)
(-0.0108173 0.0995779 0)
(-0.00834419 0.0960466 -8.60201e-27)
(-0.00380056 0.0930574 -1.09518e-26)
(-0.00615966 0.0932852 -1.16897e-26)
(-0.000671075 0.0907092 -9.59248e-28)
(-0.00423243 0.0925811 2.20541e-28)
(-0.00224459 0.0912021 0)
(0.102168 0.0018919 3.61964e-27)
(0.0983417 0.00648532 -5.39154e-27)
(0.0939697 0.0109524 -1.21445e-26)
(0.090285 0.0139277 -2.13656e-27)
(0.0863332 0.0164335 1.06015e-27)
(0.082884 0.0203715 2.2259e-30)
(0.0813494 0.0289755 6.9611e-27)
(0.0801312 0.0413589 -6.50893e-27)
(0.0791598 0.0576079 -9.70372e-27)
(0.0798751 0.0770621 -2.7403e-26)
(0.0818121 0.0975673 5.15942e-26)
(0.0841732 0.117279 -5.74281e-26)
(0.0855845 0.133614 4.05642e-26)
(0.0848426 0.143999 -5.80021e-27)
(0.0815653 0.148921 -5.42509e-26)
(0.0753317 0.150302 -1.61745e-26)
(0.0670081 0.150805 3.51738e-28)
(0.0575261 0.151773 4.66242e-28)
(0.0472411 0.152862 0)
(0.0363969 0.153209 6.70125e-27)
(0.0254514 0.152343 1.22841e-26)
(0.0149643 0.150067 0)
(0.00547373 0.146369 -4.80636e-28)
(-0.00260109 0.141473 -1.18662e-27)
(-0.00904596 0.135634 -8.44877e-28)
(-0.0135444 0.129446 0)
(-0.0162556 0.123259 2.34775e-28)
(-0.0175474 0.117727 0)
(-0.0175354 0.112844 4.4229e-29)
(-0.0171202 0.108903 1.24171e-26)
(-0.015858 0.105052 -4.60835e-27)
(-0.0144201 0.101168 -6.12401e-26)
(-0.0124871 0.0970705 2.10759e-27)
(-0.00794391 0.0936079 0)
(-0.0105148 0.0942546 0)
(-0.00631153 0.0925474 -8.57314e-28)
(-0.000766412 0.0895994 -1.207e-27)
(-0.00420328 0.0910855 4.27983e-28)
(-0.00228066 0.0901393 1.99231e-27)
(0.10533 0.00154146 -3.07931e-27)
(0.102231 0.0060354 5.17296e-27)
(0.098256 0.0110003 -8.65709e-27)
(0.0942492 0.0145971 -1.05997e-26)
(0.0894452 0.0178363 -8.89186e-28)
(0.0843081 0.0222175 1.36971e-27)
(0.0812774 0.0308097 1.6519e-27)
(0.0794829 0.0433504 -5.90242e-28)
(0.0782868 0.0588542 -1.19414e-26)
(0.07849 0.0772356 -7.15882e-27)
(0.0802948 0.096866 -1.58134e-26)
(0.0830196 0.115993 1.74194e-26)
(0.0855411 0.132614 1.466e-26)
(0.0861525 0.143714 5.28398e-26)
(0.08459 0.149762 -4.59267e-26)
(0.0800469 0.152373 0)
(0.0728659 0.153691 -6.53074e-30)
(0.0638965 0.155327 -4.58032e-28)
(0.0536385 0.157352 1.31707e-26)
(0.0423418 0.158757 -8.43381e-27)
(0.0304735 0.158796 1.56536e-26)
(0.0187622 0.157094 2.13247e-27)
(0.0078096 0.153642 -1.32912e-34)
(-0.00180516 0.148586 2.7794e-27)
(-0.00951429 0.142353 -1.17382e-27)
(-0.0152488 0.135287 2.01847e-28)
(-0.0187597 0.12816 -8.54701e-29)
(-0.0202053 0.121498 1.23632e-27)
(-0.0207514 0.116013 -2.43723e-28)
(-0.0199095 0.111113 -5.90227e-29)
(-0.0191017 0.107251 1.70903e-26)
(-0.0182168 0.103453 -5.45326e-26)
(-0.014566 0.0984862 0)
(-0.0172591 0.0998652 1.33792e-26)
(-0.0122768 0.094938 1.83417e-27)
(-0.0159488 0.0984004 0)
(-0.0148506 0.0959325 0)
(-0.00857286 0.0927754 -5.90145e-27)
(-0.0108456 0.0932587 -6.11899e-27)
(-0.0064457 0.0910121 0)
(-0.000684606 0.0886946 -9.17587e-66)
(-0.00417788 0.0898497 0)
(-0.00217137 0.0891983 -4.26578e-27)
(0.107711 0.000851306 -3.16081e-27)
(0.106032 0.00482386 -3.56738e-27)
(0.10307 0.0102438 1.99065e-31)
(0.0991033 0.0151042 -5.76708e-27)
(0.0935915 0.0196548 -2.52173e-27)
(0.0864289 0.0252363 -1.38371e-27)
(0.0812777 0.0338412 -1.46812e-27)
(0.0783118 0.0462892 -1.93487e-27)
(0.0765983 0.0613469 0)
(0.0764188 0.0784903 9.17391e-27)
(0.0779808 0.0969241 -8.70919e-27)
(0.0809154 0.115121 4.54445e-26)
(0.0842663 0.131282 0)
(0.0866231 0.142764 5.19233e-26)
(0.0868944 0.149555 5.87121e-26)
(0.0842009 0.153354 1.00239e-26)
(0.0786569 0.155614 0)
(0.0706032 0.158138 3.05782e-28)
(0.0607098 0.161281 8.82224e-27)
(0.0491971 0.163945 -1.21898e-26)
(0.0365342 0.165192 -7.59642e-27)
(0.0235574 0.164437 7.24702e-27)
(0.0110705 0.161516 7.14381e-27)
(-0.000149075 0.15657 4.41182e-27)
(-0.00954188 0.149914 1.80155e-27)
(-0.0166811 0.142071 0)
(-0.0212466 0.133732 0)
(-0.0232683 0.125985 1.80448e-27)
(-0.0235176 0.119394 0)
(-0.0236884 0.11447 3.76942e-28)
(-0.0224997 0.110081 7.08508e-28)
(-0.021863 0.106333 0)
(-0.0187003 0.101077 -8.21129e-27)
(-0.0216431 0.102819 -2.45283e-27)
(-0.0181691 0.0995776 7.74658e-28)
(-0.0132288 0.0938996 0)
(-0.0172197 0.0970174 8.84966e-27)
(-0.0157293 0.0947517 0)
(-0.00887626 0.0911609 1.27194e-26)
(-0.0113968 0.0916136 1.32869e-26)
(-0.00643696 0.0896001 1.28304e-26)
(-0.000599392 0.0879682 -5.61941e-28)
(-0.00399032 0.0887483 -6.38132e-27)
(-0.00194886 0.0883999 1.32445e-27)
(0.108573 -4.66852e-06 2.10338e-27)
(0.108972 0.00301977 -2.95661e-27)
(0.107753 0.00873975 2.52883e-27)
(0.104388 0.0152939 -2.30049e-27)
(0.0986151 0.0218438 -1.59274e-27)
(0.0895701 0.0294629 -1.07718e-27)
(0.081671 0.0384722 1.43435e-27)
(0.0768882 0.0504347 -2.989e-27)
(0.0742587 0.0649861 0)
(0.0735386 0.0809731 -6.18672e-27)
(0.0747959 0.0979441 4.98903e-27)
(0.0778159 0.114828 2.05568e-26)
(0.0818173 0.130002 -5.05584e-27)
(0.0858214 0.141177 -1.52279e-26)
(0.0882361 0.148346 1.05291e-25)
(0.087632 0.153078 0)
(0.0840673 0.156286 -8.379e-27)
(0.0775273 0.159896 0)
(0.068436 0.164261 4.51992e-27)
(0.0570318 0.168466 -6.41602e-27)
(0.043813 0.171338 -8.21427e-26)
(0.0296479 0.171932 9.36563e-27)
(0.0155599 0.169867 -1.30384e-26)
(0.00252972 0.165208 3.74748e-27)
(-0.00876195 0.158364 1.08513e-27)
(-0.0177124 0.150014 -9.12752e-28)
(-0.0238767 0.140791 -8.92142e-28)
(-0.0270571 0.132119 -6.21332e-28)
(-0.0281635 0.125422 3.46645e-27)
(-0.0290099 0.121167 0)
(-0.0302106 0.118376 1.50644e-28)
(-0.0309748 0.116326 -1.7755e-26)
(-0.0239266 0.105694 -3.29228e-27)
(-0.0307605 0.111663 -7.2791e-27)
(-0.0204918 0.100982 -3.91077e-26)
(-0.0237392 0.103677 -1.49289e-26)
(-0.0195859 0.0983062 1.24185e-27)
(-0.0140744 0.0921865 -1.73775e-27)
(-0.018204 0.0958538 3.98186e-27)
(-0.0166913 0.0930469 -1.83097e-27)
(-0.00902907 0.0896737 1.35278e-26)
(-0.0118777 0.0900509 0)
(-0.0062843 0.0882734 7.06133e-28)
(-0.000434998 0.0875403 -4.86143e-28)
(-0.00361779 0.0877303 2.68162e-27)
(-0.00155697 0.0877468 2.88443e-27)
(0.106858 -0.0012567 -2.63118e-28)
(0.109874 0.00170565 3.86153e-27)
(0.110758 0.00761197 1.69699e-27)
(0.108826 0.0157665 -1.64883e-27)
(0.103565 0.0247433 -1.52158e-27)
(0.0933792 0.0351615 -3.65447e-27)
(0.0826566 0.0450167 6.67273e-27)
(0.0754223 0.0562511 1.89271e-27)
(0.0713788 0.0699751 -5.70033e-27)
(0.0698524 0.084788 1.6584e-27)
(0.07065 0.100135 0)
(0.0736254 0.115308 -2.17311e-30)
(0.0782101 0.129019 -1.75711e-26)
(0.0834298 0.138968 -1.75466e-26)
(0.0881507 0.146195 3.88768e-26)
(0.0900085 0.151433 0)
(0.0888974 0.155457 6.13584e-27)
(0.0845284 0.160131 -3.82031e-26)
(0.0768147 0.165894 0)
(0.0658944 0.172026 1.08363e-26)
(0.0524716 0.176948 -7.78569e-26)
(0.0373417 0.179284 -1.17674e-26)
(0.0215392 0.178472 -6.56408e-26)
(0.00636606 0.174584 0)
(-0.00700806 0.168138 -2.80817e-27)
(-0.0183748 0.159657 -2.59042e-27)
(-0.0267939 0.150093 1.25441e-28)
(-0.0318941 0.141317 -1.01752e-27)
(-0.0352769 0.136204 2.72592e-27)
(-0.0401595 0.13613 1.48044e-27)
(-0.047193 0.140191 1.2489e-27)
(-0.0552143 0.144855 -2.55717e-26)
(-0.0412438 0.125476 2.36456e-34)
(-0.0651771 0.152559 4.85602e-27)
(-0.0306857 0.1105 -6.5843e-27)
(-0.0458233 0.127243 -8.22799e-27)
(-0.0231072 0.101013 4.99298e-27)
(-0.0308767 0.108353 -1.63732e-27)
(-0.0219252 0.0983018 1.75923e-27)
(-0.0146081 0.090517 -3.80148e-27)
(-0.020524 0.0951411 2.56242e-27)
(-0.0186241 0.0920323 -4.07791e-27)
(-0.00917436 0.0882938 0)
(-0.0120288 0.0882542 8.34781e-27)
(-0.00602675 0.0871277 -1.36923e-27)
(-0.000185242 0.0874742 -3.09017e-28)
(-0.00296169 0.0869274 3.6337e-27)
(-0.000892996 0.0873703 1.48681e-27)
(0.102322 -0.0023834 -6.47967e-28)
(0.108045 0.00109529 0)
(0.110809 0.00721106 -2.91294e-27)
(0.110627 0.0175078 0)
(0.106686 0.0295158 -6.31054e-29)
(0.0965962 0.0430401 6.27359e-28)
(0.0839027 0.0538171 -9.16775e-28)
(0.0740755 0.0641275 9.17543e-27)
(0.0680957 0.0766144 2.78134e-27)
(0.065414 0.0900916 -4.72224e-27)
(0.0655209 0.103683 4.0158e-32)
(0.0682577 0.1168 -2.16585e-26)
(0.0732626 0.12847 -1.3885e-26)
(0.0797185 0.136678 -6.25336e-27)
(0.0864163 0.143025 0)
(0.0909708 0.148407 3.30195e-26)
(0.092837 0.152854 0)
(0.0911564 0.158516 -3.09788e-26)
(0.0853672 0.165996 1.53548e-27)
(0.0756726 0.17424 0)
(0.0626317 0.181414 0)
(0.0466417 0.186132 -2.40227e-26)
(0.0291911 0.187461 1.91749e-26)
(0.0118379 0.185134 -1.38998e-26)
(-0.00438979 0.179391 -1.00936e-26)
(-0.0183786 0.171296 1.92314e-27)
(-0.0296308 0.162008 -1.33358e-27)
(-0.037696 0.154665 1.02501e-27)
(-0.0454963 0.154895 2.53077e-28)
(-0.057831 0.165375 -3.46269e-27)
(-0.0748209 0.181383 -8.68196e-28)
(-0.0936911 0.198995 8.43022e-28)
(-0.0833961 0.178138 2.99003e-27)
(-0.109183 0.211084 -2.75247e-27)
(-0.0696586 0.154919 4.69659e-35)
(-0.0933614 0.184164 2.14283e-27)
(-0.0482489 0.126573 -1.92606e-27)
(-0.0740029 0.155335 4.50591e-27)
(-0.030095 0.105398 1.80409e-26)
(-0.049107 0.123802 6.13221e-27)
(-0.0285767 0.101481 6.15601e-27)
(-0.0159396 0.0890544 8.22938e-27)
(-0.0261174 0.0971007 0)
(-0.0227828 0.0926389 2.2888e-27)
(-0.00898794 0.0867084 2.47607e-27)
(-0.0122921 0.0863862 -3.01067e-27)
(-0.00543098 0.0861465 -8.86199e-27)
(0.000282025 0.0881696 -4.30849e-29)
(-0.00213154 0.0865906 -4.74223e-27)
(8.30403e-05 0.0877869 0)
(0.0914482 -0.0026804 -1.43012e-26)
(0.102554 0.00195101 0)
(0.107114 0.0091589 8.17162e-32)
(0.108461 0.0206911 0)
(0.105925 0.0366851 -3.67953e-27)
(0.0973913 0.0532782 -2.39788e-27)
(0.0844991 0.0651459 2.30715e-32)
(0.0726686 0.0744207 4.84349e-27)
(0.0645499 0.0852124 4.42295e-27)
(0.0603223 0.0970854 -3.52171e-27)
(0.0594519 0.108774 5.50909e-27)