/*--------------------------------*- C++ -*----------------------------------*\
| =========                 |                                                 |
| \\      /  F ield         | OpenFOAM: The Open Source CFD Toolbox           |
|  \\    /   O peration     | Version:  2.2.2                                 |
|   \\  /    A nd           | Web:      www.OpenFOAM.org                      |
|    \\/     M anipulation  |                                                 |
\*---------------------------------------------------------------------------*/
FoamFile
{
    version     2.0;
    format      ascii;
    class       volScalarField;
    location    "0";
    object      CO2;
}
// * * * * * * * * * * * * * * * * * * * * * * * * * * * * * * * * * * * * * //

dimensions      [0 0 0 0 0 0 0];

internalField   uniform 0;

boundaryField
{
    top
    {
        type            inletOutlet;
        inletValue      uniform 0;
        value           uniform 0;
    }
    sides
    {
        type            inletOutlet;
        inletValue      uniform 0;
        value           uniform 0;
    }
    lowerOutlet
    {
        type            inletOutlet;
        inletValue      uniform 0;
        value           uniform 0;
    }
    burner
    {
        type            fixedValue;
        value           uniform 0.130;
    }
    roller
    {
        type            zeroGradient;
    }
}


// ************************************************************************* //
