/*--------------------------------*- C++ -*----------------------------------*\
  =========                 |
  \\      /  F ield         | OpenFOAM: The Open Source CFD Toolbox
   \\    /   O peration     | Website:  https://openfoam.org
    \\  /    A nd           | Version:  dev
     \\/     M anipulation  |
\*---------------------------------------------------------------------------*/
FoamFile
{
    version     2.0;
    format      ascii;
    class       volScalarField;
    location    "2500";
    object      a;
}
// * * * * * * * * * * * * * * * * * * * * * * * * * * * * * * * * * * * * * //

dimensions      [0 -1 0 0 0 0 0];

internalField   nonuniform List<scalar> 
9575
(
0.100011
0.100011
0.100011
0.100011
0.100011
0.100011
0.100011
0.100011
0.100011
0.100011
0.10001
0.100011
0.100011
0.100011
0.100011
0.10001
0.10001
0.100011
0.100011
0.100011
0.100011
0.10001
0.10001
0.10001
0.100011
0.100011
0.100011
0.100011
0.10001
0.10001
0.10001
0.10001
0.100011
0.100011
0.100011
0.100011
0.100009
0.10001
0.10001
0.10001
0.10001
0.100011
0.100011
0.100011
0.100011
0.100009
0.100009
0.10001
0.10001
0.10001
0.10001
0.100011
0.100011
0.100011
0.100011
0.100009
0.100009
0.100009
0.10001
0.10001
0.10001
0.10001
0.100011
0.100011
0.100011
0.100011
0.100009
0.100009
0.100009
0.100009
0.10001
0.10001
0.10001
0.10001
0.100011
0.100011
0.100011
0.100011
0.100009
0.100009
0.100009
0.100009
0.100009
0.10001
0.10001
0.10001
0.10001
0.100011
0.100011
0.100011
0.100011
0.100008
0.100009
0.100009
0.100009
0.100009
0.100009
0.10001
0.10001
0.10001
0.10001
0.100011
0.100011
0.100011
0.100011
0.100008
0.100008
0.100009
0.100009
0.100009
0.100009
0.100009
0.10001
0.10001
0.10001
0.10001
0.100011
0.100011
0.100011
0.100011
0.100008
0.100008
0.100008
0.100009
0.100009
0.100009
0.100009
0.100009
0.10001
0.10001
0.10001
0.10001
0.100011
0.100011
0.100011
0.100011
0.100008
0.100008
0.100008
0.100008
0.100009
0.100009
0.100009
0.100009
0.100009
0.10001
0.10001
0.10001
0.10001
0.100011
0.100011
0.100011
0.100011
0.100007
0.100008
0.100008
0.100008
0.100008
0.100009
0.100009
0.100009
0.100009
0.100009
0.10001
0.10001
0.10001
0.10001
0.100011
0.100011
0.100011
0.100011
0.100007
0.100007
0.100008
0.100008
0.100008
0.100008
0.100009
0.100009
0.100009
0.100009
0.100009
0.10001
0.10001
0.10001
0.10001
0.100011
0.100011
0.100011
0.100011
0.100007
0.100007
0.100007
0.100008
0.100008
0.100008
0.100008
0.100009
0.100009
0.100009
0.100009
0.100009
0.10001
0.10001
0.10001
0.10001
0.100011
0.100011
0.100011
0.100011
0.100007
0.100007
0.100007
0.100007
0.100008
0.100008
0.100008
0.100008
0.100009
0.100009
0.100009
0.100009
0.100009
0.10001
0.10001
0.10001
0.10001
0.100011
0.100011
0.100011
0.100011
0.100006
0.100007
0.100007
0.100007
0.100007
0.100008
0.100008
0.100008
0.100008
0.100009
0.100009
0.100009
0.100009
0.100009
0.10001
0.10001
0.10001
0.10001
0.100011
0.100011
0.100011
0.100011
0.100006
0.100006
0.100007
0.100007
0.100007
0.100007
0.100008
0.100008
0.100008
0.100008
0.100008
0.100009
0.100009
0.100009
0.100009
0.10001
0.10001
0.10001
0.10001
0.100011
0.100011
0.100011
0.100011
0.100006
0.100006
0.100006
0.100007
0.100007
0.100007
0.100007
0.100008
0.100008
0.100008
0.100008
0.100008
0.100009
0.100009
0.100009
0.100009
0.10001
0.10001
0.10001
0.10001
0.100011
0.100011
0.100011
0.100011
0.100006
0.100006
0.100006
0.100006
0.100007
0.100007
0.100007
0.100007
0.100008
0.100008
0.100008
0.100008
0.100008
0.100009
0.100009
0.100009
0.100009
0.10001
0.10001
0.10001
0.10001
0.100011
0.100011
0.100011
0.100011
0.100006
0.100006
0.100006
0.100006
0.100006
0.100007
0.100007
0.100007
0.100007
0.100008
0.100008
0.100008
0.100008
0.100008
0.100009
0.100009
0.100009
0.100009
0.10001
0.10001
0.10001
0.10001
0.100011
0.100011
0.100011
0.100011
0.100005
0.100006
0.100006
0.100006
0.100006
0.100006
0.100007
0.100007
0.100007
0.100007
0.100008
0.100008
0.100008
0.100008
0.100008
0.100009
0.100009
0.100009
0.100009
0.10001
0.10001
0.10001
0.10001
0.100011
0.100011
0.100011
0.100011
0.100005
0.100005
0.100006
0.100006
0.100006
0.100006
0.100006
0.100007
0.100007
0.100007
0.100007
0.100008
0.100008
0.100008
0.100008
0.100008
0.100009
0.100009
0.100009
0.100009
0.10001
0.10001
0.10001
0.10001
0.100011
0.100011
0.100011
0.100011
0.100005
0.100005
0.100005
0.100006
0.100006
0.100006
0.100006
0.100006
0.100007
0.100007
0.100007
0.100007
0.100008
0.100008
0.100008
0.100008
0.100008
0.100009
0.100009
0.100009
0.100009
0.10001
0.10001
0.10001
0.10001
0.100011
0.100011
0.100011
0.100011
0.100005
0.100005
0.100005
0.100005
0.100006
0.100006
0.100006
0.100006
0.100006
0.100007
0.100007
0.100007
0.100007
0.100008
0.100008
0.100008
0.100008
0.100008
0.100009
0.100009
0.100009
0.100009
0.10001
0.10001
0.10001
0.10001
0.100011
0.100011
0.100011
0.100011
0.100004
0.100005
0.100005
0.100005
0.100005
0.100006
0.100006
0.100006
0.100006
0.100006
0.100007
0.100007
0.100007
0.100007
0.100008
0.100008
0.100008
0.100008
0.100008
0.100009
0.100009
0.100009
0.100009
0.10001
0.10001
0.10001
0.10001
0.100011
0.100011
0.100011
0.100011
0.100004
0.100004
0.100005
0.100005
0.100005
0.100005
0.100006
0.100006
0.100006
0.100006
0.100006
0.100007
0.100007
0.100007
0.100007
0.100008
0.100008
0.100008
0.100008
0.100008
0.100009
0.100009
0.100009
0.100009
0.10001
0.10001
0.10001
0.10001
0.100011
0.100011
0.100011
0.100011
0.100004
0.100004
0.100004
0.100005
0.100005
0.100005
0.100005
0.100006
0.100006
0.100006
0.100006
0.100006
0.100007
0.100007
0.100007
0.100007
0.100008
0.100008
0.100008
0.100008
0.100008
0.100009
0.100009
0.100009
0.100009
0.10001
0.10001
0.10001
0.10001
0.100011
0.100011
0.100011
0.100011
0.100004
0.100004
0.100004
0.100004
0.100005
0.100005
0.100005
0.100005
0.100006
0.100006
0.100006
0.100006
0.100006
0.100007
0.100007
0.100007
0.100007
0.100008
0.100008
0.100008
0.100008
0.100008
0.100009
0.100009
0.100009
0.100009
0.10001
0.10001
0.10001
0.10001
0.100011
0.100011
0.100011
0.100011
0.100011
0.100004
0.100004
0.100004
0.100004
0.100004
0.100005
0.100005
0.100005
0.100005
0.100006
0.100006
0.100006
0.100006
0.100006
0.100007
0.100007
0.100007
0.100007
0.100008
0.100008
0.100008
0.100008
0.100008
0.100009
0.100009
0.100009
0.100009
0.10001
0.10001
0.10001
0.10001
0.100011
0.100011
0.100011
0.100011
0.100011
0.100011
0.100011
0.100011
0.100003
0.100004
0.100004
0.100004
0.100004
0.100004
0.100005
0.100005
0.100005
0.100005
0.100006
0.100006
0.100006
0.100006
0.100006
0.100007
0.100007
0.100007
0.100007
0.100008
0.100008
0.100008
0.100008
0.100008
0.100009
0.100009
0.100009
0.100009
0.10001
0.10001
0.10001
0.10001
0.100011
0.10001
0.100011
0.100011
0.100011
0.100011
0.100011
0.100011
0.100003
0.100003
0.100004
0.100004
0.100004
0.100004
0.100004
0.100005
0.100005
0.100005
0.100005
0.100006
0.100006
0.100006
0.100006
0.100006
0.100007
0.100007
0.100007
0.100007
0.100008
0.100008
0.100008
0.100008
0.100008
0.100009
0.100009
0.100009
0.100009
0.10001
0.10001
0.10001
0.10001
0.10001
0.100011
0.10001
0.100011
0.100011
0.100011
0.100011
0.100011
0.100011
0.100003
0.100003
0.100003
0.100004
0.100004
0.100004
0.100004
0.100004
0.100005
0.100005
0.100005
0.100005
0.100006
0.100006
0.100006
0.100006
0.100006
0.100007
0.100007
0.100007
0.100007
0.100008
0.100008
0.100008
0.100008
0.100008
0.100009
0.100009
0.100009
0.100009
0.10001
0.10001
0.10001
0.10001
0.10001
0.10001
0.100011
0.10001
0.100011
0.100011
0.100011
0.100011
0.100011
0.100011
0.100003
0.100003
0.100003
0.100003
0.100004
0.100004
0.100004
0.100004
0.100004
0.100005
0.100005
0.100005
0.100005
0.100006
0.100006
0.100006
0.100006
0.100006
0.100007
0.100007
0.100007
0.100007
0.100008
0.100008
0.100008
0.100008
0.100008
0.100009
0.100009
0.100009
0.100009
0.10001
0.10001
0.10001
0.10001
0.10001
0.10001
0.10001
0.100011
0.10001
0.100011
0.100011
0.100011
0.100011
0.100011
0.100011
0.100002
0.100003
0.100003
0.100003
0.100003
0.100004
0.100004
0.100004
0.100004
0.100004
0.100005
0.100005
0.100005
0.100005
0.100006
0.100006
0.100006
0.100006
0.100006
0.100007
0.100007
0.100007
0.100007
0.100008
0.100008
0.100008
0.100008
0.100008
0.100009
0.100009
0.100009
0.100009
0.10001
0.10001
0.10001
0.10001
0.10001
0.10001
0.10001
0.10001
0.100011
0.10001
0.100011
0.100011
0.100011
0.100011
0.100011
0.100011
0.100002
0.100002
0.100003
0.100003
0.100003
0.100003
0.100004
0.100004
0.100004
0.100004
0.100004
0.100005
0.100005
0.100005
0.100005
0.100006
0.100006
0.100006
0.100006
0.100006
0.100007
0.100007
0.100007
0.100007
0.100008
0.100008
0.100008
0.100008
0.100009
0.100009
0.100009
0.10001
0.10001
0.10001
0.10001
0.10001
0.10001
0.10001
0.10001
0.10001
0.10001
0.10001
0.100011
0.100011
0.100011
0.100011
0.100011
0.100011
0.100011
0.100011
0.100002
0.100002
0.100002
0.100003
0.100003
0.100003
0.100003
0.100004
0.100004
0.100004
0.100004
0.100004
0.100005
0.100005
0.100005
0.100005
0.100006
0.100006
0.100006
0.100006
0.100006
0.100007
0.100007
0.100007
0.100007
0.100008
0.100008
0.100008
0.100009
0.10001
0.100011
0.100014
0.100012
0.100018
0.100012
0.100016
0.100011
0.100014
0.100011
0.100012
0.10001
0.100011
0.10001
0.100011
0.100011
0.100011
0.100011
0.100011
0.100011
0.100011
0.100011
0.100011
0.100002
0.100002
0.100002
0.100002
0.100003
0.100003
0.100003
0.100003
0.100004
0.100004
0.100004
0.100004
0.100004
0.100005
0.100005
0.100005
0.100005
0.100006
0.100006
0.100006
0.100006
0.100006
0.100007
0.100007
0.100007
0.100007
0.100008
0.100008
0.10001
0.100017
0.100034
0.100022
0.100031
0.100071
0.100029
0.100061
0.100024
0.100053
0.100019
0.100039
0.100014
0.100026
0.100012
0.100017
0.100011
0.100013
0.100011
0.100011
0.100011
0.100011
0.100011
0.100011
0.100011
0.100011
0.100001
0.100002
0.100002
0.100002
0.100002
0.100003
0.100003
0.100003
0.100003
0.100004
0.100004
0.100004
0.100004
0.100004
0.100005
0.100005
0.100005
0.100005
0.100006
0.100006
0.100006
0.100006
0.100006
0.100007
0.100007
0.100007
0.100008
0.10001
0.100017
0.100049
0.10017
0.100464
0.100203
0.100009
0.100144
0.100376
0.100128
0.100329
0.1001
0.100272
0.100066
0.100191
0.100038
0.100113
0.100021
0.100057
0.100013
0.100026
0.100011
0.100014
0.100011
0.100011
0.100011
0.100011
0.100011
0.100011
0.100001
0.100001
0.100002
0.100002
0.100002
0.100002
0.100003
0.100003
0.100003
0.100003
0.100004
0.100004
0.100004
0.100004
0.100004
0.100005
0.100005
0.100005
0.100005
0.100006
0.100006
0.100006
0.100006
0.100006
0.100007
0.100007
0.100009
0.100016
0.100047
0.100175
0.100729
0.102648
0.107516
0.101055
0.104246
0.100871
0.102425
0.100738
0.102039
0.100558
0.101615
0.100353
0.101094
0.100189
0.100633
0.100081
0.100303
0.10003
0.100111
0.100014
0.100034
0.100014
0.100011
0.100013
0.100012
0.100011
0.100011
0.100001
0.100001
0.100001
0.100002
0.100002
0.100002
0.100002
0.100003
0.100003
0.100003
0.100003
0.100004
0.100004
0.100004
0.100004
0.100004
0.100005
0.100005
0.100005
0.100005
0.100006
0.100006
0.100006
0.100006
0.100007
0.100007
0.100012
0.100039
0.100164
0.100716
0.102685
0.109558
0.127614
0.132435
0.159311
0.106562
0.116392
0.105543
0.114556
0.104523
0.112246
0.103309
0.109521
0.10204
0.106319
0.101083
0.103617
0.100457
0.101738
0.100139
0.100639
0.100034
0.100161
0.100032
0.100012
0.100026
0.10002
0.100011
0.100011
0.100001
0.100001
0.100001
0.100001
0.100002
0.100002
0.100002
0.100002
0.100003
0.100003
0.100003
0.100003
0.100004
0.100004
0.100004
0.100004
0.100004
0.100005
0.100005
0.100005
0.100005
0.100006
0.100006
0.100006
0.100007
0.100009
0.100025
0.100118
0.100584
0.102553
0.109264
0.125464
0.162618
0.183333
0.213623
0.190295
0.221299
0.133168
0.160513
0.128923
0.159088
0.124013
0.15355
0.118017
0.144173
0.111249
0.130885
0.106046
0.118812
0.102613
0.109358
0.100811
0.103606
0.100164
0.100943
0.100146
0.100015
0.100109
0.100064
0.100011
0.100012
0.100001
0.100001
0.100001
0.100001
0.100001
0.100002
0.100002
0.100002
0.100002
0.100003
0.100003
0.100003
0.100003
0.100004
0.100004
0.100004
0.100004
0.100004
0.100005
0.100005
0.100005
0.100005
0.100006
0.100006
0.100007
0.100014
0.100068
0.100386
0.10194
0.107852
0.124035
0.157669
0.209097
0.240465
0.258953
0.250882
0.28267
0.262365
0.296125
0.193433
0.228688
0.190994
0.232211
0.184221
0.230381
0.170403
0.222574
0.149047
0.203369
0.129165
0.172809
0.113422
0.141609
0.10451
0.117706
0.100967
0.105224
0.10085
0.100031
0.100598
0.1003
0.100011
0.100016
0.1
0.100001
0.100001
0.100001
0.100001
0.100001
0.100002
0.100002
0.100002
0.100002
0.100003
0.100003
0.100003
0.100003
0.100004
0.100004
0.100004
0.100004
0.100004
0.100005
0.100005
0.100005
0.100005
0.100006
0.100008
0.100029
0.100193
0.1012
0.105676
0.119556
0.148773
0.195363
0.26073
0.344431
0.30616
0.347604
0.32758
0.357859
0.344929
0.378979
0.27159
0.310365
0.275167
0.320686
0.273426
0.32541
0.263094
0.323123
0.239555
0.307573
0.200936
0.276933
0.15499
0.231432
0.121409
0.168157
0.105377
0.124237
0.10471
0.100099
0.103241
0.101415
0.100012
0.100026
0.1
0.1
0.100001
0.100001
0.100001
0.100001
0.100001
0.100002
0.100002
0.100002
0.100002
0.100003
0.100003
0.100003
0.100003
0.100004
0.100004
0.100004
0.100004
0.100004
0.100005
0.100005
0.100005
0.100006
0.100011
0.100066
0.100535
0.103283
0.113913
0.138678
0.177917
0.233011
0.306824
0.380366
0.413902
0.415634
0.384251
0.404398
0.406824
0.423992
0.428993
0.444878
0.361498
0.399468
0.372607
0.41734
0.376692
0.42979
0.373488
0.433551
0.354687
0.424659
0.316603
0.401005
0.260324
0.359091
0.17889
0.288564
0.124585
0.185918
0.121374
0.100318
0.114564
0.10547
0.100012
0.10004
0.1
0.1
0.100001
0.100001
0.100001
0.100001
0.100001
0.100002
0.100002
0.100002
0.100002
0.100003
0.100003
0.100003
0.100003
0.100004
0.100004
0.100004
0.100004
0.100004
0.100005
0.100005
0.100006
0.100019
0.100152
0.101302
0.107729
0.127242
0.160277
0.206269
0.269149
0.336619
0.381362
0.41413
0.40794
0.429895
0.423628
0.4324
0.432499
0.450505
0.448657
0.468791
0.466193
0.448981
0.464982
0.466991
0.485015
0.481282
0.504331
0.487779
0.520179
0.477655
0.530973
0.446452
0.526436
0.397952
0.492475
0.309294
0.433964
0.185783
0.321749
0.174986
0.100638
0.151689
0.122644
0.105985
0.100012
0.100033
0.1
0.1
0.100001
0.100001
0.100001
0.100001
0.100001
0.100002
0.100002
0.100002
0.100002
0.100003
0.100003
0.100003
0.100003
0.100004
0.100004
0.100004
0.100004
0.100004
0.100005
0.100008
0.100035
0.100342
0.102849
0.11487
0.142652
0.183259
0.234539
0.298259
0.349851
0.377397
0.389146
0.41456
0.394651
0.422478
0.403303
0.4447
0.436598
0.46013
0.449197
0.476335
0.461775
0.487903
0.484412
0.508635
0.50448
0.530872
0.526633
0.552682
0.551366
0.566802
0.577853
0.566746
0.599131
0.53291
0.602456
0.461423
0.567248
0.319727
0.477506
0.39991
0.218036
0.311102
0.112657
0.101388
0.107162
0.171319
0.27457
0.279618
0.149521
0.100016
0.103092
0.101371
0.100227
0.1
0.1
0.100001
0.100001
0.100001
0.100001
0.100001
0.100002
0.100002
0.100002
0.100002
0.100003
0.100003
0.100003
0.100003
0.100004
0.100004
0.100004
0.100004
0.100005
0.100011
0.100076
0.100751
0.10561
0.12406
0.158957
0.204461
0.260535
0.316172
0.349012
0.368508
0.360112
0.33113
0.309966
0.380593
0.355667
0.379269
0.350086
0.431023
0.407044
0.439488
0.41073
0.448418
0.415044
0.494744
0.475828
0.516721
0.495923
0.543264
0.524815
0.571107
0.555963
0.600406
0.590277
0.628658
0.623296
0.632524
0.641084
0.648345
0.532415
0.587483
0.650211
0.621216
0.473245
0.393063
0.48376
0.541677
0.38563
0.13101
0.116361
0.239288
0.349933
0.375843
0.202027
0.100474
0.100026
0.100181
0.107833
0.103097
0.1
0.1
0.100001
0.100001
0.100001
0.100001
0.100001
0.100002
0.100002
0.100002
0.100002
0.100003
0.100003
0.100003
0.100003
0.100004
0.100004
0.100004
0.100006
0.100021
0.100178
0.10161
0.110018
0.134805
0.175061
0.225014
0.281128
0.324324
0.345957
0.353468
0.325002
0.24271
0.268449
0.237353
0.321044
0.293078
0.310967
0.280169
0.378126
0.344124
0.377638
0.339037
0.37981
0.336565
0.462871
0.422873
0.488464
0.441401
0.524102
0.475163
0.566613
0.521613
0.607848
0.573032
0.648651
0.643067
0.633279
0.617704
0.664507
0.672094
0.65701
0.658877
0.594701
0.633903
0.676688
0.660696
0.550186
0.475587
0.549454
0.603721
0.468581
0.165719
0.137142
0.318045
0.45153
0.428182
0.274947
0.101165
0.100049
0.100357
0.117637
0.107237
0.1
0.1
0.100001
0.100001
0.100001
0.100001
0.100001
0.100002
0.100002
0.100002
0.100002
0.100003
0.100003
0.100003
0.100003
0.100004
0.100004
0.100009
0.10005
0.100435
0.103351
0.116524
0.145892
0.190145
0.243545
0.29444
0.323612
0.339081
0.332481
0.284601
0.197098
0.167647
0.152983
0.204789
0.184453
0.25205
0.226861
0.236427
0.209618
0.301748
0.267163
0.294528
0.255949
0.292051
0.248768
0.390397
0.339683
0.417978
0.358587
0.464806
0.401883
0.520398
0.460421
0.599808
0.575102
0.551903
0.52183
0.653426
0.642904
0.626472
0.60596
0.683313
0.682347
0.670723
0.664197
0.643839
0.671426
0.694665
0.687885
0.60769
0.547007
0.609232
0.650915
0.537794
0.22356
0.173989
0.395031
0.522596
0.49997
0.35164
0.102455
0.100075
0.100643
0.137376
0.115215
0.1
0.1
0.100001
0.100001
0.100001
0.100001
0.100001
0.100002
0.100002
0.100002
0.100002
0.100003
0.100003
0.100003
0.100003
0.100005
0.100019
0.100133
0.101086
0.106768
0.124896
0.157429
0.203092
0.257818
0.301083
0.321361
0.328016
0.305823
0.244247
0.165822
0.121529
0.123383
0.114262
0.147846
0.133536
0.185872
0.165275
0.166734
0.146031
0.221807
0.191817
0.209353
0.176113
0.204477
0.16645
0.301994
0.249696
0.337547
0.274778
0.396225
0.330512
0.495031
0.462058
0.433809
0.39985
0.582235
0.55563
0.527295
0.497258
0.652486
0.635269
0.614046
0.589563
0.693735
0.675307
0.686539
0.66283
0.680488
0.698231
0.705209
0.705907
0.655802
0.606406
0.65769
0.688046
0.598526
0.29674
0.231386
0.468011
0.584773
0.563929
0.425252
0.105078
0.100077
0.101053
0.171351
0.130852
0.1
0.1
0.100001
0.100001
0.100001
0.100001
0.100001
0.100002
0.100002
0.100002
0.100002
0.100003
0.100003
0.100004
0.100008
0.100045
0.100368
0.102615
0.112613
0.134613
0.168825
0.216042
0.269302
0.301953
0.316701
0.313438
0.277092
0.208239
0.145731
0.113251
0.102227
0.101853
0.10482
0.102506
0.113299
0.108163
0.131193
0.120671
0.120152
0.112145
0.149608
0.132043
0.14092
0.124125
0.145341
0.124396
0.219213
0.176532
0.268692
0.216685
0.338818
0.28113
0.466807
0.435644
0.404909
0.373688
0.562526
0.533591
0.503424
0.472587
0.64493
0.62322
0.598315
0.570949
0.698361
0.673864
0.685651
0.655616
0.70772
0.716774
0.710806
0.716955
0.693528
0.656001
0.696574
0.716026
0.649596
0.370673
0.301906
0.533764
0.637965
0.619173
0.49345
0.110133
0.100089
0.101785
0.222905
0.158892
0.1
0.1
0.100001
0.100001
0.100001
0.100001
0.100001
0.100002
0.100002
0.100002
0.100002
0.100003
0.100004
0.100016
0.100115
0.10094
0.105794
0.120589
0.145145
0.1803
0.227562
0.27601
0.300622
0.30955
0.295936
0.248376
0.179493
0.131778
0.108237
0.100768
0.100252
0.100126
0.100683
0.100347
0.102236
0.101248
0.107012
0.103969
0.103981
0.102169
0.113518
0.107363
0.112365
0.106157
0.121793
0.110078
0.174933
0.143151
0.232208
0.191082
0.327512
0.297859
0.249786
0.275389
0.44179
0.411358
0.38168
0.353087
0.541837
0.511654
0.481054
0.450485
0.633619
0.608596
0.581164
0.55216
0.6984
0.667408
0.680521
0.645449
0.727172
0.728897
0.71201
0.723706
0.722684
0.696349
0.727294
0.736732
0.692032
0.440461
0.373403
0.591949
0.682642
0.666578
0.55481
0.119763
0.100126
0.103383
0.290047
0.201693
0.1
0.1
0.100001
0.100001
0.100001
0.100001
0.100001
0.100002
0.100002
0.100002
0.100003
0.100006
0.100035
0.100286
0.102168
0.110891
0.129575
0.155887
0.19136
0.237931
0.279463
0.298045
0.301297
0.27709
0.222458
0.159064
0.122124
0.105089
0.100581
0.100047
0.100049
0.100051
0.100033
0.10013
0.100077
0.100372
0.100217
0.101192
0.10066
0.100945
0.100566
0.103155
0.101684
0.104707
0.102398
0.114609
0.106556
0.15733
0.131253
0.230479
0.208981
0.182813
0.313741
0.289615
0.246059
0.26749
0.420673
0.391888
0.36438
0.338389
0.522256
0.49219
0.462636
0.434326
0.620541
0.593464
0.564887
0.535845
0.695045
0.658861
0.674069
0.634397
0.740677
0.736787
0.710713
0.726465
0.744983
0.729011
0.751486
0.751897
0.727006
0.505197
0.440802
0.642862
0.720231
0.707354
0.60936
0.139253
0.100268
0.107308
0.36049
0.264471
0.1
0.1
0.100001
0.100001
0.100001
0.100001
0.100001
0.100002
0.100002
0.100003
0.100011
0.100075
0.100667
0.1045
0.117301
0.13885
0.166544
0.201774
0.246016
0.280479
0.294377
0.291589
0.258854
0.201364
0.145644
0.115584
0.103191
0.100359
0.100027
0.100018
0.100013
0.100028
0.100021
0.100063
0.100042
0.100142
0.100095
0.100356
0.100226
0.10053
0.100356
0.101366
0.100828
0.103205
0.101777
0.112849
0.105868
0.152147
0.127981
0.2266
0.208041
0.19231
0.174204
0.309829
0.287418
0.245701
0.26611
0.407431
0.381683
0.357001
0.333089
0.507379
0.480008
0.453698
0.428268
0.607988
0.580707
0.553719
0.527394
0.691051
0.650353
0.669005
0.625398
0.750097
0.741366
0.709448
0.727348
0.761966
0.755438
0.770623
0.763064
0.756065
0.564011
0.504511
0.687196
0.752172
0.74263
0.657873
0.174036
0.103466
0.129841
0.42892
0.338823
0.1
0.1
0.100001
0.100001
0.100001
0.100001
0.100001
0.100002
0.100003
0.100018
0.100162
0.101344
0.107827
0.124458
0.148259
0.176992
0.212294
0.253787
0.279773
0.289924
0.28085
0.242162
0.185241
0.13631
0.111283
0.102076
0.100242
0.100023
0.10001
0.100009
0.100014
0.100011
0.100023
0.100018
0.100049
0.100033
0.100104
0.100073
0.100243
0.100161
0.100456
0.100312
0.101097
0.10069
0.10295
0.101674
0.114024
0.106141
0.161091
0.145839
0.130181
0.226551
0.208635
0.19641
0.179849
0.313704
0.292664
0.252011
0.272091
0.403681
0.38005
0.35726
0.335216
0.501763
0.47708
0.453689
0.431727
0.600189
0.575166
0.550572
0.527428
0.689004
0.645775
0.667541
0.62198
0.756634
0.74456
0.710266
0.728564
0.775079
0.777142
0.785883
0.771753
0.780655
0.617426
0.563761
0.726238
0.779864
0.773888
0.701349
0.255632
0.174581
0.270618
0.496246
0.427733
0.1
0.1
0.100001
0.100001
0.100001
0.100001
0.100002
0.100004
0.100031
0.100279
0.102457
0.112005
0.131795
0.157287
0.186995
0.222307
0.258422
0.278168
0.284402
0.269331
0.227026
0.172757
0.129538
0.108365
0.101392
0.100167
0.100018
0.100007
0.100009
0.100008
0.100012
0.10001
0.10002
0.100015
0.100043
0.100028
0.100091
0.100064
0.100214
0.100139
0.100433
0.100294
0.101052
0.100658
0.103062
0.101716
0.122211
0.113933
0.108114
0.164671
0.150901
0.130478
0.143774
0.232642
0.21409
0.206053
0.188056
0.329514
0.308491
0.266137
0.287288
0.410954
0.390703
0.370581
0.350241
0.506285
0.486919
0.468843
0.451496
0.59907
0.577944
0.559063
0.542396
0.691465
0.646407
0.67368
0.626966
0.762176
0.748501
0.716896
0.73276
0.786025
0.795113
0.798974
0.779534
0.801897
0.666107
0.619146
0.761393
0.804806
0.802565
0.740832
0.398851
0.138082
0.327441
0.563941
0.51913
0.1
0.1
0.100001
0.100001
0.100001
0.100001
0.100005
0.100045
0.100513
0.103898
0.116693
0.138983
0.165793
0.195997
0.230682
0.261158
0.275605
0.278162
0.257346
0.213359
0.162553
0.124227
0.10626
0.100966
0.100107
0.100014
0.100007
0.100007
0.100007
0.100008
0.100007
0.100011
0.100009
0.100017
0.100013
0.100034
0.100023
0.100082
0.100054
0.1002
0.100127
0.100426
0.100285
0.101079
0.100653
0.103515
0.101938
0.125875
0.117018
0.1141
0.10823
0.171564
0.156696
0.136921
0.149896
0.245386
0.225282
0.220461
0.200367
0.356335
0.333941
0.287509
0.310838
0.434283
0.416497
0.397735
0.377682
0.52766
0.514179
0.501054
0.487405
0.610035
0.595931
0.584435
0.574963
0.70271
0.658131
0.691578
0.645855
0.76864
0.755656
0.73245
0.742956
0.796286
0.810874
0.81182
0.788345
0.821281
0.710788
0.671496
0.793984
0.828478
0.830311
0.777373
0.464695
0.123478
0.289347
0.627854
0.576284
0.1
0.1
0.100001
0.100001
0.100001
0.100006
0.100076
0.100748
0.105823
0.121634
0.145831
0.173651
0.204436
0.237683
0.261655
0.27251
0.270523
0.24502
0.200955
0.153696
0.119827
0.104702
0.100636
0.100071
0.100011
0.100006
0.100006
0.100007
0.100006
0.100008
0.100007
0.10001
0.100009
0.100016
0.100012
0.10003
0.100021
0.100074
0.100046
0.10019
0.100118
0.100439
0.100283
0.101153
0.100687
0.105504
0.103506
0.102274
0.132056
0.121782
0.117931
0.111103
0.181836
0.164951
0.144831
0.159849
0.26441
0.241931
0.239014
0.216602
0.391694
0.3667
0.314385
0.340696
0.472467
0.455572
0.436486
0.415132
0.566583
0.55807
0.548313
0.536426
0.637052
0.631169
0.627274
0.624107
0.725853
0.683989
0.724245
0.681158
0.778301
0.768668
0.760825
0.762299
0.80748
0.826521
0.826129
0.800239
0.841069
0.752264
0.719732
0.82499
0.852679
0.857797
0.811695
0.477738
0.107245
0.22122
0.677736
0.611283
0.1
0.1
0.100001
0.100001
0.100009
0.100102
0.101226
0.107916
0.126593
0.152236
0.180826
0.212039
0.24288
0.261011
0.268522
0.261579
0.232464
0.189468
0.145614
0.116056
0.103476
0.100489
0.100049
0.100009
0.100006
0.100006
0.100006
0.100007
0.100006
0.100007
0.100007
0.100009
0.100008
0.100014
0.100011
0.100026
0.100019
0.100067
0.10004
0.100186
0.100114
0.100457
0.100298
0.101339
0.100794
0.106718
0.104237
0.10236
0.103613
0.140387
0.127763
0.123842
0.114714
0.195887
0.17693
0.155538
0.172747
0.288328
0.263032
0.260395
0.23565
0.432117
0.403721
0.344523
0.374212
0.521748
0.503843
0.482769
0.45873
0.620501
0.614761
0.606034
0.593816
0.68112
0.682813
0.684897
0.68546
0.762351
0.725891
0.769903
0.73157
0.793518
0.791184
0.799087
0.791972
0.821857
0.844948
0.845448
0.81773
0.864587
0.791042
0.761647
0.854746
0.878116
0.883141
0.844657
0.4801
0.105811
0.211528
0.716366
0.642462
0.1
0.1
0.100002
0.100012
0.100159
0.101616
0.110617
0.131342
0.158095
0.187235
0.218518
0.245698
0.259569
0.263668
0.251591
0.219841
0.178566
0.138048
0.112752
0.102543
0.100343
0.100035
0.100008
0.100006
0.100006
0.100006
0.100006
0.100006
0.100006
0.100007
0.100007
0.100007
0.100009
0.100008
0.100013
0.10001
0.100024
0.100017
0.100062
0.100037
0.100186
0.100112
0.100517
0.100309
0.101549
0.100889
0.108801
0.105438
0.102889
0.104367
0.15125
0.136199
0.131567
0.119849
0.212816
0.191862
0.168667
0.187857
0.315261
0.287033
0.283402
0.256351
0.475524
0.443354
0.376697
0.410034
0.577623
0.557366
0.533303
0.505825
0.68476
0.679593
0.670082
0.656411
0.739238
0.74667
0.752363
0.754456
0.810443
0.780498
0.824315
0.793056
0.816702
0.820264
0.849074
0.830848
0.845797
0.871748
0.880049
0.84849
0.891319
0.826981
0.798205
0.882363
0.900842
0.90551
0.875864
0.496315
0.191963
0.355825
0.752876
0.675909
0.1
0.100002
0.100018
0.10021
0.102408
0.112994
0.135897
0.163343
0.192763
0.223563
0.246957
0.25738
0.258005
0.241028
0.207617
0.168154
0.131131
0.109945
0.101827
0.100233
0.100026
0.100007
0.100005
0.100005
0.100006
0.100006
0.100006
0.100006
0.100006
0.100006
0.100007
0.100007
0.100008
0.100008
0.100012
0.10001
0.100022
0.100016
0.100058
0.100035
0.100193
0.10011
0.100582
0.100319
0.102483
0.101599
0.101048
0.111717
0.106901
0.103678
0.105557
0.163745
0.146472
0.14084
0.126536
0.23153
0.208786
0.183201
0.204166
0.343995
0.312727
0.308359
0.278611
0.523141
0.487188
0.412351
0.44974
0.638041
0.61518
0.58812
0.557207
0.754599
0.75062
0.739931
0.725325
0.805513
0.815904
0.823379
0.826998
0.870355
0.839318
0.891019
0.854861
0.863004
0.884251
0.926077
0.912566
0.892736
0.903538
0.918472
0.909428
0.913955
0.86146
0.834911
0.905919
0.920215
0.922978
0.902533
0.567091
0.115826
0.34455
0.793074
0.7226
0.100004
0.100025
0.100323
0.10302
0.116173
0.139955
0.168084
0.197672
0.227485
0.246789
0.254716
0.251399
0.230334
0.196192
0.15866
0.125319
0.107466
0.101328
0.100159
0.100019
0.100006
0.100005
0.100005
0.100005
0.100006
0.100006
0.100006
0.100006
0.100006
0.100006
0.100007
0.100007
0.100008
0.100007
0.100011
0.100009
0.100021
0.100015
0.100056
0.100033
0.100205
0.100108
0.100665
0.100374
0.102947
0.101932
0.101032
0.101596
0.115923
0.109162
0.104509
0.107168
0.177491
0.158157
0.151604
0.134705
0.251509
0.226884
0.199023
0.221922
0.375673
0.340876
0.338201
0.304681
0.579847
0.540297
0.456115
0.498177
0.705341
0.680497
0.651341
0.617612
0.82793
0.82685
0.818579
0.805071
0.868576
0.879066
0.885958
0.890204
0.941962
0.90857
0.951057
0.917114
0.92593
0.939501
0.97199
0.94611
0.92827
0.926165
0.940321
0.939001
0.93274
0.891776
0.873416
0.925596
0.936944
0.935867
0.924205
0.620629
0.108995
0.303026
0.833812
0.770748
0.100056
0.100434
0.104299
0.118584
0.143908
0.172183
0.201971
0.230416
0.246188
0.251581
0.244209
0.219962
0.185797
0.150202
0.12044
0.105576
0.100852
0.100111
0.100014
0.100005
0.100005
0.100005
0.100005
0.100005
0.100006
0.100006
0.100006
0.100006
0.100006
0.100006
0.100006
0.100007
0.100007
0.100008
0.100007
0.100011
0.100009
0.10002
0.100014
0.100055
0.100031
0.100207
0.100108
0.101133
0.100943
0.100622
0.100446
0.103668
0.102387
0.101815
0.121504
0.112393
0.105774
0.109602
0.193155
0.171444
0.1647
0.144742
0.274207
0.24694
0.217428
0.242948
0.41449
0.375138
0.37747
0.338491
0.652559
0.609793
0.514346
0.56201
0.785118
0.758699
0.728936
0.693998
0.891938
0.892281
0.890867
0.882713
0.926043
0.929652
0.932158
0.932665
0.985897
0.958489
0.987932
0.968111
0.955036
0.972833
0.994141
0.988684
0.955384
0.950723
0.978308
0.976501
0.957616
0.918558
0.898571
0.936719
0.960887
0.961163
0.935491
0.643733
0.232456
0.43377
0.870095
0.811554
0.100842
0.105265
0.122077
0.147073
0.175914
0.205563
0.231912
0.24495
0.248023
0.236871
0.210273
0.176577
0.14282
0.116419
0.104135
0.100638
0.100074
0.100011
0.100005
0.100004
0.100005
0.100005
0.100005
0.100005
0.100006
0.100006
0.100006
0.100006
0.100006
0.100006
0.100006
0.100007
0.100007
0.100008
0.100007
0.10001
0.100009
0.100019
0.100013
0.100054
0.10003
0.100201
0.100115
0.101467
0.101021
0.100715
0.100489
0.104598
0.102861
0.102282
0.128664
0.116931
0.107553
0.113101
0.212541
0.187628
0.181844
0.157768
0.302787
0.271503
0.240741
0.269962
0.46622
0.420772
0.431383
0.384804
0.744742
0.700229
0.59298
0.64648
0.870412
0.849242
0.820945
0.789497
0.932515
0.932165
0.930474
0.927209
0.993956
0.990514
0.994242
0.995732
1.15805
0.991621
1.15817
0.996063
0.995226
0.997483
1.14414
1.1523
1.00008
0.985534
1.00824
1.00149
0.991925
0.92942
0.925479
0.961937
0.996352
0.998323
0.957203
0.70368
0.13513
0.474183
0.896809
0.847971
0.107919
0.12417
0.150524
0.17882
0.208468
0.232669
0.243305
0.244327
0.229646
0.201544
0.168541
0.136548
0.113163
0.103058
0.100483
0.100052
0.100009
0.100004
0.100004
0.100004
0.100005
0.100005
0.100005
0.100005
0.100006
0.100006
0.100006
0.100006
0.100006
0.100006