/*--------------------------------*- C++ -*----------------------------------*\
  =========                 |
  \\      /  F ield         | OpenFOAM: The Open Source CFD Toolbox
   \\    /   O peration     | Website:  https://openfoam.org
    \\  /    A nd           | Version:  dev
     \\/     M anipulation  |
\*---------------------------------------------------------------------------*/
FoamFile
{
    version     2.0;
    format      ascii;
    class       volScalarField;
    location    "2500";
    object      alphat;
}
// * * * * * * * * * * * * * * * * * * * * * * * * * * * * * * * * * * * * * //

dimensions      [1 -1 -1 0 0 0 0];

internalField   nonuniform List<scalar> 
9575
(
0.000148769
0.000153055
0.000145688
0.00014128
0.000181865
0.000131057
0.000130619
0.000191997
0.000172354
0.000124218
0.000126014
0.000186138
0.000196383
0.000149337
0.000122151
0.000122553
0.000169498
0.000211229
0.000182096
0.000135625
0.000120753
0.000120721
0.00015142
0.00021148
0.000206234
0.000156108
0.000129445
0.000119805
0.000120193
0.000141042
0.000204331
0.000220058
0.000184475
0.000140482
0.000126031
0.000119163
0.000119943
0.000132977
0.000186437
0.000228822
0.000209625
0.000158474
0.000132952
0.000123697
0.000118743
0.000119754
0.000128095
0.000163898
0.000227263
0.0002261
0.000181925
0.000142928
0.000128679
0.000122107
0.000118405
0.000119236
0.000125016
0.000150953
0.000218769
0.000236454
0.000208449
0.000157448
0.000134753
0.000125901
0.000120961
0.000118135
0.000118448
0.000123164
0.000140839
0.000199075
0.000243008
0.000228042
0.000178097
0.00014303
0.000130055
0.000123815
0.000120098
0.000117942
0.000117782
0.000122344
0.000134032
0.000176046
0.000240789
0.00024122
0.00020198
0.00015552
0.000135165
0.000126925
0.000122256
0.000119444
0.000117754
0.000117272
0.000121783
0.000129928
0.000160091
0.000232087
0.000249703
0.00022621
0.000172907
0.000142115
0.000130526
0.000124593
0.00012106
0.000118915
0.000117622
0.000116895
0.000121354
0.000127266
0.000149282
0.00021282
0.000255617
0.000242368
0.000194286
0.000152739
0.000134645
0.00012723
0.00012286
0.000120134
0.000118496
0.000117518
0.000116805
0.000120943
0.000125474
0.000141295
0.000190589
0.000253854
0.000254032
0.000217284
0.000167025
0.000140595
0.000130321
0.000124836
0.00012158
0.000119436
0.000118165
0.00011743
0.000116924
0.000120177
0.000124294
0.000136109
0.000170158
0.000246584
0.000260881
0.000239626
0.000185735
0.000149036
0.000133814
0.000127159
0.00012304
0.000120469
0.000118869
0.000117904
0.000117359
0.000117061
0.000119241
0.000123424
0.000132507
0.000159957
0.00023113
0.000267148
0.000253791
0.000206268
0.000161237
0.000138596
0.000129733
0.000124693
0.00012155
0.00011962
0.00011842
0.000117687
0.000117305
0.000117167
0.000118435
0.000122625
0.000129921
0.000151503
0.000209512
0.000267455
0.000264602
0.000228534
0.000176294
0.000145716
0.000132798
0.000126619
0.000122924
0.000120459
0.000118971
0.000118049
0.000117516
0.000117256
0.000117242
0.000117745
0.00012194
0.000127992
0.000145041
0.000189847
0.000262801
0.000270352
0.000248204
0.000195182
0.000155187
0.000136702
0.000128827
0.000124348
0.00012143
0.000119602
0.000118454
0.000117755
0.000117374
0.000117215
0.000117274
0.000117142
0.000121367
0.00012653
0.000140529
0.000173946
0.000251911
0.000277129
0.000262695
0.00021432
0.000167821
0.000142193
0.000131566
0.000125906
0.000122535
0.000120327
0.00011891
0.000118034
0.000117517
0.000117251
0.000117184
0.000117278
0.00011663
0.000120877
0.000125385
0.000137323
0.000165346
0.000236364
0.000280235
0.000272719
0.000235115
0.00018312
0.000149719
0.00013463
0.000127886
0.000123832
0.000121152
0.000119449
0.000118357
0.000117689
0.000117307
0.000117155
0.000117159
0.000117253
0.000116218
0.000120468
0.000124519
0.000134973
0.000159217
0.000217997
0.000278932
0.000280298
0.000252657
0.000200498
0.000159612
0.000138891
0.000130145
0.000125275
0.000122101
0.000120071
0.000118742
0.000117906
0.000117393
0.000117147
0.000117079
0.000117137
0.000117194
0.000115922
0.000120152
0.000123901
0.000133285
0.000154165
0.000201655
0.000273912
0.000284509
0.0002688
0.000218431
0.00017204
0.000144815
0.000132797
0.000126895
0.000123306
0.000120795
0.000119208
0.000118176
0.000117529
0.000117167
0.000117022
0.000117017
0.000117121
0.000117102
0.000115742
0.000119944
0.000123541
0.000132284
0.000150371
0.000188661
0.000263776
0.000288935
0.000278576
0.000235132
0.000186417
0.000152591
0.000136148
0.000128859
0.00012451
0.000121663
0.000119748
0.000118515
0.000117717
0.000117233
0.000116997
0.000116918
0.000116969
0.00011711
0.000116967
0.000115689
0.000119849
0.000123401
0.000131958
0.000148137
0.000179132
0.000251699
0.000291317
0.000285227
0.000252841
0.000201488
0.000162238
0.000140842
0.000131107
0.000125911
0.000122587
0.000120417
0.000118923
0.000117968
0.000117354
0.000117011
0.000116853
0.000116838
0.000116932
0.0001171
0.000116796
0.000115772
0.000119847
0.000123541
0.00013228
0.000147969
0.000173729
0.000239178
0.000290684
0.000291
0.000266907
0.000217474
0.000173479
0.000146741
0.000133835
0.000127523
0.000123756
0.000121132
0.00011944
0.000118286
0.000117538
0.000117072
0.000116832
0.000116741
0.000116777
0.00011691
0.000117096
0.00011659
0.000116003
0.000119942
0.000123799
0.000133254
0.000148445
0.000170623
0.000226561
0.000287709
0.000294101
0.000278712
0.00023267
0.000186204
0.000153833
0.000137344
0.000129449
0.000124948
0.000122019
0.000120016
0.000118679
0.000117783
0.000117203
0.000116861
0.000116691
0.000116659
0.000116742
0.000116908
0.000117098
0.000116367
0.000116413
0.000120178
0.000124325
0.00013458
0.000149072
0.000169103
0.000215454
0.00028144
0.000297637
0.00028779
0.000246419
0.000199462
0.000162402
0.000141648
0.000131728
0.000126342
0.000122994
0.000120707
0.00011914
0.000118089
0.000117397
0.000116951
0.000116691
0.00011659
0.000116616
0.000116737
0.000116925
0.000117107
0.000116134
0.000116989
0.000120582
0.000125267
0.000136442
0.000150043
0.000167963
0.000206641
0.000273534
0.000299536
0.000293489
0.000259291
0.000212761
0.000172183
0.000146825
0.000134247
0.000127916
0.000124101
0.000121477
0.000119681
0.000118461
0.000117654
0.000117103
0.000116755
0.000116574
0.000116544
0.000116616
0.000116758
0.000116968
0.00011713
0.000115935
0.000117767
0.000121236
0.000126718
0.000138761
0.000151411
0.000167276
0.000200087
0.000264566
0.000299964
0.000297197
0.000271495
0.000225114
0.000182866
0.000153061
0.000137444
0.000129725
0.000125249
0.000122311
0.00012031
0.000118899
0.000117966
0.000117314
0.000116886
0.000116622
0.000116527
0.00011655
0.000116664
0.000116824
0.000117047
0.000117172
0.000115858
0.000118715
0.000122166
0.000128814
0.000141423
0.000152817
0.000167098
0.000195467
0.000255492
0.000299485
0.000300145
0.000280772
0.00023702
0.000193739
0.000160332
0.000141334
0.000131859
0.000126608
0.000123309
0.000121007
0.000119423
0.000118339
0.000117581
0.000117065
0.000116738
0.00011657
0.000116552
0.000116617
0.000116777
0.000116954
0.000117174
0.000117243
0.000115994
0.0001198
0.000123418
0.000131569
0.00014394
0.00015416
0.000166915
0.0001913
0.000246981
0.000296922
0.000301875
0.000288321
0.000247657
0.000204615
0.000168399
0.000145824
0.000134299
0.000128126
0.000124368
0.000121794
0.000120014
0.000118771
0.000117909
0.0001173
0.000116912
0.000116682
0.000116621
0.000116656
0.000116773
0.00011698
0.000117174
0.00011736
0.000117334
0.000116402
0.000120878
0.000124984
0.000134572
0.000146004
0.000155307
0.000166706
0.000189202
0.000239374
0.000292533
0.000302718
0.00029448
0.000257246
0.000215013
0.000177111
0.000151018
0.00013714
0.000129893
0.000125464
0.000122634
0.000120668
0.000119256
0.000118269
0.000117588
0.00011714
0.000116868
0.000116756
0.000116761
0.000116857
0.000117045
0.000117316
0.000117556
0.000117696
0.00011733
0.000117608
0.000116984
0.000121713
0.000127152
0.000137676
0.000147824
0.000156206
0.000166578
0.00018767
0.000232084
0.000287313
0.000303902
0.000297901
0.000265285
0.00022474
0.000186114
0.000156981
0.000140392
0.000131767
0.000126804
0.000123581
0.000121353
0.000119808
0.000118694
0.000117917
0.000117411
0.000117109
0.000116956
0.000116937
0.000117045
0.000117219
0.000117474
0.000117822
0.000117833
0.000118038
0.000117883
0.000118083
0.000118195
0.000117384
0.000117729
0.000117687
0.000122655
0.000130428
0.000140574
0.000149174
0.000156642
0.000166433
0.000186092
0.000225999
0.000281633
0.000304565
0.000300167
0.000273301
0.000233395
0.000194951
0.000163535
0.000144121
0.00013394
0.000128205
0.000124582
0.0001221
0.000120397
0.000119162
0.000118292
0.000117721
0.000117379
0.000117205
0.000117195
0.000117259
0.000117509
0.00011784
0.000118201
0.000118219
0.000118505
0.000118348
0.000118109
0.000118549
0.000118497
0.000117425
0.000117895
0.00011855
0.000123978
0.000133986
0.000142731
0.0001501
0.000156774
0.000166134
0.000184558
0.000221088
0.000275962
0.000304379
0.000301819
0.000279873
0.000241232
0.000203482
0.000170439
0.000148347
0.00013632
0.000129779
0.000125677
0.00012299
0.000121046
0.000119677
0.000118694
0.000118057
0.000117677
0.000117499
0.000117459
0.000117666
0.000117839
0.000118206
0.000118738
0.000118763
0.000119145
0.000118649
0.000118986
0.000118904
0.00011839
0.000118943
0.000118926
0.000117488
0.000118099
0.000119533
0.000125796
0.000137397
0.000144486
0.000150691
0.000156699
0.00016565
0.000183046
0.000216874
0.00027058
0.000303718
0.000303151
0.000285138
0.000248202
0.000211391
0.000177617
0.000153015
0.00013904
0.000131546
0.000126915
0.00012388
0.000121738
0.000120223
0.000119129
0.000118401
0.00011799
0.000117818
0.000117842
0.000117941
0.000118398
0.00011883
0.000119343
0.000119484
0.000119943
0.000119379
0.000119811
0.000119302
0.000119726
0.00011941
0.000118748
0.000119488
0.000119408
0.000117566
0.000118334
0.000120505
0.000128409
0.000140329
0.00014599
0.000151192
0.000156541
0.000165008
0.000181502
0.000213191
0.000265569
0.000302933
0.000304415
0.000289518
0.000254371
0.000218626
0.000184767
0.000158154
0.00014205
0.000133337
0.000128281
0.000124837
0.000122482
0.000120811
0.000119595
0.000118792
0.000118309
0.00011812
0.000118149
0.000118482
0.000118787
0.000119441
0.000120288
0.000120425
0.000120937
0.000120313
0.00012085
0.000120247
0.000120771
0.000119962
0.000120515
0.000120067
0.000119127
0.000120093
0.000119491
0.00010964
0.000107987
0.000121205
0.000131808
0.000142587
0.000147333
0.000151721
0.000156448
0.000164348
0.000180054
0.000209921
0.000261002
0.000301838
0.000305521
0.000293457
0.000259885
0.000225081
0.000191722
0.000163621
0.000145417
0.000135377
0.000129626
0.000125895
0.000123278
0.000121435
0.000120101
0.000119194
0.000118661
0.000118454
0.000118556
0.000118793
0.000119487
0.000120218
0.000121099
0.000121477
0.000122155
0.000121411
0.000122062
0.00012134
0.000121996
0.000121128
0.000121792
0.00012072
0.000121403
0.000120796
0.00010625
0.000116514
0.000103955
9.45905e-05
9.35324e-05
0.000122038
0.000135713
0.000144516
0.000148623
0.000152296
0.000156366
0.000163712
0.000178744
0.000207077
0.000256858
0.000300444
0.000306966
0.00029749
0.000264883
0.000230884
0.000198251
0.000169263
0.000149081
0.000137553
0.000131078
0.000126983
0.000124111
0.000122072
0.000120663
0.000119626
0.000119008
0.00011872
0.000118786
0.000119353
0.000119964
0.000120969
0.000122399
0.000122696
0.000123452
0.000122723
0.000123484
0.000122684
0.000123451
0.000122512
0.000123255
0.000122137
0.000122872
0.000121541
0.000122101
0.000113419
9.26046e-05
0.000101883
9.11218e-05
8.23689e-05
8.19128e-05
0.000123188
0.00013943
0.000146385
0.000149904
0.000152805
0.000156319
0.000163206
0.000177631
0.000204683
0.000253076
0.000298777
0.000308864
0.000300488
0.000269621
0.000236262
0.000204367
0.00017493
0.000152966
0.000139931
0.000132623
0.000128097
0.000124977
0.000122769
0.000121254
0.00012013
0.000119371
0.000119038
0.000119146
0.000119518
0.000120652
0.000121894
0.000123139
0.000123879
0.000124536
0.000124062
0.000124594
0.000124119
0.000124729
0.000123997
0.000124684
0.000123641
0.000121942
0.000119222
0.000116097
0.000111126
0.000108548
9.97365e-05
8.13741e-05
8.98001e-05
8.05449e-05
7.23313e-05
7.2302e-05
0.000124666
0.000142632
0.000148202
0.000151361
0.000153445
0.000156467
0.000162942
0.000176829
0.000202792
0.000249607
0.000297091
0.000311561
0.000303454
0.000275045
0.000240951
0.000210083
0.000180606
0.000157118
0.000142426
0.000134243
0.000129221
0.000125915
0.000123555
0.000121867
0.000120664
0.000119831
0.000119394
0.000119232
0.000119878
0.000120584
0.000121177
0.000121844
0.000124389
0.00012284
0.000124725
0.000123794
0.000125022
0.000124527
0.00012315
0.000120863
0.000119424
0.000115392
0.000113609
0.000111383
0.000106876
0.000104815
9.84209e-05
9.64849e-05
8.85273e-05
7.20231e-05
8.00325e-05
7.17094e-05
6.39947e-05
6.42066e-05
0.000126011
0.000145132
0.000149855
0.000152727
0.00015434
0.000156795
0.000162968
0.000176367
0.000201457
0.00024643
0.000295398
0.000314245
0.000306777
0.000280671
0.000245524
0.000215165
0.000186159
0.000161542
0.00014516
0.000135911
0.000130429
0.000126871
0.000124343
0.000122569
0.00012125
0.000120287
0.000119666
0.000119734
0.000119751
0.000119569
0.00011703
0.000110181
0.000115952
6.59756e-05
0.000119833
0.00010974
0.000121584
0.000113288
0.000121865
0.000116742
0.000114154
0.000117254
0.00010959
0.00010797
0.000103236
0.000102406
9.60266e-05
9.47484e-05
8.79212e-05
8.63708e-05
7.93771e-05
6.39484e-05
7.14788e-05
6.41921e-05
5.69138e-05
5.72748e-05
0.000127198
0.000147255
0.000151386
0.000154035
0.000155202
0.000157528
0.000163154
0.000176119
0.000200498
0.000243541
0.000293663
0.000317148
0.000310511
0.000286212
0.000250422
0.000220013
0.000191383
0.000166062
0.000148157
0.000137601
0.000131629
0.000127846
0.000125174
0.000123279
0.00012196
0.000120925
0.000120392
0.000119684
0.000118625
0.000114805
0.000109635
0.000117771
0.000134484
9.57509e-05
9.94524e-05
0.000100114
9.27889e-05
0.000104313
9.33616e-05
0.00010941
9.63483e-05
0.000113026
0.000101859
0.000104295
0.000109076
9.42362e-05
9.86803e-05
8.71475e-05
8.57811e-05
7.89695e-05
7.84975e-05
7.10372e-05
5.72915e-05
6.33415e-05
5.74829e-05
5.09406e-05
5.1507e-05
0.000127742
0.000148824
0.000152859
0.000155227
0.000156157
0.000158395
0.000163532
0.000176063
0.000199653
0.000240901
0.000291834
0.000320242
0.000314861
0.000291725
0.000255517
0.000224662
0.000196498
0.000170593
0.000151338
0.000139432
0.000132849
0.000128767
0.000126006
0.000124028
0.000122547
0.000121535
0.000120488
0.000118824
0.000114045
0.000108872
0.00012401
0.000166761
0.000219976
0.000216601
0.000341147
0.000103463
0.000139699
9.89761e-05
0.000126729
9.54555e-05
0.000113554
9.3448e-05
0.000104049
9.59567e-05
9.72629e-05
0.000102901
9.29351e-05
9.06846e-05
9.82597e-05
8.01938e-05
8.2029e-05
7.12398e-05
7.29832e-05
6.36627e-05
5.17611e-05
5.63139e-05
5.1331e-05
4.58558e-05
4.67183e-05
0.000127684
0.000149658
0.000154163
0.000156326
0.00015706
0.000159224
0.000164224
0.000176214
0.000198922
0.000238448
0.000289869
0.000322984
0.000319787
0.000297818
0.000261005
0.000229201
0.000201554
0.000175276
0.000154689
0.000141577
0.000134161
0.000129748
0.000126812
0.000124695
0.00012338
0.000122146
0.000120157
0.000115149
0.000107189
0.000127157
0.000180939
0.000265647
0.000421318
0.000448057
0.000570372
0.000447677
0.000540953
0.000197178
0.000318376
0.000163004
0.00028527
0.000139318
0.000232828
0.000118917
0.0001788
0.000103834
0.000139165
9.41514e-05
0.000112187
9.53571e-05
9.85411e-05
7.70127e-05
9.28421e-05
6.5076e-05
6.86608e-05
5.88143e-05
4.63706e-05
5.26331e-05
4.83668e-05
4.19353e-05
4.18103e-05
0.00012746
0.000149591
0.000154963
0.000157252
0.000157796
0.000159984
0.000164784
0.000176372
0.000198262
0.000236168
0.000287704
0.000324987
0.000324445
0.000305123
0.00026681
0.000233677
0.000206342
0.000180124
0.000158359
0.000143983
0.000135591
0.00013065
0.000127565
0.000125417
0.000123806
0.000122317
0.000118049
0.000107881
0.000120863
0.0001779
0.000288827
0.000496606
0.000612956
0.000616595
0.000683322
0.000607401
0.00064104
0.00058165
0.000615209
0.000420195
0.000518825
0.000372712
0.000485793
0.000313295
0.00043783
0.000242398
0.00037928
0.000165402
0.000301478
0.000124353
0.00020634
0.000103813
0.00013706
9.0999e-05
0.000105166
5.98e-05
8.36899e-05
5.39949e-05
4.32381e-05
4.8476e-05
4.40823e-05
3.83286e-05
3.83193e-05
0.000127125
0.000148637
0.000155023
0.000157826
0.000158355
0.000160516
0.000165291
0.000176622
0.000197595
0.000233961
0.000285356
0.000326031
0.000328967
0.000312775
0.000273231
0.000238482
0.000210878
0.000185
0.000162287
0.000146615
0.000137066
0.00013168
0.000128277
0.000125947
0.000124485
0.000121811
0.000112927
0.000111923
0.000162087
0.000285509
0.000506207
0.000649263
0.000696672
0.000688871
0.000672108
0.000688361
0.00064111
0.000653634
0.000610777
0.000623376
0.000552669
0.00058824
0.000516901
0.000558068
0.00047154
0.000524769
0.000416306
0.000484938
0.000346207
0.000435431
0.000246868
0.000372019
0.000147836
0.000278157
0.000106357
0.000156014
7.40071e-05
0.00010574
6.36923e-05
3.97293e-05
5.32628e-05
4.04361e-05
3.58412e-05
3.64387e-05
0.000131785
0.000148099
0.000154665
0.000157887
0.0001587
0.00016084
0.00016559
0.000176712
0.000196772
0.000231706
0.00028275
0.000326525
0.000334211
0.000319565
0.000280611
0.000243801
0.000215536
0.000189767
0.00016646
0.000149412
0.000138833
0.000132668
0.000128891
0.000126429
0.000124443
0.0001193
0.00011117
0.000143539
0.000245678
0.00047107
0.000677123
0.000742089
0.000715991
0.00068851
0.000663273
0.000670967
0.000662564
0.000661134
0.000631574
0.000635212
0.000604329
0.000612577
0.000581421
0.000595884
0.000552764
0.00057044
0.000521468
0.00054514
0.000487509
0.000515897
0.000444138
0.000484551
0.000385054
0.000445939
0.00029714
0.00038951
0.000159064
0.000303996
0.000102438
0.000156108
9.70497e-05
3.39694e-05
8.36948e-05
4.76807e-05
3.46817e-05
3.36763e-05
0.000152996
0.000154963
0.000157829
0.000159004
0.000161078
0.000165745
0.000176667
0.000195739
0.000229237
0.000279795
0.000326747
0.000340184
0.000326209
0.000289148
0.000249669
0.000220251
0.000194766
0.000170778
0.00015259
0.000140812
0.000133906
0.000129571
0.000126961
0.000123869
0.000114655
0.000118279
0.000209222
0.000407611
0.000663985
0.000772975
0.00077791
0.000742725
0.000710097
0.000682577
0.000691529
0.000665233
0.000684955
0.000639896
0.000650497
0.000618113
0.000631441
0.0006005
0.000616247
0.000581264
0.000589316
0.000556491
0.000569943
0.000533676
0.000554247
0.000509543
0.000536257
0.000478958
0.00050879
0.000443889
0.000478044
0.000390223
0.0004438
0.000300337
0.000386955
0.000146029
0.00028738
0.000131002
3.13675e-05
0.000104858
6.7577e-05
5.19812e-05
3.5494e-05
3.27654e-05
0.000159276
0.000158676
0.00015965
0.000161562
0.000165969
0.00017657
0.000194506
0.00022661
0.000276357
0.000326589
0.000346385
0.000333526
0.000298152
0.000255957
0.000225121
0.000199765
0.000175598
0.000155862
0.000143302
0.000135131
0.000130319
0.000126899
0.000121755
0.000110192
0.000149621
0.00029882
0.000580461
0.000792587
0.000846334
0.000793514
0.000749215
0.000739584
0.00078631
0.000717469
0.000781692
0.000716396
0.000765357
0.000647252
0.00067157
0.000632644
0.000664493
0.000630385
0.000660139
0.000587385
0.000605785
0.000577763
0.000602219
0.0005637
0.000595064
0.000544146
0.000580074
0.000515647
0.000555289
0.000486575
0.000524278
0.000448051
0.000493042
0.000384463
0.000450847
0.000265449
0.000381152
0.000327761
0.000165749
0.000242538
6.29647e-05
3.44385e-05
5.25708e-05
0.000109509
0.000194877
0.000207874
8.40333e-05
4.01922e-05
3.65339e-05
3.44354e-05
3.66611e-05
0.000165098
0.000161762
0.000162674
0.000166616
0.000176624
0.000193619
0.000223742
0.00027249
0.000325855
0.000351966
0.000341479
0.000307742
0.000263327
0.000230056
0.000204775
0.000180426
0.000159925
0.000145445
0.000137051
0.000131127
0.000126502
0.000116564
0.000110819
0.000195882
0.000422852
0.000739947
0.000869763
0.000863566
0.000807161
0.000767276
0.00077252
0.000842842
0.000868735
0.000899555
0.000810478
0.000852712
0.000785702
0.00081541
0.000706727
0.000748911
0.000690191
0.000719313
0.000667396
0.000683709
0.00062949
0.00064952
0.000621083
0.000636618
0.000608845
0.00062284
0.000595768
0.000608436
0.000565617
0.000600087
0.000535897
0.000576785
0.000502093
0.000523551
0.000546482
0.000416759
0.000454152
0.000508994
0.000481432
0.000370356
0.000303574
0.000366705
0.000415122
0.000289505
6.63263e-05
5.99273e-05
0.000159192
0.000247198
0.000272938
0.00012095
4.03941e-05
5.06214e-05
5.06122e-05
5.21587e-05
3.83031e-05
0.00017152
0.000165913
0.00016814
0.000177042
0.000193216
0.000220881
0.00026819
0.000324301
0.00035648
0.000349329
0.000318164
0.000271692
0.000235655
0.0002095
0.000185673
0.000163804
0.000148674
0.0001384
0.000132028
0.00012516
0.000107804
0.000126118
0.000270493
0.000567449
0.000850485
0.000929698
0.000881832
0.000814743
0.00079123
0.000831739
0.000884134
0.00089862
0.000877776
0.000869192
0.000844568
0.000872668
0.000805403
0.000817113
0.000746179
0.000775637
0.000709254
0.000734686
0.000676567
0.000682224
0.000647541
0.000665084
0.00063187
0.000644799
0.000614933
0.000626669
0.000603613
0.000609032
0.00059926
0.000597503
0.000563381
0.000579697
0.000590327
0.000598033
0.000530364
0.000551142
0.000546846
0.000565784
0.000451694
0.000483144
0.000532256
0.000509547
0.000412007
0.000353087
0.000404909
0.000450539
0.00034027
8.84919e-05
6.7348e-05
0.000215576
0.000321975
0.000298141
0.000176318
3.9886e-05
8.63907e-05
6.42777e-05
5.76516e-05
5.28143e-05
0.000178412
0.000172171
0.000178166
0.000192783
0.000218276
0.000263662
0.000321242
0.000359558
0.000356547
0.000328977
0.000281004
0.000241814
0.000214705
0.00019042
0.000168586
0.000151384
0.000141125
0.000132661
0.000120682
0.00010279
0.000157512
0.000358808
0.00071005
0.000933131
0.000953468
0.000893097
0.000828524
0.000824431
0.000881624
0.000945783
0.000895286
0.00062399
0.000547078
0.000752413
0.000692669
0.000813311
0.000791792
0.0007265
0.000685762
0.00074725
0.000744714
0.000676085
0.000654442
0.000595943
0.000552423
0.00064867
0.000630429
0.000626251
0.000595269
0.000610279
0.000580445
0.000594595
0.000573278
0.000599371
0.000594701
0.000587317
0.000577506
0.000579989
0.000589375
0.000594105
0.000594182
0.000550655
0.00056524
0.000567151
0.000578738
0.00048297
0.000509831
0.000548863
0.000531654
0.000447136
0.000396213
0.000441793
0.000481413
0.000384128
0.000130685
9.03853e-05
0.000267977
0.0003673
0.000345727
0.000230273
4.45879e-05
0.000113865
5.69875e-05
6.60369e-05
5.52118e-05
0.000185511
0.000181439
0.000192678
0.00021602
0.000259479
0.000317267
0.000361468
0.000363777
0.000339983
0.000290868
0.000248758
0.000219691
0.000196049
0.000172724
0.000155275
0.000142622
0.00013258
0.000111603
0.000109794
0.00021973
0.000493728
0.00083834
0.000982644
0.000971594
0.000892159
0.000851854
0.000873919
0.000958852
0.000984531
0.000837939
0.000319546
0.000296526
0.000240737
0.00047135
0.000380573
0.000630544
0.00055526
0.000487723
0.000403599
0.000616738
0.000561019
0.000495236
0.000425675
0.000388577
0.000304926
0.000540043
0.000466511
0.000517248
0.000434293
0.000523275
0.000451609
0.000562317
0.000542188
0.000521837
0.000489055
0.000588668
0.000579985
0.000567113
0.000550223
0.000586001
0.000588914
0.000587973
0.000581884
0.000561805
0.000575364
0.000570447
0.000580955
0.000508753
0.000529849
0.000557138
0.000545788
0.000478197
0.000434405
0.000473593
0.00050628
0.00042346
0.000183751
0.000130664
0.000317443
0.000408806
0.000389202
0.00028135
5.31608e-05
3.34939e-05
2.92143e-05
8.68841e-05
6.19148e-05
0.000192572
0.000194284
0.000215123
0.00025479
0.000313408
0.0003626
0.000371962
0.000350838
0.000301741
0.000255889
0.000225481
0.00020067
0.000178255
0.0001584
0.000145466
0.000129628
0.000106139
0.000143005
0.000321453
0.000648722
0.000936333
0.00102444
0.000983746
0.000903403
0.000876224
0.000930654
0.00100791
0.00101039
0.000709441
0.000301377
0.000139619
0.000138086
0.000157232
0.000135473
0.000214436
0.000184005
0.000310595
0.000254279
0.000224941
0.000191592
0.000342398
0.000270027
0.000242022
0.000202809
0.000208983
0.000167302
0.000341479
0.000267421
0.000375786
0.000301451
0.000427386
0.000364271
0.000530218
0.000506688
0.000481504
0.000453493
0.000572291
0.000558892
0.000542032
0.000522278
0.000582493
0.00058085
0.000574522
0.000564584
0.00056434
0.000574835
0.000567693
0.000575307
0.00052682
0.000541497
0.000557108
0.000551344
0.000502706
0.000466861
0.000498002
0.000522881
0.000457434
0.000237195
0.000182529
0.000363026
0.000444664
0.000427144
0.000329706
5.21398e-05
1.12824e-05
1.49276e-05
0.000122241
7.97122e-05
0.000201836
0.00021541
0.00024987
0.000308899
0.000362864
0.0003803
0.000361506
0.000314011
0.000264496
0.000230215
0.00020669
0.000182545
0.000163106
0.000146343
0.00012313
0.000111356
0.000207592
0.00046579
0.000807438
0.00101421
0.00104521
0.000986979
0.000914567
0.0009093
0.0009939
0.00106001
0.00101079
0.000559158
0.000280998
0.000122989
0.000110149
0.00010865
0.000111196
0.000109314
0.000122768
0.000115003
0.000162839
0.000138007
0.000126944
0.000115598
0.000174725
0.000146847
0.000135924
0.000118316
0.000125422
0.000103928
0.000230929
0.00016963
0.000302287
0.000243303
0.000399856
0.000369368
0.00031348
0.000343409
0.000500366
0.000476828
0.000452297
0.000426408
0.00055145
0.000535506
0.00051737
0.000497463
0.000573059
0.000566543
0.00055693
0.000544609
0.00055939
0.000567495
0.000558711
0.000564544
0.000536314
0.000544624
0.00055012
0.000548961
0.000518216
0.000491893
0.000513142
0.000530533
0.000483888
0.000287485
0.000236019
0.000403777
0.00047304
0.000458134
0.000373474
5.56409e-05
4.47413e-06
1.22105e-05
0.000173456
0.000111137
0.000218202
0.000247694
0.000302153
0.000361689
0.000387561
0.000372305
0.000327563
0.000273857
0.000237286
0.00021068
0.000188475
0.000166333
0.00014753
0.000116487
0.000142619
0.00032346
0.000629946
0.000939019
0.00106597
0.00106365
0.00098382
0.000935751
0.000955171
0.0010669
0.00110686
0.000955234
0.000454475
0.000239045
0.000124965
0.000108362
0.000109549
0.00010683
0.000107271
0.000104344
0.000105689
0.000103313
0.000103357
0.000109056
0.000105036
0.000102342
0.000100687
0.000109951
0.000105297
9.68218e-05
9.62529e-05
0.000101255
9.01079e-05
0.000186533
0.000135576
0.000288172
0.000259529
0.000217774
0.000380812
0.000355121
0.00030614
0.000330728
0.000476287
0.000454039
0.000430385
0.0004058
0.000530147
0.000513413
0.00049478
0.000474738
0.000558293
0.000549191
0.00053762
0.000523839
0.000548691
0.000555373
0.000545156
0.000549321
0.000537256
0.00054006
0.000537698
0.000540043
0.000524563
0.000507456
0.000518725
0.000529637
0.000500778
0.000334801
0.000286394
0.000438095
0.000492178
0.000480539
0.000411493
6.78342e-05
2.61644e-06
1.96044e-05
0.000227876
0.000161676
0.00024646
0.000297882
0.000359693
0.000394034
0.000382564
0.000341361
0.000286026
0.000242671
0.000217268
0.000192484
0.000171236
0.000144883
0.000120585
0.000206419
0.000444804
0.000795302
0.00104516
0.00111281
0.00107582
0.000990017
0.00095977
0.0010153
0.00112628
0.00113519
0.000869767
0.000395752
0.000201464
0.000123573
0.000110077
0.000107276
0.000107979
0.000105771
0.000106304
0.000103392
0.000104806
0.00010057
0.00010172
9.98817e-05
0.000100047
9.85839e-05
9.83445e-05
9.74837e-05
9.85955e-05
9.00905e-05
9.2879e-05
9.11917e-05
8.38378e-05
0.000166676
0.000120546
0.00028186
0.000257195
0.000236813
0.000209976
0.000369318
0.000347993
0.000304743
0.000326566
0.000453933
0.000432757
0.000411637
0.000390565
0.00050821
0.000491196
0.000473295
0.000455053
0.000540789
0.000530001
0.000517181
0.000502809
0.000533545
0.000539382
0.000527847
0.000531148
0.000530699
0.000529249
0.000520807
0.000525843
0.000522264
0.000512968
0.000515568
0.000521254
0.000507111
0.000377082
0.000333684
0.000464439
0.00050058
0.000492427
0.000442368
9.86192e-05
3.69431e-05
5.57641e-05
0.000281102
0.000222842
0.000290445
0.000356352
0.000397574
0.000392501
0.000356441
0.000296878
0.000252653
0.000221373
0.000198899
0.000173483
0.00014229
0.000142035
0.000285729
0.000591572
0.00094855
0.00112131
0.0011455
0.0010799
0.00099882
0.000987887
0.00107962
0.00117398
0.00115639
0.000774833
0.000354819
0.000176774
0.000122743
0.000112887
0.000108546
0.000110295
0.000106596
0.00010757
0.000104867
0.000105796
0.000102356
0.000103809
9.86454e-05
0.00010041
9.80978e-05
9.78516e-05
9.55426e-05
9.58028e-05
9.46927e-05
9.51833e-05
8.5923e-05
8.96046e-05
9.48042e-05
8.3079e-05
0.00018785
0.000161174
0.000130148
0.000282545
0.000259855
0.000242762
0.000219277
0.000364944
0.000346386
0.000307401
0.000327273
0.000436872
0.000418866
0.000401007
0.000383123
0.00048745
0.000471576
0.00045563
0.00043999
0.000520864
0.000508869
0.000495585
0.000481578
0.000514623
0.000519938
0.000506589
0.000509848
0.000517978
0.000513265
0.000499931
0.000506969
0.000512446
0.00050957
0.000504754
0.000506659
0.000504167
0.000413238
0.000375877
0.000481006
0.000498683
0.000492728
0.00046474
0.000136729
0.000100512
0.000116067
0.000330934
0.000288764
0.0003496
0.000401901
0.000402856
0.000370168
0.000312589
0.000259108
0.00022883
0.000202871
0.000177866
0.000138587
0.000180133
0.000384276
0.000742322
0.00106733
0.00118103
0.00116781
0.00107775
0.00101641
0.00102655
0.0011533
0.00122565
0.0011589
0.000681175
0.000321722
0.000161919
0.000123172
0.000116122
0.000112757
0.000108638
0.000110134
0.000106119
0.000107399
0.000104312
0.000105196
0.000101847
0.000103205
9.82228e-05
0.00010008
9.60566e-05
9.68005e-05
9.46688e-05
9.48681e-05
9.25696e-05
9.41228e-05
8.4122e-05
8.74177e-05
0.000111583
9.39201e-05
8.27578e-05
0.000195638
0.000171776
0.000131205
0.000158215
0.000286774
0.000265277
0.000252539
0.000229813
0.000365542
0.000349409
0.000314055
0.000332295
0.000424903
0.000410217
0.00039566
0.000380893
0.000467467
0.000453768
0.000440726
0.000428547
0.00049821
0.000485497
0.000472527
0.000459839
0.000491213
0.00049652
0.000480603
0.000484787
0.000500081
0.000492506
0.000474013
0.000483756
0.000496354
0.000498297
0.000487503
0.000486851
0.000492919
0.000441908
0.000411114
0.000486063
0.000487881
0.000483035
0.000476769
0.000196861
6.55244e-05
0.000145066
0.000374817
0.000349466
0.000401371