/*--------------------------------*- C++ -*----------------------------------*\
  =========                 |
  \\      /  F ield         | OpenFOAM: The Open Source CFD Toolbox
   \\    /   O peration     | Website:  https://openfoam.org
    \\  /    A nd           | Version:  dev
     \\/     M anipulation  |
\*---------------------------------------------------------------------------*/
FoamFile
{
    version     2.0;
    format      ascii;
    class       volScalarField;
    location    "2500";
    object      CO2;
}
// * * * * * * * * * * * * * * * * * * * * * * * * * * * * * * * * * * * * * //

dimensions      [0 0 0 0 0 0 0];

internalField   nonuniform List<scalar> 
9575
(
2.35238e-37
8.29395e-37
3.22723e-37
1.31284e-36
1.98763e-36
4.02945e-37
1.7473e-36
4.03758e-36
1.79549e-36
1.44624e-37
3.22617e-36
7.32409e-36
7.13201e-36
1.56161e-36
2.50167e-37
3.20904e-36
1.04071e-35
1.33796e-35
7.31078e-36
1.62188e-36
1.79132e-37
4.76659e-36
1.7481e-35
2.25922e-35
1.60551e-35
6.04622e-36
1.17229e-36
3.60795e-38
3.54915e-36
1.76359e-35
3.03971e-35
2.85791e-35
1.5225e-35
3.88591e-36
6.24047e-37
1.97417e-38
5.53678e-36
3.31495e-35
4.93454e-35
4.67912e-35
2.79591e-35
1.08906e-35
2.68757e-36
3.78763e-37
1.68876e-38
7.29967e-36
4.26476e-35
8.57949e-35
7.9267e-35
5.4278e-35
2.06412e-35
8.47915e-36
1.71444e-36
1.77359e-37
2.03176e-38
6.43528e-36
5.21364e-35
1.24529e-34
1.18383e-34
9.01495e-35
5.31351e-35
2.01938e-35
5.92055e-36
1.67348e-36
2.81649e-37
6.1428e-38
1.05656e-35
5.75713e-35
1.62263e-34
1.91121e-34
1.54402e-34
9.72007e-35
4.76228e-35
1.67783e-35
5.39125e-36
2.01633e-36
5.43035e-37
1.11802e-37
1.0593e-35
4.6261e-35
1.40698e-34
2.64851e-34
2.31849e-34
1.38507e-34
8.99134e-35
4.16664e-35
1.19364e-35
7.06805e-36
2.80963e-36
8.59595e-37
8.92965e-38
1.05254e-35
5.85271e-35
1.90468e-34
3.87764e-34
3.8736e-34
2.28652e-34
1.32826e-34
8.33947e-35
2.66239e-35
1.69765e-35
9.71976e-36
4.23912e-36
6.84822e-37
2.87165e-37
1.5522e-35
8.38806e-35
1.96628e-34
4.95202e-34
5.68795e-34
4.52969e-34
2.36099e-34
1.3482e-34
6.30038e-35
2.74337e-35
2.60261e-35
1.51005e-35
6.55563e-36
3.37518e-36
3.19945e-36
1.54477e-35
7.0619e-35
2.11084e-34
6.16133e-34
7.01273e-34
6.39791e-34
4.32167e-34
2.27621e-34
1.49782e-34
6.5192e-35
4.54042e-35
4.49567e-35
3.08785e-35
2.37838e-35
2.64711e-35
3.50676e-35
1.37868e-35
1.83063e-34
3.1627e-34
8.62073e-34
1.08587e-33
9.58299e-34
6.89899e-34
3.41448e-34
2.41423e-34
1.21261e-34
8.17641e-35
1.16016e-34
1.28244e-34
1.60218e-34
2.98437e-34
3.77704e-34
2.73531e-34
2.17778e-35
2.46491e-34
5.60162e-34
9.64621e-34
1.5443e-33
1.52715e-33
1.12467e-33
6.76485e-34
3.50719e-34
2.83186e-34
1.62124e-34
2.54868e-34
4.11415e-34
8.83842e-34
1.4584e-33
3.08077e-33
4.66748e-33
4.51168e-33
1.41598e-34
3.04525e-34
7.07846e-34
1.10552e-33
1.81949e-33
2.19292e-33
1.71302e-33
1.09662e-33
5.92026e-34
4.59303e-34
4.13275e-34
5.81271e-34
1.21738e-33
3.58939e-33
9.96047e-33
2.70873e-32
5.15568e-32
7.70384e-32
1.30355e-31
4.85714e-34
7.23268e-34
1.5426e-33
1.83692e-33
2.95509e-33
3.29615e-33
2.52928e-33
1.79704e-33
9.92776e-34
7.17995e-34
7.05903e-34
1.12301e-33
4.47019e-33
1.04272e-32
4.33949e-32
1.21707e-31
3.16269e-31
5.72282e-31
1.24732e-30
1.26243e-30
3.73374e-33
3.10392e-33
4.34901e-33
3.02852e-33
4.28294e-33
4.43976e-33
3.71565e-33
2.46047e-33
2.06018e-33
1.66846e-33
1.76996e-33
3.34816e-33
1.43176e-32
4.68847e-32
1.85903e-31
4.99725e-31
1.72625e-30
3.99772e-30
5.97711e-30
1.62746e-29
9.09028e-30
1.10953e-32
1.71085e-32
1.77482e-32
9.02425e-33
5.84297e-33
7.05502e-33
5.67804e-33
4.53754e-33
2.97713e-33
3.38769e-33
6.28972e-33
1.30393e-32
6.1471e-32
2.87268e-31
7.82903e-31
2.17372e-30
7.56021e-30
2.57472e-29
4.64384e-29
8.14553e-29
1.97133e-28
9.55878e-29
8.10629e-32
9.60451e-32
8.03186e-32
2.88945e-32
1.49791e-32
1.20057e-32
8.53772e-33
7.09048e-33
6.12408e-33
9.67146e-33
2.04912e-32
6.88857e-32
2.38596e-31
1.07911e-30
4.10924e-30
1.29457e-29
2.18958e-29
1.17258e-28
3.50575e-28
5.13207e-28
9.4983e-28
2.62973e-27
2.35289e-27
4.83649e-31
3.98129e-31
3.69868e-31
1.51295e-31
5.7132e-32
2.28525e-32
1.51832e-32
1.17517e-32
1.40399e-32
2.10395e-32
7.21142e-32
2.21135e-31
1.13724e-30
4.22759e-30
1.83779e-29
7.0693e-29
1.72361e-28
3.94262e-28
1.65733e-27
4.51301e-27
6.8282e-27
1.89942e-26
3.26974e-26
2.53511e-26
1.53002e-30
2.6276e-30
1.75866e-30
6.72638e-31
2.20706e-31
6.44949e-32
3.04894e-32
2.19172e-32
3.04883e-32
7.90116e-32
2.12806e-31
9.61882e-31
3.04656e-30
1.82925e-29
9.54976e-29
3.30242e-28
9.72758e-28
2.03586e-27
8.09476e-27
2.35459e-26
6.39171e-26
1.37802e-25
2.84072e-25
3.28399e-25
2.2203e-25
8.28816e-30
1.22128e-29
6.25848e-30
3.60614e-30
9.75238e-31
2.21612e-31
7.08075e-32
5.26313e-32
8.79801e-32
1.75405e-31
8.13673e-31
2.55951e-30
1.37149e-29
7.04352e-29
2.40264e-28
1.99145e-27
5.20444e-27
1.59327e-26
4.25393e-26
1.17854e-25
4.3542e-25
6.54012e-25
2.01861e-24
3.16231e-24
3.00008e-24
1.91662e-24
1.86022e-29
4.79035e-29
2.98953e-29
1.51175e-29
4.7082e-30
1.08973e-30
2.0003e-31
1.25611e-31
3.10449e-31
7.69535e-31
2.16307e-30
9.21021e-30
4.01916e-29
1.89549e-28
1.22594e-27
5.65779e-27
3.10266e-26
1.28113e-25
3.87433e-25
7.94766e-25
2.48056e-24
6.20075e-24
1.08933e-23
2.4213e-23
3.355e-23
2.54373e-23
1.65494e-23
1.34559e-28
2.74395e-28
1.55689e-28
7.11826e-29
2.18522e-29
4.79099e-30
8.32136e-31
3.5677e-31
7.92418e-31
2.53805e-30
8.53376e-30
2.32846e-29
1.1924e-28
6.31e-28
2.94264e-27
1.92265e-26
1.264e-25
6.2306e-25
2.07359e-24
7.07798e-24
1.63936e-23
3.43798e-23
9.26864e-23
1.38042e-22
2.94917e-22
2.99063e-22
1.63787e-22
1.87504e-22
4.27889e-28
8.70826e-28
5.36302e-28
2.84568e-28
9.33651e-29
2.2796e-29
4.47132e-30
1.22322e-30
2.48971e-30
7.63539e-30
2.31736e-29
9.35661e-29
3.66113e-28
1.72478e-27
1.20961e-26
6.2954e-26
3.92368e-25
1.82631e-24
1.13181e-23
2.87937e-23
1.20039e-22
2.83632e-22
6.87437e-22
1.311e-21
2.66983e-21
4.00612e-21
2.79391e-21
2.17419e-21
1.6855e-21
2.42594e-27
3.89703e-27
2.37945e-27
1.10448e-27
3.78501e-28
9.52008e-29
1.81442e-29
4.68029e-30
7.5529e-30
2.76139e-29
8.83054e-29
2.60724e-28
1.12096e-27
6.66683e-27
3.9744e-26
2.40168e-25
1.12873e-24
6.44427e-24
3.53043e-23
1.87101e-22
6.86854e-22
1.63912e-21
5.27587e-21
1.08426e-20
1.59601e-20
3.48583e-20
4.99377e-20
3.97424e-20
2.49169e-20
1.11029e-20
7.45151e-27
9.87394e-27
8.47941e-27
4.2856e-27
1.52743e-27
3.83174e-28
8.2025e-29
1.689e-29
1.63841e-29
7.43397e-29
3.07514e-28
1.06934e-27
2.88573e-27
1.74135e-26
1.16857e-25
7.3068e-25
4.61897e-24
2.19714e-23
1.0903e-22
5.83579e-22
3.07847e-21
9.86322e-21
3.55939e-20
6.95895e-20
1.52188e-19
1.83521e-19
4.63118e-19
4.24313e-19
2.85635e-19
1.98212e-19
3.3401e-20
1.7878e-26
3.26691e-26
2.73025e-26
1.23461e-26
5.07184e-27
1.4488e-27
3.24201e-28
6.1875e-29
6.06933e-29
1.83062e-28
8.26818e-28
3.5712e-27
1.35842e-26
4.46326e-26
3.14889e-25
2.23008e-24
1.4578e-23
7.25007e-23
3.5985e-22
2.3107e-21
1.09694e-20
4.79054e-20
1.80432e-19
5.63586e-19
1.27493e-18
1.61761e-18
3.64942e-18
4.41381e-18
3.26144e-18
2.39215e-18
1.14069e-18
3.03673e-19
2.73972e-26
8.13145e-26
7.27441e-26
3.86558e-26
1.55844e-26
4.76848e-27
1.12508e-27
1.69959e-28
1.68698e-28
6.34947e-28
2.06248e-27
9.84058e-27
4.49833e-26
2.05259e-25
7.25771e-25
6.228e-24
4.32848e-23
3.28563e-22
1.52892e-21
7.47672e-21
3.77728e-20
1.93767e-19
7.12128e-19
2.77895e-18
8.69181e-18
1.86155e-17
3.07006e-17
3.45858e-17
3.97646e-17
2.72449e-17
1.33138e-17
5.14663e-18
9.17773e-19
7.9545e-26
1.85823e-25
1.92236e-25
1.1845e-25
4.35714e-26
1.43719e-26
2.76483e-27
7.85588e-28
4.05823e-28
1.48829e-27
5.77408e-27
2.62166e-26
1.26306e-25
6.31351e-25
3.40753e-24
1.59142e-23
1.28738e-22
9.54228e-22
5.83578e-21
3.14056e-20
1.63747e-19
8.14154e-19
4.92127e-18
1.59133e-17
3.90378e-17
1.33793e-16
1.73456e-16
3.1792e-16
3.57633e-16
2.48483e-16
1.54708e-16
6.47609e-17
2.0294e-17
6.75622e-19
6.12558e-18
1.594e-25
3.48334e-25
4.30478e-25
2.93803e-25
1.37484e-25
3.46246e-26
9.05273e-27
1.95247e-27
1.51322e-27
4.10009e-27
1.66701e-26
5.67471e-26
3.62761e-25
1.89492e-24
8.75616e-24
5.41313e-23
3.32859e-22
2.07712e-21
1.52742e-20
8.48381e-20
4.59335e-19
2.57539e-18
1.32466e-17
8.02092e-17
3.18213e-16
6.9171e-16
1.76941e-15
2.338e-15
2.83143e-15
3.1792e-15
2.42579e-15
8.32772e-16
8.48782e-17
4.29942e-16
4.42015e-17
2.87543e-16
3.75729e-16
3.67772e-18
3.16386e-17
1.40006e-24
1.59068e-24
1.04536e-24
6.60949e-25
3.4483e-25
1.20839e-25
3.46267e-26
7.92511e-27
3.14855e-27
1.07136e-26
5.07804e-26
2.01194e-25
6.73883e-25
5.19236e-24
2.64634e-23
1.89054e-22
1.21028e-21
7.27188e-21
4.48961e-20
4.13179e-19
1.73579e-18
1.22653e-17
5.12764e-17
2.75675e-16
1.14409e-15
5.97324e-15
1.27776e-14
2.77049e-14
3.39735e-14
4.0423e-14
3.99226e-14
1.83251e-14
1.60491e-15
9.58785e-15
2.01613e-15
1.69385e-16
1.61648e-15
1.43326e-15
1.31247e-17
1.32658e-16
6.08497e-24
6.82629e-24
2.86165e-24
1.44183e-24
7.94333e-25
3.21855e-25
9.54499e-26
2.7052e-26
1.49421e-26
2.59948e-26
1.37522e-25
5.28893e-25
2.30194e-24
1.19264e-23
8.09634e-23
4.52072e-22
3.64824e-21
2.21319e-20
1.56484e-19
9.19998e-19
7.36047e-18
4.33247e-17
2.18791e-16
8.08802e-16
4.21814e-15
2.171e-14
1.18444e-13
2.11632e-13
4.03859e-13
4.71899e-13
5.05523e-13
3.65579e-13
4.96254e-14
2.68821e-13
1.06557e-14
6.43546e-14
1.10622e-14
1.00089e-15
1.01086e-14
7.81079e-15
3.11498e-17
5.56697e-16
4.1079e-23
3.99623e-23
1.05884e-23
3.39253e-24
1.83281e-24
6.44156e-25
2.82779e-25
6.9591e-26
5.54e-26
9.5423e-26
3.24905e-25
1.69588e-24
5.66093e-24
2.99447e-23
1.99137e-22
1.25756e-21
8.69863e-21
6.43068e-20
4.4783e-19
3.89062e-18
1.68922e-17
1.13631e-16
7.70428e-16
3.60392e-15
1.88261e-14
8.85526e-14
4.11679e-13
2.05071e-12
3.1274e-12
5.35476e-12
6.13566e-12
5.87977e-12
1.25306e-12
5.80814e-12
3.63068e-13
1.88646e-12
7.34766e-14
4.52701e-13
7.39628e-14
5.27618e-15
6.38645e-14
4.68095e-14
1.89418e-16
2.66279e-15
2.84116e-22
2.40459e-22
5.15768e-23
1.50985e-23
4.1062e-24
1.85284e-24
6.41671e-25
2.50016e-25
1.46377e-25
3.80418e-25
1.01157e-24
4.03414e-24
2.02443e-23
8.02077e-23
4.73987e-22
3.306e-21
2.51565e-20
1.61653e-19
1.28047e-18
9.82725e-18
7.37699e-17
4.21014e-16
2.18903e-15
1.47518e-14
8.87284e-14
4.59074e-13
2.03181e-12
7.21691e-12
3.08697e-11
4.20737e-11
6.61073e-11
7.54413e-11
2.34379e-11
9.42623e-11
9.0448e-12
4.01427e-11
2.55834e-12
1.32302e-11
4.98397e-13
3.07161e-12
4.78432e-13
2.85644e-14
3.90048e-13
2.67039e-13
6.26758e-16
1.30033e-14
2.11179e-21
1.56646e-21
3.63638e-22
6.35139e-23
1.34084e-23
4.02098e-24
1.63189e-24
5.64462e-25
4.81936e-25
8.91996e-25
3.30651e-24
1.09534e-23
4.70332e-23
2.62341e-22
1.33194e-21
9.32656e-21
6.67012e-20
4.39415e-19
3.63705e-18
2.03354e-17
1.88593e-16
1.32276e-15
8.21894e-15
5.90114e-14
3.85051e-13
2.22364e-12
1.11737e-11
4.23424e-11
1.18078e-10
4.10955e-10
5.25971e-10
7.79372e-10
3.37168e-10
1.19275e-09
1.64662e-10
6.34147e-10
6.28801e-11
2.75482e-10
1.74009e-11
8.96279e-11
3.25977e-12
2.0127e-11
2.98143e-12
1.50543e-13
2.3043e-12
1.51672e-12
3.07868e-15
6.81362e-14
7.45582e-21
8.18946e-21
2.11227e-21
3.33583e-22
5.35093e-23
1.05946e-23
2.99902e-24
1.75317e-24
1.24726e-24
3.46569e-24
9.15029e-24
3.36863e-23
1.2508e-22
5.06726e-22
3.51066e-21
2.57227e-20
1.94384e-19
1.22535e-18
8.65798e-18
7.08865e-17
4.72124e-16
3.81297e-15
3.18038e-14
2.36465e-13
1.55972e-12
9.58633e-12
5.40359e-11
2.46773e-10
8.11731e-10
1.65797e-09
4.9052e-09
6.24324e-09
3.75617e-09
1.1527e-08
2.28668e-09
7.76064e-09
1.1147e-09
4.21843e-09
4.22326e-10
1.82582e-09
1.14304e-10
5.86733e-10
2.0634e-11
1.28384e-10
1.81571e-11
8.55014e-13
1.38724e-11
9.16854e-12
1.6293e-14
3.81082e-13
4.71352e-20
4.35309e-20
1.1156e-20
2.34716e-21
3.99239e-22
4.61737e-23
8.23791e-24
4.19772e-24
3.37885e-24
7.48492e-24
2.64016e-23
9.65701e-23
4.08464e-22
1.79713e-21
7.43084e-21
6.12584e-20
4.75943e-19
3.78882e-18
2.45013e-17
1.76843e-16
1.31848e-15
1.18222e-14
1.10603e-13
9.34582e-13
6.49218e-12
3.98871e-11
2.28899e-10
1.19172e-09
4.93843e-09
1.47916e-08
1.88265e-08
5.27307e-08
3.18706e-08
8.82764e-08
2.45568e-08
7.24432e-08
1.49337e-08
4.97609e-08
7.27764e-09
2.70335e-08
2.74472e-09
1.1764e-08
7.33926e-10
3.77115e-09
1.2905e-10
8.19524e-10
1.14313e-10
5.10501e-12
8.77849e-11
5.75713e-11
8.59563e-14
2.21194e-12
1.41392e-19
1.76068e-19
5.68062e-20
1.08787e-20
2.04644e-21
2.88069e-22
3.83349e-23
9.09018e-24
1.35591e-23
2.77606e-23
6.77314e-23
2.10438e-22
9.85478e-22
4.20453e-21
2.6591e-20
1.56422e-19
9.26778e-19
7.87101e-18
7.18963e-17
5.10426e-16
4.22281e-15
3.57542e-14
3.49547e-13
3.28608e-12
2.60761e-11
1.7281e-10
9.63678e-10
4.97547e-09
2.34991e-08
9.29765e-08
2.62594e-07
1.34965e-07
2.28623e-07
6.5193e-07
2.01351e-07
5.37939e-07
1.55054e-07
4.50642e-07
9.42493e-08
3.0965e-07
4.64157e-08
1.70311e-07
1.7643e-08
7.54862e-08
4.75614e-09
2.45699e-08
8.375e-10
5.4055e-09
7.47173e-10
3.1342e-11
5.71365e-10
3.688e-10
4.80217e-13
1.30189e-11
6.58505e-19
6.95554e-19
2.31929e-19
6.83046e-20
1.1916e-20
2.13067e-21
2.38814e-22
3.87894e-23
3.68075e-23
8.48338e-23
2.19209e-22
7.89458e-22
2.86787e-21
1.36476e-20
6.3767e-20
4.36581e-19
3.28899e-18
1.87427e-17
1.31505e-16
1.15507e-15
1.05365e-14
1.02063e-13
1.05627e-12
1.05104e-11
9.18455e-11
6.7994e-10
4.21388e-09
2.08929e-08
9.61891e-08
4.28744e-07
1.67728e-06
4.74769e-06
2.02117e-06
0
1.41113e-06
3.83439e-06
1.23982e-06
3.33685e-06
9.4904e-07
2.73528e-06
5.86691e-07
1.88791e-06
2.96411e-07
1.07171e-06
1.14717e-07
4.85579e-07
3.13883e-08
1.60936e-07
5.5724e-09
3.61764e-08
4.96116e-09
1.94406e-10
3.75898e-09
2.37812e-09
2.69405e-12
7.64563e-11
2.49168e-18
1.97766e-18
1.06349e-18
2.66336e-19
5.51906e-20
1.01595e-20
1.58311e-21
2.23208e-22
1.10398e-22
2.2421e-22
7.5787e-22
2.22544e-21
6.46094e-21
2.94814e-20
1.91715e-19
1.01705e-18
7.41453e-18
5.95638e-17
3.69388e-16
2.95649e-15
2.85684e-14
2.88151e-13
3.09771e-12
3.2198e-11
3.03723e-10
2.42594e-09
1.62147e-08
8.64037e-08
4.08705e-07
1.72859e-06
7.4809e-06
2.74561e-05
7.83146e-05
1.09199e-05
4.42428e-05
9.00597e-06
2.525e-05
7.61344e-06
2.1214e-05
5.71966e-06
1.67549e-05
3.57539e-06
1.13e-05
1.86616e-06
6.48609e-06
7.41012e-07
3.04034e-06
2.07095e-07
1.04286e-06
3.72507e-08
2.40777e-07
3.29886e-08
1.1977e-09
2.47687e-08
1.51834e-08
1.47651e-11
4.33802e-10
6.71301e-18
7.24137e-18
3.52286e-18
1.20875e-18
2.32128e-19
3.56476e-20
7.8617e-21
1.09747e-21
3.43563e-22
7.40298e-22
1.77003e-21
5.82136e-21
2.36115e-20
9.45633e-20
4.58888e-19
2.86038e-18
1.88019e-17
1.40199e-16
9.5699e-16
8.39073e-15
7.64842e-14
7.94807e-13
8.76977e-12
9.63829e-11
9.62866e-10
8.31618e-09
5.73926e-08
3.24722e-07
1.61496e-06
7.3325e-06
2.77744e-05
9.94052e-05
0.000289148
0.000340633
0.000626815
6.85234e-05
0.000171634
5.78808e-05
0.000152375
4.7168e-05
0.000128119
3.4421e-05
9.94364e-05
2.11385e-05
6.5806e-05
1.11517e-05
3.75296e-05
4.63415e-06
1.79379e-05
1.33917e-06
6.51697e-06
2.4612e-07
1.55928e-06
2.17958e-07
7.11847e-09
1.61366e-07
9.40103e-08
7.72623e-11
2.33421e-09
1.53947e-17
1.83468e-17
1.31138e-17
4.37467e-18
8.47934e-19
1.83686e-19
3.13995e-20
5.15527e-21
1.16178e-21
2.0501e-21
4.834e-21
1.60502e-20
5.32303e-20
2.43072e-19
1.17993e-18
6.56406e-18
4.29766e-17
3.92806e-16
2.67528e-15
2.17124e-14
2.10412e-13
2.15054e-12
2.38298e-11
2.76327e-10
2.99783e-09
2.74425e-08
1.95613e-07
1.1534e-06
5.96802e-06
2.63691e-05
9.61716e-05
0.000265992
0.000661422
0.000886181
0.00121851
0.000962659
0.00130429
0.00034876
0.000640285
0.000304009
0.000625238
0.00025183
0.00056592
0.000188457
0.000465378
0.000117251
0.000323791
6.27563e-05
0.000196256
2.70036e-05
9.71953e-05
8.3017e-06
3.73052e-05
1.59086e-06
9.66393e-06
1.4055e-06
4.01863e-08
1.01519e-06
5.51849e-07
3.69469e-10
1.14287e-08
3.30263e-17
4.6798e-17
3.64936e-17
1.62159e-17
4.6634e-18
9.41481e-19
1.20658e-19
2.17728e-20
3.28646e-21
5.55872e-21
1.32091e-20
4.12168e-20
1.42137e-19
5.85386e-19
3.07224e-18
1.962e-17
1.45027e-16
8.20448e-16
6.73003e-15
6.11198e-14
5.81364e-13
5.77228e-12
6.25816e-11
7.44164e-10
8.86752e-09
8.56307e-08
6.39774e-07
3.94589e-06
2.00357e-05
8.14628e-05
0.000250722
0.00060761
0.00116791
0.00151815
0.0017273
0.00163608
0.00199994
0.00176713
0.00215635
0.000997378
0.00138714
0.000970886
0.00142651
0.0008966
0.00140562
0.000746164
0.00131761
0.000516281
0.00110403
0.000304805
0.000770251
0.000139515
0.000436065
4.66757e-05
0.000184226
9.91404e-06
5.4088e-05
8.70525e-06
2.06005e-07
6.09253e-06
3.00042e-06
1.52649e-09
4.78247e-08
5.56764e-17
9.75733e-17
8.26229e-17
4.45223e-17
1.50424e-17
2.94019e-18
7.735e-19
1.20863e-19
1.76795e-20
1.49397e-20
4.35178e-20
9.8902e-20
3.68734e-19
1.48759e-18
7.41582e-18
3.9016e-17
3.54594e-16
2.16883e-15
1.85732e-14
1.7138e-13
1.60759e-12
1.54882e-11
1.61882e-10
1.91156e-09
2.39551e-08
2.48749e-07
1.97212e-06
1.24474e-05
5.89612e-05
0.000203769
0.000512904
0.00101647
0.00174691
0.00272944
0.00227348
0.00276729
0.00252657
0.00289155
0.00273464
0.00314938
0.00187293
0.00232325
0.00191346
0.00244435
0.00189191
0.00249875
0.00177226
0.00246907
0.00150467
0.00228283
0.00107516
0.00192675
0.000578175
0.00141162
0.000222937
0.000718977
5.56879e-05
0.00025259
4.87664e-05
9.06712e-07
3.35295e-05
1.45817e-05
4.98284e-09
1.56831e-07
8.29595e-17
1.71185e-16
1.70101e-16
1.07973e-16
4.7094e-17
1.43386e-17
2.73466e-18
4.18894e-19
4.75056e-20
4.54885e-20
1.06207e-19
3.4182e-19
1.02426e-18
4.05857e-18
2.19408e-17
1.05205e-16
7.27644e-16
5.89309e-15
5.16355e-14
4.77099e-13
4.45013e-12
4.17385e-11
4.15955e-10
4.79429e-09
6.01723e-08
6.48682e-07
5.61074e-06
3.44053e-05
0.000145221
0.000405749
0.000826867
0.00143432
0.002282
0.00316863
0.00358794
0.00361172
0.00321535
0.00346774
0.00349636
0.00371437
0.00377621
0.00398049
0.00293499
0.00340308
0.00306856
0.00362647
0.00311528
0.00378114
0.00307264
0.00382357
0.00284046
0.00370394
0.00238537
0.00340513
0.00173596
0.00288942
0.000834479
0.00205786
0.000256288
0.000910558
0.000222698
3.18148e-06
0.000151556
5.67837e-05
9.58283e-09
2.95595e-07
2.5684e-16
2.91214e-16
2.3901e-16
9.95302e-17
3.43333e-17
8.27098e-18
2.00291e-18
1.79502e-19
1.27613e-19
2.9417e-19
8.51328e-19
2.38862e-18
1.06573e-17
4.66583e-17
3.13675e-16
2.13627e-15
1.57998e-14
1.42051e-13
1.32252e-12
1.22782e-11
1.13135e-10
1.07491e-09
1.16023e-08
1.42574e-07
1.58066e-06
1.38165e-05
8.14909e-05
0.00028654
0.000637226
0.00113751
0.0018456
0.00263729
0.00318441
0.00359372
0.00351658
0.00379276
0.00371456
0.00382196
0.00382509
0.00405474
0.00403179
0.00429215
0.00425911
0.00403185
0.00424059
0.00426452
0.00450443
0.00444784
0.00476073
0.0045274
0.00496948
0.00438405
0.00510899
0.00397635
0.0050339
0.00336325
0.00457127
0.00229739
0.00381172
0.000909206
0.00244286
0.000792712
6.51581e-06
0.000543463
0.000236613
6.22456e-05
1.17853e-08
2.26233e-07
4.29859e-16
4.18524e-16
2.74173e-16
1.15712e-16
2.19024e-17
6.00379e-18
7.96014e-19
3.32407e-19
7.56914e-19
2.23256e-18
6.96642e-18
2.33524e-17
1.22043e-16
6.52475e-16
4.91539e-15
4.23652e-14
3.91414e-13
3.64425e-12
3.37352e-11
3.07073e-10
2.81343e-09
2.8217e-08
3.26934e-07
3.63156e-06
3.04295e-05
0.000157599
0.000451027
0.00088666
0.00145328
0.00218431
0.00279922
0.0031363
0.00328417
0.00360092
0.00335317
0.00370084
0.00346061
0.00398147
0.00387873
0.00418113
0.00403994
0.0043935
0.00420245
0.00454506
0.00449937
0.00482368
0.00476915
0.00512447
0.00507051
0.00542074
0.00540962
0.00560484
0.0057757
0.00558909
0.00606112
0.00511154
0.00608886
0.00416041
0.00557914
0.00241901
0.00436704
0.00338355
0.0012628
0.00231821
0.000131992
1.43324e-05
7.45909e-05
0.000754265
0.00189795
0.00195475
0.000521295
5.16673e-08
3.21228e-05
1.41636e-05
2.23566e-06
6.39021e-16
4.96209e-16
2.4084e-16
6.91906e-17
1.61985e-17
3.78023e-18
8.46408e-19
1.6055e-18
5.49659e-18
1.5351e-17
5.66627e-17
2.53543e-16
1.6609e-15
1.26309e-14
1.1507e-13
1.07368e-12
1.00542e-11
9.2578e-11
8.3313e-10
7.41643e-09
6.98826e-08
7.58744e-07
7.99555e-06
5.99244e-05
0.000255635
0.000626767
0.00112017
0.00174864
0.00239614
0.00279018
0.0030283
0.00292802
0.00257868
0.00232727
0.00317912
0.00287432
0.00316164
0.0028056
0.00380845
0.00350638
0.00391512
0.00355073
0.0040326
0.00360551
0.00463997
0.00439022
0.00493873
0.00466285
0.0053023
0.00505527
0.00568817
0.00548403
0.00609719
0.00596053
0.00648905
0.00642289
0.00652178
0.00665594
0.00677249
0.00509662
0.00585987
0.00677664
0.00634528
0.00431073
0.00329841
0.0044463
0.0052207
0.00320702
0.000325261
0.000171107
0.00150051
0.00277692
0.00308823
0.00108938
4.79794e-06
1.47788e-07
1.75382e-06
8.17732e-05
3.22136e-05
7.66975e-16
5.03373e-16
2.07923e-16
3.59317e-17
8.65333e-18
3.43036e-18
4.24904e-18
1.09507e-17
3.73929e-17
1.47788e-16
5.97801e-16
3.9319e-15
3.33635e-14
3.09059e-13
2.94083e-12
2.7656e-11
2.55889e-10
2.28004e-09
1.97903e-08
1.75923e-07
1.83042e-06
1.70431e-05
0.000106475
0.000370244
0.000802177
0.00134964
0.00198675
0.00249435
0.00275379
0.00284574
0.0025052
0.00154956
0.00184299
0.00148873
0.0024576
0.00212833
0.00233649
0.00197682
0.00314545
0.00273159
0.00313803
0.00266805
0.00316667
0.00263757
0.00422703
0.00370943
0.00457306
0.00395765
0.00505737
0.00440875
0.00564093
0.00503331
0.00621166
0.00573415
0.00678613
0.0067096
0.00657281
0.00635345
0.006997
0.0071213
0.00689816
0.00693481
0.00595904
0.0065265
0.00717544
0.0069275
0.00533484
0.00433899
0.00532291
0.00608422
0.00424778
0.000695634
0.000390877
0.002401
0.00402878
0.00373366
0.00190458
1.20106e-05
3.85291e-07
3.58767e-06
0.000184943
7.56765e-05
8.09035e-16
4.61608e-16
1.604e-16
2.42019e-17
9.40416e-18
9.97219e-18
3.23791e-17
1.04007e-16
3.19474e-16
1.50547e-15
9.96759e-15
8.38246e-14
8.16575e-13
7.95834e-12
7.64996e-11
7.09661e-10
6.34141e-09
5.43756e-08
4.6965e-07
4.498e-06
3.52352e-05
0.000174721
0.000488503
0.000967792
0.00155978
0.00214254
0.00248644
0.00267177
0.00259367
0.00203003
0.0010405
0.000718259
0.0005604
0.00112446
0.000900985
0.00165434
0.00137008
0.00147563
0.00117657
0.00222547
0.00182459
0.00213867
0.0016936
0.00211153
0.00161039
0.0033076
0.00268092
0.00366926
0.00292475
0.00428072
0.00347297
0.00501665
0.00422183
0.0061024
0.00575749
0.00543578
0.00502636
0.00685967
0.00671079
0.00647764
0.00618681
0.00728566
0.00727567
0.00710609
0.00701461
0.006668
0.00708294
0.0074509
0.00733858
0.00613774
0.00528775
0.00615665
0.0067679
0.00516105
0.00132828
0.000786179
0.00332305
0.00495541
0.00465463
0.00279907
2.55381e-05
6.7131e-07
6.61337e-06
0.000394343
0.000159896
7.60847e-16
3.13905e-16
9.25112e-17
2.41147e-17
2.26604e-17
7.42659e-17
2.1308e-16
6.67225e-16
2.92817e-15
2.26497e-14
2.11848e-13
2.0526e-12
2.11492e-11
2.08447e-10
1.98513e-09
1.77712e-08
1.529e-07
1.3297e-06
1.12211e-05
7.06553e-05
0.000262487
0.000612132
0.00111115
0.00172282
0.002221
0.00245992
0.00253971
0.00227745
0.00156706
0.000698876
0.000225732
0.000245138
0.00014921
0.000504901
0.00035252
0.00091559
0.000692043
0.000706209
0.000484515
0.00130909
0.000978302
0.00116811
0.000804622
0.00111556
0.000699563
0.00223897
0.00162687
0.00267718
0.00192905
0.00340014
0.00259158
0.00466577
0.00423161
0.00386506
0.00343472
0.00585294
0.00548296
0.0050946
0.00468992
0.00684722
0.00660005
0.00629644
0.00594941
0.00744232
0.00717503
0.00733761
0.00699404
0.00721381
0.00748953
0.00761113
0.0076142
0.00683553
0.00611336
0.00685881
0.00732217
0.00599887
0.00215651
0.00141741
0.00423889
0.00580332
0.00551274
0.0036976
5.31622e-05
6.9505e-07
1.09647e-05
0.000759424
0.000325921
6.39967e-16
1.95657e-16
6.33922e-17
5.50911e-17
1.41102e-16
4.98666e-16
1.38834e-15
6.44825e-15
5.03473e-14
4.90696e-13
5.23356e-12
5.30497e-11
5.48903e-10
5.37071e-09
4.94435e-08
4.2672e-07
3.75113e-06
2.70088e-05
0.000131319
0.000364664
0.000734659
0.0012552
0.00185548
0.00223121
0.00240476
0.00236637
0.00194199
0.00116313
0.000482683
0.000138594
2.31688e-05
1.92704e-05
5.02216e-05
2.60845e-05
0.000138881
8.51458e-05
0.000327133
0.000216234
0.000210147
0.000126462
0.000520728
0.000334957
0.000427177
0.000250707
0.000475928
0.000253688
0.00128958
0.000814131
0.00185827
0.0012633
0.00267958
0.00199471
0.0042871
0.00388282
0.00349148
0.00310186
0.00557117
0.00517286
0.0047649
0.00435564
0.00673431
0.00642095
0.00606543
0.0056805
0.00750819
0.00715084
0.00731933
0.0068833
0.00762777
0.00777327
0.00768861
0.00778224
0.00739908
0.00682931
0.007439
0.00774799
0.00673089
0.00302884
0.00221867
0.00510182
0.00655751
0.00628388
0.00456768
0.0001066
8.20104e-07
1.87015e-05
0.00132595
0.000626512
4.87937e-16
1.46646e-16
1.15914e-16
3.47327e-16
1.13604e-15
4.28687e-15
1.44946e-14
1.0071e-13
1.07835e-12
1.12337e-11
1.36723e-10
1.36239e-09
1.38334e-08
1.3062e-07
1.14979e-06
9.66509e-06
5.9851e-05
0.000214673
0.000476032
0.000858376
0.00138367
0.0019322
0.00221556
0.00231968
0.00215933
0.00161145
0.000845991
0.000333714
8.59385e-05
7.94393e-06
2.55188e-06
1.24746e-06
7.04705e-06
3.54166e-06
2.3212e-05
1.29271e-05
7.29415e-05
4.1242e-05
4.1241e-05
2.24424e-05
0.000140186
7.63052e-05
0.000128011
6.36471e-05
0.000227887
0.000104737
0.000800034
0.000455424
0.0014338
0.000975895
0.00253775
0.00218615
0.00163018
0.00192448
0.00395518
0.00356722
0.00319501
0.0028448
0.00527786
0.00486854
0.00446143
0.00406273
0.00656309
0.0062034
0.00581565
0.00541342
0.00750264
0.00704887
0.00723453
0.0067264
0.00792542
0.00795634
0.00769913
0.0078777
0.00784293
0.00742931
0.00790628
0.00806498
0.00735801
0.00388896
0.0030637
0.00589692
0.0072114
0.00696786
0.0053836
0.000208846
1.21888e-06
3.56302e-05
0.00208471
0.00109313
3.22434e-16
2.50052e-16
7.71452e-16
2.6751e-15
1.05362e-14
3.36144e-14
2.04741e-13
1.92201e-12
2.41503e-11
2.7685e-10
3.51043e-09
3.41712e-08
3.31817e-07
2.93814e-06
2.23843e-05
0.000113105
0.000309277
0.000590441
0.000978118
0.00149909
0.00197151
0.00218522
0.00222198
0.00193851
0.00131743
0.000623732
0.000231185
5.28503e-05
5.97931e-06
4.14532e-07
4.41551e-07
4.62006e-07
2.75373e-07
1.27721e-06
7.27023e-07
3.79467e-06
2.18126e-06
1.231e-05
6.78358e-06
9.72579e-06
5.79452e-06
3.25989e-05
1.73733e-05
4.8767e-05
2.479e-05
0.000152775
6.82469e-05
0.000608226
0.000328944
0.00141173
0.00117159
0.000883554
0.002378
0.00209356
0.00159008
0.00183623
0.00368257
0.00332253
0.00298612
0.00267222
0.00500633
0.00460678
0.00422273
0.00386382
0.00636623
0.00598144
0.00558443
0.00519008
0.00744207
0.00691397
0.00712897
0.0065578
0.0081294
0.00806997
0.00766746
0.0079089
0.00818457
0.00792491
0.00827703
0.00829443
0.00788626
0.00472052
0.00389398
0.00661738
0.00777475
0.00757166
0.00613602
0.000417037
2.71679e-06
7.71532e-05
0.00291096
0.00179497
5.41568e-16
1.51352e-15
5.99967e-15
2.33773e-14
9.25981e-14
4.13748e-13
3.69126e-12
4.13549e-11
5.88067e-10
6.84549e-09
8.78387e-08
7.555e-07
6.92088e-06
4.68695e-05
0.000180582
0.000407616
0.000704729
0.00109193
0.00158953
0.00198248
0.00214235
0.0021074
0.00172719
0.00108138
0.000478923
0.000162039
3.29908e-05
3.65231e-06
2.14665e-07
1.13659e-07
6.17657e-08
2.23615e-07
1.4633e-07
5.84899e-07
3.59406e-07
1.39857e-06
9.06571e-07
3.61233e-06
2.265e-06
5.42252e-06
3.61739e-06
1.40954e-05
8.51068e-06
3.32498e-05
1.83724e-05
0.000134254
6.10717e-05
0.00055148
0.000293924
0.00136936
0.00116103
0.00098758
0.00078881
0.00233663
0.00207214
0.00158859
0.00182371
0.00352624
0.0032075
0.00290556
0.00261456
0.00481494
0.00445884
0.00412177
0.0037971
0.00618192
0.00580477
0.00543916
0.00508936
0.00737198
0.0067827
0.00704881
0.00642794
0.00826592
0.00812821
0.00763945
0.00791087
0.00844248
0.00832972
0.00856847
0.00845784
0.00833057
0.00550561
0.00471031
0.00726277
0.00826071
0.00810345
0.00682627
0.000792019
3.61366e-05
0.000314627
0.00374536
0.00265441
4.50805e-15
1.48973e-14
5.74848e-14
2.5187e-13
8.79021e-13
6.54232e-12
7.75731e-11
9.39522e-10
1.41713e-08
1.6957e-07
1.69633e-06
1.41064e-05
8.19935e-05
0.00025634
0.000508153
0.000817705
0.00120746
0.0016764
0.00197423
0.00209033
0.00198184
0.00153633
0.000903352
0.000378946
0.000116744
2.13653e-05
2.43036e-06
1.72521e-07
3.85781e-08
2.3708e-08
7.18025e-08
4.44499e-08
1.71311e-07
1.14004e-07
4.38949e-07
2.64116e-07
1.00759e-06
6.8151e-07
2.44229e-06
1.58943e-06
4.65569e-06
3.1618e-06
1.13101e-05
7.08472e-06
3.05996e-05
1.73058e-05
0.000146186
6.38335e-05
0.000646334
0.000482629
0.000316156
0.00137064
0.00116936
0.00103481
0.000851443
0.00239503
0.00214424
0.0016672
0.00190145
0.00348981
0.003198
0.0029195
0.00265364
0.00475151
0.00443394
0.00413776
0.0038641
0.00607744
0.00573508
0.00540773
0.00510662
0.00733662
0.00671641
0.00702761
0.00638377
0.0083538
0.00816319
0.00764438
0.00791699
0.00863665
0.00866138
0.00879569
0.00857856
0.00870693
0.00624321
0.00549786
0.00784324
0.00868451
0.00857878
0.00746034
0.00169527
0.000791207
0.00185549
0.0045999
0.00372885
4.87653e-14
1.43475e-13
5.79771e-13
1.98186e-12
1.23829e-11
1.22931e-10
1.70674e-09
2.21577e-08
3.20084e-07
2.95286e-06
2.59805e-05
0.000126294
0.000334412
0.000605361
0.00092684
0.00131838
0.00172841
0.00195519
0.00202625
0.00184878
0.00136587
0.000767489
0.000307087
8.62217e-05
1.42676e-05
1.66099e-06
1.22045e-07
1.30301e-08
2.27262e-08
1.37764e-08
5.37285e-08
3.58733e-08
1.36873e-07
8.37081e-08
3.68777e-07
2.21566e-07
8.74648e-07
5.92614e-07
2.14267e-06
1.36215e-06
4.41641e-06
2.96709e-06
1.08462e-05
6.7484e-06
3.17439e-05
1.77374e-05
0.000231736
0.000144919
8.42064e-05
0.000685525
0.00053678
0.000319075
0.000460492
0.00144406
0.00123314
0.00114298
0.000942383
0.00259548
0.00233938
0.00183361
0.00208434
0.00360479
0.00335246
0.00310227
0.00285044
0.00483767
0.0045925
0.00436394
0.00414357
0.00607285
0.00579495
0.00555168
0.00534068
0.00737336
0.00673307
0.00712655
0.00647182
0.00842416
0.00821061
0.00774366
0.00797332
0.00879262
0.00893056
0.00898651
0.00868337
0.00902726
0.006935
0.00625892
0.00837276
0.00906312
0.00901447
0.00804644
0.003368
0.000404926
0.00251462
0.00549356
0.00489128
4.7792e-13
1.35905e-12
5.21911e-12
2.38362e-11
2.17282e-10
2.51465e-09
3.97355e-08
4.71182e-07
5.51148e-06
4.14276e-05
0.000176168
0.000411325
0.000697572
0.00102596
0.00141212
0.00175932
0.00192573
0.00195425
0.00171198
0.00121424
0.000657947
0.000251352
6.43642e-05
9.86609e-06
1.04337e-06
8.5228e-08
7.98328e-09
7.96404e-09
3.70085e-09
1.74011e-08
1.11532e-08
4.35696e-08
2.73384e-08
1.05196e-07
6.76941e-08
2.78888e-07
1.68807e-07
7.72347e-07
4.86158e-07
1.99498e-06
1.23702e-06
4.34514e-06
2.87415e-06
1.11187e-05
6.6952e-06
3.64081e-05
2.00372e-05
0.000270544
0.000177259
0.000146791
8.5447e-05