/*--------------------------------*- C++ -*----------------------------------*\
  =========                 |
  \\      /  F ield         | OpenFOAM: The Open Source CFD Toolbox
   \\    /   O peration     | Website:  https://openfoam.org
    \\  /    A nd           | Version:  dev
     \\/     M anipulation  |
\*---------------------------------------------------------------------------*/
FoamFile
{
    version     2.0;
    format      ascii;
    class       volScalarField;
    location    "2500";
    object      G;
}
// * * * * * * * * * * * * * * * * * * * * * * * * * * * * * * * * * * * * * //

dimensions      [1 0 -3 0 0 0 0];

internalField   nonuniform List<scalar> 
9575
(
3731.79
3736.84
3738.05
3741.28
3743.12
3745.01
3745.09
3747.58
3750.09
3752.62
3748.28
3751.41
3754.56
3757.72
3760.91
3750.85
3754.6
3758.38
3762.18
3766.01
3769.87
3752.83
3757.17
3761.56
3765.99
3770.47
3774.98
3779.54
3754.22
3759.14
3764.12
3769.15
3774.26
3779.43
3784.65
3789.92
3755.05
3760.53
3766.06
3771.68
3777.39
3783.2
3789.09
3795.04
3801.05
3755.33
3761.34
3767.42
3773.59
3779.88
3786.29
3792.83
3799.46
3806.17
3812.96
3755.09
3761.6
3768.2
3774.9
3781.74
3788.73
3795.87
3803.15
3810.57
3818.08
3825.66
3754.34
3761.34
3768.42
3775.63
3782.99
3790.52
3798.23
3806.13
3814.21
3822.44
3830.78
3839.22
3753.11
3760.56
3768.11
3775.79
3783.64
3791.68
3799.93
3808.41
3817.11
3826.02
3835.11
3844.33
3853.66
3751.42
3759.3
3767.29
3775.41
3783.72
3792.24
3801
3810.01
3819.29
3828.83
3838.62
3848.61
3858.76
3869.04
3749.3
3757.58
3765.98
3774.52
3783.25
3792.22
3801.44
3810.95
3820.76
3830.89
3841.32
3852.03
3862.99
3874.13
3885.41
3746.77
3755.43
3764.2
3773.13
3782.26
3791.63
3801.29
3811.25
3821.56
3832.21
3843.23
3854.6
3866.3
3878.29
3890.49
3902.85
3743.85
3752.86
3761.99
3771.28
3780.77
3790.52
3800.57
3810.95
3821.69
3832.83
3844.38
3856.35
3868.72
3881.48
3894.56
3907.9
3921.42
3740.58
3749.92
3759.37
3768.98
3778.81
3788.9
3799.31
3810.06
3821.21
3832.78
3844.81
3857.3
3870.28
3883.73
3897.61
3911.88
3926.43
3941.21
3736.98
3746.61
3756.36
3766.27
3776.41
3786.81
3797.53
3808.62
3820.12
3832.08
3844.53
3857.49
3871
3885.06
3899.66
3914.75
3930.3
3946.18
3962.32
3733.07
3742.97
3752.99
3763.18
3773.59
3784.27
3795.28
3806.66
3818.47
3830.76
3843.58
3856.95
3870.93
3885.52
3900.74
3916.57
3932.98
3949.91
3967.24
3984.86
3728.89
3739.03
3749.29
3759.73
3770.38
3781.31
3792.57
3804.21
3816.3
3828.88
3842
3855.73
3870.09
3885.13
3900.89
3917.35
3934.52
3952.36
3970.81
3989.72
4008.96
3724.44
3734.81
3745.29
3755.94
3766.81
3777.96
3789.44
3801.31
3813.63
3826.45
3839.84
3853.85
3868.54
3883.96
3900.15
3917.15
3934.97
3953.59
3972.99
3993.09
4013.74
4034.78
3719.77
3730.33
3741
3751.85
3762.91
3774.25
3785.92
3797.98
3810.49
3823.52
3837.12
3851.37
3866.32
3882.04
3898.59
3916.01
3934.36
3953.64
3973.85
3994.96
4016.89
4039.47
4062.49
3714.88
3725.61
3736.46
3747.48
3758.71
3770.21
3782.04
3794.26
3806.94
3820.12
3833.9
3848.33
3863.48
3879.43
3896.25
3914.01
3932.76
3952.57
3973.45
3995.39
4018.38
4042.34
4067.06
4092.31
3709.81
3720.69
3731.69
3742.85
3754.23
3765.87
3777.83
3790.19
3802.99
3816.3
3830.2
3844.77
3860.07
3876.18
3893.2
3911.19
3930.25
3950.44
3971.83
3994.46
4018.32
4043.39
4069.6
4096.72
4124.53
3704.57
3715.58
3726.71
3737.99
3749.49
3761.25
3773.32
3785.78
3798.68
3812.09
3826.08
3840.73
3856.13
3872.35
3889.49
3907.64
3926.9
3947.35
3969.1
3992.22
4016.77
4042.74
4070.13
4098.86
4128.74
4159.46
3699.18
3710.31
3721.54
3732.93
3744.53
3756.38
3768.54
3781.07
3794.04
3807.51
3821.56
3836.27
3851.71
3867.99
3885.19
3903.42
3922.78
3943.39
3965.35
3988.79
4013.81
4040.47
4068.78
4098.77
4130.4
4163.43
4197.39
3693.67
3704.88
3716.21
3727.69
3739.36
3751.29
3763.51
3776.1
3789.11
3802.62
3816.69
3831.41
3846.87
3863.15
3880.35
3898.59
3917.97
3938.63
3960.69
3984.29
4009.58
4036.68
4065.67
4096.61
4129.56
4164.5
4201.06
4238.76
3688.05
3699.34
3710.73
3722.28
3734.01
3745.99
3758.26
3770.89
3783.92
3797.44
3811.51
3826.21
3841.64
3857.87
3875.03
3893.21
3912.55
3933.17
3955.21
3978.84
4004.21
4031.51
4060.91
4092.51
4126.42
4162.75
4201.42
4242.05
4284.07
3682.33
3693.68
3705.13
3716.72
3728.5
3740.52
3752.82
3765.46
3778.49
3792
3806.04
3820.7
3836.06
3852.22
3869.28
3887.36
3906.58
3927.07
3949
3972.54
3997.85
4025.15
4054.67
4086.61
4121.14
4158.44
4198.58
4241.52
4286.88
4333.97
3676.53
3687.92
3699.42
3711.05
3722.86
3734.89
3747.2
3759.83
3772.85
3786.33
3800.32
3814.91
3830.18
3846.23
3863.16
3881.08
3900.13
3920.44
3942.17
3965.5
3990.62
4017.76
4047.17
4079.12
4113.9
4151.76
4192.86
4237.35
4285.25
4336.16
4389.25
3670.67
3682.08
3693.61
3705.27
3717.09
3729.13
3741.43
3754.04
3767.03
3780.45
3794.38
3808.88
3824.04
3839.95
3856.72
3874.44
3893.27
3913.33
3934.79
3957.82
3982.64
4009.48
4038.6
4070.3
4104.94
4142.93
4184.51
4229.93
4279.46
4333.17
4390.65
4450.92
3664.76
3676.18
3687.73
3699.4
3711.22
3723.25
3735.53
3748.11
3761.05
3774.4
3788.24
3802.64
3817.67
3833.42
3849.99
3867.49
3886.06
3905.82
3926.95
3949.61
3974.03
4000.44
4029.12
4060.37
4094.58
4132.24
4173.8
4219.57
4269.95
4325.37
4385.89
4451.3
4520.22
3658.83
3670.24
3681.79
3693.46
3705.27
3717.28
3729.53
3742.06
3754.94
3768.21
3781.95
3796.21
3811.09
3826.66
3843.02
3860.27
3878.55
3897.98
3918.73
3940.97
3964.9
3990.78
4018.88
4049.52
4083.09
4120.1
4161.1
4206.63
4257.17
4313.28
4375.59
4444.08
4519.56
4577.7
4579.15
3652.88
3664.28
3675.81
3687.46
3699.26
3711.23
3723.44
3735.91
3748.72
3761.9
3775.52
3789.65
3804.35
3819.72
3835.85
3852.83
3870.79
3889.86
3910.19
3931.96
3955.36
3980.63
4008.05
4037.94
4070.7
4106.81
4146.88
4191.55
4241.54
4297.54
4360.31
4430.71
4496.22
4489.48
4578.08
4530.68
4574.23
4619.57
4620.8
3646.92
3658.29
3669.8
3681.42
3693.19
3705.12
3717.28
3729.69
3742.4
3755.48
3768.98
3782.96
3797.49
3812.65
3828.53
3845.22
3862.84
3881.51
3901.4
3922.66
3945.48
3970.09
3996.75
4025.79
4057.59
4092.63
4131.51
4174.9
4223.63
4278.67
4340.94
4411.47
4481.21
4470.99
4523.37
4619.13
4567.88
4614.56
4664.45
4665.41
3640.98
3652.3
3663.78
3675.36
3687.08
3698.97
3711.06
3723.4
3736.02
3748.99
3762.35
3776.17
3790.51
3805.45
3821.08
3837.47
3854.74
3873.01
3892.42
3913.14
3935.35
3959.26
3985.12
4013.23
4043.96
4077.79
4115.29
4157.13
4204.13
4257.39
4318.15
4387.66
4459.65
4446.71
4513.86
4502.45
4559.3
4663.11
4607.25
4657.64
4712.68
4713.33
3635.04
3646.32
3657.75
3669.28
3680.95
3692.78
3704.8
3717.05
3729.58
3742.43
3755.66
3769.31
3783.46
3798.17
3813.53
3829.62
3846.54
3864.4
3883.33
3903.49
3925.04
3948.22
3973.24
4000.38
4029.99
4062.5
4098.48
4138.57
4183.57
4234.53
4292.83
4360.1
4432.9
4417.7
4489.57
4475.26
4548.43
4535.54
4597.38
4710.3
4649.15
4703.75
4764.69
4764.98
3629.14
3640.36
3651.73
3663.21
3674.81
3686.57
3698.51
3710.68
3723.1
3735.83
3748.91
3762.4
3776.35
3790.84
3805.92
3821.7
3838.25
3855.7
3874.15
3893.75
3914.66
3937.07
3961.21
3987.34
4015.79
4046.95
4081.33
4119.55
4162.36
4210.74
4266
4329.88
4401.85
4384.86
4459.75
4443.08
4521.02
4505.03
4585.04
4570.48
4637.84
4761.09
4693.87
4753.26
4820.98
4820.81
3623.26
3634.42
3645.73
3657.14
3668.67
3680.35
3692.21
3704.28
3716.59
3729.2
3742.13
3755.45
3769.2
3783.46
3798.28
3813.74
3829.93
3846.95
3864.92
3883.96
3904.23
3925.89
3949.15
3974.26
4001.51
4031.27
4064.01
4100.31
4140.83
4186.47
4238.43
4298.31
4367.65
4349.75
4425.46
4406.96
4487.74
4469.29
4554.06
4536.13
4623.83
4607.32
4680.86
4815.89
4741.72
4806.53
4882.05
4881.36
3617.43
3628.52
3639.76
3651.1
3662.55
3674.15
3685.91
3697.87
3710.07
3722.54
3735.33
3748.47
3762.03
3776.05
3790.61
3805.76
3821.6
3838.21
3855.69
3874.18
3893.79
3914.71
3937.11
3961.22
3987.3
4015.65
4046.72
4081.06
4119.27
4162.11
4210.67
4266.35
4331.99
4313.89
4387.98
4368.62
4449.82
4429.52
4516.86
4496.4
4588.75
4568.62
4664.9
4646.16
4726.71
4875.21
4793.04
4864.04
4948.59
4947.27
3611.65
3622.66
3633.82
3645.08
3656.45
3667.96
3679.62
3691.48
3703.55
3715.89
3728.52
3741.49
3754.84
3768.64
3782.93
3797.78
3813.27
3829.48
3846.5
3864.43
3883.42
3903.6
3925.15
3948.28
3973.22
4000.23
4029.67
4062.03
4097.9
4137.95
4183.11
4234.58
4296.14
4278.25
4349.19
4329.75
4408.72
4387.64
4474.88
4452.57
4547.12
4524.39
4625.18
4602.58
4708.47
4687.17
4775.71
4939.68
4848.24
4926.35
5021.36
5019.31
3605.92
3616.85
3627.93
3639.11
3650.38
3661.79
3673.35
3685.09
3697.05
3709.24
3721.71
3734.51
3747.66
3761.23
3775.27
3789.82
3804.97
3820.78
3837.35
3854.76
3873.14
3892.61
3913.34
3935.49
3959.31
3985.03
4012.94
4043.44
4077.02
4114.29
4156.07
4203.43
4260.77
4243.26
4310.51
4291.42
4366.51
4345.51
4429.78
4406.79
4500.6
4476.06
4578.54
4553.23
4663.47
4638.06
4754.8
4730.56
4828.17
5010.03
4907.79
4994.09
5101.3
5098.38
3600.25
3611.1
3622.09
3633.18
3644.36
3655.67
3667.12
3678.74
3690.56
3702.61
3714.93
3727.54
3740.5
3753.84
3767.62
3781.89
3796.71
3812.14
3828.26
3845.17
3862.97
3881.76
3901.7
3922.93
3945.66
3970.12
3996.55
4025.32
4056.78
4091.42
4129.95
4173.28
4226.31
4209.78
4272.61
4254.02
4324.75
4304.28
4383.83
4361.12
4451.1
4426.01
4526.92
4499.93
4611.15
4582.94
4703.74
4675.13
4804.16
4776.55
4884.48
5087.04
4972.2
5067.99
5189.48
5185.54
3594.65
3605.4
3616.31
3627.3
3638.39
3649.59
3660.92
3672.42
3684.11
3696.01
3708.17
3720.61
3733.36
3746.49
3760.02
3774
3788.49
3803.56
3819.26
3835.69
3852.92
3871.07
3890.25
3910.62
3932.33
3955.58
3980.59
4007.69
4037.18
4069.46
4105.01
4144.63
4189.25
4235.95
4218.44
4284.14
4264.35
4338.75
4316.8
4401.07
4376.51
4472.59
4445.23
4553.81
4524.14
4644.99
4613.55
4746.16
4713.84
4856.87
4825.42
4945.04
5171.76
5042.1
5149.06
5287.26
5282.06
3589.12
3599.78
3610.6
3621.49
3632.47
3643.56
3654.78
3666.15
3677.7
3689.46
3701.45
3713.71
3726.27
3739.17
3752.45
3766.16
3780.35
3795.06
3810.36
3826.32
3843.02
3860.55
3879.02
3898.56
3919.31
3941.44
3965.14
3990.66
4018.29
4048.37
4081.33
4117.62
4158.05
4208.65
4190.82
4245.14
4226.61
4295.31
4274.26
4352.46
4328.96
4418.18
4391.68
4494.21
4464.44
4581.3
4548.67
4680.04
4645.02
4790.91
4754.3
4913.21
4877.3
5010.3
5265.41
5118.36
5238.39
5396.14
5389.41
3583.65
3594.22
3604.94
3615.74
3626.62
3637.6
3648.7
3659.94
3671.35
3682.95
3694.78
3706.85
3719.22
3731.9
3744.94
3758.39
3772.27
3786.64
3801.56
3817.08
3833.27
3850.21
3868.01
3886.77
3906.62
3927.71
3950.19
3974.27
4000.19
4028.25
4058.83
4092.2
4128.48
4173.79
4156.99
4214.46
4195.58
4253.77
4233.86
4305.97
4283.24
4365.82
4340.36
4435.16
4406.38
4516
4483.59
4609.39
4573.63
4716.36
4677.49
4838.04
4796.62
4973.42
4932.26
5080.87
5369.3
5201.85
5337.04
5518.18
5509.64
3578.27
3588.74
3599.37
3610.06
3620.83
3631.7
3642.68
3653.79
3665.05
3676.5
3688.16
3700.06
3712.22
3724.69
3737.5
3750.68
3764.27
3778.32
3792.86
3807.97
3823.68
3840.08
3857.24
3875.26
3894.26
3914.37
3935.73
3958.5
3982.9
4009.19
4037.55
4068.07
4100.42
4141.08
4125.7
4177.39
4159.82
4218.49
4198.39
4260.91
4239.34
4315.11
4290.18
4377.89
4349.67
4451.41
4419.29
4537.79
4501.7
4638.25
4598.68
4754.2
4711.14
4887.73
4841.21
5037.91
4990.69
5157.42
5485.27
5293.5
5446.59
5655.89
5645.09
3572.95
3583.33
3593.86
3604.46
3615.12
3625.87
3636.73
3647.71
3658.83
3670.12
3681.61
3693.33
3705.3
3717.55
3730.12
3743.05
3756.36
3770.09
3784.29
3799
3814.26
3830.14
3846.71
3864.05
3882.25
3901.43
3921.74
3943.33
3966.39
3991.1
4017.39
4045.16
4074.29
4103.88
4143.04
4126.83
4179.09
4160.64
4220.13
4198.74
4265.87
4242.52
4321.78
4294.41
4387.46
4356.03
4465.45
4429.39
4558.36
4517.51
4667.38
4622.61
4793.89
4745.55
4940.53
4888.54
5107.28
5053.43
5240.87
5615.5
5394.71
5569.16
5812.34
5798.57
3567.78
3578
3588.44
3598.93
3609.49
3620.13
3630.86
3641.7
3652.68
3663.82
3675.14
3686.67
3698.44
3710.48
3722.83
3735.5
3748.54
3761.97
3775.83
3790.16
3805.01
3820.41
3836.43
3853.12
3870.58
3888.91
3908.24
3928.74
3950.62
3973.83
3998.25
4023.81
4050.09
4076.37
4110.21
4095.45
4143.02
4126.17
4178.39
4159.14
4218.79
4196.27
4267.93
4242.71
4325.08
4295.04
4393.69
4358.5
4476.55
4435.86
4576.85
4530.41
4695.85
4644.94
4835.22
4780.26
4997.27
4938.94
5182.8
5122.03
5332.89
5762.44
5507.56
5706.61
5991.59
5973.73
3572.82
3583.09
3593.49
3603.94
3614.46
3625.07
3635.78
3646.61
3657.59
3668.74
3680.09
3691.67
3703.5
3715.61
3728.04
3740.81
3753.95
3767.49
3781.47
3795.92
3810.88
3826.38
3842.49
3859.27
3876.8
3895.22
3914.74
3935.49
3957.35
3980.25
4003.97
4027.99
4051.73
4081.81
4069.25
4108.2
4093.66
4141
4123.99
4175.26
4155.7
4214.53
4191.52
4266.36
4239.48
4324.19
4291.63
4395.72
4356.63
4483.88
4438.06
4592.69
4539.77
4723.62
4665.31
4878.33
4815.57
5059.28
4993.44
5266.99
5198.68
5436.33
5928.36
5635.68
5803.12
5840.33
6198.79
6175.07
3577.9
3588.12
3598.47
3608.88
3619.37
3629.94
3640.63
3651.46
3662.44
3673.6
3684.98
3696.6
3708.49
3720.67
3733.18
3746.04
3759.28
3772.92
3787
3801.54
3816.57
3832.14
3848.3
3865.1
3882.69
3901.31
3921
3941.73
3963.38
3985.58
4007.91
4029.99
4051.1
4080.27
4067.95
4105.3
4091.21
4137.51
4120.71
4170.35
4150.85
4208.18
4185.12
4261.36
4233.57
4319.53
4285.23
4393.82
4351.63
4487.51
4437.16
4605.71
4546.48
4750.61
4684.1
4924.21
4851.82
5128.43
5053.33
5364.13
5245.49
5284.59
5547.49
5506.21
5922.03
6086.07
6051.59
5765.47
5723.26
5612.5
5883.18
6441.06
6187.97
6335.05
6361.04
3582.92
3593.09
3603.39
3613.76
3624.2
3634.75
3645.42
3656.23
3667.21
3678.39
3689.8
3701.46
3713.4
3725.65
3738.24
3751.18
3764.51
3778.23
3792.39
3806.99
3822.07
3837.66
3853.81
3870.67
3888.45
3907.21
3926.99
3947.59
3968.6
3989.71
4010.52
4030.5
4055.4
4045.21
4078.32
4066.46
4102.05
4088.7
4132.98
4116.75
4164.19
4145.25
4200.38
4177.86
4253.94
4225.67
4312.33
4276.65
4389.34
4344.38
4489.02
4434.35
4617.38
4552.03
4777.76
4702.88
4973.88
4901.4
4860.47
5207.43
5166.16
5080.63
5124.63
5333.19
5468.55
5426.7
5292.32
5571.63
6012.14
6151.37
5843.44
5803.2
5682.68
5971.25
6486.78
6652.56
6646.34
6300.53
6459.13
3587.88
3597.99
3608.24
3618.56
3628.96
3639.47
3650.12
3660.92
3671.9
3683.09
3694.53
3706.24
3718.24
3730.55
3743.21
3756.23
3769.62
3783.41
3797.62
3812.25
3827.34
3842.92
3859.15
3876.15
3894.11
3913.11
3932.84
3952.93
3973.11
3992.93
4012.08
4030.75
4054.74
4045.02
4076.49
4065.24
4099.15
4086.64
4128.2
4112.92
4157.79
4139.93
4192.41
4171.04
4244.85
4216.86
4303.32
4267.07
4383.11
4336.08
4489.35
4430.71
4628.82
4557.21
4819.98
4778.77
4738.12
4697.37
5036.56
4990.38
4922.29
4879.16
5250.29
5206.29
5113.73
5160.73
5385.18
5530.23
5487.03
5341.45
5640.95
6110.14
6260.02
5931.25
5761.4
5890.06
6069.39
6625.72
6805.76
6798.77
6421.57
6594.08
3592.78
3602.82
3613.01
3623.27
3633.63
3644.11
3654.73
3665.51
3676.49
3687.71
3699.17
3710.93
3722.98
3735.36
3748.08
3761.15
3774.61
3788.44
3802.67
3817.32
3832.41
3848.08
3864.41
3881.69
3900.03
3919.07
3938.46
3957.86
3976.88
3995.39
4013.58
4036.14
4027.67
4054.51
4045.11
4075.15
4064.49
4097.05
4085.32
4124.05
4109.87
4152.26
4135.72
4185.55
4165.6
4235.65
4208.66
4294.3
4258.29
4376.93
4328.75
4489.9
4428.19
4657.66
4618.47
4580.6
4543.81
4835.85
4792.45
4749.3
4706.65
5065.75
5016.65
4944.45
4898.4
5295.88
5248.29
5148.16
5198.85
5441.67
5597.18
5550.97
5393.92
5717.05
6218.19
6379.14
6028.69
5846.57
5985.62
6178.09
6776.27
6973.9
6965.96
6553.4
6741.1
3597.61
3607.57
3617.7
3627.91
3638.22
3648.65
3659.24
3670.01
3680.99
3692.22
3703.72
3715.52
3727.62
3740.05
3752.83
3765.96
3779.45
3793.31
3807.56
3822.26
3837.42
3853.22
3869.93
3887.69
3906.18
3925.03
3943.76
3962.13
3980.03
3997.8
4015.79
4036.89
4028.58
4054.7
4045.6
4074.46
4064.29
4095.9
4084.81
4121.07
4107.91
4148.27
4133.03
4180.54
4162.09
4227.8
4202.18
4286.86
4251.48
4372.37
4323.5
4508.72
4475.12
4443.29
4413.25
4664.93
4624.23
4584.84
4546.93
4852.36
4806.51
4761.05
4716.35
5096.42
4967.47
5043.86
4918.38
5344.24
5292.52
5184.21
5238.95
5501.74
5669.72
5619.44
5449.63
5799.38
6338.54
6511.33
6136.24
5939.29
6090.67
6298.31
6940.68
7158.76
7149.64
6698.82
6902.06
3602.36
3612.24
3622.31
3632.45
3642.71
3653.1
3663.65
3674.41
3685.39
3696.64
3708.17
3720
3732.15
3744.63
3757.46
3770.63
3784.15
3798.06
3812.4
3827.15
3842.51
3858.76
3876.02
3894.06
3912.44
3930.67
3948.46
3965.76
3983.05
4000.36
4021.26
4013.51
4037.67
4029.34
4055.27
4046.31
4074.44
4064.62
4095.67
4084.93
4119.46
4107.11
4146.07
4131.82
4177.52
4160.12
4222.16
4197.89
4281.86
4247.08
4369.88
4320.56
4510.79
4476.4
4443.83
4413.2
4672.76
4630.45
4589.65
4550.55
4869.55
4821.17
4773.38
4726.61
5128.5
4991.36
5072.21
4939.17
5395.38
5339.15
5222.06
5281.19
5565.81
5747.98
5692.79
5508.9
5888.4
6472.31
6659.18
6254.83
6040.29
6205.98
6431.17
7120.9
7362.2
7351.45
6860.6
7080.01
3607.02
3616.82
3626.81
3636.89
3647.09
3657.43
3667.96
3678.7
3689.68
3700.95
3712.51
3724.38
3736.58
3749.11
3761.98
3775.19
3788.79
3802.8
3817.23
3832.25
3848.12
3864.96
3882.6
3900.56
3918.36
3935.65
3952.41
3969.12
3985.81
4002.4
4021.95
4014.18
4038.27
4029.97
4055.82
4046.89
4074.78
4065.1
4095.67
4085.06
4118.86
4106.89
4144.86
4131.06
4175.31
4158.45
4218.5
4194.97
4278.88
4243.95
4383.81
4356.41
4308.15
4331.26
4513.39
4478.16
4444.86
4413.49
4681.16
4637.23
4595.02
4554.71
4887.49
4836.51
4786.36
4737.49
5162.06
5016.23
5101.8
4960.83
5449.55
5388.38
5261.68
5325.63
5634.04
5832.19
5771.25
5571.73
5984.45
6620.78
6824.16
6385.02
6150.41
6331.78
6578.04
7318.71
7587.03
7573.75
7042.17
7278.64
3611.58
3621.3
3631.21
3641.22
3651.35
3661.65
3672.14
3682.87
3693.87
3705.15
3716.75
3728.67
3740.91
3753.49
3766.41
3779.74
3793.46
3807.64
3822.39
3837.96
3854.45
3871.72
3889.28
3906.68
3923.52
3939.8
3955.91
3972.01
3987.98
4007.11
3999.87
4022.4
4014.65
4038.61
4030.37
4056.07
4047.17
4074.97
4065.32
4095.35
4084.8
4118.34
4106.5
4143.53
4129.92
4172.85
4156.28
4215.47
4192.17
4287.09
4268.04
4240.86
4384.2
4356.38
4307.31
4330.8
4516.52
4480.4
4446.34
4414.3
4690.17
4644.6
4600.95
4559.39
4906.22
4852.58
4800.04
4749.02
5197.12
5042.16
5132.71
4983.4
5506.73
5440.09
5302.97
5372.06
5706.5
5922.66
5855.29
5638.13
6088.23
6785.88
7008.52
6528.09
6269.95
6468.99
6740.73
7537.43
7837.55
7818.93
7246.99
7503.22
3616.05
3625.67
3635.5
3645.42
3655.49
3665.73
3676.2
3686.93
3697.94
3709.27
3720.91
3732.86
3745.15
3757.81
3770.89
3784.38
3798.36
3812.91
3828.24
3844.42
3861.32
3878.5
3895.5
3911.92
3927.75
3943.32
3958.86
3974.28
3989.44
4007.49
4000.27
4022.6
4014.93
4038.68
4030.51
4055.95
4047.14
4074.75
4065.14
4094.51
4084.03
4117.32
4105.57
4141.52
4128.05
4169.63
4153.22
4212.24
4188.81
4285.96
4266.61
4246.82
4230.54
4384.65
4356.3
4306.36
4330.25
4520.1
4483.01
4448.11
4415.35
4699.79
4652.53
4607.36
4564.44
4925.78
4869.42
4814.41
4761.17
5233.68
5069.23
5165.05
5006.96
5566.97
5494.29
5345.98
5420.5
5783.62
6019.79
5945.03
5708.54
6200.18
6969.9
7215.98
6685.79
6399.69
6619.29
6921.26
7783.14
8126.69
8099.98
7479.58
7762.66
3620.41
3629.92
3639.65
3649.49
3659.49
3669.69
3680.14
3690.88
3701.92
3713.28
3724.95
3736.97
3749.38
3762.22
3775.53
3789.36
3803.77
3818.88
3834.79
3851.34
3868.14
3884.73
3900.72
3916.14
3931.24
3946.27
3961.2
3975.94
3993.6
3986.89
4007.69
4000.56
4022.57
4015.01
4038.45
4030.38
4055.48
4046.8
4074.06
4064.55
4093.06
4082.72
4115.61
4103.99
4138.65
4125.39
4165.43
4149.13
4216.09
4203.22
4184.48
4284.65
4264.94
4244.85
4228.45
4385
4356.04
4305.17
4329.48
4523.95
4485.81
4449.97
4416.39
4709.94
4660.87
4614.08
4569.71
4946.18
4886.97
4829.38
4773.79
5271.8
5097.56
5198.73
5031.48
5630.68
5551.29
5390.91
5471.16
5865.55
6123.72
6040.6
5783.03
6321.31
7176.11
7451.27
6859.7
6541.04
6784.07
7122.34
8076.48
8551.93
8496.76
7748.69
8075.54
3624.64
3634.04
3643.66
3653.41
3663.35
3673.51
3683.96
3694.71
3705.78
3717.18
3728.93
3741.11
3753.74
3766.9
3780.6
3794.9
3809.85
3825.52
3841.72
3858.12
3874.29
3889.87
3904.88
3919.57
3934.16
3948.67
3963.02
3977.06
3993.84
3987.13
4007.71
4000.7
4022.33
4014.91
4037.93
4029.99
4054.67
4046.14
4072.89
4063.56
4091
4080.87
4113.15
4101.74
4134.82
4121.86
4165.9
4157.25
4143.81
4213.87
4200.82
4175.37
4186.05
4283.11
4263.1
4242.5
4225.98
4385.02
4355.38
4303.58
4328.28
4527.92
4488.61
4451.72
4417.2
4720.45
4669.45
4620.89
4574.92
4967.33
4905.12
4844.78
4786.68
5311.53
5126.94
5233.56
5056.81
5697.85
5611.15
5437.89
5524.2
5952.54
6235.57
6143.08
5861.65
6452.8
7408.56
7721.47
7052.07
6695.29
6965.38
7347.09
8479.51
9137.24
9090.94
8067.09
8474.56
3628.74
3638.02
3647.53
3657.19
3667.06
3677.19
3687.64
3698.42
3709.53
3721.03
3732.99
3745.44
3758.47
3772.08
3786.29
3801.11
3816.55
3832.41
3848.41
3864.14
3879.31
3893.94
3908.26
3922.47
3936.6
3950.61
3964.36
3980.8
3974.52
3993.91
3987.29
4007.57
4000.66
4021.89
4014.63
4037.12
4029.37
4053.5
4045.16
4071.28
4062.19
4088.33
4078.52
4109.91
4098.77
4130.01
4117.43
4162.84
4154.15
4142.8
4135.57
4211.27
4198.03
4172.39
4183.01
4281.2
4260.92
4239.67
4223.1
4384.53
4354.18
4301.46
4326.52
4531.7
4491.1
4453.04
4417.52
4731.02
4677.89
4627.4
4579.69
4989.08
4923.61
4860.28
4799.41
5352.83
5157.08
5269.31
5082.68
5768.46
5673.92
5486.67
5579.69
6045.42
6356.41
6253.09
5944.85
6595.57
7672.51
8034.67
7265.6
6864.22
7165.5
7599.55
9020.69
9696.64
9679.61
8449.76
8961.52
3632.7
3641.84
3651.23
3660.79
3670.6
3680.72
3691.19
3702.02
3713.27
3725.01
3737.31
3750.23
3763.76
3777.9
3792.6
3807.83
3823.38
3838.98
3854.27
3869.02
3883.29
3897.27
3911.14
3924.95
3938.66
3952.16
3965.28
3980.97
3974.73
3993.84
3987.34
4007.24
4000.47
4021.25
4014.16
4036.06
4028.54
4051.99
4043.87
4069.25
4060.43
4085.11
4075.7
4105.88
4095.14
4128.87
4122.59
4112.08
4159.46
4150.75
4139.32
4132.21
4208.29
4194.96
4169.04
4179.65
4278.78
4258.23
4236.39
4219.79
4383.36
4352.38
4298.77
4324.19
4534.92
4492.92
4453.59
4417.09
4741.2
4685.75
4633.16
4583.59
5011.09
4942.01
4875.35
4811.43
5395.11
5187.71
5305.4
5108.79
5842.6
5739.54
5536.55
5637.3
6144.35
6486.88
6370.92
6032.76
6750.92
7973.47
8397.66
7503.35
7049.66
7386.8
7884.08
9587.49
10213.4
10204.1
8896.47
9489.66
3636.49
3645.48
3654.73
3664.2
3673.97
3684.11
3694.64
3705.63
3717.16
3729.33
3742.16
3755.64
3769.72
3784.33
3799.35
3814.59
3829.79
3844.66
3858.99
3872.92
3886.59
3900.15
3913.66
3927.09
3940.36
3953.34
3965.95
3981.05
3974.91
3993.65
3987.29
4006.75
4000.14
4020.42
4013.5
4034.79
4027.51
4050.13
4042.31
4066.79
4058.29
4081.37
4072.42
4101.08
4090.88
4125.6
4119.39
4104.9
4110.28
4155.77
4147.12
4135.56
4128.55
4204.91
4191.55
4165.35
4175.95
4275.83
4255.05
4232.66
4216.02
4381.32
4349.81
4295.45
4321.18
4537.2
4493.78
4453.2
4415.72
4750.44
4692.49
4637.7
4586.22
5032.91
4959.73
4889.34
4822.1
5437.58
5218.2
5341.04
5134.29
5920.25
5807.84
5586.86
5696.45
6249.67
6627.77
6497.13
6125.77
6920.25
8315.58
8811.45
7768.86
7253.03
7631.55
8203.43
10133.7
10708.5
10698.7
9388.61
10032.1
3640.09
3648.91
3658.02
3667.41
3677.18
3687.38
3698.11
3709.44
3721.48
3734.24
3747.68
3761.72
3776.24
3791.08
3806.03
3820.84
3835.29
3849.23
3862.82
3876.19
3889.47
3902.7
3915.88
3928.92
3941.74
3954.23
3969.15
3974.99
3963.42
3981.03
3993.37
3987.15
4006.12
3999.69
4019.4
4012.69
4033.3
4026.27
4048
4040.53
4063.91
4055.78
4077.12
4068.68
4095.58
4086.03
4122.07
4116.02
4101.64
4106.91
4151.78
4143.24
4131.54
4124.65
4201.11
4187.79
4161.3
4171.87
4272.29
4251.36
4228.36
4211.73
4378.24
4346.3
4291.35
4317.35
4538.18
4493.4
4451.68
4413.28
4758.15
4697.59
4640.55
4587.13
5053.63
4975.89
4901.44
4830.65
5479.54
5247.65
5375.26
5158.07
6001.48
5878.2
5636.76
5756.32
6361.66
6780.13
6632.66
6223.83
7104.53
8699.63
9270.09
8064.09
7475.58
7900.94
8558.91
10672.4
11362.5
11316.4
9913.82
10596
3643.48
3652.09
3661.07
3670.43
3680.26
3690.7
3701.83
3713.75
3726.45
3739.87
3753.88
3768.33
3783
3797.67
3812.12
3826.16
3839.73
3852.98
3866.07
3879.07
3892.05
3904.98
3917.8
3930.46
3942.84
3954.83
3975.01
3969.21
3963.5
3980.93
3993
3986.93
4005.4
3999.16
4018.24
4011.76
4031.61
4024.86
4045.63
4038.52
4060.66
4052.99
4072.41
4064.58
4093.39
4088.8
4080.65
4118.32
4112.45
4098.26
4103.34
4147.49
4139.1
4127.27
4120.53
4196.86
4183.65
4156.88
4167.38
4267.98
4247.01
4223.45
4206.89
4373.92
4341.65
4286.36
4312.53
4537.46
4491.45
4448.78
4409.56
4763.64
4700.44
4641.16
4585.89
5072.03
4989.37
4910.6
4836.09
5520.06
5274.93
5406.89
5178.98
6086.14
5950.13
5684.71
5816.02
6480.79
6944.75
6777.23
6326.78
7304.08
9125.24
9769.84
8389.27
7717.91
8194.73
8950.07
11288.4
12115.1
12080.9
10477
11219.9
3646.6
3655.01
3663.88
3673.29
3683.39
3694.3
3706.1
3718.75
3732.16
3746.17
3760.56
3775.08
3789.5
3803.61
3817.27
3830.48
3843.41
3856.21
3868.96
3881.68
3894.37
3906.98
3919.46
3931.73
3943.69
3955.29
3974.96
3969.21
3963.59
3980.78
3992.57
3986.65
4004.61
3998.56
4016.97
4010.74
4029.74
4023.3
4043.05
4036.31
4057.12
4049.97
4067.33
4060.2
4090.08
4085.63
4074.4
4078.28
4114.37
4108.68
4094.73
4099.59
4142.93
4134.7
4122.76
4116.2
4192.15
4179.08
4152.14
4162.48
4262.88
4241.97
4217.86
4201.48
4368.25
4335.71
4280.35
4306.52
4534.7
4487.6
4444.19
4404.36
4765.96
4700.17
4638.77
4581.79
5086.87
4998.78
4915.43
4837.09
5557.13
5298.5
5433.86
5195.47
6173.03
6021.74
5722.48
5873.43
6605.23
7120.57
6928.66
6432.67
7518.49
9592.82
10316
8744.27
7979.14
8511.73
9379.27
12012.2
12749.5
12763.1
11099.5
11929
3649.41
3657.6
3666.48
3676.18
3686.82
3698.49
3711.1
3724.53
3738.56
3752.9
3767.3
3781.5
3795.29
3808.59
3821.47
3834.09
3846.61
3859.1
3871.58
3884.04
3896.43
3908.73
3920.87
3932.77
3944.34
3958.25
3963.64
3952.9
3974.87
3969.17
3980.57
3992.08
3986.3
4003.76
3997.9
4015.62
4009.66
4027.75
4021.65
4040.29
4033.95
4053.36
4046.75
4071.43
4064.99
4061.72
4055.57
4086.63
4082.39
4075.17
4110.22
4104.72
4091.05
4095.68
4138.07
4130.02
4118.02
4111.66
4186.94
4174.04
4147.06
4157.14
4256.93
4236.2
4211.4
4195.32
4360.89
4328.27
4273.11
4299.12
4529.28
4481.27
4437.37
4397.23
4763.81
4695.52
4632.16
4573.71
5096.78
5002.74
4914.63
4832.44
5582.39
5316.56
5454.41
5201.55
6260.6
6088.62
5781.16
5927.29
6732.56
7306.39
7081.18
6534.96
7746.55
10107
10919
9130.48
8258.74
8854.94
9850.08
12766.6
13565.2
13565.8
11798.2
12715.4
3651.83
3659.9
3669.05
3679.36
3690.87
3703.46
3716.93
3730.99
3745.34
3759.64
3773.63
3787.14
3800.12
3812.68
3825.02
3837.27
3849.5
3861.74
3873.97
3886.15
3898.26
3910.24
3922.05
3933.6
3944.85
3963.68
3958.35
3953
3974.73
3969.12
3980.31
3991.55
3985.92
4002.86
3997.19
4014.24
4008.54
4025.72
4019.96
4037.42
4031.53
4049.41
4043.38
4068.43
4062.16
4059.03
4050.83
4083.05
4079.04
4071.96
4105.88
4100.59
4087.23
4091.61
4132.86
4125.05
4113.04
4106.91
4181.1
4168.45
4141.56
4151.29
4249.95
4229.5
4203.92
4188.29
4351.12
4318.74
4264.32
4289.9
4520.11
4471.41
4427.37
4387.31
4756.05
4685.3
4620.12
4560.43
5095.49
4997.87
4907.32
4822.76
5577.01
5336.36
5453.92
5232.06
6344.31
6174.95
5755.27
5943.13
6856.89
7500.18
7250.09
6654.31
7987.68
10674
11592.5
9553.87
8558.55
9229.36
10367.9
13625.3
14511.1
14543.4
12581.4
13611.9
3653.75
3662.01
3671.87
3683.17
3695.74
3709.28
3723.44
3737.81
3752.06
3765.89
3779.15
3791.84
3804.12
3816.17
3828.17
3840.16
3852.16
3864.15
3876.12
3888.03
3899.85
3911.53
3923.03
3934.3
3945.35
3963.7
3958.43
3953.15
3974.57
3969.06
3980.04
3991
3985.52
4001.94
3996.47
4012.84
4007.4
4023.67
4018.26
4034.49
4029.08
4045.35
4039.92
4065.37
4059.28
4056.37
4053.64
4048.43
4046
4079.36
4075.59
4068.67
4101.35
4096.29
4083.27
4087.41
4127.25
4119.79
4107.75
4101.94
4174.5
4162.23
4135.57
4144.84
4241.65
4221.63
4195.15
4180.18
4337.95
4306.19
4253.34
4278.11
4505.99
4457.06
4413.38
4373.7
4744.16
4671.6
4605.12
4544.67
5079.77
4985.11
4896.67
4813.02
5570.67
5343.3
5447.82
5212.2
6375.35
6150.24
5748.26
5937.1
6906.74
7712.38
7225.47
6628.77
8250.64
11302.8
12347.5
10017.9
8884.03
9631.53
10940.2
14661.7
15557.7
15726.2
13472.1
14670.4
3655.23
3664.28
3675.31
3687.86
3701.52
3715.82
3730.29
3744.53
3758.25
3771.31
3783.74
3795.75
3807.55
3819.3
3831.05
3842.82
3854.59
3866.34
3878.05
3889.69
3901.22
3912.63
3923.87
3934.93
3945.81
3953.29
3963.72
3958.53
3974.42
3969
3979.78
3990.45
3985.13
4001.03
3995.75
4011.45
4006.26
4021.65
4016.58
4031.58
4026.65
4041.26
4036.46
4062.26
4056.35
4050.91
4045.94
4043.67
4075.57
4072.06
4065.31
4096.66
4091.85
4079.22
4083.1
4121.17
4114.14
4102.12
4096.72
4166.98
4155.26
4128.97
4137.64
4231.5
4212.19
4184.68
4170.67
4320.5
4289.79
4239.52
4263.05
4489.62
4439.6
4395.03
4355.72
4734.5
4661.75
4595.13
4534.55
5073.98
4979.42
4891.09
4807.55
5564.71
5337.75
5442.17
5205.77
6369.18
6142.7
5741.87
5931.08
6900.33
7695.06
7217.36
6620.76
8238.17
12029.8
13193.1
10509.2
8878.33
9634.3
11554.3
15924.8
17246.4
17346.4
14501
15932.2
3656.67
3667.14
3679.68
3693.54
3708.08
3722.72
3737.03
3750.68
3763.59
3775.81
3787.58
3799.15
3810.66
3822.18
3833.72
3845.26
3856.8
3868.3
3879.76
3891.13
3902.41
3913.58
3924.61
3935.51
3946.29
3953.46
3953.65
3963.75
3958.65
3974.28
3968.96
3979.53
3989.95
3984.76
4000.17
3995.08
4010.12
4005.19
4019.69
4014.96
4028.77
4024.29
4039.32
4037.23
4033.1
4059.11
4053.41
4048.2
4043.49
4041.42
4071.69
4068.45
4061.91
4091.79
4087.27
4075.08
4078.68
4114.5
4108.03
4096.09
4091.22
4158.31
4147.35
4121.63
4129.53
4218.88
4200.69
4171.99
4159.36
4300.46
4270.06
4222.2
4244.16
4479.06
4412.46
4373.68
4335.51
4729.16
4656.5
4589.99
4529.55
5068.7
4974.22
4886.02
4802.61
5559.45
5332.37
5437.15
5200.06
6362.84
6135.79
5736.24
5925.57
6893.44
7687.03
7209.39
6613.21
8229.85
12802.7
14178.9
10523.5
8869.52
9625.35
11592.4
17497.9
18886.4
19187.9
15709
17440.4
3658.65
3671.02
3685.17
3700.09
3715.03
3729.5
3743.17
3755.98
3768.03
3779.6
3790.94
3802.24
3813.54
3824.85
3836.17
3847.49
3858.79
3870.05
3881.26
3892.39
3903.44
3914.41
3925.27
3936.05
3946.8
3953.85
3954.07
3958.79
3963.82
3974.15
3968.96
3979.31
3989.48
3984.43
3999.38
3994.47
4008.9
4004.2
4017.86
4013.46
4026.12
4022.09
4037.28
4035.32
4029.93
4055.93
4050.47
4045.53
4041.08
4039.2
4067.75
4064.78
4058.48
4086.72
4082.55
4070.87
4074.16
4107.13
4101.37
4089.6
4085.37
4148.22
4138.33
4113.42
4120.3
4203.17
4186.5
4156.54
4145.66
4287.02
4246.51
4201.59
4222.79
4474.23
4413.68
4360.94
4322.98
4724.31
4651.76
4585.34
4525.01
5064.07
4969.68
4881.59
4798.28
5327.45
5195.2
6356.85
6129.73
6886.9
7678.85
7202.02
6606.62
8221.12
13611.1
12596
15288.9
10514.2
8860.02
9615.41
11582.6
19363.3