/*--------------------------------*- C++ -*----------------------------------*\
  =========                 |
  \\      /  F ield         | OpenFOAM: The Open Source CFD Toolbox
   \\    /   O peration     | Website:  https://openfoam.org
    \\  /    A nd           | Version:  dev
     \\/     M anipulation  |
\*---------------------------------------------------------------------------*/
FoamFile
{
    version     2.0;
    format      ascii;
    class       volScalarField;
    location    "2500";
    object      H2O;
}
// * * * * * * * * * * * * * * * * * * * * * * * * * * * * * * * * * * * * * //

dimensions      [0 0 0 0 0 0 0];

internalField   nonuniform List<scalar> 
9575
(
2.242e-37
7.90478e-37
3.0758e-37
1.25124e-36
1.89437e-36
3.84038e-37
1.66531e-36
3.84813e-36
1.71124e-36
1.37837e-37
3.07479e-36
6.98042e-36
6.79736e-36
1.48833e-36
2.38428e-37
3.05846e-36
9.91878e-36
1.27518e-35
6.96774e-36
1.54577e-36
1.70726e-37
4.54293e-36
1.66608e-35
2.15321e-35
1.53017e-35
5.76251e-36
1.11728e-36
3.43865e-38
3.38262e-36
1.68084e-35
2.89708e-35
2.72381e-35
1.45106e-35
3.70358e-36
5.94765e-37
1.88154e-38
5.27698e-36
3.1594e-35
4.703e-35
4.45957e-35
2.66472e-35
1.03795e-35
2.56146e-36
3.6099e-37
1.60951e-38
6.95715e-36
4.06464e-35
8.17691e-35
7.55475e-35
5.17311e-35
1.96727e-35
8.08129e-36
1.63399e-36
1.69037e-37
1.93643e-38
6.13331e-36
4.969e-35
1.18686e-34
1.12828e-34
8.59194e-35
5.06418e-35
1.92462e-35
5.64274e-36
1.59495e-36
2.68433e-37
5.85456e-38
1.00699e-35
5.48699e-35
1.54649e-34
1.82153e-34
1.47157e-34
9.26398e-35
4.53882e-35
1.5991e-35
5.13828e-36
1.92172e-36
5.17554e-37
1.06556e-37
1.00959e-35
4.40903e-35
1.34096e-34
2.52424e-34
2.2097e-34
1.32008e-34
8.56944e-35
3.97113e-35
1.13763e-35
6.7364e-36
2.6778e-36
8.1926e-37
8.51064e-38
1.00315e-35
5.57808e-35
1.8153e-34
3.69569e-34
3.69184e-34
2.17923e-34
1.26593e-34
7.94816e-35
2.53747e-35
1.61799e-35
9.26368e-36
4.04021e-36
6.52688e-37
2.73691e-37
1.47937e-35
7.99447e-35
1.87402e-34
4.71966e-34
5.42105e-34
4.31714e-34
2.25021e-34
1.28494e-34
6.00475e-35
2.61464e-35
2.48049e-35
1.43919e-35
6.24802e-36
3.21681e-36
3.04932e-36
1.47228e-35
6.73054e-35
2.0118e-34
5.87222e-34
6.68367e-34
6.0977e-34
4.11888e-34
2.1694e-34
1.42753e-34
6.2133e-35
4.32737e-35
4.28472e-35
2.94296e-35
2.26678e-35
2.5229e-35
3.34221e-35
1.31399e-35
1.74473e-34
3.0143e-34
8.21622e-34
1.03492e-33
9.13333e-34
6.57527e-34
3.25426e-34
2.30095e-34
1.15572e-34
7.79275e-35
1.10572e-34
1.22226e-34
1.527e-34
2.84433e-34
3.59981e-34
2.60696e-34
2.07559e-35
2.34925e-34
5.33878e-34
9.19358e-34
1.47184e-33
1.45549e-33
1.0719e-33
6.44742e-34
3.34263e-34
2.69898e-34
1.54516e-34
2.42909e-34
3.9211e-34
8.4237e-34
1.38997e-33
2.93621e-33
4.44847e-33
4.29997e-33
1.34954e-34
2.90236e-34
6.74632e-34
1.05365e-33
1.73411e-33
2.09002e-33
1.63264e-33
1.04516e-33
5.64246e-34
4.37751e-34
3.93883e-34
5.53996e-34
1.16026e-33
3.42096e-33
9.4931e-33
2.58163e-32
4.91376e-32
7.34235e-32
1.24239e-31
4.62923e-34
6.8933e-34
1.47022e-33
1.75073e-33
2.81643e-33
3.14149e-33
2.41059e-33
1.71272e-33
9.46192e-34
6.84305e-34
6.72779e-34
1.07031e-33
4.26044e-33
9.93795e-33
4.13587e-32
1.15996e-31
3.01429e-31
5.45429e-31
1.1888e-30
1.20319e-30
3.55854e-33
2.95827e-33
4.14494e-33
2.88641e-33
4.08197e-33
4.23143e-33
3.5413e-33
2.34502e-33
1.96351e-33
1.59017e-33
1.68691e-33
3.19105e-33
1.36458e-32
4.46847e-32
1.7718e-31
4.76277e-31
1.64525e-30
3.81013e-30
5.69665e-30
1.5511e-29
8.66373e-30
1.05747e-32
1.63057e-32
1.69154e-32
8.6008e-33
5.5688e-33
6.72398e-33
5.41161e-33
4.32463e-33
2.83743e-33
3.22873e-33
5.99459e-33
1.24274e-32
5.85866e-32
2.73789e-31
7.46167e-31
2.07172e-30
7.20546e-30
2.4539e-29
4.42593e-29
7.76332e-29
1.87883e-28
9.11025e-29
7.72592e-32
9.15384e-32
7.65498e-32
2.75387e-32
1.42763e-32
1.14424e-32
8.1371e-33
6.75777e-33
5.83672e-33
9.21764e-33
1.95297e-32
6.56534e-32
2.27401e-31
1.02847e-30
3.91642e-30
1.23382e-29
2.08683e-29
1.11756e-28
3.34125e-28
4.89126e-28
9.05261e-28
2.50634e-27
2.24248e-27
4.60955e-31
3.79447e-31
3.52513e-31
1.44196e-31
5.44512e-32
2.17802e-32
1.44707e-32
1.12002e-32
1.33811e-32
2.00523e-32
6.87304e-32
2.10758e-31
1.08388e-30
4.02922e-30
1.75156e-29
6.73759e-29
1.64273e-28
3.75762e-28
1.57956e-27
4.30125e-27
6.5078e-27
1.8103e-26
3.11631e-26
2.41616e-26
1.45823e-30
2.5043e-30
1.67614e-30
6.41076e-31
2.10349e-31
6.14686e-32
2.90588e-32
2.08888e-32
2.90577e-32
7.53041e-32
2.02821e-31
9.16747e-31
2.90361e-30
1.74342e-29
9.10166e-29
3.14746e-28
9.27113e-28
1.94033e-27
7.71493e-27
2.2441e-26
6.09179e-26
1.31336e-25
2.70742e-25
3.12989e-25
2.11612e-25
7.89925e-30
1.16398e-29
5.96481e-30
3.43693e-30
9.29477e-31
2.11213e-31
6.7485e-32
5.01617e-32
8.38518e-32
1.67174e-31
7.75493e-31
2.43941e-30
1.30714e-29
6.71302e-29
2.2899e-28
1.89801e-27
4.96023e-27
1.51851e-26
4.05432e-26
1.12324e-25
4.14989e-25
6.23323e-25
1.92389e-24
3.01393e-24
2.85931e-24
1.82668e-24
1.77294e-29
4.56557e-29
2.84926e-29
1.44081e-29
4.48727e-30
1.0386e-30
1.90644e-31
1.19717e-31
2.95882e-31
7.33426e-31
2.06157e-30
8.77804e-30
3.83057e-29
1.80654e-28
1.16841e-27
5.39231e-27
2.95708e-26
1.22102e-25
3.69254e-25
7.57473e-25
2.36417e-24
5.90979e-24
1.03822e-23
2.30769e-23
3.19757e-23
2.42437e-23
1.57729e-23
1.28245e-28
2.61519e-28
1.48384e-28
6.78425e-29
2.08269e-29
4.56618e-30
7.9309e-31
3.40029e-31
7.55235e-31
2.41896e-30
8.13333e-30
2.2192e-29
1.13644e-28
6.01391e-28
2.80456e-27
1.83244e-26
1.20469e-25
5.93824e-25
1.97629e-24
6.74586e-24
1.56244e-23
3.27666e-23
8.83373e-23
1.31565e-22
2.81078e-22
2.8503e-22
1.56101e-22
1.78706e-22
4.07811e-28
8.29964e-28
5.11137e-28
2.71215e-28
8.89841e-29
2.17263e-29
4.26152e-30
1.16582e-30
2.37289e-30
7.27711e-30
2.20862e-29
8.91756e-29
3.48934e-28
1.64384e-27
1.15285e-26
6e-26
3.73957e-25
1.74062e-24
1.0787e-23
2.74426e-23
1.14407e-22
2.70323e-22
6.5518e-22
1.24949e-21
2.54455e-21
3.81814e-21
2.66281e-21
2.07217e-21
1.60641e-21
2.31211e-27
3.71417e-27
2.2678e-27
1.05266e-27
3.60741e-28
9.07337e-29
1.72928e-29
4.46068e-30
7.19849e-30
2.63181e-29
8.41619e-29
2.4849e-28
1.06836e-27
6.354e-27
3.78791e-26
2.28898e-25
1.07576e-24
6.14189e-24
3.36477e-23
1.78322e-22
6.54625e-22
1.56221e-21
5.02831e-21
1.03338e-20
1.52112e-20
3.32226e-20
4.75945e-20
3.78776e-20
2.37477e-20
1.05819e-20
7.10186e-27
9.41063e-27
8.08153e-27
4.08451e-27
1.45576e-27
3.65195e-28
7.81761e-29
1.60974e-29
1.56153e-29
7.08515e-29
2.93085e-28
1.01917e-27
2.75033e-27
1.65964e-26
1.11374e-25
6.96394e-25
4.40223e-24
2.09404e-23
1.03914e-22
5.56195e-22
2.93402e-21
9.40041e-21
3.39238e-20
6.63242e-20
1.45047e-19
1.7491e-19
4.41387e-19
4.04403e-19
2.72232e-19
1.88912e-19
3.18338e-20
1.70391e-26
3.11362e-26
2.60214e-26
1.17667e-26
4.83385e-27
1.38082e-27
3.08988e-28
5.89716e-29
5.78454e-29
1.74472e-28
7.88021e-28
3.40363e-27
1.29468e-26
4.25383e-26
3.00113e-25
2.12544e-24
1.38939e-23
6.90987e-23
3.42965e-22
2.20227e-21
1.04547e-20
4.56575e-20
1.71965e-19
5.3714e-19
1.21511e-18
1.54171e-18
3.47818e-18
4.2067e-18
3.10841e-18
2.2799e-18
1.08717e-18
2.89424e-19
2.61117e-26
7.7499e-26
6.93308e-26
3.6842e-26
1.48531e-26
4.54472e-27
1.07229e-27
1.61984e-28
1.60782e-28
6.05154e-28
1.96571e-27
9.37883e-27
4.28726e-26
1.95627e-25
6.91716e-25
5.93576e-24
4.12538e-23
3.13146e-22
1.45718e-21
7.12589e-21
3.60004e-20
1.84675e-19
6.78712e-19
2.64855e-18
8.28397e-18
1.7742e-17
2.926e-17
3.29629e-17
3.78987e-17
2.59665e-17
1.2689e-17
4.90514e-18
8.74708e-19
7.58125e-26
1.77104e-25
1.83215e-25
1.12892e-25
4.15269e-26
1.36975e-26
2.6351e-27
7.48726e-28
3.8678e-28
1.41846e-27
5.50314e-27
2.49864e-26
1.20379e-25
6.01726e-25
3.24764e-24
1.51675e-23
1.22697e-22
9.09453e-22
5.56195e-21
2.9932e-20
1.56063e-19
7.75951e-19
4.69035e-18
1.51666e-17
3.7206e-17
1.27515e-16
1.65317e-16
3.03002e-16
3.40852e-16
2.36824e-16
1.47449e-16
6.17221e-17
1.93417e-17
6.4392e-19
5.83814e-18
1.5192e-25
3.31989e-25
4.10279e-25
2.80017e-25
1.31033e-25
3.29999e-26
8.62795e-27
1.86086e-27
1.44221e-27
3.9077e-27
1.58879e-26
5.40843e-26
3.45739e-25
1.80601e-24
8.34529e-24
5.15913e-23
3.1724e-22
1.97965e-21
1.45575e-20
8.08573e-20
4.37782e-19
2.45454e-18
1.2625e-17
7.64456e-17
3.03282e-16
6.59253e-16
1.68638e-15
2.22829e-15
2.69857e-15
3.03002e-15
2.31196e-15
7.93696e-16
8.08955e-17
4.09767e-16
4.21275e-17
2.74051e-16
3.58098e-16
3.50515e-18
3.0154e-17
1.33436e-24
1.51604e-24
9.96309e-25
6.29935e-25
3.28649e-25
1.15169e-25
3.30019e-26
7.55324e-27
3.00081e-27
1.02109e-26
4.83977e-26
1.91753e-25
6.42262e-25
4.94871e-24
2.52217e-23
1.80183e-22
1.15349e-21
6.93066e-21
4.27894e-20
3.93791e-19
1.65435e-18
1.16898e-17
4.88703e-17
2.62739e-16
1.09041e-15
5.69295e-15
1.2178e-14
2.64049e-14
3.23794e-14
3.85263e-14
3.80493e-14
1.74652e-14
1.5296e-15
9.13796e-15
1.92153e-15
1.61437e-16
1.54063e-15
1.36601e-15
1.25089e-17
1.26433e-16
5.79945e-24
6.50598e-24
2.72737e-24
1.37418e-24
7.57061e-25
3.06752e-25
9.09711e-26
2.57827e-26
1.4241e-26
2.4775e-26
1.31069e-25
5.04076e-25
2.19392e-24
1.13668e-23
7.71644e-23
4.30859e-22
3.47705e-21
2.10935e-20
1.49142e-19
8.76829e-19
7.0151e-18
4.12917e-17
2.08524e-16
7.70851e-16
4.02021e-15
2.06913e-14
1.12887e-13
2.01702e-13
3.84909e-13
4.49756e-13
4.81802e-13
3.48425e-13
4.72968e-14
2.56207e-13
1.01557e-14
6.13349e-14
1.05431e-14
9.53921e-16
9.63426e-15
7.44428e-15
2.96882e-17
5.30575e-16
3.91514e-23
3.80871e-23
1.00915e-23
3.23334e-24
1.74681e-24
6.1393e-25
2.6951e-25
6.63256e-26
5.28005e-26
9.09455e-26
3.09659e-25
1.61631e-24
5.39531e-24
2.85396e-23
1.89793e-22
1.19856e-21
8.29046e-21
6.12894e-20
4.26816e-19
3.70806e-18
1.60996e-17
1.08299e-16
7.34277e-16
3.43481e-15
1.79428e-14
8.43975e-14
3.92362e-13
1.95449e-12
2.98066e-12
5.1035e-12
5.84776e-12
5.60387e-12
1.19426e-12
5.53561e-12
3.46032e-13
1.79794e-12
7.00288e-14
4.31459e-13
7.04923e-14
5.0286e-15
6.08678e-14
4.4613e-14
1.8053e-16
2.53784e-15
2.70785e-22
2.29176e-22
4.91567e-23
1.439e-23
3.91352e-24
1.7659e-24
6.11562e-25
2.38284e-25
1.39508e-25
3.62568e-25
9.64106e-25
3.84485e-24
1.92943e-23
7.64441e-23
4.51746e-22
3.15087e-21
2.39761e-20
1.54068e-19
1.22039e-18
9.36613e-18
7.03084e-17
4.01259e-16
2.08631e-15
1.40596e-14
8.4565e-14
4.37533e-13
1.93647e-12
6.87827e-12
2.94212e-11
4.00995e-11
6.30053e-11
7.19014e-11
2.23381e-11
8.98392e-11
8.62039e-12
3.82591e-11
2.43829e-12
1.26094e-11
4.7501e-13
2.92748e-12
4.55982e-13
2.7224e-14
3.71745e-13
2.54508e-13
5.97348e-16
1.23932e-14
2.0127e-21
1.49295e-21
3.46575e-22
6.05336e-23
1.27793e-23
3.8323e-24
1.55532e-24
5.37976e-25
4.59322e-25
8.50141e-25
3.15136e-24
1.04395e-23
4.48263e-23
2.50031e-22
1.26944e-21
8.88892e-21
6.35714e-20
4.18796e-19
3.46639e-18
1.93812e-17
1.79744e-16
1.26069e-15
7.83328e-15
5.62424e-14
3.66984e-13
2.1193e-12
1.06494e-11
4.03556e-11
1.12538e-10
3.91672e-10
5.01291e-10
7.42802e-10
3.21347e-10
1.13678e-09
1.56936e-10
6.04391e-10
5.99296e-11
2.62555e-10
1.65844e-11
8.54223e-11
3.10681e-12
1.91825e-11
2.84153e-12
1.43479e-13
2.19617e-12
1.44555e-12
2.93422e-15
6.4939e-14
7.10597e-21
7.80519e-21
2.01316e-21
3.17931e-22
5.09984e-23
1.00975e-23
2.8583e-24
1.67091e-24
1.18874e-24
3.30307e-24
8.72093e-24
3.21056e-23
1.1921e-22
4.82949e-22
3.34593e-21
2.45157e-20
1.85263e-19
1.16786e-18
8.25172e-18
6.75602e-17
4.49971e-16
3.63405e-15
3.03115e-14
2.25369e-13
1.48653e-12
9.13651e-12
5.15004e-11
2.35194e-10
7.73642e-10
1.58017e-09
4.67503e-09
5.95029e-09
3.57992e-09
1.09861e-08
2.17938e-09
7.39649e-09
1.06239e-09
4.02048e-09
4.02509e-10
1.74015e-09
1.08941e-10
5.59202e-10
1.96658e-11
1.2236e-10
1.73051e-11
8.14894e-13
1.32215e-11
8.73832e-12
1.55285e-14
3.63201e-13
4.49235e-20
4.14883e-20
1.06326e-20
2.23702e-21
3.80505e-22
4.40071e-23
7.85136e-24
4.00075e-24
3.22031e-24
7.1337e-24
2.51627e-23
9.20387e-23
3.89298e-22
1.7128e-21
7.08216e-21
5.8384e-20
4.5361e-19
3.61104e-18
2.33516e-17
1.68545e-16
1.25661e-15
1.12675e-14
1.05413e-13
8.90729e-13
6.18754e-12
3.80155e-11
2.18158e-10
1.1358e-09
4.70671e-09
1.40976e-08
1.79431e-08
5.02564e-08
3.03752e-08
8.41342e-08
2.34045e-08
6.90439e-08
1.4233e-08
4.74259e-08
6.93615e-09
2.5765e-08
2.61593e-09
1.1212e-08
6.99488e-10
3.5942e-09
1.22994e-10
7.81069e-10
1.08949e-10
4.86546e-12
8.36657e-11
5.48698e-11
8.19229e-14
2.10815e-12
1.34758e-19
1.67807e-19
5.41407e-20
1.03683e-20
1.95041e-21
2.74552e-22
3.65361e-23
8.66364e-24
1.29229e-23
2.6458e-23
6.45532e-23
2.00564e-22
9.39236e-22
4.00724e-21
2.53433e-20
1.49082e-19
8.83291e-19
7.50168e-18
6.85227e-17
4.86475e-16
4.02466e-15
3.40765e-14
3.33145e-13
3.13188e-12
2.48526e-11
1.64701e-10
9.18459e-10
4.74201e-09
2.23965e-08
8.86137e-08
2.50272e-07
1.28632e-07
2.17896e-07
6.2134e-07
1.91903e-07
5.12698e-07
1.47778e-07
4.29496e-07
8.98268e-08
2.95121e-07
4.42377e-08
1.62319e-07
1.68151e-08
7.19441e-08
4.53297e-09
2.3417e-08
7.98202e-10
5.15186e-09
7.12113e-10
2.98714e-11
5.44555e-10
3.51494e-10
4.57684e-13
1.2408e-11
6.27606e-19
6.62916e-19
2.21046e-19
6.50996e-20
1.13568e-20
2.0307e-21
2.27608e-22
3.69693e-23
3.50803e-23
8.08531e-23
2.08923e-22
7.52414e-22
2.7333e-21
1.30072e-20
6.07749e-20
4.16095e-19
3.13466e-18
1.78633e-17
1.25334e-16
1.10087e-15
1.00421e-14
9.72739e-14
1.0067e-12
1.00173e-11
8.75359e-11
6.48035e-10
4.01615e-09
1.99126e-08
9.16756e-08
4.08626e-07
1.59858e-06
4.52492e-06
1.92633e-06
0
1.34491e-06
3.65447e-06
1.18164e-06
3.18027e-06
9.04509e-07
2.60693e-06
5.59161e-07
1.79932e-06
2.82503e-07
1.02142e-06
1.09334e-07
4.62794e-07
2.99155e-08
1.53384e-07
5.31092e-09
3.44789e-08
4.72837e-09
1.85284e-10
3.58259e-09
2.26653e-09
2.56763e-12
7.28687e-11
2.37476e-18
1.88486e-18
1.01359e-18
2.53839e-19
5.26009e-20
9.6828e-21
1.50883e-21
2.12735e-22
1.05218e-22
2.13689e-22
7.22309e-22
2.12102e-21
6.15777e-21
2.8098e-20
1.82719e-19
9.69328e-19
7.06662e-18
5.67689e-17
3.52055e-16
2.81777e-15
2.72279e-14
2.7463e-13
2.95236e-12
3.06872e-11
2.89472e-10
2.31211e-09
1.54539e-08
8.23494e-08
3.89527e-07
1.64748e-06
7.12988e-06
2.61678e-05
7.46399e-05
1.04075e-05
4.21668e-05
8.58339e-06
2.40652e-05
7.2562e-06
2.02185e-05
5.45128e-06
1.59687e-05
3.40762e-06
1.07698e-05
1.77859e-06
6.18174e-06
7.06242e-07
2.89768e-06
1.97378e-07
9.93928e-07
3.55028e-08
2.29479e-07
3.14407e-08
1.1415e-09
2.36064e-08
1.4471e-08
1.40723e-11
4.13446e-10
6.39802e-18
6.90159e-18
3.35756e-18
1.15203e-18
2.21236e-19
3.39749e-20
7.4928e-21
1.04597e-21
3.27442e-22
7.05561e-22
1.68698e-21
5.5482e-21
2.25036e-20
9.01261e-20
4.37355e-19
2.72616e-18
1.79197e-17
1.3362e-16
9.12085e-16
7.99701e-15
7.28953e-14
7.57513e-13
8.35827e-12
9.18603e-11
9.17685e-10
7.92596e-09
5.46995e-08
3.09485e-07
1.53918e-06
6.98844e-06
2.64711e-05
9.47408e-05
0.00027558
0.000324649
0.000597403
6.53081e-05
0.00016358
5.51648e-05
0.000145225
4.49547e-05
0.000122108
3.28058e-05
9.47705e-05
2.01466e-05
6.27182e-05
1.06284e-05
3.57686e-05
4.4167e-06
1.70962e-05
1.27633e-06
6.21117e-06
2.34571e-07
1.48611e-06
2.07731e-07
6.78445e-09
1.53794e-07
8.95991e-08
7.36369e-11
2.22468e-09
1.46724e-17
1.74859e-17
1.24984e-17
4.1694e-18
8.08147e-19
1.75067e-19
2.99262e-20
4.91337e-21
1.10726e-21
1.9539e-21
4.60718e-21
1.52971e-20
5.07326e-20
2.31666e-19
1.12457e-18
6.25605e-18
4.096e-17
3.74374e-16
2.54974e-15
2.06936e-14
2.00539e-13
2.04963e-12
2.27116e-11
2.63361e-10
2.85716e-09
2.61548e-08
1.86434e-07
1.09928e-06
5.68798e-06
2.51318e-05
9.16589e-05
0.000253511
0.000630386
0.000844599
0.00116133
0.000917488
0.00124308
0.000332395
0.000610241
0.000289744
0.0005959
0.000240013
0.000539365
0.000179614
0.000443541
0.000111749
0.000308598
5.98116e-05
0.000187047
2.57365e-05
9.26346e-05
7.91216e-06
3.55547e-05
1.51621e-06
9.21047e-06
1.33955e-06
3.83006e-08
9.6755e-07
5.25955e-07
3.52132e-10
1.08924e-08
3.14766e-17
4.46021e-17
3.47812e-17
1.5455e-17
4.44458e-18
8.97304e-19
1.14997e-19
2.07511e-20
3.13224e-21
5.29788e-21
1.25893e-20
3.92827e-20
1.35467e-19
5.57918e-19
2.92808e-18
1.86994e-17
1.38222e-16
7.8195e-16
6.41423e-15
5.82518e-14
5.54084e-13
5.50143e-12
5.96451e-11
7.09246e-10
8.45143e-09
8.16126e-08
6.09753e-07
3.76073e-06
1.90956e-05
7.76403e-05
0.000238957
0.000579099
0.00111311
0.00144692
0.00164625
0.00155931
0.0019061
0.00168421
0.00205517
0.000950578
0.00132206
0.000925329
0.00135957
0.000854528
0.00133966
0.000711151
0.00125578
0.000492056
0.00105223
0.000290503
0.000734109
0.000132969
0.000415603
4.44855e-05
0.000175582
9.44884e-06
5.155e-05
8.29677e-06
1.96338e-07
5.80665e-06
2.85963e-06
1.45486e-09
4.55806e-08
5.30639e-17
9.29949e-17
7.8746e-17
4.24332e-17
1.43366e-17
2.80223e-18
7.37205e-19
1.15192e-19
1.685e-20
1.42387e-20
4.14758e-20
9.42612e-20
3.51432e-19
1.41779e-18
7.06785e-18
3.71852e-17
3.37955e-16
2.06706e-15
1.77017e-14
1.63338e-13
1.53216e-12
1.47614e-11
1.54286e-10
1.82187e-09
2.2831e-08
2.37077e-07
1.87958e-06
1.18633e-05
5.61946e-05
0.000194208
0.000488837
0.000968769
0.00166494
0.00260137
0.0021668
0.00263744
0.00240801
0.00275586
0.00260633
0.0030016
0.00178505
0.00221423
0.00182367
0.00232966
0.00180313
0.0023815
0.0016891
0.00235321
0.00143407
0.00217571
0.00102471
0.00183634
0.000551045
0.00134538
0.000212476
0.00068524
5.30749e-05
0.000240738
4.64781e-05
8.64166e-07
3.19562e-05
1.38975e-05
4.74903e-09
1.49472e-07
7.90668e-17
1.63152e-16
1.6212e-16
1.02907e-16
4.48842e-17
1.36658e-17
2.60634e-18
3.99238e-19
4.52765e-20
4.3354e-20
1.01223e-19
3.25781e-19
9.762e-19
3.86813e-18
2.09113e-17
1.00268e-16
6.93501e-16
5.61657e-15
4.92126e-14
4.54712e-13
4.24132e-12
3.978e-11
3.96437e-10
4.56932e-09
5.73488e-08
6.18244e-07
5.34747e-06
3.27909e-05
0.000138407
0.00038671
0.000788068
0.00136702
0.00217492
0.00301995
0.00341958
0.00344225
0.00306448
0.00330502
0.0033323
0.00354008
0.00359902
0.00379372
0.00279727
0.0032434
0.00292457
0.0034563
0.00296911
0.00360372
0.00292846
0.00364416
0.00270717
0.00353014
0.00227344
0.00324535
0.0016545
0.00275384
0.000795322
0.00196129
0.000244262
0.000867832
0.000212248
3.03219e-06
0.000144444
5.41193e-05
9.13317e-09
2.81725e-07
2.44788e-16
2.7755e-16
2.27795e-16
9.486e-17
3.27223e-17
7.88288e-18
1.90893e-18
1.71079e-19
1.21625e-19
2.80367e-19
8.11382e-19
2.27654e-18
1.01572e-17
4.44689e-17
2.98956e-16
2.03603e-15
1.50584e-14
1.35385e-13
1.26046e-12
1.17021e-11
1.07827e-10
1.02447e-09
1.10579e-08
1.35884e-07
1.50649e-06
1.31682e-05
7.7667e-05
0.000273095
0.000607325
0.00108413
0.00175899
0.00251354
0.00303499
0.00342509
0.00335157
0.00361479
0.00354026
0.00364262
0.0036456
0.00386448
0.0038426
0.00409075
0.00405926
0.00384266
0.00404161
0.00406442
0.00429307
0.00423913
0.00453734
0.00431496
0.0047363
0.00417834
0.00486927
0.00378976
0.00479769
0.00320544
0.00435677
0.00218959
0.00363286
0.000866543
0.00232824
0.000755515
6.21007e-06
0.000517962
0.00022551
5.93248e-05
1.12323e-08
2.15618e-07
4.09688e-16
3.98886e-16
2.61308e-16
1.10283e-16
2.08747e-17
5.72208e-18
7.58663e-19
3.16809e-19
7.21397e-19
2.1278e-18
6.63953e-18
2.22566e-17
1.16316e-16
6.21859e-16
4.68474e-15
4.03773e-14
3.73048e-13
3.47325e-12
3.21523e-11
2.92664e-10
2.68141e-09
2.6893e-08
3.11593e-07
3.46116e-06
2.90017e-05
0.000150204
0.000429864
0.000845055
0.00138509
0.00208181
0.00266787
0.00298914
0.00313007
0.00343195
0.00319583
0.00352719
0.00329823
0.00379464
0.00369673
0.00398493
0.00385037
0.00418734
0.00400526
0.00433179
0.00428825
0.00459734
0.00454537
0.00488402
0.00483258
0.00516639
0.00515578
0.00534184
0.00550469
0.00532683
0.00577672
0.00487169
0.00580315
0.00396519
0.00531735
0.00230551
0.00416212
0.00322478
0.00120354
0.00220943
0.000125798
1.36599e-05
7.10909e-05
0.000718873
0.00180889
0.00186303
0.000496835
4.92429e-08
3.06155e-05
1.3499e-05
2.13075e-06
6.09036e-16
4.72925e-16
2.29539e-16
6.59439e-17
1.54384e-17
3.60285e-18
8.06692e-19
1.53017e-18
5.23868e-18
1.46307e-17
5.40039e-17
2.41646e-16
1.58296e-15
1.20383e-14
1.09671e-13
1.0233e-12
9.58238e-12
8.8234e-11
7.94037e-10
7.06842e-09
6.66035e-08
7.23142e-07
7.62038e-06
5.71125e-05
0.000243639
0.000597357
0.0010676
0.00166659
0.0022837
0.00265926
0.00288621
0.00279063
0.00245768
0.00221807
0.00302995
0.00273945
0.00301328
0.00267395
0.00362974
0.00334185
0.00373141
0.00338412
0.00384338
0.00343632
0.00442225
0.00418422
0.00470699
0.00444405
0.0050535
0.00481806
0.00542127
0.0052267
0.00581109
0.00568084
0.00618456
0.00612151
0.00621576
0.00634362
0.0064547
0.00485747
0.00558491
0.00645866
0.00604754
0.00410846
0.00314363
0.00423767
0.00497573
0.00305654
0.000309999
0.000163078
0.0014301
0.00264662
0.00294333
0.00103826
4.57281e-06
1.40853e-07
1.67152e-06
7.79362e-05
3.0702e-05
7.30986e-16
4.79753e-16
1.98167e-16
3.42457e-17
8.24729e-18
3.2694e-18
4.04966e-18
1.04368e-17
3.56383e-17
1.40853e-16
5.6975e-16
3.74741e-15
3.1798e-14
2.94557e-13
2.80283e-12
2.63583e-11
2.43882e-10
2.17305e-09
1.88617e-08
1.67668e-07
1.74453e-06
1.62434e-05
0.000101479
0.000352871
0.000764537
0.00128631
0.00189352
0.0023773
0.00262457
0.00271221
0.00238765
0.00147685
0.00175651
0.00141887
0.00234228
0.00202846
0.00222686
0.00188406
0.00299786
0.00260341
0.00299078
0.00254286
0.00301808
0.0025138
0.00402868
0.00353538
0.00435848
0.00377194
0.00482006
0.00420187
0.00537624
0.00479713
0.00592019
0.00546509
0.0064677
0.00639477
0.00626439
0.00605533
0.00666868
0.00678714
0.00657447
0.0066094
0.00567942
0.00622025
0.00683875
0.00660244
0.00508451
0.00413539
0.00507314
0.00579873
0.00404846
0.000662993
0.000372536
0.00228834
0.00383974
0.00355847
0.00181521
1.14471e-05
3.67212e-07
3.41933e-06
0.000176265
7.21255e-05
7.71073e-16
4.39948e-16
1.52874e-16
2.30662e-17
8.96289e-18
9.50426e-18
3.08598e-17
9.91263e-17
3.04483e-16
1.43483e-15
9.49988e-15
7.98913e-14
7.78259e-13
7.58491e-12
7.291e-11
6.76361e-10
6.04385e-09
5.18241e-08
4.47613e-07
4.28694e-06
3.35819e-05
0.000166523
0.000465581
0.00092238
0.00148659
0.00204201
0.00236977
0.0025464
0.00247197
0.00193477
0.000991677
0.000684556
0.000534104
0.0010717
0.000858708
0.00157671
0.00130579
0.00140639
0.00112137
0.00212105
0.00173897
0.00203832
0.00161413
0.00201245
0.00153483
0.0031524
0.00255512
0.00349709
0.00278751
0.00407986
0.00331001
0.00478125
0.00402373
0.00581606
0.00548733
0.00518072
0.00479051
0.00653779
0.0063959
0.00617369
0.00589651
0.0069438
0.00693427
0.00677265
0.00668546
0.00635512
0.00675059
0.00710129
0.00699423
0.00584974
0.00503963
0.00586776
0.00645033
0.00491888
0.00126596
0.000749289
0.00316712
0.00472289
0.00443622
0.00266773
2.43397e-05
6.3981e-07
6.30305e-06
0.00037584
0.000152393
7.25146e-16
2.99175e-16
8.81703e-17
2.29831e-17
2.15971e-17
7.07812e-17
2.03082e-16
6.35917e-16
2.79077e-15
2.15869e-14
2.01907e-13
1.95629e-12
2.01568e-11
1.98666e-10
1.89198e-09
1.69373e-08
1.45725e-07
1.2673e-06
1.06945e-05
6.73399e-05
0.000250171
0.000583409
0.00105901
0.00164198
0.00211678
0.0023445
0.00242054
0.00217059
0.00149353
0.000666082
0.00021514
0.000233635
0.000142209
0.00048121
0.000335979
0.000872628
0.00065957
0.000673072
0.00046178
0.00124766
0.000932397
0.0011133
0.000766867
0.00106321
0.000666737
0.00213391
0.00155053
0.00255156
0.00183853
0.00324059
0.00246998
0.00444683
0.00403305
0.0036837
0.00327356
0.0055783
0.00522568
0.00485554
0.00446986
0.00652592
0.00629036
0.00600099
0.00567025
0.0070931
0.00683835
0.00699331
0.00666586
0.00687531
0.0071381
0.00725399
0.00725692
0.00651478
0.0058265
0.00653697
0.00697859
0.00571738
0.00205532
0.0013509
0.00403999
0.00553101
0.00525407
0.0035241
5.06676e-05
6.62437e-07
1.04502e-05
0.000723789
0.000310628
6.09937e-16
1.86477e-16
6.04176e-17
5.2506e-17
1.34481e-16
4.75267e-16
1.32319e-15
6.14568e-15
4.79849e-14
4.67671e-13
4.98798e-12
5.05604e-11
5.23146e-10
5.1187e-09
4.71234e-08
4.06697e-07
3.57511e-06
2.57414e-05
0.000125157
0.000347553
0.000700187
0.0011963
0.00176842
0.00212652
0.00229192
0.00225533
0.00185087
0.00110855
0.000460034
0.00013209
2.20816e-05
1.83661e-05
4.78651e-05
2.48605e-05
0.000132364
8.11505e-05
0.000311783
0.000206087
0.000200286
0.000120528
0.000496294
0.00031924
0.000407133
0.000238943
0.000453596
0.000241784
0.00122907
0.00077593
0.00177108
0.00120402
0.00255385
0.00190111
0.00408593
0.00370062
0.00332765
0.00295631
0.00530976
0.00493013
0.00454131
0.00415126
0.00641832
0.00611966
0.00578082
0.00541396
0.00715589
0.0068153
0.00697588
0.00656031
0.00726985
0.00740852
0.00732783
0.00741707
0.00705189
0.00650886
0.00708994
0.00738443
0.00641505
0.00288672
0.00211457
0.00486243
0.00624981
0.00598902
0.00435335
0.000101598
7.81622e-07
1.7824e-05
0.00126373
0.000597114
4.65042e-16
1.39765e-16
1.10475e-16
3.31029e-16
1.08273e-15
4.08571e-15
1.38144e-14
9.59847e-14
1.02775e-12
1.07066e-11
1.30308e-10
1.29846e-09
1.31843e-08
1.24491e-07
1.09584e-06
9.21158e-06
5.70426e-05
0.000204599
0.000453695
0.000818098
0.00131874
0.00184153
0.0021116
0.00221084
0.002058
0.00153583
0.000806295
0.000318055
8.1906e-05
7.57118e-06
2.43213e-06
1.18892e-06
6.71638e-06
3.37548e-06
2.21228e-05
1.23206e-05
6.95188e-05
3.93068e-05
3.93058e-05
2.13893e-05
0.000133608
7.27247e-05
0.000122004
6.06606e-05
0.000217194
9.98224e-05
0.000762494
0.000434054
0.00136652
0.000930103
0.00241867
0.00208357
0.00155368
0.00183417
0.00376959
0.00339984
0.00304509
0.00271131
0.0050302
0.00464009
0.00425209
0.00387209
0.00625513
0.00591232
0.00554276
0.00515941
0.0071506
0.00671811
0.00689507
0.00641078
0.00755354
0.007583
0.00733786
0.00750806
0.00747492
0.0070807
0.00753529
0.00768655
0.00701275
0.00370648
0.00291994
0.00562022
0.00687302
0.00664091
0.00513099
0.000199046
1.16169e-06
3.39583e-05
0.00198689
0.00104183
3.07304e-16
2.38318e-16
7.35253e-16
2.54957e-15
1.00418e-14
3.20371e-14
1.95134e-13
1.83182e-12
2.3017e-11
2.63859e-10
3.34571e-09
3.25678e-08
3.16247e-07
2.80028e-06
2.1334e-05
0.000107798
0.000294765
0.000562735
0.000932221
0.00142874
0.001879
0.00208269
0.00211772
0.00184755
0.00125561
0.000594465
0.000220337
5.03704e-05
5.69874e-06
3.95081e-07
4.20832e-07
4.40327e-07
2.62452e-07
1.21728e-06
6.92909e-07
3.61661e-06
2.07891e-06
1.17324e-05
6.46528e-06
9.26943e-06
5.52262e-06
3.10693e-05
1.65581e-05
4.64787e-05
2.36267e-05
0.000145606
6.50446e-05
0.000579687
0.000313509
0.00134549
0.00111661
0.000842095
0.00226642
0.00199532
0.00151547
0.00175006
0.00350978
0.00316662
0.00284601
0.00254683
0.00477142
0.00439062
0.00402459
0.00368252
0.0060675
0.00570077
0.00532239
0.00494655
0.00709287
0.00658954
0.00679446
0.00625009
0.00774794
0.00769131
0.00730768
0.00753779
0.00780052
0.00755305
0.00788865
0.00790523
0.00751622
0.00449902
0.00371127
0.00630687
0.00740993
0.00721637
0.0058481
0.000397468
2.58931e-06
7.35329e-05
0.00277437
0.00171074
5.16156e-16
1.4425e-15
5.71815e-15
2.22804e-14
8.82531e-14
3.94334e-13
3.51805e-12
3.94144e-11
5.60473e-10
6.52428e-09
8.3717e-08
7.20049e-07
6.59613e-06
4.46702e-05
0.000172109
0.00038849
0.000671661
0.00104069
0.00151495
0.00188946
0.00204182
0.00200851
0.00164614
0.00103064
0.00045645
0.000154435
3.14427e-05
3.48094e-06
2.04592e-07
1.08326e-07
5.88675e-08
2.13123e-07
1.39464e-07
5.57454e-07
3.42541e-07
1.33295e-06
8.64032e-07
3.44283e-06
2.15872e-06
5.16808e-06
3.44765e-06
1.3434e-05
8.11133e-06
3.16896e-05
1.75103e-05
0.000127954
5.8206e-05
0.000525603
0.000280132
0.00130511
0.00110655
0.00094124
0.000751796
0.00222699
0.00197491
0.00151405
0.00173813
0.00336078
0.00305699
0.00276922
0.00249188
0.00458901
0.00424962
0.00392836
0.00361893
0.00589184
0.00553239
0.00518393
0.00485055
0.00702607
0.00646443
0.00671806
0.00612632
0.00787806
0.00774681
0.00728099
0.00753966
0.00804633
0.00793886
0.00816641
0.00806097
0.00793967
0.00524727
0.00448929
0.00692198
0.00787309
0.00772321
0.00650596
0.000754855
3.4441e-05
0.000299863
0.00356962
0.00252985
4.29651e-15
1.41983e-14
5.47874e-14
2.40052e-13
8.37775e-13
6.23533e-12
7.39332e-11
8.95437e-10
1.35063e-08
1.61613e-07
1.61673e-06
1.34444e-05
7.81461e-05
0.000244312
0.000484309
0.000779336
0.00115081
0.00159774
0.00188159
0.00199225
0.00188885
0.00146424
0.000860964
0.000361165
0.000111266
2.03627e-05
2.31632e-06
1.64426e-07
3.67679e-08
2.25955e-08
6.84333e-08
4.23642e-08
1.63272e-07
1.08654e-07
4.18353e-07
2.51722e-07
9.60313e-07
6.49532e-07
2.32769e-06
1.51485e-06
4.43723e-06
3.01344e-06
1.07794e-05
6.75229e-06
2.91638e-05
1.64938e-05
0.000139327
6.08382e-05
0.000616006
0.000459983
0.000301321
0.00130632
0.00111449
0.00098625
0.00081149
0.00228265
0.00204362
0.00158897
0.00181222
0.00332605
0.00304794
0.00278251
0.00252912
0.00452856
0.00422589
0.0039436
0.00368278
0.00579227
0.00546597
0.00515398
0.004867
0.00699236
0.00640125
0.00669785
0.00608422
0.00796182
0.00778015
0.00728569
0.0075455
0.00823139
0.00825496
0.00838297
0.00817603
0.00829837
0.00595026
0.00523989
0.00747521
0.008277
0.00817623
0.00711027
0.00161572
0.000754081
0.00176842
0.00438406
0.00355388
4.64771e-14
1.36742e-13
5.52566e-13
1.88887e-12
1.18019e-11
1.17163e-10
1.62666e-09
2.1118e-08
3.05065e-07
2.8143e-06
2.47614e-05
0.000120367
0.00031872
0.000576956
0.00088335
0.00125652
0.00164731
0.00186344
0.00193118
0.00176203
0.00130178
0.000731476
0.000292677
8.21759e-05
1.35981e-05
1.58305e-06
1.16318e-07
1.24187e-08
2.16598e-08
1.313e-08
5.12074e-08
3.419e-08
1.3045e-07
7.97802e-08
3.51473e-07
2.11169e-07
8.33606e-07
5.64807e-07
2.04213e-06
1.29824e-06
4.20918e-06
2.82787e-06
1.03372e-05
6.43175e-06
3.02544e-05
1.69051e-05
0.000220862
0.000138119
8.02551e-05
0.000653358
0.000511593
0.000304103
0.000438885
0.0013763
0.00117528
0.00108935
0.000898164
0.00247369
0.00222961
0.00174757
0.00198654
0.00343564
0.00319515
0.0029567
0.00271668
0.00461067
0.00437701
0.00415917
0.00394914
0.00578789
0.00552304
0.00529118
0.00509008
0.00702738
0.00641713
0.00679215
0.00616815
0.00802887
0.00782534
0.00738031
0.00759919
0.00838004
0.00851151
0.00856483
0.00827592
0.00860367
0.00660959
0.00596523
0.00797989
0.00863785
0.00859149
0.00766887
0.00320996
0.000385925
0.00239663
0.00523579
0.00466176
4.55494e-13
1.29528e-12
4.97422e-12
2.27177e-11
2.07086e-10
2.39666e-09
3.7871e-08
4.49072e-07
5.25287e-06
3.94836e-05
0.000167902
0.000392025
0.00066484
0.000977814
0.00134585
0.00167676
0.00183537
0.00186255
0.00163165
0.00115726
0.000627074
0.000239558
6.13441e-05
9.40314e-06
9.94416e-07
8.12289e-08
7.60868e-09
7.59034e-09
3.5272e-09
1.65846e-08
1.06299e-08
4.15252e-08
2.60556e-08
1.0026e-07
6.45177e-08
2.65802e-07
1.60886e-07
7.36106e-07
4.63346e-07
1.90137e-06
1.17897e-06
4.14125e-06
2.73929e-06
1.0597e-05
6.38104e-06
3.46997e-05
1.9097e-05
0.000257849