/*--------------------------------*- C++ -*----------------------------------*\
  =========                 |
  \\      /  F ield         | OpenFOAM: The Open Source CFD Toolbox
   \\    /   O peration     | Website:  https://openfoam.org
    \\  /    A nd           | Version:  dev
     \\/     M anipulation  |
\*---------------------------------------------------------------------------*/
FoamFile
{
    version     2.0;
    format      ascii;
    class       volScalarField;
    location    "2500";
    object      k;
}
// * * * * * * * * * * * * * * * * * * * * * * * * * * * * * * * * * * * * * //

dimensions      [0 2 -2 0 0 0 0];

internalField   nonuniform List<scalar> 
9575
(
0.000154757
0.000160975
0.000148067
0.000139751
0.000204663
0.000122229
0.000119312
0.000217285
0.000185655
0.000109396
0.000110667
0.000205349
0.000221751
0.000145897
0.000105776
0.000105543
0.000175024
0.000242165
0.000195513
0.000122932
0.000103797
0.00010295
0.000144234
0.000240788
0.000231804
0.000151857
0.000113377
0.000102492
0.000101447
0.00012739
0.000226541
0.00025094
0.000193621
0.000126963
0.000108649
0.000101645
0.000100601
0.00011595
0.000195059
0.000261971
0.000231416
0.000151025
0.000115935
0.000105614
0.000101053
0.000100124
0.000109104
0.000160025
0.000258271
0.000255462
0.000184944
0.000127395
0.000110178
0.000103527
0.000100614
9.96316e-05
0.000105053
0.000138288
0.000243084
0.000269126
0.0002239
0.000146211
0.000116178
0.000106461
0.000102058
0.000100269
9.91764e-05
0.000102572
0.000123854
0.000211352
0.000277579
0.000253014
0.000174538
0.000125202
0.000110066
0.000103788
0.000100963
0.000100019
9.88122e-05
0.000101004
0.000114551
0.000175683
0.00027387
0.000272272
0.000209141
0.000140288
0.000114822
0.00010594
0.000101846
0.000100135
9.97982e-05
9.85296e-05
9.99201e-05
0.000108858
0.00014949
0.000259783
0.000283864
0.000244441
0.000163403
0.000121961
0.000108714
0.000103006
0.000100391
9.94842e-05
9.9638e-05
9.831e-05
9.91536e-05
0.000105183
0.000133051
0.000230438
0.000292394
0.000268925
0.000193016
0.00013395
0.000112342
0.00010457
0.000100878
9.9274e-05
9.89827e-05
9.95128e-05
9.824e-05
9.85778e-05
0.000102749
0.000121784
0.000195837
0.000290049
0.000286726
0.000226134
0.00015196
0.000118065
0.000106591
0.000101655
9.93082e-05
9.84328e-05
9.85918e-05
9.94102e-05
9.83122e-05
9.79557e-05
0.000101059
0.000114503
0.000164747
0.000279165
0.000297189
0.000258594
0.000176796
0.000127003
0.000109524
0.000102779
9.94763e-05
9.80151e-05
9.77601e-05
9.82898e-05
9.93266e-05
9.83944e-05
9.724e-05
9.96713e-05
0.000109638
0.000146142
0.000255908
0.000306484
0.000281181
0.000205344
0.000141374
0.000113889
0.000104352
9.98718e-05
9.77367e-05
9.7031e-05
9.72413e-05
9.80388e-05
9.9267e-05
9.84575e-05
9.66357e-05
9.85073e-05
0.000106175
0.000133333
0.000223658
0.000307691
0.000298463
0.000236737
0.000160645
0.000120967
0.000106596
0.000100629
9.77675e-05
9.6462e-05
9.62943e-05
9.68244e-05
9.78482e-05
9.92151e-05
9.84991e-05
9.61051e-05
9.75602e-05
0.000103656
0.000124282
0.00019267
0.000301406
0.000308665
0.00026594
0.000185392
0.000131481
0.000109936
0.00010179
9.79457e-05
9.60829e-05
9.54868e-05
9.57146e-05
9.64981e-05
9.76944e-05
9.91703e-05
9.8519e-05
9.56024e-05
9.67466e-05
0.000101771
0.000118069
0.000167892
0.000285493
0.000318352
0.000289344
0.000211962
0.00014656
0.000115061
0.000103478
9.8373e-05
9.58976e-05
9.48447e-05
9.472e-05
9.5252e-05
9.62397e-05
9.7561e-05
9.91357e-05
9.85301e-05
9.51208e-05
9.60209e-05
0.000100288
0.000113683
0.000152673
0.000261401
0.000323696
0.000306288
0.000240614
0.000165844
0.000122764
0.000105959
9.92255e-05
9.59793e-05
9.4362e-05
9.3875e-05
9.41167e-05
9.48793e-05
9.60111e-05
9.74596e-05
9.91101e-05
9.85335e-05
9.46743e-05
9.5376e-05
9.91098e-05
0.000110524
0.000142059
0.000233801
0.000322062
0.000319076
0.000266832
0.000188398
0.000133889
0.000109682
0.000100522
9.62579e-05
9.40813e-05
9.31725e-05
9.31088e-05
9.36338e-05
9.45586e-05
9.58403e-05
9.73823e-05
9.90898e-05
9.85144e-05
9.42866e-05
9.48169e-05
9.82259e-05
0.000108247
0.000134359
0.000208552
0.000315107
0.000326447
0.000291455
0.000212486
0.000148562
0.000115283
0.000102385
9.68491e-05
9.40597e-05
9.26455e-05
9.22394e-05
9.25078e-05
9.32317e-05
9.43223e-05
9.57171e-05
9.73218e-05
9.90749e-05
9.84606e-05
9.3969e-05
9.4352e-05
9.76062e-05
0.000106776
0.000128808
0.000187772
0.000300463
0.000332532
0.000308484
0.000235924
0.000166314
0.00012338
0.000105132
9.78135e-05
9.419e-05
9.22954e-05
9.15123e-05
9.15069e-05
9.2026e-05
9.2927e-05
9.4157e-05
9.56161e-05
9.72755e-05
9.90653e-05
9.83657e-05
9.37305e-05
9.39952e-05
9.72027e-05
0.000106035
0.000125309
0.000172163
0.000281388
0.000336297
0.000320377
0.000260345
0.000185613
0.000134162
0.000109265
9.91701e-05
9.45346e-05
9.21047e-05
9.09663e-05
9.06388e-05
9.09409e-05
9.16565e-05
9.27091e-05
9.40183e-05
9.55403e-05
9.72421e-05
9.9056e-05
9.82181e-05
9.35498e-05
9.37477e-05
9.71153e-05
0.000105949
0.000124029
0.00016214
0.000261101
0.000335346
0.000330165
0.000281187
0.000206431
0.000147252
0.00011498
0.000101217
9.51607e-05
9.21622e-05
9.05505e-05
8.99442e-05
8.99861e-05
9.05118e-05
9.13814e-05
9.25428e-05
9.39133e-05
9.54845e-05
9.72244e-05
9.90544e-05
9.8016e-05
9.3442e-05
9.36267e-05
9.71394e-05
0.000106618
0.000123745
0.000155583
0.000240998
0.000330573
0.000335948
0.000299417
0.000226625
0.000162572
0.000122364
0.000104062
9.61597e-05
9.23536e-05
9.03307e-05
8.93774e-05
8.91709e-05
8.94872e-05
9.01862e-05
9.11898e-05
9.24129e-05
9.38406e-05
9.54573e-05
9.723e-05
9.90602e-05
9.77532e-05
9.34325e-05
9.37029e-05
9.74604e-05
0.000107674
0.000123947
0.000151172
0.000223168
0.000320481
0.00034042
0.000314604
0.000245127
0.000178968
0.000131686
0.00010782
9.7575e-05
9.27447e-05
9.02734e-05
8.89711e-05
8.8479e-05
8.8586e-05
8.91189e-05
8.99607e-05
9.10376e-05
9.23285e-05
9.38127e-05
9.54672e-05
9.72606e-05
9.90765e-05
9.74331e-05
9.3563e-05
9.40338e-05
9.82331e-05
0.000109364
0.000124463
0.000147933
0.000208398
0.000307287
0.000342088
0.000324892
0.000262857
0.000195528
0.000142704
0.000112762
9.94628e-05
9.33995e-05
9.03528e-05
8.86954e-05
8.79256e-05
8.7811e-05
8.81769e-05
8.88553e-05
8.97913e-05
9.09434e-05
9.23073e-05
9.38364e-05
9.55111e-05
9.73251e-05
9.91112e-05
9.70843e-05
9.38827e-05
9.46833e-05
9.95656e-05
0.000111503
0.000125236
0.000145606
0.000196343
0.000292276
0.000341318
0.000331586
0.000279192
0.000211203
0.000155032
0.000119016
0.000101994
9.43617e-05
9.05702e-05
8.85145e-05
8.75053e-05
8.71514e-05
8.73522e-05
8.78744e-05
8.86747e-05
8.96889e-05
9.0931e-05
9.23477e-05
9.3919e-05
9.56101e-05
9.74361e-05
9.91733e-05
9.67814e-05
9.44091e-05
9.56756e-05
0.000101533
0.000113886
0.000125998
0.000143902
0.000186745
0.000276649
0.000338638
0.000335556
0.000293133
0.000225986
0.000167867
0.000126602
0.000105282
9.57153e-05
9.10027e-05
8.85417e-05
8.71968e-05
8.66286e-05
8.66371e-05
8.70107e-05
8.76719e-05
8.85699e-05
8.9681e-05
9.10067e-05
9.24626e-05
9.40879e-05
9.58004e-05
9.76105e-05
9.92703e-05
9.66004e-05
9.51426e-05
9.70375e-05
0.000104163
0.000116023
0.000126621
0.000142252
0.000178279
0.000261395
0.000332827
0.000337159
0.000304414
0.000239379
0.000180735
0.000135302
0.000109419
9.74708e-05
9.1694e-05
8.86556e-05
8.70164e-05
8.62225e-05
8.60228e-05
8.6257e-05
8.67831e-05
8.75715e-05
8.85699e-05
8.98014e-05
9.11788e-05
9.26859e-05
9.4373e-05
9.61223e-05
9.78835e-05
9.94001e-05
9.66217e-05
9.60397e-05
9.87829e-05
0.000106955
0.000117492
0.000126921
0.00014058
0.000172042
0.000247242
0.000324217
0.000336985
0.000313474
0.000251361
0.000192993
0.000144908
0.000114409
9.96496e-05
9.26251e-05
8.88996e-05
8.69182e-05
8.59106e-05
8.551e-05
8.55807e-05
8.59983e-05
8.66889e-05
8.75992e-05
8.8728e-05
9.00245e-05
9.14845e-05
9.30681e-05
9.48205e-05
9.66409e-05
9.83551e-05
9.98021e-05
9.94125e-05
9.67846e-05
9.69668e-05
0.000101076
0.000109699
0.000118466
0.000126775
0.000138899
0.000166863
0.000233952
0.000314181
0.00033605
0.000318985
0.000261414
0.000204325
0.000154932
0.000120334
0.000102287
9.37644e-05
8.93664e-05
8.69577e-05
8.56606e-05
8.50972e-05
8.50074e-05
8.52999e-05
8.58986e-05
8.67464e-05
8.77871e-05
8.9021e-05
9.04071e-05
9.19824e-05
9.36883e-05
9.55395e-05
9.74179e-05
9.69244e-05
9.90267e-05
9.77469e-05
9.86793e-05
9.98789e-05
9.95949e-05
9.7103e-05
9.81718e-05
0.000104226
0.000112144
0.00011893
0.000126071
0.00013709
0.000162241
0.000222176
0.000303358
0.000333848
0.000321975
0.000271037
0.000214151
0.000164851
0.00012703
0.000105508
9.5178e-05
8.99745e-05
8.70909e-05
8.5511e-05
8.47598e-05
8.45193e-05
8.46867e-05
8.5187e-05
8.59683e-05
8.69532e-05
8.81485e-05
8.95175e-05
9.10477e-05
9.27737e-05
9.46548e-05
9.64614e-05
9.60964e-05
9.7363e-05
9.93433e-05
9.84146e-05
9.91152e-05
9.99391e-05
9.98391e-05
9.76405e-05
9.98161e-05
0.000107616
0.000113919
0.00011889
0.000124869
0.000135051
0.000157941
0.000211854
0.000292495
0.000330767
0.000323319
0.000279011
0.000222739
0.000174284
0.000134257
0.00010933
9.69182e-05
9.07685e-05
8.73685e-05
8.55122e-05
8.45092e-05
8.41082e-05
8.4129e-05
8.45402e-05
8.52546e-05
8.62142e-05
8.73676e-05
8.87642e-05
9.03131e-05
9.20782e-05
9.40193e-05
9.57771e-05
9.55789e-05
9.70405e-05
9.67772e-05
9.81662e-05
9.97566e-05
9.8973e-05
9.9732e-05
0.000100033
0.000100145
9.84351e-05
0.000102002
0.000110844
0.000115204
0.000118392
0.000123362
0.000132863
0.00015391
0.000202856
0.000282044
0.000327254
0.000323614
0.000285667
0.000230102
0.000182831
0.000141809
0.000113716
9.89941e-05
9.1753e-05
8.78086e-05
8.55734e-05
8.43286e-05
8.37589e-05
8.3636e-05
8.39274e-05
8.45902e-05
8.5542e-05
8.67067e-05
8.81057e-05
8.9757e-05
9.15354e-05
9.36034e-05
9.53944e-05
9.53324e-05
9.66114e-05
9.65099e-05
9.79704e-05
9.7841e-05
9.88876e-05
0.000100288
9.97638e-05
0.000100468
0.000100153
0.000100516
9.944e-05
0.000104972
0.000113654
0.00011605
0.00011778
0.000121856
0.000130662
0.00015018
0.000195079
0.000272291
0.000323731
0.000323432
0.000291172
0.000236445
0.000190368
0.000149341
0.000118643
0.000101415
9.28801e-05
8.83993e-05
8.57334e-05
8.42293e-05
8.34741e-05
8.32074e-05
8.33899e-05
8.39542e-05
8.48723e-05
8.60945e-05
8.75379e-05
8.92597e-05
9.12925e-05
9.34678e-05
9.53337e-05
9.5394e-05
9.65226e-05
9.65854e-05
9.78275e-05
9.78758e-05
9.88992e-05
9.89638e-05
9.98558e-05
0.000100906
0.000100703
0.000101302
0.000100261
0.000100808
0.000100437
0.000108591
0.000115866
0.000116698
0.000117355
0.000120586
0.000128603
0.000146833
0.000188377
0.000263488
0.000320043
0.000323077
0.000296006
0.000242022
0.000196777
0.000156607
0.000124001
0.000104238
9.41892e-05
8.90109e-05
8.60147e-05
8.42032e-05
8.32511e-05
8.28434e-05
8.29044e-05
8.33827e-05
8.4253e-05
8.54683e-05
8.70503e-05
8.88892e-05
9.09882e-05
9.35319e-05
9.55035e-05
9.57722e-05
9.67335e-05
9.69588e-05
9.80009e-05
9.82515e-05
9.9115e-05
9.93806e-05
0.000100044
0.000100318
0.00010101
0.000101361
0.000101699
0.000101917
0.000100333
0.000101037
0.000101704
0.000112749
0.000117922
0.000117429
0.000117209
0.000119588
0.0001268
0.000143887
0.000182634
0.000255683
0.000316296
0.000323204
0.000300685
0.000247043
0.00020221
0.000163286
0.000129631
0.000107426
9.57283e-05
8.97018e-05
8.63285e-05
8.42448e-05
8.3073e-05
8.25701e-05
8.24604e-05
8.28334e-05
8.36121e-05
8.48476e-05
8.65176e-05
8.8658e-05
9.1087e-05
9.38195e-05
9.59699e-05
9.63917e-05
9.72924e-05
9.76922e-05
9.85797e-05
9.90097e-05
9.97284e-05
0.000100175
0.000100678
0.000101127
0.000101396
0.000101836
0.00010215
0.000101763
0.000102481
0.000102498
0.000100413
0.000101284
0.000103377
0.000116931
0.000120074
0.000118425
0.000117291
0.000118907
0.000125396
0.00014141
0.00017774
0.000248731
0.000312715
0.00032401
0.000304476
0.000252002
0.000206905
0.000169304
0.000135286
0.000110929
9.74664e-05
9.05438e-05
8.66756e-05
8.43515e-05
8.2971e-05
8.2357e-05
8.21357e-05
8.23389e-05
8.29967e-05
8.41567e-05
8.58975e-05
8.8152e-05
9.10624e-05
9.43895e-05
9.67626e-05
9.76083e-05
9.81736e-05
9.88254e-05
9.9498e-05
0.000100129
0.000100679
0.000101305
0.000101653
0.00010222
0.000102334
0.000102877
0.000102641
0.000103208
0.000103108
0.000102193
0.000103245
0.000103116
0.000100508
0.000101561
0.000105383
0.000120834
0.000122294
0.000119812
0.000117739
0.000118666
0.000124491
0.000139517
0.000173684
0.000242464
0.000309379
0.000325919
0.000308158
0.000257699
0.000210921
0.000174624
0.000140877
0.000114736
9.93667e-05
9.14681e-05
8.70839e-05
8.4541e-05
8.29937e-05
8.21807e-05
8.1879e-05
8.19293e-05
8.25236e-05
8.34915e-05
8.52395e-05
8.83824e-05
9.26323e-05
9.51132e-05
9.85633e-05
0.000101205
9.98325e-05
0.000101951
0.000101025
0.000102845
0.000102008
0.000103403
0.000102861
0.000103809
0.000103512
0.000104182
0.000103833
0.000104539
0.000103767
0.000104517
0.000104065
0.000102702
0.000104071
0.000103831
0.000100622
0.000101896
0.000107301
0.000124281
0.00012451
0.000121484
0.000118627
0.00011882
0.000124103
0.000138223
0.000170518
0.000236797
0.000306217
0.000328469
0.000312327
0.000264027
0.000214824
0.000179119
0.000146275
0.000118826
0.000101518
9.24055e-05
8.75489e-05
8.47628e-05
8.30651e-05
8.21316e-05
8.16838e-05
8.16609e-05
8.19723e-05
8.30489e-05
8.54002e-05
9.05621e-05
0.00010297
0.000128304
0.000109944
9.33799e-05
0.000106994
0.0001214
0.000107075
0.000118188
0.000106677
0.000115271
0.000105974
0.000111862
0.000105521
0.000108966
0.000105358
0.000107198
0.000105309
0.000106318
0.00010493
0.000105855
0.00010514
0.000103295
0.000105095
0.000104721
0.000100753
0.000102294
0.000108941
0.000127448
0.000126814
0.000123281
0.000119854
0.000119471
0.000124096
0.000137402
0.000168073
0.000231682
0.000303185
0.000331575
0.000317088
0.000270965
0.000219144
0.000183135
0.000151239
0.000123054
0.000103951
9.34517e-05
8.80381e-05
8.50025e-05
8.3169e-05
8.21289e-05
8.16434e-05
8.14636e-05
8.18666e-05
8.3304e-05
8.76091e-05
0.000100893
0.000148665
0.000292889
0.000646377
0.000165907
0.000386009
0.0001499
0.000248047
0.000139684
0.000212281
0.000129123
0.000181097
0.000119269
0.000152174
0.000112616
0.00013026
0.000108822
0.00011705
0.000107058
0.000110311
0.000106183
0.000107574
0.000106362
0.000103974
0.000106299
0.000105858
0.00010095
0.000102645
0.000109794
0.000130132
0.000129258
0.00012511
0.000121331
0.000120531
0.00012441
0.000136993
0.000166084
0.000226999
0.000300215
0.000335193
0.000322645
0.000278468
0.000223846
0.000186902
0.000155945
0.000127307
0.000106627
9.47017e-05
8.85719e-05
8.52441e-05
8.32909e-05
8.21375e-05
8.16007e-05
8.14767e-05
8.20954e-05
8.51732e-05
9.81296e-05
0.000150772
0.00032677
0.000885025
0.00214657
0.00245199
0.0046134
0.000526332
0.00121138
0.000421904
0.00102051
0.000336817
0.000780258
0.000257269
0.000564198
0.000188816
0.000381916
0.000146134
0.000245848
0.000122203
0.000167174
0.0001115
0.000127462
0.000107878
0.000112291
0.000107901
0.000105013
0.00010753
0.000106714
0.000101048
0.000103403
0.000109701
0.000131573
0.00013157
0.000126939
0.000122871
0.000121768
0.000125178
0.000136969
0.000164505
0.000222562
0.000297195
0.000339042
0.000329121
0.000286956
0.000229386
0.000190421
0.000160452
0.000131671
0.000109523
9.6203e-05
8.91882e-05
8.54987e-05
8.33931e-05
8.21664e-05
8.16014e-05
8.16501e-05
8.3317e-05
9.30189e-05
0.000139869
0.000333157
0.000979157
0.0024582
0.00538819
0.00637618
0.00849431
0.00662749
0.00823492
0.00231153
0.00438763
0.00180196
0.00390262
0.00137421
0.00307714
0.000949717
0.00220369
0.000565012
0.00146334
0.000327635
0.000832251
0.000192634
0.000429333
0.000131582
0.000217998
0.000112431
0.000133905
0.000111799
0.000105766
0.000110418
0.000108636
0.000101159
0.000104225
0.000109224
0.000131512
0.000132983
0.000128612
0.000124318
0.000123048
0.000126093
0.000137107
0.000163199
0.000218321
0.000293915
0.000342429
0.000335851
0.000296975
0.000236015
0.000194035
0.000164557
0.000136169
0.000112735
9.79562e-05
8.99497e-05
8.57355e-05
8.34321e-05
8.21392e-05
8.16645e-05
8.22626e-05
8.78993e-05
0.000121752
0.000283824
0.000911871
0.00253888
0.00584921
0.00852217
0.00923204
0.0103036
0.0093654
0.00990083
0.00909373
0.00963857
0.00626509
0.00801111
0.00554168
0.00755999
0.00458593
0.0068191
0.00338613
0.0058603
0.0020575
0.00452783
0.00116783
0.00283881
0.000540053
0.00151459
0.000236221
0.000637584
0.000133067
0.000245418
0.000128778
0.000106613
0.000121775
0.000114201
0.000101636
0.000104434
0.000108194
0.000130018
0.000133083
0.000129721
0.000125583
0.000124201
0.000127056
0.000137443
0.000162012
0.00021417
0.000290349
0.000344889
0.000342907
0.000307927
0.000243839
0.000198084
0.000168289
0.000140698
0.000116249
0.00010001
9.08492e-05
8.60703e-05
8.3429e-05
8.20121e-05
8.16831e-05
8.41647e-05
0.000103166
0.000212166
0.000714574
0.00226135
0.00552985
0.00841362
0.00969573
0.010049
0.0103102
0.0102816
0.00997272
0.00991331
0.00959447
0.00953403
0.00874146
0.00932647
0.00824275
0.00893834
0.0075516
0.00846715
0.00666693
0.00788474
0.00543765
0.00712959
0.00364762
0.00604768
0.00182131
0.00432725
0.000697716
0.00205029
0.000239279
0.000720185
0.000215129
0.000108592
0.000177018
0.000136495
0.000102022
0.000104771
0.000114518
0.000128414
0.000132383
0.000130017
0.000126465
0.000125145
0.000127936
0.000137868
0.000160836
0.000210084
0.000286388
0.000346724
0.000350908
0.000318718
0.000253293
0.000202799
0.00017201
0.000145069
0.000120057
0.000102319
9.20173e-05
8.63997e-05
8.33929e-05
8.18455e-05
8.19165e-05
8.91688e-05
0.000147916
0.000475332
0.00165107
0.00471727
0.0081448
0.00967893
0.00978245
0.00925698
0.00909752
0.00904816
0.00970765
0.00930965
0.00931332
0.00908463
0.00907441
0.0089669
0.00923018
0.00920231
0.00887489
0.00895466
0.00848404
0.00873776
0.00804048
0.00847777
0.0074217
0.00814682
0.00645881
0.00764015
0.00479787
0.00674736
0.00216397
0.00507864
0.000682228
0.00215108
0.000574657
0.000113159
0.000405836
0.000212227
0.000102076
0.000105453
0.000135254
0.000132184
0.000130146
0.000127196
0.000125904
0.000128687
0.00013833
0.000159691
0.000205927
0.000281939
0.000348122
0.000359678
0.000329594
0.000264593
0.000208522
0.00017577
0.000149576
0.000124075
0.000105004
9.3375e-05
8.69769e-05
8.33913e-05
8.1632e-05
8.27255e-05
0.000101657
0.00025429
0.00107773
0.00358954
0.00739739
0.00956123
0.0100605
0.00964615
0.00925187
0.00907098
0.00909327
0.00904287
0.0093283
0.00896684
0.0089457
0.00887495
0.00891332
0.00890465
0.00899426
0.00893626
0.00888429
0.0088014
0.00887366
0.00868301
0.00891688
0.00853716
0.00895875
0.00827147
0.00888629
0.00784883
0.0086405
0.0069656
0.00817912
0.00517214
0.00715354
0.00198986
0.00503415
0.00165442
0.000118358
0.00109254
0.000508346
0.000211062
0.000101838
0.000105811
0.000137849
0.00013158
0.000128467
0.00012696
0.000129397
0.000138798
0.000158571
0.000201812
0.000276774
0.000348934
0.000369039
0.000341225
0.000277274
0.000215347
0.000179716
0.000154003
0.000128586
0.000107899
9.51854e-05
8.76819e-05
8.34927e-05
8.16167e-05
8.49443e-05
0.000131038
0.000484421
0.00208513
0.00587811
0.00928977
0.01047
0.00999028
0.00933433
0.009344
0.0108833
0.00988869
0.0112261
0.0102936
0.0113496
0.00907844
0.00947103
0.00922947
0.0097738
0.00965381
0.0101996
0.00903392
0.00925221
0.0092878
0.00970077
0.00948161
0.0101125
0.00961772
0.0104146
0.00956687
0.0105928
0.00937358
0.0105357
0.00876564
0.0102414
0.00740659
0.00941202
0.00465493
0.0076231
0.00611207
0.00241151
0.0043116
0.000316608
0.000127445
0.000216807
0.0014109
0.00338428
0.00356219
0.000960405
0.000101515
0.000149108
0.000121992
0.000105812
0.000140958
0.000131994
0.000129097
0.0001306
0.00013934
0.000157865
0.000197604
0.000270947
0.000348955
0.000378395
0.000353853
0.000291405
0.000223915
0.000183881
0.000158393
0.000133157
0.000111551
9.69312e-05
8.89262e-05
8.39167e-05
8.19033e-05
9.0828e-05
0.000197289
0.000921468
0.0036322
0.00804857
0.0103139
0.0105285
0.00970212
0.00924961
0.00972173
0.0118961
0.013624
0.0142033
0.0124043
0.0133586
0.012438
0.0130664
0.0106129
0.011576
0.0108435
0.0114922
0.0109608
0.0112076
0.010222
0.0106607
0.0107675
0.0110945
0.0112321
0.0115812
0.011628
0.0121435
0.0118102
0.0128232
0.0118164
0.0132604
0.0113431
0.0120683
0.0129796
0.00870408
0.0100344
0.0123255
0.0110932
0.00750146
0.00578832
0.00760784
0.00891262
0.00554691
0.000606806
0.000352207
0.00260157
0.00462756
0.00524674
0.00183065
0.000108411
0.00010048
0.000102979
0.000214913
0.000143482
0.000146489
0.000134463
0.000133178
0.000140314
0.000157766
0.000193756
0.000264405
0.000347814
0.000387079
0.000366825
0.000307132
0.000234221
0.000188907
0.000162432
0.000138136
0.000115202
9.96501e-05
8.98653e-05
8.46208e-05
8.32012e-05
0.000106497
0.000334687
0.00169794
0.00548899
0.00958428
0.0110084
0.0104205
0.00940109
0.00928751
0.0105309
0.0127874
0.013971
0.0140204
0.0136965
0.013608
0.0140198
0.0130981
0.0132387
0.0120592
0.0126082
0.0116111
0.0120039
0.011277
0.0112143
0.0111712
0.0112645
0.01159
0.011513
0.0121311
0.0119934
0.0129246
0.0127335
0.0139976
0.0138029
0.0136705
0.0143381
0.0147086
0.0149467
0.0133068
0.0143651
0.0134902
0.0143804
0.0102557
0.0115562
0.0139574
0.0128007
0.0090624
0.00733793
0.00902856
0.0105175
0.00710572
0.0011521
0.000662357
0.00393012
0.00666928
0.00610931
0.00305299
0.000115969
0.000100523
0.000104608
0.000351716
0.000198462
0.000153583
0.000139543
0.000142509
0.00015779
0.00019067
0.000257519
0.000344699
0.000394297
0.000379682
0.000324012
0.000246439
0.000194782
0.000166883
0.000142621
0.00011969
0.000102069
9.18904e-05
8.57107e-05
8.75293e-05
0.000146505
0.000625407
0.00278075
0.00731703
0.0106191
0.0111508
0.0101339
0.00927939
0.00950999
0.0112525
0.013498
0.0132731
0.00894694
0.00773769
0.0117055
0.0104302
0.0130788
0.0125674
0.0116327
0.0107573
0.0121856
0.0120608
0.0109774
0.0104738
0.00959361
0.0085861
0.0112187
0.0105317
0.0114883
0.0103405
0.0121604
0.0108735
0.0132175
0.0119706
0.0148973
0.0146071
0.0141322
0.0134996
0.015019
0.0153972
0.0155368
0.0154461
0.0149735
0.0157955
0.0151675
0.015733
0.0119392
0.0132913
0.0155879
0.0145245
0.010675
0.00894832
0.0107542
0.0122518
0.00871166
0.00207554
0.00122468
0.00536103
0.00831386
0.00773885
0.00443745
0.000131973
0.000100819
0.000108579
0.000638533
0.000310084
0.000160817
0.000148208
0.000158583
0.000188259
0.000251364
0.000340217
0.000400169
0.000392857
0.000341777
0.000260243
0.000201974
0.000171057
0.000147854
0.000123714
0.000105563
9.34318e-05
8.80054e-05
0.000100898
0.000251321
0.00120742
0.00437531
0.00893696
0.0111697
0.0110533
0.00973036
0.00929283
0.0100881
0.0124663
0.0137235
0.0113422
0.00330248
0.00346702
0.00230329
0.00650975
0.004886
0.00961284
0.00811033
0.00707328
0.00549185
0.00967136
0.00853231
0.00742615
0.00607002
0.00546653
0.00396115
0.00877454
0.00705352
0.00890271
0.00674477
0.0100529
0.0078219
0.0127511
0.0118469
0.0109524
0.0099542
0.0151103
0.0145761
0.0138777
0.0130301
0.0160667
0.0161581
0.0160404
0.0156775
0.0164414
0.0163865
0.0170536
0.01672
0.0137296
0.0150526
0.0170718
0.0161778
0.0124833
0.0107139
0.0126152
0.0140969
0.0105063
0.00333925
0.00214089
0.00695903
0.0101181
0.00953054
0.00597133
0.000169359
0.000101465
0.000116716
0.00116751
0.000545756
0.000167489
0.000162261
0.00018747
0.000244515
0.000335362
0.000404842
0.000407119
0.000360073
0.00027597
0.000209977
0.000176126
0.000152122
0.000128989
0.00010847
9.64177e-05
9.32343e-05
0.000138871
0.00051288
0.00225993
0.00621024
0.0101295
0.0115562
0.0108122
0.00953718
0.00937053
0.0107748
0.0129869
0.013571
0.00855334
0.0023581
0.000598843
0.000548098
0.000934254
0.000633528
0.0019744
0.00136794
0.0038894
0.00278058
0.00229977
0.00160424
0.00456937
0.0032366
0.00280141
0.00197735
0.0021249
0.00137549
0.00470369
0.00320824
0.00577494
0.00404794
0.00792775
0.00603546
0.0121026
0.0110919
0.01008
0.00904717
0.0151106
0.014375
0.0135094
0.0125573
0.0168022
0.016673
0.0163068
0.0157261
0.0177162
0.0174048
0.0180976
0.0174937
0.0155254
0.0167255
0.0183642
0.0176765
0.0143762
0.0126106
0.0145462
0.0159313
0.0124219
0.00480253
0.00343859
0.00870756
0.0120426
0.0114298
0.00767588
0.000252229
0.00010307
0.000134347
0.00202973
0.00102168
0.00017696
0.00018855
0.000237864
0.000329271
0.00040812
0.000422006
0.000378625
0.000294154
0.000220252
0.000180312
0.000157535
0.000133278
0.000113105
9.94341e-05
0.000105855
0.000238233
0.00104913
0.00382437
0.00806727
0.0109768
0.0115735
0.0104483
0.00940294
0.00957487
0.0115717
0.0134501
0.0128923
0.00583858
0.00167835
0.000396779
0.00032723
0.000305342
0.000381017
0.000340128
0.000556005
0.000445567
0.00107366
0.000745504
0.00066044
0.000510425
0.00136066
0.000922113
0.000902743
0.00064587
0.00097086
0.000630038
0.00265836
0.00163338
0.00441332
0.00309374
0.00770644
0.00674325
0.00513122
0.00596522
0.011564
0.0105604
0.00957717
0.00861188
0.0149873
0.0141307
0.0132021
0.0122378
0.0173615
0.0169975
0.0164311
0.0157135
0.0187858
0.0182137
0.018945
0.0180962
0.0172256
0.0182452
0.0194617
0.0189901
0.0162463
0.0145656
0.0164562
0.0176598
0.0143958
0.00642384
0.00498107
0.0105823
0.0140134
0.013386
0.00951408
0.000436164
0.00010421
0.000177747
0.00335142
0.00185095
0.000195887
0.00023548
0.000319548
0.000409638
0.000435798
0.000398132
0.000314875
0.000232021
0.000186967
0.000161154
0.000138903
0.000116619
0.000105757
0.000137153
0.000452893
0.00209488
0.00566303
0.00958487
0.011484
0.0114536
0.0100147
0.00939829
0.0100125
0.0125415
0.0137652
0.0114076
0.00408225
0.00114855
0.000363145
0.000293655
0.000286026
0.00030358
0.000295079
0.000314696
0.000308843
0.000337658
0.00032253
0.000419352
0.00036668
0.000384084
0.000356913
0.000507526
0.000429641
0.000478132
0.000420338
0.000729879
0.00051094
0.00202902
0.00122761
0.00447506
0.00376799
0.00293926
0.00759208
0.0067547
0.00527024
0.00599171
0.0112709
0.0103172
0.00937745
0.00846431
0.0148939
0.0139982
0.013062
0.012117
0.0177531
0.0172185
0.0165356
0.0157488
0.0196727
0.0188618
0.0196418
0.0185575
0.0187683
0.0195819
0.0203848
0.0201171
0.0180157
0.0165067
0.0182662
0.0192349
0.0163582
0.00821262
0.00668552
0.012534
0.0159814
0.0153582
0.0114467
0.000863106
0.000109994
0.000346333
0.00497655
0.0032231
0.000234829
0.000314082
0.000408742
0.000449864
0.000417563
0.000336894
0.000248217
0.000192381
0.000166927
0.000142971
0.000122539
0.000114939
0.000206457
0.000902008
0.00338492
0.00752066
0.0107546
0.0118414
0.0111629
0.00974498
0.00944513
0.010655
0.0131753
0.013781
0.00964748
0.0030606
0.000801119
0.000324277
0.000275703
0.000289353
0.000281404
0.000302919
0.00029633
0.000310603
0.000307898
0.000317875
0.000312934
0.000338993
0.000326594
0.000358163
0.000344873
0.000392815
0.000374459
0.000427316
0.000401444
0.000708397
0.000507871
0.00195146
0.00118333
0.00459943
0.00396686
0.00370571
0.00305422
0.00780692
0.00704129
0.00560319
0.00630784
0.0111893
0.0102901
0.00942952
0.00860435
0.0149001
0.014025
0.0131509
0.0122961
0.0180704
0.0174452
0.0167237
0.0159516
0.0204172
0.019395
0.020243
0.0189697
0.0201329
0.0207387
0.0211676
0.0210736
0.0196251
0.0183482
0.0199075
0.020624
0.0182308
0.0101238
0.00856569
0.0145127
0.0178782
0.0172959
0.0134416
0.00183018
0.000267807
0.00153512
0.00682211
0.00509698
0.000304171
0.000407085
0.000460512
0.000436685
0.000362403
0.000263582
0.000202925
0.000170598
0.000149094
0.000126692
0.000134951
0.000344715
0.0015801
0.00496901
0.00921655
0.0115375
0.0119899
0.0108161
0.00957451
0.00957784
0.0113871
0.0136028
0.0136349
0.00797023
0.00237042
0.000599198
0.000294481
0.000266107
0.000276744
0.000269795
0.000289149
0.00028184
0.000304126
0.000296631
0.000315055
0.000310521
0.000320043
0.000317621
0.000334026
0.000325389
0.00036203
0.000351182
0.000386893
0.000373682
0.000437991
0.00041609
0.000873476
0.000578672
0.00257933
0.00202859
0.00150793
0.00493185
0.00429526
0.0040894
0.00347412
0.00835734
0.00760324
0.00613048
0.00685974
0.0114699
0.0106686
0.00988825
0.00912034
0.0151656
0.0143895
0.0136356
0.0129055
0.0184158
0.0177835
0.0171137
0.0164462
0.0210767
0.0198975
0.0208221
0.0194289
0.021312
0.0217259
0.0218786
0.0218863
0.0210392
0.0200201
0.0213456
0.0218155
0.0199337
0.0121302
0.0105749
0.016504
0.0196334
0.0191568
0.0154847
0.00423287
0.00439395
0.00737632
0.00884493
0.00736659
0.000399985
0.000470952
0.000458292
0.000385546
0.000286886
0.000210432
0.000177336
0.00015313
0.000135225
0.000161742
0.000578821
0.00253646
0.00661699
0.0105235
0.0121063
0.01191
0.0103719
0.00952848
0.00984498
0.0122939
0.0140587
0.0132664
0.00652112
0.00185836
0.000480076
0.00027357
0.000257341
0.000262991
0.000275424
0.000269486
0.000288629
0.00028188
0.000304283
0.000296456
0.000316929
0.000311278
0.000325418
0.000321027
0.000340907
0.000331891
0.000370183
0.000356292
0.000401638
0.000385953
0.000470517
0.000430924
0.00128824
0.000926661
0.000693203
0.00289953
0.00237301
0.00165849
0.00222775
0.0054236
0.00474251
0.00465452
0.00397698
0.00925666
0.00847422
0.00689252
0.00768237
0.0121929
0.0114822
0.0107628
0.0100224
0.0158036
0.0151919
0.0146032
0.0140216
0.0188992
0.0183577
0.017838
0.0173637
0.0217238
0.02046
0.0214737
0.0200471
0.0223138
0.0225654
0.022576
0.0226251
0.0222473
0.0214736
0.0225473
0.0228184
0.0214133
0.014208
0.0126709
0.0184909
0.0212175
0.0209321
0.0175673
0.00784429
0.00172938
0.010015
0.0109761
0.00970261
0.00047931
0.000474092
0.000416825
0.000305048
0.000225842
0.000181651
0.000159583
0.000141332
0.000216199
0.000900729
0.00361677
0.00818701
0.011527
0.012476
0.0116997
0.0100595
0.00955865
0.0103736
0.0131951
0.0144448
0.0125123
0.00519866
0.00146851
0.000404507
0.000259142
0.000249716
0.000254295
0.000265277
0.000259991
0.000274495
0.000268615
0.000287482
0.000280341
0.000303449
0.000295126
0.000317748
0.00031137
0.000328078
0.000323048
0.000344495
0.000334951
0.000375038
0.000360882
0.000410381
0.000391941
0.000509995
0.000451033
0.00154672
0.00111681
0.00102526
0.000730831
0.00334432
0.00275681
0.00205757
0.00262227
0.00611955
0.00537182
0.00539739
0.00463414
0.0105611
0.0097097
0.0079375
0.00882802
0.0134271
0.0127945
0.0121119
0.0113668
0.0169357
0.0165369
0.0161371
0.0157074
0.0196468
0.0192987
0.0190172
0.0187995
0.0224418
0.0211942
0.0222854
0.0209423
0.0231594
0.0233136
0.0233271
0.0233435
0.0232323
0.0226682
0.0234833
0.0236324
0.0226754
0.0163402
0.0148217
0.0204542
0.0227033
0.022655
0.0196602
0.0100475
0.00112488
0.00736448
0.0131478
0.0119071
0.000505413