/*--------------------------------*- C++ -*----------------------------------*\
  =========                 |
  \\      /  F ield         | OpenFOAM: The Open Source CFD Toolbox
   \\    /   O peration     | Website:  https://openfoam.org
    \\  /    A nd           | Version:  dev
     \\/     M anipulation  |
\*---------------------------------------------------------------------------*/
FoamFile
{
    version     2.0;
    format      ascii;
    class       volScalarField;
    location    "2500";
    object      N2;
}
// * * * * * * * * * * * * * * * * * * * * * * * * * * * * * * * * * * * * * //

dimensions      [0 0 0 0 0 0 0];

internalField   nonuniform List<scalar> 
9575
(
0.76699
0.76699
0.76699
0.76699
0.76699
0.76699
0.76699
0.76699
0.76699
0.76699
0.76699
0.76699
0.76699
0.76699
0.76699
0.76699
0.76699
0.76699
0.76699
0.76699
0.76699
0.76699
0.76699
0.76699
0.76699
0.76699
0.76699
0.76699
0.76699
0.76699
0.76699
0.76699
0.76699
0.76699
0.76699
0.76699
0.76699
0.76699
0.76699
0.76699
0.76699
0.76699
0.76699
0.76699
0.76699
0.76699
0.76699
0.76699
0.76699
0.76699
0.76699
0.76699
0.76699
0.76699
0.76699
0.76699
0.76699
0.76699
0.76699
0.76699
0.76699
0.76699
0.76699
0.76699
0.76699
0.76699
0.76699
0.76699
0.76699
0.76699
0.76699
0.76699
0.76699
0.76699
0.76699
0.76699
0.76699
0.76699
0.76699
0.76699
0.76699
0.76699
0.76699
0.76699
0.76699
0.76699
0.76699
0.76699
0.76699
0.76699
0.76699
0.76699
0.76699
0.76699
0.76699
0.76699
0.76699
0.76699
0.76699
0.76699
0.76699
0.76699
0.76699
0.76699
0.76699
0.76699
0.76699
0.76699
0.76699
0.76699
0.76699
0.76699
0.76699
0.76699
0.76699
0.76699
0.76699
0.76699
0.76699
0.76699
0.76699
0.76699
0.76699
0.76699
0.76699
0.76699
0.76699
0.76699
0.76699
0.76699
0.76699
0.76699
0.76699
0.76699
0.76699
0.76699
0.76699
0.76699
0.76699
0.76699
0.76699
0.76699
0.76699
0.76699
0.76699
0.76699
0.76699
0.76699
0.76699
0.76699
0.76699
0.76699
0.76699
0.76699
0.76699
0.76699
0.76699
0.76699
0.76699
0.76699
0.76699
0.76699
0.76699
0.76699
0.76699
0.76699
0.76699
0.76699
0.76699
0.76699
0.76699
0.76699
0.76699
0.76699
0.76699
0.76699
0.76699
0.76699
0.76699
0.76699
0.76699
0.76699
0.76699
0.76699
0.76699
0.76699
0.76699
0.76699
0.76699
0.76699
0.76699
0.76699
0.76699
0.76699
0.76699
0.76699
0.76699
0.76699
0.76699
0.76699
0.76699
0.76699
0.76699
0.76699
0.76699
0.76699
0.76699
0.76699
0.76699
0.76699
0.76699
0.76699
0.76699
0.76699
0.76699
0.76699
0.76699
0.76699
0.76699
0.76699
0.76699
0.76699
0.76699
0.76699
0.76699
0.76699
0.76699
0.76699
0.76699
0.76699
0.76699
0.76699
0.76699
0.76699
0.76699
0.76699
0.76699
0.76699
0.76699
0.76699
0.76699
0.76699
0.76699
0.76699
0.76699
0.76699
0.76699
0.76699
0.76699
0.76699
0.76699
0.76699
0.76699
0.76699
0.76699
0.76699
0.76699
0.76699
0.76699
0.76699
0.76699
0.76699
0.76699
0.76699
0.76699
0.76699
0.76699
0.76699
0.76699
0.76699
0.76699
0.76699
0.76699
0.76699
0.76699
0.76699
0.76699
0.76699
0.76699
0.76699
0.76699
0.76699
0.76699
0.76699
0.76699
0.76699
0.76699
0.76699
0.76699
0.76699
0.76699
0.76699
0.76699
0.76699
0.76699
0.76699
0.76699
0.76699
0.76699
0.76699
0.76699
0.76699
0.76699
0.76699
0.76699
0.76699
0.76699
0.76699
0.76699
0.76699
0.76699
0.76699
0.76699
0.76699
0.76699
0.76699
0.76699
0.76699
0.76699
0.76699
0.76699
0.76699
0.76699
0.76699
0.76699
0.76699
0.76699
0.76699
0.76699
0.76699
0.76699
0.76699
0.76699
0.76699
0.76699
0.76699
0.76699
0.76699
0.76699
0.76699
0.76699
0.76699
0.76699
0.76699
0.76699
0.76699
0.76699
0.76699
0.76699
0.76699
0.76699
0.76699
0.76699
0.76699
0.76699
0.76699
0.76699
0.76699
0.76699
0.76699
0.76699
0.76699
0.76699
0.76699
0.76699
0.76699
0.76699
0.76699
0.76699
0.76699
0.76699
0.76699
0.76699
0.76699
0.76699
0.76699
0.76699
0.76699
0.76699
0.76699
0.76699
0.76699
0.76699
0.76699
0.76699
0.76699
0.76699
0.76699
0.76699
0.76699
0.76699
0.76699
0.76699
0.76699
0.76699
0.76699
0.76699
0.76699
0.76699
0.76699
0.76699
0.76699
0.76699
0.76699
0.76699
0.76699
0.76699
0.76699
0.76699
0.76699
0.76699
0.76699
0.76699
0.76699
0.76699
0.76699
0.76699
0.76699
0.76699
0.76699
0.76699
0.76699
0.76699
0.76699
0.76699
0.76699
0.76699
0.76699
0.76699
0.76699
0.76699
0.76699
0.76699
0.76699
0.76699
0.76699
0.76699
0.76699
0.76699
0.76699
0.76699
0.76699
0.76699
0.76699
0.76699
0.76699
0.76699
0.76699
0.76699
0.76699
0.76699
0.76699
0.76699
0.76699
0.76699
0.76699
0.76699
0.76699
0.76699
0.76699
0.76699
0.76699
0.76699
0.76699
0.76699
0.76699
0.76699
0.76699
0.76699
0.76699
0.76699
0.76699
0.76699
0.76699
0.76699
0.76699
0.76699
0.76699
0.76699
0.76699
0.76699
0.76699
0.76699
0.76699
0.76699
0.76699
0.76699
0.76699
0.76699
0.76699
0.76699
0.76699
0.76699
0.76699
0.76699
0.76699
0.76699
0.76699
0.76699
0.76699
0.76699
0.76699
0.76699
0.76699
0.76699
0.76699
0.76699
0.76699
0.76699
0.76699
0.76699
0.76699
0.76699
0.76699
0.76699
0.76699
0.76699
0.76699
0.76699
0.76699
0.76699
0.76699
0.76699
0.76699
0.76699
0.76699
0.76699
0.76699
0.76699
0.76699
0.76699
0.76699
0.76699
0.76699
0.76699
0.76699
0.76699
0.76699
0.76699
0.76699
0.76699
0.76699
0.76699
0.76699
0.76699
0.76699
0.76699
0.76699
0.76699
0.76699
0.76699
0.76699
0.76699
0.76699
0.76699
0.76699
0.76699
0.76699
0.76699
0.76699
0.76699
0.76699
0.76699
0.76699
0.76699
0.76699
0.76699
0.76699
0.76699
0.76699
0.76699
0.76699
0.76699
0.76699
0.76699
0.76699
0.76699
0.76699
0.76699
0.76699
0.76699
0.76699
0.76699
0.76699
0.76699
0.76699
0.76699
0.76699
0.76699
0.76699
0.76699
0.76699
0.76699
0.76699
0.76699
0.76699
0.76699
0.76699
0.76699
0.76699
0.76699
0.76699
0.76699
0.76699
0.76699
0.76699
0.76699
0.76699
0.76699
0.76699
0.76699
0.76699
0.76699
0.76699
0.76699
0.76699
0.76699
0.76699
0.76699
0.76699
0.76699
0.76699
0.76699
0.76699
0.76699
0.76699
0.76699
0.76699
0.76699
0.76699
0.76699
0.76699
0.76699
0.76699
0.76699
0.76699
0.76699
0.76699
0.76699
0.76699
0.76699
0.76699
0.76699
0.76699
0.76699
0.76699
0.76699
0.76699
0.76699
0.76699
0.76699
0.76699
0.76699
0.76699
0.76699
0.76699
0.76699
0.76699
0.76699
0.76699
0.76699
0.76699
0.76699
0.76699
0.76699
0.76699
0.76699
0.76699
0.76699
0.76699
0.76699
0.76699
0.76699
0.76699
0.76699
0.76699
0.76699
0.76699
0.76699
0.76699
0.76699
0.76699
0.76699
0.76699
0.76699
0.76699
0.76699
0.76699
0.76699
0.76699
0.76699
0.76699
0.76699
0.76699
0.76699
0.76699
0.76699
0.76699
0.76699
0.76699
0.76699
0.76699
0.76699
0.76699
0.76699
0.76699
0.76699
0.76699
0.76699
0.76699
0.76699
0.76699
0.76699
0.76699
0.76699
0.76699
0.76699
0.76699
0.76699
0.76699
0.76699
0.76699
0.76699
0.76699
0.76699
0.76699
0.76699
0.76699
0.76699
0.76699
0.76699
0.76699
0.76699
0.76699
0.76699
0.76699
0.76699
0.76699
0.76699
0.76699
0.76699
0.76699
0.76699
0.76699
0.76699
0.76699
0.76699
0.76699
0.76699
0.76699
0.76699
0.76699
0.76699
0.76699
0.76699
0.76699
0.76699
0.76699
0.76699
0.76699
0.76699
0.76699
0.76699
0.76699
0.76699
0.76699
0.76699
0.76699
0.76699
0.76699
0.76699
0.76699
0.76699
0.76699
0.76699
0.76699
0.76699
0.76699
0.76699
0.76699
0.76699
0.76699
0.76699
0.76699
0.76699
0.76699
0.76699
0.76699
0.76699
0.76699
0.76699
0.76699
0.76699
0.76699
0.76699
0.76699
0.76699
0.76699
0.76699
0.76699
0.76699
0.76699
0.76699
0.76699
0.76699
0.76699
0.76699
0.76699
0.76699
0.76699
0.76699
0.76699
0.76699
0.76699
0.76699
0.76699
0.76699
0.76699
0.76699
0.76699
0.76699
0.76699
0.76699
0.76699
0.76699
0.76699
0.76699
0.76699
0.76699
0.76699
0.76699
0.76699
0.76699
0.76699
0.76699
0.76699
0.76699
0.76699
0.76699
0.76699
0.76699
0.76699
0.76699
0.76699
0.76699
0.76699
0.76699
0.76699
0.76699
0.76699
0.76699
0.76699
0.76699
0.76699
0.76699
0.76699
0.76699
0.76699
0.76699
0.76699
0.76699
0.76699
0.76699
0.76699
0.76699
0.76699
0.76699
0.76699
0.76699
0.76699
0.76699
0.76699
0.76699
0.76699
0.76699
0.76699
0.76699
0.76699
0.76699
0.76699
0.76699
0.76699
0.76699
0.76699
0.76699
0.76699
0.76699
0.76699
0.76699
0.76699
0.76699
0.76699
0.76699
0.76699
0.76699
0.76699
0.76699
0.76699
0.76699
0.76699
0.76699
0.76699
0.76699
0.76699
0.76699
0.76699
0.76699
0.76699
0.76699
0.76699
0.76699
0.76699
0.76699
0.76699
0.76699
0.76699
0.76699
0.76699
0.76699
0.76699
0.76699
0.76699
0.76699
0.76699
0.76699
0.76699
0.76699
0.76699
0.76699
0.76699
0.76699
0.76699
0.76699
0.76699
0.76699
0.76699
0.76699
0.76699
0.76699
0.76699
0.76699
0.76699
0.76699
0.76699
0.76699
0.76699
0.76699
0.76699
0.76699
0.76699
0.76699
0.76699
0.76699
0.76699
0.76699
0.76699
0.76699
0.76699
0.76699
0.76699
0.76699
0.76699
0.76699
0.76699
0.76699
0.76699
0.76699
0.76699
0.76699
0.76699
0.76699
0.76699
0.76699
0.76699
0.76699
0.76699
0.76699
0.76699
0.76699
0.76699
0.76699
0.76699
0.76699
0.76699
0.76699
0.76699
0.76699
0.76699
0.76699
0.76699
0.76699
0.76699
0.76699
0.76699
0.76699
0.76699
0.76699
0.76699
0.76699
0.76699
0.76699
0.76699
0.76699
0.76699
0.76699
0.76699
0.76699
0.76699
0.76699
0.76699
0.76699
0.76699
0.76699
0.76699
0.76699
0.76699
0.76699
0.76699
0.76699
0.76699
0.76699
0.76699
0.76699
0.76699
0.76699
0.76699
0.76699
0.76699
0.76699
0.76699
0.76699
0.76699
0.76699
0.76699
0.76699
0.76699
0.76699
0.76699
0.76699
0.76699
0.76699
0.766989
0.766988
0.766989
0.766989
0.766989
0.766988
0.766989
0.766989
0.76699
0.766989
0.76699
0.766989
0.76699
0.76699
0.76699
0.76699
0.76699
0.76699
0.76699
0.76699
0.76699
0.76699
0.76699
0.76699
0.76699
0.76699
0.76699
0.76699
0.76699
0.76699
0.76699
0.76699
0.76699
0.76699
0.76699
0.76699
0.76699
0.76699
0.76699
0.76699
0.76699
0.76699
0.76699
0.76699
0.76699
0.76699
0.76699
0.76699
0.76699
0.76699
0.76699
0.76699
0.76699
0.76699
0.76699
0.766989
0.766987
0.766979
0.766958
0.766986
0.766972
0.766986
0.76698
0.766987
0.766981
0.766988
0.766983
0.766989
0.766985
0.766989
0.766987
0.76699
0.766989
0.76699
0.76699
0.76699
0.76699
0.76699
0.76699
0.76699
0.76699
0.76699
0.76699
0.76699
0.76699
0.76699
0.76699
0.76699
0.76699
0.76699
0.76699
0.76699
0.76699
0.76699
0.76699
0.76699
0.76699
0.76699
0.76699
0.76699
0.76699
0.76699
0.76699
0.76699
0.76699
0.76699
0.76699
0.76699
0.76699
0.76699
0.76699
0.766989
0.766987
0.766979
0.766949
0.766872
0.766851
0.766735
0.766962
0.76692
0.766966
0.766928
0.766971
0.766938
0.766976
0.76695
0.766981
0.766963
0.766985
0.766975
0.766988
0.766983
0.766989
0.766987
0.76699
0.766989
0.76699
0.76699
0.76699
0.76699
0.76699
0.76699
0.76699
0.76699
0.76699
0.76699
0.76699
0.76699
0.76699
0.76699
0.76699
0.76699
0.76699
0.76699
0.76699
0.76699
0.76699
0.76699
0.76699
0.76699
0.76699
0.76699
0.76699
0.76699
0.76699
0.76699
0.76699
0.76699
0.76699
0.76699
0.766988
0.766979
0.766951
0.766882
0.766721
0.766629
0.766494
0.766598
0.766459
0.766848
0.766729
0.766866
0.766736
0.766888
0.76676
0.766913
0.766801
0.766942
0.766858
0.766964
0.76691
0.766979
0.76695
0.766987
0.766975
0.766989
0.766986
0.766989
0.76699
0.76699
0.76699
0.76699
0.76699
0.76699
0.76699
0.76699
0.76699
0.76699
0.76699
0.76699
0.76699
0.76699
0.76699
0.76699
0.76699
0.76699
0.76699
0.76699
0.76699
0.76699
0.76699
0.76699
0.76699
0.76699
0.76699
0.76699
0.76699
0.76699
0.76699
0.76699
0.766988
0.766982
0.766957
0.766888
0.766743
0.766515
0.766372
0.766287
0.766324
0.766176
0.766271
0.766113
0.766584
0.766426
0.766595
0.76641
0.766625
0.766418
0.766686
0.766454
0.76678
0.766541
0.766866
0.766677
0.766933
0.766813
0.766971
0.766915
0.766986
0.766968
0.766986
0.76699
0.766988
0.766989
0.76699
0.76699
0.76699
0.76699
0.76699
0.76699
0.76699
0.76699
0.76699
0.76699
0.76699
0.76699
0.76699
0.76699
0.76699
0.76699
0.76699
0.76699
0.76699
0.76699
0.76699
0.76699
0.76699
0.76699
0.76699
0.76699
0.76699
0.76699
0.766989
0.766985
0.766966
0.766907
0.766781
0.766576
0.766279
0.76588
0.766065
0.765864
0.765962
0.765814
0.765877
0.765709
0.766228
0.766045
0.766212
0.765996
0.76622
0.765973
0.766269
0.765985
0.766378
0.766061
0.766553
0.766206
0.766755
0.766416
0.766899
0.766697
0.766967
0.766887
0.76697
0.76699
0.766976
0.766984
0.76699
0.76699
0.76699
0.76699
0.76699
0.76699
0.76699
0.76699
0.76699
0.76699
0.76699
0.76699
0.76699
0.76699
0.76699
0.76699
0.76699
0.76699
0.76699
0.76699
0.76699
0.76699
0.76699
0.76699
0.76699
0.76699
0.76699
0.76699
0.766988
0.766976
0.766931
0.766825
0.766654
0.766406
0.766062
0.765701
0.76553
0.765521
0.765682
0.765579
0.765568
0.765479
0.765454
0.765371
0.765796
0.765605
0.765742
0.765515
0.765723
0.765452
0.76574
0.765434
0.765834
0.765483
0.76602
0.765605
0.766284
0.765814
0.76665
0.766153
0.766886
0.76662
0.766899
0.766989
0.766928
0.766967
0.76699
0.76699
0.76699
0.76699
0.76699
0.76699
0.76699
0.76699
0.76699
0.76699
0.76699
0.76699
0.76699
0.76699
0.76699
0.76699
0.76699
0.76699
0.76699
0.76699
0.76699
0.76699
0.76699
0.76699
0.76699
0.76699
0.766989
0.766984
0.766957
0.766873
0.766731
0.766527
0.766239
0.765917
0.765694
0.765528
0.765559
0.765447
0.765479
0.765435
0.765434
0.76534
0.76535
0.765244
0.765257
0.76535
0.765265
0.765255
0.765157
0.76518
0.765053
0.765148
0.764968
0.765206
0.764911
0.765372
0.764942
0.765622
0.76513
0.766055
0.765439
0.76662
0.765996
0.766667
0.766987
0.766769
0.766894
0.766965
0.76699
0.76699
0.76699
0.76699
0.76699
0.76699
0.76699
0.76699
0.76699
0.76699
0.76699
0.76699
0.76699
0.76699
0.76699
0.76699
0.76699
0.76699
0.76699
0.76699
0.76699
0.76699
0.76699
0.76699
0.76699
0.766989
0.766978
0.766926
0.766806
0.766629
0.766399
0.766101
0.765851
0.765714
0.765654
0.765525
0.765626
0.765484
0.765582
0.76537
0.765412
0.765289
0.765346
0.765203
0.76528
0.765141
0.765159
0.765027
0.76505
0.764905
0.764927
0.764785
0.764789
0.76471
0.76464
0.764716
0.764524
0.76491
0.764513
0.765297
0.76472
0.766006
0.765213
0.765613
0.766476
0.766047
0.766936
0.766984
0.76696
0.766683
0.766218
0.766195
0.766778
0.76699
0.766977
0.766984
0.766989
0.76699
0.76699
0.76699
0.76699
0.76699
0.76699
0.76699
0.76699
0.76699
0.76699
0.76699
0.76699
0.76699
0.76699
0.76699
0.76699
0.76699
0.76699
0.76699
0.76699
0.76699
0.76699
0.766987
0.766966
0.766886
0.766735
0.766534
0.766279
0.766015
0.765855
0.765758
0.765799
0.765941
0.766043
0.765697
0.765821
0.765704
0.765849
0.765441
0.765563
0.765397
0.765545
0.765349
0.765523
0.765102
0.765204
0.764981
0.765093
0.764833
0.764933
0.764676
0.764759
0.764509
0.764565
0.76435
0.764377
0.764337
0.764282
0.764235
0.764916
0.764606
0.764233
0.764408
0.765236
0.765648
0.765181
0.764866
0.765685
0.766858
0.76692
0.76638
0.76586
0.765734
0.766547
0.766988
0.76699
0.766989
0.766957
0.766977
0.76699
0.76699
0.76699
0.76699
0.76699
0.76699
0.76699
0.76699
0.76699
0.76699
0.76699
0.76699
0.76699
0.76699
0.76699
0.76699
0.76699
0.76699
0.76699
0.76699
0.766989
0.766983
0.766947
0.766839
0.766664
0.766441
0.766182
0.765975
0.76587
0.765832
0.765971
0.76636
0.76624
0.766384
0.76599
0.766124
0.766039
0.766186
0.76571
0.765879
0.765713
0.765905
0.765702
0.765917
0.76527
0.765481
0.765129
0.76538
0.764932
0.765196
0.764695
0.764942
0.764463
0.764657
0.764229
0.76426
0.764316
0.764405
0.764143
0.764093
0.764183
0.764169
0.764566
0.764335
0.764071
0.764172
0.76482
0.765225
0.764824
0.764515
0.765262
0.766707
0.766831
0.766013
0.765351
0.765471
0.766215
0.766985
0.76699
0.766989
0.766915
0.766959
0.76699
0.76699
0.76699
0.76699
0.76699
0.76699
0.76699
0.76699
0.76699
0.76699
0.76699
0.76699
0.76699
0.76699
0.76699
0.76699
0.76699
0.76699
0.76699
0.766988
0.766976
0.766919
0.766791
0.766596
0.766355
0.766118
0.765978
0.765903
0.765935
0.766164
0.766567
0.766698
0.766762
0.766533
0.766623
0.766317
0.766433
0.76639
0.766511
0.766085
0.766248
0.76612
0.766301
0.766131
0.766335
0.765644
0.765899
0.765497
0.7658
0.765248
0.765577
0.764949
0.765272
0.764507
0.764648
0.764778
0.764945
0.764199
0.76426
0.764355
0.764473
0.764026
0.76403
0.764099
0.764136
0.764277
0.764108
0.763959
0.764004
0.764493
0.764839
0.764485
0.764236
0.76489
0.76645
0.76667
0.765638
0.764974
0.765096
0.765851
0.76698
0.76699
0.766987
0.76683
0.766925
0.76699
0.76699
0.76699
0.76699
0.76699
0.76699
0.76699
0.76699
0.76699
0.76699
0.76699
0.76699
0.76699
0.76699
0.76699
0.76699
0.76699
0.766989
0.766985
0.766961
0.766883
0.766741
0.766538
0.766289
0.766086
0.765989
0.765957
0.766063
0.766352
0.766706
0.766898
0.76689
0.766929
0.766785
0.766847
0.766617
0.766708
0.766703
0.766793
0.766457
0.766592
0.766515
0.766663
0.766536
0.766705
0.766079
0.766328
0.765901
0.766205
0.765607
0.765936
0.765092
0.765268
0.765417
0.765593
0.764609
0.764759
0.764917
0.765082
0.764204
0.764305
0.764428
0.764569
0.763962
0.764071
0.764005
0.764144
0.764055
0.763943
0.763893
0.763892
0.764209
0.764503
0.764199
0.764011
0.764549
0.766113
0.766413
0.765265
0.764629
0.764747
0.765486
0.766968
0.76699
0.766986
0.766681
0.766857
0.76699
0.76699
0.76699
0.76699
0.76699
0.76699
0.76699
0.76699
0.76699
0.76699
0.76699
0.76699
0.76699
0.76699
0.76699
0.76699
0.766988
0.766979
0.766937
0.766842
0.766691
0.766479
0.766235
0.766082
0.766012
0.766027
0.7662
0.766517
0.766794
0.766934
0.766981
0.766982
0.76697
0.766979
0.766933
0.766955
0.766857
0.766902
0.766905
0.766939
0.766778
0.766854
0.766816
0.766888
0.766796
0.766887
0.766465
0.766659
0.766234
0.766476
0.7659
0.766178
0.765246
0.76541
0.765569
0.765728
0.764723
0.764885
0.765051
0.765218
0.76425
0.764378
0.764522
0.764679
0.763935
0.764081
0.764012
0.76419
0.763887
0.763827
0.763862
0.763824
0.76398
0.764211
0.763963
0.763838
0.764252
0.765758
0.766087
0.764914
0.764322
0.764433
0.765132
0.766947
0.76699
0.766982
0.766451
0.766735
0.76699
0.76699
0.76699
0.76699
0.76699
0.76699
0.76699
0.76699
0.76699
0.76699
0.76699
0.76699
0.76699
0.76699
0.76699
0.766986
0.766966
0.766903
0.766796
0.766641
0.766427
0.766204
0.766089
0.766046
0.766111
0.766334
0.766646
0.766854
0.766955
0.766987
0.766989
0.766989
0.766987
0.766989
0.766981
0.766985
0.76696
0.766973
0.766973
0.766981
0.766933
0.766959
0.766938
0.766964
0.766897
0.766947
0.766665
0.766805
0.766407
0.766593
0.765958
0.766101
0.766327
0.766207
0.765381
0.765539
0.76569
0.765833
0.764843
0.765009
0.765175
0.765337
0.76432
0.764466
0.764624
0.764788
0.763938
0.764122
0.764047
0.764253
0.763766
0.763753
0.763858
0.763785
0.763799
0.763967
0.763773
0.763709
0.763996
0.765408
0.765744
0.764591
0.764056
0.764155
0.7648
0.766905
0.76699
0.766976
0.766142
0.766545
0.76699
0.76699
0.76699
0.76699
0.76699
0.76699
0.76699
0.76699
0.76699
0.76699
0.76699
0.76699
0.76699
0.766989
0.766981
0.766944
0.766864
0.76675
0.766592
0.76638
0.766188
0.766101
0.766086
0.766201
0.766454
0.766736
0.766896
0.766968
0.766988
0.76699
0.76699
0.76699
0.76699
0.766989
0.76699
0.766988
0.766989
0.766985
0.766987
0.766986
0.766988
0.766977
0.766983
0.76697
0.76698
0.766928
0.766962
0.766743
0.766856
0.766416
0.766513
0.766631
0.766023
0.766138
0.766343
0.766243
0.765492
0.765638
0.765775
0.765903
0.764953
0.765116
0.765272
0.765418
0.7644
0.764556
0.764718
0.764878
0.763962
0.764177
0.76409
0.764322
0.763683
0.763707
0.76387
0.763772
0.76366
0.763766
0.763622
0.763615
0.763781
0.765069
0.765406
0.764298
0.763827
0.763909
0.764494
0.76682
0.766989
0.766959
0.765806
0.76626
0.76699
0.76699
0.76699
0.76699
0.76699
0.76699
0.76699
0.76699
0.76699
0.76699
0.76699
0.76699
0.766987
0.766971
0.766917
0.766824
0.766703
0.766546
0.766343
0.766183
0.766118
0.766133
0.766287
0.76655
0.766795
0.766924
0.766977
0.766989
0.76699
0.76699
0.76699
0.76699
0.76699
0.76699
0.76699
0.766989
0.76699
0.766989
0.766989
0.766988
0.766989
0.766984
0.766987
0.766976
0.766983
0.766935
0.766965
0.766766
0.76687
0.766433
0.766518
0.766588
0.766669
0.766039
0.766147
0.766344
0.766248
0.765555
0.765685
0.765808
0.765926
0.765031
0.765176
0.765313
0.765445
0.764475
0.764628
0.764777
0.764919
0.763991
0.76423
0.764122
0.764375
0.763627
0.763683
0.763882
0.763771
0.763555
0.763601
0.763504
0.763549
0.763601
0.76475
0.765074
0.764035
0.763629
0.763693
0.764213
0.766668
0.766975
0.766862
0.765466
0.76591
0.76699
0.76699
0.76699
0.76699
0.76699
0.76699
0.76699
0.76699
0.76699
0.76699
0.766989
0.766984
0.766957
0.766886
0.766783
0.766657
0.766499
0.766308
0.766187
0.76614
0.766184
0.766365
0.766622
0.766836
0.766943
0.766981
0.766989
0.76699
0.76699
0.76699
0.76699
0.76699
0.76699
0.76699
0.76699
0.76699
0.76699
0.76699
0.766989
0.766989
0.766988
0.766989
0.766985
0.766987
0.766978
0.766983
0.766931
0.766964
0.766727
0.766794
0.766861
0.766432
0.766514
0.766569
0.766644
0.766016
0.766118
0.766312
0.766216
0.76557
0.765689
0.765802
0.76591
0.765057
0.765186
0.765307
0.765418
0.764517
0.764657
0.76479
0.764912
0.764005
0.764257
0.764131
0.764393
0.763591
0.763669
0.76388
0.763769
0.763476
0.763466
0.763411
0.7635
0.763448
0.76445
0.764753
0.763799
0.763457
0.7635
0.763955
0.7663
0.766668
0.766235
0.765119
0.765473
0.76699
0.76699
0.76699
0.76699
0.76699
0.76699
0.76699
0.76699
0.76699
0.766989
0.766979
0.766939
0.766854
0.766744
0.766613
0.766454
0.766287
0.766195
0.766166
0.766238
0.766434
0.766678
0.766865
0.766955
0.766984
0.766989
0.76699
0.76699
0.76699
0.76699
0.76699
0.76699
0.76699
0.76699
0.76699
0.76699
0.76699
0.76699
0.766989
0.766989
0.766988
0.766989
0.766986
0.766987
0.766977
0.766983
0.766896
0.766931
0.766956
0.766711
0.766772
0.76686
0.766803
0.766402
0.766488
0.766525
0.766607
0.765934
0.766038
0.766244
0.766142
0.765523
0.765626
0.765728
0.76583
0.765022
0.765122
0.765215
0.765304
0.764519
0.764632
0.764731
0.764817
0.76399
0.764251
0.764091
0.764357
0.763563
0.76365
0.763839
0.763746
0.763413
0.763357
0.763334
0.763457
0.763317
0.764168
0.764444
0.763584
0.763303
0.763322
0.763716
0.76562
0.766825
0.765967
0.764755
0.765
0.76699
0.76699
0.76699
0.76699
0.76699
0.76699
0.76699
0.76699
0.766988
0.766973
0.766918
0.766823
0.766706
0.766573
0.766415
0.766274
0.766206
0.766195
0.766293
0.766496
0.766722
0.766888
0.766964
0.766986
0.76699
0.76699
0.76699
0.76699
0.76699
0.76699
0.76699
0.76699
0.76699
0.76699
0.76699
0.76699
0.76699
0.76699
0.76699
0.766989
0.766989
0.766988
0.766989
0.766985
0.766987
0.766975
0.766982
0.76688
0.766918
0.76693
0.766955
0.76668
0.766746
0.766832
0.766776
0.766343
0.766436
0.76646
0.766552
0.7658
0.765914
0.766144
0.76603
0.765394
0.765487
0.765586
0.76569
0.764893
0.764962
0.765032
0.765106
0.764446
0.764519
0.764576
0.764623
0.763919
0.764174
0.763978
0.764237
0.763528
0.763609
0.763742
0.763684
0.763355
0.763263
0.76326
0.763408
0.763201
0.763904
0.764142
0.763383
0.76316
0.763154
0.763493
0.765287
0.766888
0.766145
0.764399
0.764691
0.76699
0.76699
0.76699
0.76699
0.76699
0.76699
0.76699
0.766987
0.766965
0.766897
0.766793
0.766671
0.766535
0.766383
0.766272
0.766221
0.766231
0.76635
0.766551
0.766761
0.766906
0.76697
0.766987
0.76699
0.76699
0.76699
0.76699
0.76699
0.76699
0.76699
0.76699
0.76699
0.76699
0.76699
0.76699
0.76699
0.76699
0.76699
0.76699
0.766989
0.76699
0.766988
0.766989
0.766985
0.766987
0.766967
0.766975
0.76698
0.766853
0.766897
0.766914
0.766943
0.766635
0.76671
0.766798
0.766733
0.766255
0.766361
0.766378
0.76648
0.765627
0.765757
0.766019
0.765889
0.765189
0.765282
0.765387
0.765502
0.764667
0.764713
0.764769
0.764839
0.764279
0.764305
0.764321
0.764336
0.76377
0.764011
0.763773
0.764018
0.763472
0.76353
0.763565
0.763561
0.763292
0.763173
0.763178
0.76334
0.763087
0.763655
0.763858
0.763193
0.763019
0.762992
0.763284
0.765221
0.766958
0.766455
0.764112
0.764498
0.76699
0.76699
0.76699
0.76699
0.76699
0.76699
0.766985
0.766956
0.766875
0.766765
0.766639
0.7665
0.766359
0.766275
0.76624
0.766272
0.766407
0.766602
0.766795
0.766922
0.766975
0.766988
0.76699
0.76699
0.76699
0.76699
0.76699
0.76699
0.76699
0.76699
0.76699
0.76699
0.76699
0.76699
0.76699
0.76699
0.76699
0.76699
0.76699
0.766989
0.76699
0.766988
0.766989
0.766984
0.766987
0.766962
0.766972
0.76698
0.766975
0.766818
0.766872
0.766889
0.766928
0.766573
0.766657
0.766752
0.766677
0.766146
0.766266
0.766282
0.766396
0.765427
0.765578
0.765879
0.76573
0.764925
0.765029
0.765149
0.765283
0.764357
0.764393
0.764448
0.764524
0.764012
0.763995
0.763982
0.763979
0.763544
0.763753
0.76349
0.763711
0.763378
0.763388
0.763325
0.763378
0.763209
0.763068
0.763069
0.763233
0.762955
0.763419
0.763607
0.763015
0.762875
0.762847
0.763084
0.765207
0.766965
0.766501
0.763887
0.764323
0.76699
0.76699
0.76699
0.76699
0.766989
0.766983
0.766944
0.766855
0.766739
0.76661
0.76647
0.766346
0.766281
0.766262
0.766318
0.766464
0.76665
0.766827
0.766936
0.766979
0.766989
0.76699
0.76699
0.76699
0.76699
0.76699
0.76699
0.76699
0.76699
0.76699
0.76699
0.76699
0.76699
0.76699
0.76699
0.76699
0.76699
0.76699
0.76699
0.76699
0.766989
0.76699
0.766988
0.766989
0.766983
0.766986
0.766953
0.766967
0.766978
0.766972
0.766771
0.766836
0.766857
0.766906
0.766499
0.766593
0.766696
0.766612
0.766022
0.766158
0.766178
0.766304
0.765209
0.765382
0.765726
0.765556
0.764623
0.764744
0.764885
0.765041
0.763985
0.764023
0.764085
0.764173
0.76366
0.763613
0.763583
0.763572
0.763248
0.763419
0.763157
0.763338
0.763237
0.763207
0.763017
0.763134
0.763072
0.762924
0.762876
0.763056
0.762805
0.763201
0.763387
0.762856
0.76275
0.762725
0.762901
0.765124
0.766593
0.765835
0.763671
0.764133
0.76699
0.76699
0.76699
0.766989
0.766979
0.766933
0.766835
0.766715
0.766586
0.766447
0.76634
0.766292
0.766288
0.766367
0.766519
0.766695
0.766857
0.766948
0.766982
0.766989
0.76699
0.76699
0.76699
0.76699
0.76699
0.76699
0.76699
0.76699
0.76699
0.76699
0.76699
0.76699
0.76699
0.76699
0.76699
0.76699
0.76699
0.76699
0.76699
0.76699
0.766989
0.76699
0.766988
0.766989
0.76698
0.766983
0.766986
0.766941
0.766961
0.766975
0.766967
0.766718
0.766793
0.766818
0.766878
0.766417
0.766519
0.766633
0.766541
0.765888
0.76604
0.766061
0.766201
0.764959
0.765156
0.765549
0.765356
0.764288
0.764427
0.764588
0.764767
0.763574
0.763608
0.763678
0.763772
0.763261
0.763199
0.763156
0.763139
0.762886
0.763062
0.762764
0.762966
0.762968
0.762838
0.762592
0.762675
0.762825
0.76274
0.76266
0.762704
0.762681
0.762994
0.763165
0.762726
0.762647
0.762633
0.762749
0.76475
0.766923
0.765891
0.763431
0.763864
0.76699
0.76699
0.766989
0.766977
0.76692
0.766817
0.766694
0.766563
0.766429
0.766341
0.766304
0.766319
0.766416
0.766571
0.766737
0.766882
0.766958
0.766984
0.766989
0.76699
0.76699
0.76699
0.76699
0.76699
0.76699
0.76699
0.76699
0.76699
0.76699
0.76699
0.76699
0.76699
0.76699
0.76699
0.76699
0.76699
0.76699
0.76699
0.76699
0.76699
0.766989
0.76699
0.766987
0.766988
0.766978
0.766982
0.766986
0.766983
0.766923
0.766952
0.766971
0.76696
0.766659
0.766743
0.766771
0.766844
0.766327
0.766439
0.766564
0.766461
0.765734
0.765905
0.765915
0.766076
0.764647
0.764869
0.765322
0.765099
0.763899
0.764052
0.764229
0.76443
0.763136
0.763146
0.763204
0.76329
0.762884
0.762822
0.762782
0.76276
0.762499
0.762664
0.762447
0.76261
0.762616
0.76254
0.762361
0.762502
0.762608
0.762619
0.762547
0.762551
0.762585
0.762818
0.762937
0.762622
0.76256
0.762567
0.762632
0.764459
0.766952
0.766093
0.763188
0.763582
0.76699
0.766988
0.766971
0.766909
0.7668
0.766676
0.766544
0.766415
0.766344
0.766319
0.766353
0.766463
0.766617
0.766774
0.766903
0.766966
0.766986
0.76699
0.76699
0.76699
0.76699
0.76699
0.76699
0.76699
0.76699
0.76699
0.76699
0.76699
0.76699
0.76699
0.76699
0.76699
0.76699
0.76699
0.76699
0.76699
0.76699
0.76699
0.76699
0.76699
0.76699
0.766989
0.76699
0.766985
0.766986
0.766987
0.766988
0.766975
0.76698
0.766982
0.7669
0.766938
0.766966
0.76695
0.766589
0.766685
0.766713
0.7668
0.76622
0.766346
0.766479
0.766362
0.765536
0.765734
0.765715
0.765907
0.764226
0.764475
0.765005
0.764745
0.763417
0.763583
0.763767
0.763982
0.762751
0.76275
0.762761
0.762814
0.762556
0.762536
0.762519
0.762517
0.762299
0.762407
0.762285
0.762354
0.762466
0.762381
0.762273
0.762307
0.762475
0.762499
0.762376
0.762378
0.762466
0.76267
0.762793
0.762565
0.762446
0.762446
0.762575
0.764335
0.766419
0.765467
0.762975
0.76334
0.766986
0.766967
0.766894
0.766786
0.766659
0.766527
0.766409
0.766349
0.766335
0.766387
0.766508
0.766658
0.766806
0.76692
0.766972
0.766987
0.76699
0.76699
0.76699
0.76699
0.76699
0.76699
0.76699
0.76699
0.76699
0.76699
0.76699
0.76699
0.76699
0.76699
0.76699
0.76699
0.76699
0.76699
0.76699
0.76699
0.76699
0.76699
0.76699
0.76699
0.76699
0.766989
0.76699
0.766984
0.766986
0.766987
0.766988
0.766971
0.766978
0.76698
0.766869
0.766919
0.766958
0.766935
0.766499
0.766612
0.766635
0.766742
0.76608
0.766229
0.766369
0.766231
0.765261
0.765496
0.76543
0.765668
0.76367
0.763938
0.764561
0.764255
0.762888
0.763021
0.763197
0.763399
0.762517
0.76252
0.762528
0.762548
0.762225
0.76224
0.762219
0.762209
0.761622
0.762265
0.761613
0.76223
0.762294
0.762282
0.761678
0.76167
0.762288
0.762346
0.762257
0.762278
0.762318
0.762615
0.762647
0.762443
0.762294
0.762285
0.762463
0.763998
0.766842
0.765266
0.762822
0.763128
0.766956
0.766885
0.766771
0.766646
0.766514
0.766405
0.766357
0.766352
0.76642
0.766547
0.766694
0.766834
0.766934
0.766977
0.766988
0.76699
0.76699
0.76699
0.76699
0.76699
0.76699
0.76699
0.76699
0.76699
0.76699
0.76699
0.76699
0.76699
0.76699
0.76699
0.76699
0.76699
0.76699
0.76699
0.76699
0.76699
0.76699
0.76699
0.76699
0.76699
0.76699
0.766989
0.76699
0.766983
0.766985
0.766987
0.766986
0.766987
0.766988
0.766965
0.766975
0.766978
0.766828
0.766893
0.766947
0.766914
0.766378
0.766513
0.766529
0.766661
0.765885
0.766067
0.766219
0.766053
0.764871
0.765158
0.765031
0.765331
0.763006
0.763243
0.763956
0.763602
0.76256
0.762647
0.762729
0.762822
0.762235
0.762258
0.762296
0.762325
0.76152
0.761528
0.761525
0.761517
0.761198
0.761626
0.761172
0.761602
0.761702
0.761716
0.761229
0.761244
0.761731
0.762221
0.761741
0.761767
0.762191
0.762525
0.762587
0.76228
0.762168
0.762158
0.762289
0.763654
0.765812
0.764322
0.762671
0.762931
0.766867
0.766762
0.766634
0.766505
0.766406
0.766364
0.766372
0.766452
0.766582
0.766724
0.766857
0.766945
0.76698
0.766989
0.76699
0.76699
0.76699
0.76699
0.76699
0.76699
0.76699
0.76699
0.76699
0.76699
0.76699
0.76699
0.76699
0.76699
0.76699
0.76699
0.76699
0.76699
0.76699
0.76699
0.76699
0.76699
0.76699
0.76699
0.76699
0.76699
0.76699
0.766989
0.76699
0.766981
0.766984
0.766985
0.766987
0.766988
0.766957
0.766971
0.766975
0.766771
0.766856
0.766931
0.766882
0.766217
0.766382
0.76639
0.766552
0.765612
0.765842
0.766022
0.765815
0.764335
0.764685
0.764481
0.764868
0.762598
0.762695
0.763177
0.762908
0.762374
0.762396