/*--------------------------------*- C++ -*----------------------------------*\
  =========                 |
  \\      /  F ield         | OpenFOAM: The Open Source CFD Toolbox
   \\    /   O peration     | Website:  https://openfoam.org
    \\  /    A nd           | Version:  dev
     \\/     M anipulation  |
\*---------------------------------------------------------------------------*/
FoamFile
{
    version     2.0;
    format      ascii;
    class       volScalarField;
    location    "2500";
    object      nut;
}
// * * * * * * * * * * * * * * * * * * * * * * * * * * * * * * * * * * * * * //

dimensions      [0 2 -1 0 0 0 0];

internalField   nonuniform List<scalar> 
9575
(
0.000126961
0.000130636
0.000124337
0.000120586
0.000155264
0.000111849
0.000111482
0.000163935
0.000147142
0.000106006
0.000107553
0.000158942
0.000167707
0.000127485
0.000104241
0.000104595
0.000144726
0.00018041
0.000155503
0.000115773
0.000103045
0.000103031
0.000129291
0.000180638
0.000176155
0.000133298
0.000110491
0.000102232
0.000102574
0.000120416
0.000174525
0.000187991
0.000157562
0.000119942
0.000107571
0.000101683
0.000102361
0.000113532
0.000159242
0.000195498
0.000179079
0.000135339
0.000113506
0.000105576
0.000101324
0.000102199
0.000109358
0.000139989
0.000194169
0.000193188
0.000155402
0.000122052
0.00010985
0.000104214
0.000101034
0.000101755
0.000106727
0.000128927
0.000186906
0.000202057
0.000178105
0.000134484
0.000115062
0.000107475
0.000103235
0.000100804
0.000101085
0.000105144
0.000120282
0.000170081
0.000207674
0.000194879
0.000152158
0.000122157
0.000111043
0.000105691
0.000102497
0.000100639
0.000100514
0.000104438
0.000114454
0.000150397
0.000205777
0.000206161
0.000172598
0.000132856
0.000115427
0.000108366
0.000104357
0.000101937
0.000100478
0.000100078
0.000103957
0.000110949
0.000136762
0.000198339
0.000213428
0.000193331
0.000147743
0.000121386
0.000111461
0.000106371
0.000103334
0.000101484
0.000100365
9.97571e-05
0.000103592
0.000108671
0.000127522
0.000181871
0.000218496
0.000207171
0.00016604
0.00013049
0.000114995
0.00010864
0.000104888
0.000102542
0.000101127
0.000100276
9.96785e-05
0.000103237
0.000107136
0.000120695
0.000162854
0.000216986
0.000217161
0.000185726
0.000142733
0.000120103
0.000111295
0.000106592
0.000103793
0.000101944
0.000100842
0.000100201
9.97793e-05
0.000102585
0.000106127
0.00011626
0.000145394
0.000210768
0.000223032
0.000204847
0.000158749
0.000127341
0.000114298
0.000108593
0.000105056
0.000102843
0.000101459
0.000100619
0.000100139
9.98955e-05
0.000101786
0.000105386
0.000113179
0.000136674
0.000197556
0.000228403
0.000216986
0.000176325
0.000137798
0.000118407
0.000110809
0.000106484
0.000103782
0.000102115
0.000101074
0.000100433
0.000100092
9.9988e-05
0.000101094
0.0001047
0.00011096
0.000129438
0.000179072
0.000228662
0.000226249
0.000195387
0.000150693
0.000124522
0.000113447
0.000108147
0.000104971
0.000102848
0.000101561
0.000100758
0.000100287
0.000100052
0.00010005
0.000100503
0.000104117
0.000109313
0.000123921
0.000162268
0.000224683
0.000231179
0.000212233
0.000166862
0.00013264
0.0001168
0.00011005
0.000106202
0.000103693
0.000102114
0.000101119
0.000100507
0.000100166
0.000100017
0.000100079
9.99879e-05
0.000103627
0.000108061
0.000120062
0.000148667
0.000215364
0.000236978
0.00022465
0.000183258
0.000143462
0.000121517
0.000112405
0.00010755
0.000104653
0.000102748
0.000101523
0.00010076
0.000100303
0.000100062
9.99894e-05
0.000100081
9.95505e-05
0.000103208
0.000107086
0.000117313
0.000141312
0.000202071
0.000239646
0.000233235
0.000201063
0.000156568
0.000127974
0.000115044
0.000109259
0.000105775
0.000103469
0.000101997
0.00010105
0.000100464
0.000100124
9.99795e-05
9.99677e-05
0.000100061
9.92009e-05
0.00010286
0.000106339
0.000115306
0.000136077
0.000186363
0.000238532
0.000239733
0.000216087
0.000171452
0.000136455
0.000118706
0.000111205
0.000107024
0.000104295
0.000102543
0.000101393
0.000100664
0.000100211
9.99851e-05
9.99146e-05
9.99501e-05
0.000100011
9.8946e-05
0.000102591
0.00010582
0.000113873
0.00013175
0.000172393
0.00023424
0.000243344
0.000229913
0.00018681
0.000147104
0.000123792
0.000113487
0.000108424
0.000105339
0.000103177
0.000101804
0.000100909
0.000100341
0.000100017
9.98795e-05
9.9862e-05
9.99365e-05
9.99312e-05
9.87959e-05
0.000102414
0.000105515
0.000113017
0.00012851
0.000161291
0.000225574
0.000247139
0.000238294
0.000201116
0.000159421
0.000130458
0.000116373
0.000110117
0.000106382
0.000103934
0.000102281
0.000101212
0.000100516
0.000100088
9.98722e-05
9.97917e-05
9.98206e-05
9.99269e-05
9.98186e-05
9.87527e-05
0.000102327
0.000105398
0.000112741
0.000126603
0.000153141
0.000215247
0.000249183
0.000243996
0.000216286
0.000172331
0.000138732
0.000120403
0.000112055
0.000107595
0.000104736
0.000102866
0.000101574
0.000100743
0.000100206
9.98973e-05
9.97503e-05
9.97233e-05
9.97892e-05
9.99187e-05
9.96707e-05
9.88209e-05
0.000102325
0.000105518
0.000113019
0.000126461
0.000148524
0.000204542
0.000248649
0.000248948
0.000228337
0.000186029
0.000148365
0.000125467
0.000114406
0.000108987
0.000105751
0.000103493
0.00010203
0.000101029
0.000100377
9.99651e-05
9.9746e-05
9.96548e-05
9.96712e-05
9.97707e-05
9.99158e-05
9.94968e-05
9.90242e-05
0.000102413
0.000105743
0.000113853
0.000126873
0.000145872
0.000193754
0.00024611
0.000251614
0.000238455
0.000199047
0.00015927
0.00013155
0.000117421
0.000110649
0.000106784
0.000104265
0.000102537
0.00010138
0.0001006
0.00010009
9.9785e-05
9.96253e-05
9.95847e-05
9.96413e-05
9.97691e-05
9.99174e-05
9.93063e-05
9.93731e-05
0.000102608
0.000106191
0.000114993
0.000127418
0.000144577
0.000184258
0.000240752
0.000254649
0.000246239
0.000210832
0.000170631
0.000138897
0.00012112
0.000112614
0.000107989
0.000105111
0.000103142
0.000101786
0.000100875
0.00010027
9.98753e-05
9.964e-05
9.954e-05
9.95482e-05
9.96374e-05
9.97844e-05
9.99258e-05
9.91114e-05
9.98723e-05
0.000102963
0.000106994
0.000116589
0.000128249
0.000143606
0.000176727
0.000233996
0.000256285
0.00025113
0.000221865
0.000182028
0.000147283
0.000125565
0.000114784
0.000109348
0.000106072
0.000103813
0.000102264
0.000101206
0.000100502
0.000100018
9.97085e-05
9.95399e-05
9.95012e-05
9.95491e-05
9.96571e-05
9.98217e-05
9.99453e-05
9.89436e-05
0.000100534
0.000103532
0.00010825
0.000118585
0.000129426
0.000143017
0.000171131
0.00022633
0.000256661
0.000254318
0.000232326
0.000192618
0.000156443
0.000130916
0.000117533
0.000110912
0.000107066
0.000104537
0.000102813
0.000101593
0.000100783
0.000100212
9.98325e-05
9.95947e-05
9.94995e-05
9.95073e-05
9.95907e-05
9.97135e-05
9.98896e-05
9.99813e-05
9.88799e-05
0.000101351
0.000104336
0.00011004
0.000120863
0.00013064
0.000142873
0.000167192
0.000218579
0.000256263
0.000256854
0.000240282
0.000202826
0.000165763
0.000137153
0.000120876
0.000112749
0.000108241
0.000105405
0.000103422
0.000102054
0.000101115
0.000100454
0.0001
9.97074e-05
9.95509e-05
9.95229e-05
9.95655e-05
9.96879e-05
9.98253e-05
9.99988e-05
0.000100043
9.89935e-05
0.000102282
0.000105408
0.000112407
0.000123023
0.000131795
0.000142729
0.000163637
0.000211311
0.000254084
0.000258348
0.000246759
0.000211947
0.000175089
0.00014407
0.000124732
0.000114851
0.000109553
0.000106324
0.000104108
0.000102571
0.000101495
0.000100745
0.000100214
9.98694e-05
9.96613e-05
9.95955e-05
9.96124e-05
9.97002e-05
9.98632e-05
0.000100015
0.000100158
0.00010012
9.93462e-05
0.000103208
0.000106753
0.000114982
0.000124792
0.000132786
0.000142567
0.000161856
0.000204814
0.000250342
0.000259087
0.000252045
0.000220171
0.000184006
0.000151545
0.000129191
0.000117298
0.000111079
0.000107275
0.00010484
0.000103145
0.000101925
0.000101068
0.000100472
0.000100078
9.98337e-05
9.97246e-05
9.9717e-05
9.97858e-05
9.99332e-05
0.000100151
0.000100342
0.000100446
0.00010011
0.000100355
9.98404e-05
0.000103916
0.000108611
0.000117643
0.000126354
0.000133562
0.000142465
0.000160552
0.000198592
0.000245889
0.000260117
0.000254992
0.00022707
0.000192349
0.000159264
0.00013431
0.000120092
0.000112694
0.000108432
0.000105662
0.000103742
0.000102409
0.000101443
0.000100768
0.000100322
0.000100051
9.99089e-05
9.98803e-05
9.99603e-05
0.000100096
0.000100301
0.000100584
0.000100571
0.000100755
0.000100599
0.000100784
0.000100875
0.000100155
0.000100458
0.000100449
0.000104737
0.00011142
0.000120128
0.000127518
0.000133946
0.000142357
0.000159217
0.000193395
0.000241044
0.000260702
0.000256951
0.000233947
0.000199774
0.000166846
0.000139936
0.000123299
0.000114568
0.000109645
0.000106532
0.000104393
0.000102924
0.000101856
0.0001011
0.000100599
0.000100295
0.000100135
0.000100115
0.000100157
0.000100359
0.000100628
0.000100922
0.000100917
0.000101169
0.00010102
0.000100791
0.000101185
0.000101132
0.000100191
0.0001006
0.000101182
0.00010587
0.000114467
0.000121982
0.00012832
0.000134068
0.00014211
0.000157912
0.000189207
0.000236205
0.000260558
0.000258382
0.000239594
0.000206498
0.000174167
0.000145859
0.00012693
0.000116618
0.000111004
0.00010748
0.000105169
0.000103492
0.000102309
0.000101454
0.000100899
0.000100562
0.000100398
0.000100353
0.000100518
0.000100655
0.000100956
0.000101396
0.000101398
0.000101732
0.000101285
0.000101581
0.000101496
0.000101032
0.000101521
0.000101498
0.000100244
0.000100775
0.000102021
0.000107433
0.000117382
0.000123491
0.000128836
0.000134012
0.000141703
0.000156628
0.000185613
0.000231615
0.00026001
0.000259541
0.000244118
0.000212484
0.000180952
0.000152017
0.000130938
0.000118959
0.000112529
0.000108552
0.00010594
0.000104096
0.000102788
0.000101839
0.000101204
0.000100842
0.000100684
0.000100694
0.000100767
0.000101146
0.000101503
0.000101928
0.000102029
0.000102429
0.000101925
0.000102302
0.000101844
0.000102214
0.000101929
0.000101338
0.000101987
0.000101911
0.000100311
0.000100976
0.000102853
0.000109672
0.0001199
0.000124789
0.00012927
0.000133887
0.000141164
0.000155321
0.000182472
0.000227342
0.000259356
0.00026064
0.000247889
0.000217784
0.000187162
0.000158153
0.000135351
0.000121547
0.000114075
0.000109732
0.000106773
0.000104744
0.000103301
0.000102249
0.000101551
0.000101126
0.000100955
0.000100968
0.000101242
0.000101492
0.000102039
0.00010275
0.000102849
0.000103294
0.000102739
0.000103205
0.000102668
0.000103124
0.000102409
0.000102889
0.000102491
0.000101663
0.000102505
0.000101983
9.35479e-05
9.21476e-05
0.000103462
0.000112582
0.000121836
0.000125942
0.00012973
0.000133816
0.000140609
0.000154087
0.000179685
0.000223446
0.000258437
0.000261605
0.000251279
0.000222524
0.000192705
0.000164123
0.000140044
0.000124442
0.000115833
0.000110893
0.000107689
0.000105437
0.000103847
0.000102694
0.000101907
0.000101439
0.000101252
0.000101329
0.000101521
0.000102104
0.000102717
0.000103457
0.000103763
0.000104349
0.000103692
0.000104257
0.000103618
0.000104186
0.000103422
0.000103998
0.000103058
0.00010365
0.000103115
9.06739e-05
9.94519e-05
8.8725e-05
8.07078e-05
7.98135e-05
0.000104168
0.000115915
0.000123485
0.000127049
0.000130231
0.000133755
0.000140072
0.000152973
0.000177259
0.000219913
0.000257259
0.000262861
0.000254749
0.000226819
0.000197691
0.000169729
0.00014489
0.000127591
0.000117705
0.000112149
0.00010863
0.000106159
0.000104403
0.000103186
0.000102288
0.000101748
0.000101491
0.000101537
0.000102012
0.000102524
0.000103372
0.000104582
0.00010482
0.000105472
0.000104829
0.000105487
0.000104782
0.000105446
0.000104621
0.000105264
0.000104286
0.000104922
0.00010376
0.000104248
9.68193e-05
7.90302e-05
8.69651e-05
7.77728e-05
7.02803e-05
6.98989e-05
0.000105158
0.000119099
0.000125086
0.000128154
0.000130674
0.000133717
0.000139646
0.000152026
0.000175217
0.000216685
0.000255847
0.000264503
0.000257337
0.000230896
0.00020231
0.000174981
0.000149755
0.000130931
0.000119754
0.000113482
0.000109595
0.000106912
0.00010501
0.000103703
0.00010273
0.000102071
0.000101775
0.000101856
0.000102164
0.000103124
0.000104176
0.000105228
0.000105845
0.000106414
0.000105989
0.000106451
0.000106025
0.000106553
0.000105906
0.000106501
0.000105588
0.000104145
0.000101798
9.9139e-05
9.48706e-05
9.26788e-05
8.5141e-05
6.94469e-05
7.66527e-05
6.87468e-05
6.1716e-05
6.16983e-05
0.000106416
0.000121832
0.000126641
0.0001294
0.000131225
0.000133847
0.000139423
0.000151344
0.000173606
0.000213725
0.000254417
0.000266828
0.000259893
0.000235557
0.000206344
0.00017989
0.000154628
0.000134498
0.000121903
0.000114881
0.000110568
0.000107726
0.000105694
0.000104238
0.000103199
0.000102475
0.000102091
0.000101942
0.000102484
0.000103078
0.000103575
0.000104136
0.000106296
0.00010498
0.00010657
0.000105782
0.000106811
0.000106397
0.0001052
0.000103254
0.000102003
9.85673e-05
9.70228e-05
9.51301e-05
9.12595e-05
8.9508e-05
8.40261e-05
8.23812e-05
7.5574e-05
6.14674e-05
6.83168e-05
6.12068e-05
5.46033e-05
5.47908e-05
0.00010757
0.000123974
0.000128056
0.000130572
0.000131993
0.00013413
0.000139447
0.000150952
0.000172468
0.000211013
0.000252981
0.000269146
0.000262758
0.000240394
0.000210277
0.000184257
0.000159399
0.000138297
0.000124253
0.000116319
0.000111613
0.000108555
0.000106379
0.00010485
0.000103711
0.000102876
0.000102335
0.000102383
0.000102387
0.000102223
0.000100044
9.41846e-05
9.91036e-05
5.63894e-05
0.000102407
9.37912e-05
0.000103891
9.68115e-05
0.000104119
9.97513e-05
9.75181e-05
0.000100176
9.36071e-05
9.22315e-05
8.81674e-05
8.74667e-05
8.19978e-05
8.0914e-05
7.50641e-05
7.37479e-05
6.77645e-05
5.45772e-05
6.10169e-05
5.47918e-05
4.85618e-05
4.88763e-05
0.000108585
0.000125783
0.000129366
0.000131689
0.000132728
0.000134758
0.000139607
0.000150742
0.00017165
0.000208545
0.000251508
0.000271647
0.00026597
0.000245155
0.000214488
0.000188424
0.000163885
0.000142183
0.000126831
0.000117778
0.00011265
0.000109399
0.000107101
0.000105468
0.000104329
0.000103433
0.000102967
0.000102352
0.000101437
9.81631e-05
9.37408e-05
0.00010072
0.000115093
8.18496e-05
8.5063e-05
8.55672e-05
7.93311e-05
8.91443e-05
7.98073e-05
9.34875e-05
8.2346e-05
9.65621e-05
8.70386e-05
8.9089e-05
9.31881e-05
8.04847e-05
8.42909e-05
7.44188e-05
7.326e-05
6.74238e-05
6.70281e-05
6.06468e-05
4.88969e-05
5.40724e-05
4.90666e-05
4.34655e-05
4.39549e-05
0.000109049
0.000127116
0.000130627
0.000132708
0.000133545
0.000135499
0.000139931
0.000150693
0.000170928
0.000206291
0.00024995
0.000274311
0.000269715
0.000249895
0.000218868
0.000192423
0.000168278
0.000146074
0.000129567
0.000119356
0.000113706
0.000110199
0.000107824
0.000106119
0.000104842
0.000103965
0.00010306
0.000101628
9.75335e-05
9.31084e-05
0.000106078
0.000142784
0.000188889
0.000186108
0.000294413
8.85209e-05
0.000119718
8.46595e-05
0.000108559
8.16264e-05
9.72269e-05
7.98856e-05
8.90411e-05
8.20045e-05
8.31826e-05
8.79149e-05
7.94383e-05
7.74594e-05
8.39546e-05
6.84849e-05
7.00648e-05
6.08267e-05
6.23235e-05
5.43532e-05
4.4178e-05
4.80752e-05
4.38171e-05
3.91271e-05
3.98691e-05
0.000108999
0.000127825
0.000131745
0.00013364
0.000134316
0.000136205
0.000140523
0.00015082
0.000170303
0.000204193
0.000248274
0.000276672
0.000273949
0.000255131
0.000223585
0.000196324
0.000172624
0.0001501
0.000132449
0.000121204
0.00011484
0.000111048
0.000108524
0.000106701
0.000105565
0.000104499
0.000102787
9.84959e-05
9.16854e-05
0.000108789
0.00015495
0.000228069
0.000363846
0.000388216
0.000496713
0.000388283
0.000471631
0.000169421
0.000274782
0.000139948
0.000246122
0.000119505
0.000200672
0.000101897
0.000153854
8.88683e-05
0.000119481
8.05053e-05
9.61249e-05
8.14819e-05
8.42994e-05
6.57785e-05
7.93417e-05
5.55677e-05
5.86428e-05
5.02171e-05
3.95785e-05
4.49355e-05
4.12889e-05
3.57822e-05
3.56815e-05
0.000108811
0.000127773
0.000132429
0.000134428
0.000134944
0.000136852
0.000141
0.000150953
0.000169738
0.000202242
0.000246425
0.000278398
0.000277954
0.000261404
0.000228574
0.000200175
0.000176741
0.000154262
0.000135602
0.000123275
0.000116074
0.000111832
0.000109179
0.000107329
0.000105939
0.000104655
0.000100995
9.22922e-05
0.000103414
0.000152345
0.000247957
0.000428617
0.000533542
0.000539428
0.000599713
0.000532236
0.000564833
0.000510588
0.000543231
0.000364587
0.000452827
0.000323214
0.000424174
0.000271347
0.000382108
0.000209442
0.000330519
0.000142409
0.000261845
0.000106716
0.000178307
8.88605e-05
0.000117846
7.77739e-05
9.00745e-05
5.10719e-05
7.15309e-05
4.61101e-05
3.69063e-05
4.1392e-05
3.76349e-05
3.27052e-05
3.27033e-05
0.000108528
0.000126959
0.000132475
0.000134915
0.000135418
0.000137305
0.000141427
0.000151162
0.000169163
0.000200351
0.000244417
0.000279302
0.000281841
0.000267973
0.00023409
0.000204304
0.000180639
0.00015845
0.000138978
0.00012554
0.000117348
0.000112724
0.000109798
0.000107793
0.000106531
0.000104233
9.66251e-05
9.57717e-05
0.000138783
0.00024498
0.000436375
0.000563967
0.000611763
0.000613851
0.000594672
0.000613628
0.000569279
0.00058364
0.000543912
0.000558607
0.000485826
0.000520597
0.000454567
0.000494667
0.000414454
0.000465405
0.000365181
0.000429775
0.000302442
0.00038474
0.000214269
0.00032694
0.000127368
0.000242597
9.11433e-05
0.000134683
6.32529e-05
9.06489e-05
5.44277e-05
3.39133e-05
4.55011e-05
3.45303e-05
3.05832e-05
3.10994e-05
0.000112512
0.000126508
0.000132171
0.000134969
0.000135711
0.000137577
0.000141678
0.000151234
0.000168455
0.000198417
0.000242188
0.000279732
0.000286345
0.000273808
0.000240427
0.000208877
0.000184641
0.000162547
0.000142564
0.000127946
0.000118872
0.00011358
0.000110335
0.000108216
0.000106505
0.000102095
9.5136e-05
0.000122879
0.000210656
0.000405503
0.000586582
0.000648774
0.000633985
0.000617636
0.00059865
0.000605965
0.000594523
0.000595587
0.000568966
0.000574212
0.000546545
0.000555763
0.000519184
0.000535833
0.00049443
0.000514488
0.000466599
0.000492605
0.000435791
0.00046627
0.000395546
0.00043697
0.000340577
0.000400272
0.000260339
0.00034695
0.000137538
0.000267539
8.78175e-05
0.000135122
8.31519e-05
2.89992e-05
7.16281e-05
4.07451e-05
2.95942e-05
2.87427e-05
0.000130702
0.000132429
0.000134922
0.000135965
0.000137776
0.000141806
0.000151188
0.000167565
0.000196298
0.000239655
0.000279927
0.000291473
0.000279514
0.000247756
0.00021392
0.000188696
0.000166842
0.000146274
0.000130679
0.000120577
0.00011465
0.000110926
0.000108681
0.000106024
9.81304e-05
0.000101242
0.000179255
0.000350302
0.000573656
0.000672894
0.000684441
0.000661253
0.000637453
0.000616373
0.000623838
0.00060238
0.000619657
0.000579452
0.000589246
0.000561587
0.000573616
0.000547366
0.000561544
0.000527516
0.00053656
0.000506579
0.000520763
0.000486875
0.000508102
0.000465143
0.000492813
0.000436026
0.000468165
0.000401542
0.000439055
0.000349859
0.000404682
0.000265187
0.000349018
0.000126385
0.000254232
0.00011318
2.67801e-05
9.02573e-05
5.79042e-05
4.44231e-05
3.02876e-05
2.79655e-05
0.000136122
0.000135649
0.000136515
0.000138185
0.000141991
0.000151098
0.000166503
0.000194042
0.000236707
0.000279794
0.000296796
0.000285795
0.000255486
0.000219319
0.000192881
0.000171138
0.000150415
0.000133493
0.000122719
0.000115709
0.000111576
0.000108638
0.000104224
9.43228e-05
0.000128114
0.000256344
0.00050016
0.000687456
0.000740374
0.00070188
0.000668843
0.000663539
0.000707208
0.000648118
0.00070383
0.00064815
0.000690226
0.000587653
0.000608963
0.000575998
0.000603939
0.000575637
0.000601437
0.000537257
0.000553834
0.000530427
0.000552589
0.000519511
0.000548214
0.000503302
0.000536722
0.000477673
0.000516082
0.000450205
0.000488593
0.000411519
0.000459086
0.000348361
0.000416573
0.000234714
0.000346269
0.000293752
0.000144162
0.000214126
5.38629e-05
2.94055e-05
4.49327e-05
9.45449e-05
0.00017101
0.00018257
7.23012e-05
3.42962e-05
3.12015e-05
2.94e-05
3.12907e-05
0.000141143
0.000138321
0.000139132
0.000142538
0.000151139
0.000165734
0.00019158
0.000233389
0.000279165
0.000301584
0.000292622
0.000263716
0.000225648
0.000197123
0.000175443
0.000154564
0.000136983
0.000124565
0.000117363
0.000112278
0.000108307
9.97908e-05
9.48734e-05
0.000167815
0.000363323
0.000639365
0.000757164
0.000758943
0.000716295
0.000684979
0.000692128
0.000754297
0.000773719
0.000798202
0.000728078
0.000762708
0.000705736
0.000728704
0.000640435
0.00067592
0.000626491
0.000649728
0.000606913
0.000618187
0.000576768
0.000593369
0.00057136
0.000583793
0.000562751
0.000574069
0.000553355
0.000563892
0.00052793
0.000559388
0.00050227
0.000540551
0.00047011
0.000491313
0.000513908
0.000382415
0.000421096
0.000478025
0.000449386
0.000336155
0.000271693
0.000333401
0.000381486
0.000258743
5.69027e-05
5.12919e-05
0.000138902
0.000219578
0.000243514
0.000104916
3.44763e-05
4.31916e-05
4.31908e-05
4.45814e-05
3.27099e-05
0.000146667
0.000141899
0.000143836
0.000151491
0.000165381
0.000189121
0.000229698
0.000277832
0.000305456
0.000299359
0.000272659
0.000232829
0.000201934
0.000179505
0.000159071
0.000140318
0.00012734
0.000118528
0.000113059
0.000107167
9.23001e-05
0.000107995
0.00023192
0.000488461
0.000736915
0.000812266
0.000777887
0.000724238
0.000706045
0.000743304
0.000786457
0.000788117
0.000773299
0.000761585
0.000750933
0.000772122
0.000714925
0.000721404
0.000670196
0.000692524
0.000637108
0.000655489
0.00060814
0.000608548
0.000590551
0.000602366
0.000579026
0.000586156
0.000567182
0.000573361
0.000560756
0.000561855
0.000560486
0.000556041
0.000530206
0.000545233
0.000554548
0.000560503
0.000499755
0.000520508
0.000514998
0.000533418
0.000419278
0.000451967
0.000502585
0.000479354
0.000379129
0.000320501
0.000372464
0.000418807
0.000308439
7.63235e-05
5.78293e-05
0.000190477
0.000290945
0.000268292
0.000154701
3.40476e-05
7.37108e-05
5.48538e-05
4.93502e-05
4.51321e-05
0.000152589
0.000147279
0.000152443
0.000164999
0.000186879
0.000225812
0.000275205
0.000308096
0.000305553
0.000281939
0.000240822
0.000207224
0.000183976
0.000163151
0.000144425
0.000129673
0.000120871
0.00011361
0.000103342
8.8018e-05
0.000134926
0.000307986
0.00061237
0.00081064
0.000835765
0.000789774
0.000736481
0.000734877
0.000785103
0.000835422
0.000779038
0.000540158
0.000472373
0.000655559
0.000601369
0.00071451
0.000692539
0.000636565
0.000598042
0.00066233
0.000656068
0.000598598
0.00057549
0.000527564
0.000485267
0.000584415
0.000562871
0.00056734
0.000533603
0.000557672
0.00052462
0.000548661
0.000523636
0.000560267
0.000553745
0.000544809
0.000533042
0.000546509
0.000554572
0.000557727
0.000556055
0.000521004
0.000534996
0.000535762
0.000546318
0.000452528
0.000480457
0.00052025
0.000502914
0.000415837
0.000364221
0.000410868
0.000451534
0.000352443
0.000113729
7.80493e-05
0.000239771
0.000336012
0.000314947
0.000204538
3.80689e-05
9.71527e-05
4.86348e-05
5.66996e-05
4.7239e-05
0.000158686
0.000155236
0.000164899
0.000184936
0.000222217
0.000271791
0.000309731
0.000311754
0.000291382
0.000249289
0.000213188
0.000188263
0.000167984
0.000147983
0.000133016
0.000122163
0.00011355
9.55766e-05
9.40318e-05
0.000188338
0.0004244
0.000724439
0.00085559
0.000853851
0.000789931
0.00075697
0.000777558
0.000849986
0.00086361
0.000725196
0.000274407
0.000254717
0.000206461
0.000406628
0.000327495
0.000547599
0.00048048
0.000422176
0.000348084
0.000539069
0.000487776
0.000431988
0.000369122
0.00033874
0.000264004
0.000479177
0.000410023
0.000462161
0.000383638
0.000472621
0.000403121
0.000516671
0.000495369
0.000474432
0.000441977
0.00054882
0.00053838
0.00052395
0.000505766
0.000552296
0.000553665
0.000550979
0.000543146
0.000532723
0.000544133
0.000540463
0.00054847
0.000480106
0.000502007
0.000529252
0.000518215
0.00044878
0.000403662
0.000444456
0.00047828
0.000392797
0.000161758
0.000113836
0.000287524
0.000378133
0.000358535
0.000252942
4.54072e-05
2.85784e-05
2.49344e-05
7.49873e-05
5.3101e-05
0.000164754
0.000166264
0.000184154
0.000218186
0.000268476
0.000310697
0.000318772
0.000300696
0.000258619
0.000219314
0.000193235
0.000171958
0.00015273
0.000135704
0.000124608
0.00011103
9.09066e-05
0.000122514
0.000275807
0.000558545
0.000810694
0.000894018
0.000866343
0.000800133
0.000778057
0.000826018
0.000889071
0.000880831
0.000611853
0.000258429
0.000119477
0.000118156
0.000134614
0.000115936
0.000183869
0.00015763
0.00026717
0.000218319
0.000193114
0.000164245
0.000295514
0.00023232
0.000208578
0.000174248
0.00018026
0.000143752
0.000298588
0.000231998
0.000331666
0.000263495
0.000382073
0.00032223
0.000484835
0.000460817
0.000435551
0.000407942
0.000531834
0.000516885
0.000498743
0.000478035
0.000548482
0.000545097
0.000537014
0.000525368
0.000535668
0.000543649
0.000537881
0.000542624
0.000499835
0.000514961
0.000529806
0.000524676
0.000475202
0.000437829
0.000470818
0.000496657
0.000428299
0.000211292
0.000160784
0.000332537
0.000415271
0.000397368
0.000299824
4.45704e-05
9.62664e-06
1.27422e-05
0.000106342
6.86575e-05
0.000172713
0.000184387
0.000213958
0.000264599
0.000310919
0.00032592
0.000309847
0.000269149
0.000226703
0.000197308
0.000177127
0.000156419
0.000139743
0.000125369
0.000105473
9.53903e-05
0.000177949
0.000400188
0.000696438
0.000879849
0.000913988
0.00087028
0.00080988
0.000806493
0.000879529
0.000930428
0.000876848
0.000481079
0.000240743
0.000105214
9.42155e-05
9.29305e-05
9.51206e-05
9.35043e-05
0.000105051
9.83879e-05
0.000139464
0.00011813
0.000108657
9.89101e-05
0.000149826
0.000125775
0.00011653
0.000101314
0.000107707
8.90543e-05
0.000200284
0.00014625
0.000264977
0.000211634
0.00035671
0.000327729
0.000275671
0.000303435
0.000455542
0.000431806
0.000407437
0.000382157
0.00051067
0.000493395
0.000474208
0.000453568
0.000538653
0.000530395
0.000519069
0.000505161
0.000531042
0.000536223
0.000528963
0.000531603
0.00051079
0.000519175
0.000523292
0.000523058
0.000492608
0.000464801
0.000487955
0.000505931
0.000456634
0.00025903
0.000210279
0.000373635
0.000445379
0.000429829
0.000343197
4.7633e-05
3.81753e-06
1.04253e-05
0.000152474
9.63495e-05
0.000186762
0.000212078
0.000258804
0.000309901
0.000332143
0.00031911
0.000280775
0.000234739
0.00020338
0.00018056
0.00016151
0.000142521
0.000126393
9.97925e-05
0.000122203
0.000277518
0.000542048
0.000811405
0.000926517
0.000931819
0.000868056
0.000828322
0.000846015
0.000941094
0.000967244
0.000825766
0.000390364
0.000204688
0.000106901
9.26752e-05
9.36902e-05
9.13646e-05
9.17413e-05
8.92408e-05
9.039e-05
8.83645e-05
8.83988e-05
9.32933e-05
8.98439e-05
8.75398e-05
8.61166e-05
9.40938e-05
9.00832e-05
8.28791e-05
8.23523e-05
8.68289e-05
7.71523e-05
0.000161231
0.000116619
0.0002525
0.000226485
0.000189113
0.000338893
0.000314626
0.000269029
0.000291809
0.000432019
0.000409764
0.000386532
0.000362756
0.000489295
0.000471461
0.00045208
0.000431682
0.000523624
0.000512827
0.000499681
0.000484551
0.00052059
0.000524018
0.000515536
0.000516286
0.000512999
0.000515547
0.000511314
0.000514782
0.000500736
0.000482433
0.000495473
0.000506481
0.000475618
0.000304928
0.000257959
0.000409033
0.000466557
0.000454132
0.0003817
5.82425e-05
2.23248e-06
1.67475e-05
0.00020254
0.000141517
0.000211005
0.000255128
0.000308178
0.000337687
0.000327907
0.000292612
0.000245181
0.000208008
0.000186217
0.00016496
0.000146731
0.000124137
0.000103316
0.000176951
0.000382048
0.000685408
0.00090476
0.00096897
0.000943854
0.000873774
0.000849102
0.000897825
0.000990374
0.000988432
0.000750162
0.000339544
0.000172453
0.000105708
9.4141e-05
9.17379e-05
9.23401e-05
9.04503e-05
9.09059e-05
8.84169e-05
8.96249e-05
8.60055e-05
8.6988e-05
8.54223e-05
8.55607e-05
8.43087e-05
8.40995e-05
8.33861e-05
8.43256e-05
7.70852e-05
7.94459e-05
7.81662e-05
7.17669e-05
0.000143911
0.000103617
0.000246784
0.000224398
0.000205986
0.000182017
0.000328444
0.000308195
0.000267782
0.000288067
0.000410843
0.000389908
0.000369248
0.000348824
0.000467902
0.000450178
0.00043185
0.000413387
0.000506113
0.000493849
0.00047981
0.000464486
0.00050581
0.00050816
0.00049868
0.000498431
0.00050755
0.000505565
0.000495058
0.000501241
0.000500055
0.000490022
0.000494113
0.000499386
0.000484147
0.000346852
0.000303711
0.000437003
0.000477201
0.000468222
0.000413773
8.51173e-05
3.15364e-05
4.77995e-05
0.000252586
0.000197314
0.000248735
0.000305295
0.000340714
0.000336426
0.000305546
0.000254494
0.000216575
0.00018975
0.000170467
0.000148669
0.000121926
0.000121717
0.000245086
0.000508731
0.000818789
0.000972426
0.000999268
0.000948747
0.000881487
0.000873364
0.000952989
0.00102939
0.00100414
0.000667226
0.000304204
0.000151292
0.000104999
9.65474e-05
9.28187e-05
9.43176e-05
9.11469e-05
9.1981e-05
8.96669e-05
9.04619e-05
8.75198e-05
8.87625e-05
8.4349e-05
8.58568e-05
8.3885e-05
8.36718e-05
8.16966e-05
8.1915e-05
8.09846e-05
8.13947e-05
7.3508e-05
7.66356e-05
8.12644e-05
7.11128e-05
0.000162435
0.000138971
0.00011189
0.000247375
0.000226734
0.000211318
0.000190273
0.000324822
0.000307096
0.000270446
0.000289029
0.00039518
0.000377319
0.000359765
0.000342354
0.000448396
0.000432022
0.000415785
0.000400027
0.00048683
0.000473723
0.000459551
0.000444915
0.000487623
0.000489424
0.000478409
0.000478142
0.000495844
0.000490431
0.000475144
0.000483206
0.000491696
0.000488605
0.00048492
0.000485992
0.000483351
0.000383549
0.000345478
0.000455622
0.000477597
0.000470922
0.000437904
0.000119488
8.67298e-05
0.00010165
0.000300613
0.000259308
0.000299485
0.000344408
0.000345301
0.00031732
0.000267971
0.00022212
0.000196151
0.000173884
0.000152434
0.000118763
0.000154404
0.000329859
0.000639172
0.000922746
0.00102599
0.00102051
0.000947683
0.0008968
0.000906743
0.00101607
0.00107196
0.00100421
0.000585908
0.000275696
0.000138566
0.000105367
9.93181e-05
9.64241e-05
9.28922e-05
9.41726e-05
9.07342e-05
9.18304e-05
8.91873e-05
8.99444e-05
8.70788e-05
8.82404e-05
8.39792e-05
8.55672e-05
8.21283e-05
8.2763e-05
8.0941e-05
8.11071e-05
7.91607e-05
8.04794e-05
7.19602e-05
7.47551e-05
9.57815e-05
8.04976e-05
7.08513e-05
0.000169274
0.000148244
0.000112798
0.000136353
0.000251366
0.000231699
0.000220224
0.000199717
0.00032633
0.000310706
0.000277038
0.000294309
0.000384929
0.000370305
0.000355882
0.000341336
0.00043042
0.000416499
0.00040333
0.000391048
0.000465563
0.000452202
0.000438843
0.000425971
0.000465506
0.000467377
0.000454232
0.000454986
0.000478991
0.000470724
0.000450843
0.000461226
0.000476978
0.000479136
0.000469188
0.000467406
0.000474109
0.00041351
0.00038134
0.000463059
0.000469016
0.000463642
0.000452137
0.000175936