/*--------------------------------*- C++ -*----------------------------------*\
  =========                 |
  \\      /  F ield         | OpenFOAM: The Open Source CFD Toolbox
   \\    /   O peration     | Website:  https://openfoam.org
    \\  /    A nd           | Version:  dev
     \\/     M anipulation  |
\*---------------------------------------------------------------------------*/
FoamFile
{
    version     2.0;
    format      ascii;
    class       volScalarField;
    location    "2500";
    object      O2;
}
// * * * * * * * * * * * * * * * * * * * * * * * * * * * * * * * * * * * * * //

dimensions      [0 0 0 0 0 0 0];

internalField   nonuniform List<scalar> 
9575
(
0.23301
0.23301
0.23301
0.23301
0.23301
0.23301
0.23301
0.23301
0.23301
0.23301
0.23301
0.23301
0.23301
0.23301
0.23301
0.23301
0.23301
0.23301
0.23301
0.23301
0.23301
0.23301
0.23301
0.23301
0.23301
0.23301
0.23301
0.23301
0.23301
0.23301
0.23301
0.23301
0.23301
0.23301
0.23301
0.23301
0.23301
0.23301
0.23301
0.23301
0.23301
0.23301
0.23301
0.23301
0.23301
0.23301
0.23301
0.23301
0.23301
0.23301
0.23301
0.23301
0.23301
0.23301
0.23301
0.23301
0.23301
0.23301
0.23301
0.23301
0.23301
0.23301
0.23301
0.23301
0.23301
0.23301
0.23301
0.23301
0.23301
0.23301
0.23301
0.23301
0.23301
0.23301
0.23301
0.23301
0.23301
0.23301
0.23301
0.23301
0.23301
0.23301
0.23301
0.23301
0.23301
0.23301
0.23301
0.23301
0.23301
0.23301
0.23301
0.23301
0.23301
0.23301
0.23301
0.23301
0.23301
0.23301
0.23301
0.23301
0.23301
0.23301
0.23301
0.23301
0.23301
0.23301
0.23301
0.23301
0.23301
0.23301
0.23301
0.23301
0.23301
0.23301
0.23301
0.23301
0.23301
0.23301
0.23301
0.23301
0.23301
0.23301
0.23301
0.23301
0.23301
0.23301
0.23301
0.23301
0.23301
0.23301
0.23301
0.23301
0.23301
0.23301
0.23301
0.23301
0.23301
0.23301
0.23301
0.23301
0.23301
0.23301
0.23301
0.23301
0.23301
0.23301
0.23301
0.23301
0.23301
0.23301
0.23301
0.23301
0.23301
0.23301
0.23301
0.23301
0.23301
0.23301
0.23301
0.23301
0.23301
0.23301
0.23301
0.23301
0.23301
0.23301
0.23301
0.23301
0.23301
0.23301
0.23301
0.23301
0.23301
0.23301
0.23301
0.23301
0.23301
0.23301
0.23301
0.23301
0.23301
0.23301
0.23301
0.23301
0.23301
0.23301
0.23301
0.23301
0.23301
0.23301
0.23301
0.23301
0.23301
0.23301
0.23301
0.23301
0.23301
0.23301
0.23301
0.23301
0.23301
0.23301
0.23301
0.23301
0.23301
0.23301
0.23301
0.23301
0.23301
0.23301
0.23301
0.23301
0.23301
0.23301
0.23301
0.23301
0.23301
0.23301
0.23301
0.23301
0.23301
0.23301
0.23301
0.23301
0.23301
0.23301
0.23301
0.23301
0.23301
0.23301
0.23301
0.23301
0.23301
0.23301
0.23301
0.23301
0.23301
0.23301
0.23301
0.23301
0.23301
0.23301
0.23301
0.23301
0.23301
0.23301
0.23301
0.23301
0.23301
0.23301
0.23301
0.23301
0.23301
0.23301
0.23301
0.23301
0.23301
0.23301
0.23301
0.23301
0.23301
0.23301
0.23301
0.23301
0.23301
0.23301
0.23301
0.23301
0.23301
0.23301
0.23301
0.23301
0.23301
0.23301
0.23301
0.23301
0.23301
0.23301
0.23301
0.23301
0.23301
0.23301
0.23301
0.23301
0.23301
0.23301
0.23301
0.23301
0.23301
0.23301
0.23301
0.23301
0.23301
0.23301
0.23301
0.23301
0.23301
0.23301
0.23301
0.23301
0.23301
0.23301
0.23301
0.23301
0.23301
0.23301
0.23301
0.23301
0.23301
0.23301
0.23301
0.23301
0.23301
0.23301
0.23301
0.23301
0.23301
0.23301
0.23301
0.23301
0.23301
0.23301
0.23301
0.23301
0.23301
0.23301
0.23301
0.23301
0.23301
0.23301
0.23301
0.23301
0.23301
0.23301
0.23301
0.23301
0.23301
0.23301
0.23301
0.23301
0.23301
0.23301
0.23301
0.23301
0.23301
0.23301
0.23301
0.23301
0.23301
0.23301
0.23301
0.23301
0.23301
0.23301
0.23301
0.23301
0.23301
0.23301
0.23301
0.23301
0.23301
0.23301
0.23301
0.23301
0.23301
0.23301
0.23301
0.23301
0.23301
0.23301
0.23301
0.23301
0.23301
0.23301
0.23301
0.23301
0.23301
0.23301
0.23301
0.23301
0.23301
0.23301
0.23301
0.23301
0.23301
0.23301
0.23301
0.23301
0.23301
0.23301
0.23301
0.23301
0.23301
0.23301
0.23301
0.23301
0.23301
0.23301
0.23301
0.23301
0.23301
0.23301
0.23301
0.23301
0.23301
0.23301
0.23301
0.23301
0.23301
0.23301
0.23301
0.23301
0.23301
0.23301
0.23301
0.23301
0.23301
0.23301
0.23301
0.23301
0.23301
0.23301
0.23301
0.23301
0.23301
0.23301
0.23301
0.23301
0.23301
0.23301
0.23301
0.23301
0.23301
0.23301
0.23301
0.23301
0.23301
0.23301
0.23301
0.23301
0.23301
0.23301
0.23301
0.23301
0.23301
0.23301
0.23301
0.23301
0.23301
0.23301
0.23301
0.23301
0.23301
0.23301
0.23301
0.23301
0.23301
0.23301
0.23301
0.23301
0.23301
0.23301
0.23301
0.23301
0.23301
0.23301
0.23301
0.23301
0.23301
0.23301
0.23301
0.23301
0.23301
0.23301
0.23301
0.23301
0.23301
0.23301
0.23301
0.23301
0.23301
0.23301
0.23301
0.23301
0.23301
0.23301
0.23301
0.23301
0.23301
0.23301
0.23301
0.23301
0.23301
0.23301
0.23301
0.23301
0.23301
0.23301
0.23301
0.23301
0.23301
0.23301
0.23301
0.23301
0.23301
0.23301
0.23301
0.23301
0.23301
0.23301
0.23301
0.23301
0.23301
0.23301
0.23301
0.23301
0.23301
0.23301
0.23301
0.23301
0.23301
0.23301
0.23301
0.23301
0.23301
0.23301
0.23301
0.23301
0.23301
0.23301
0.23301
0.23301
0.23301
0.23301
0.23301
0.23301
0.23301
0.23301
0.23301
0.23301
0.23301
0.23301
0.23301
0.23301
0.23301
0.23301
0.23301
0.23301
0.23301
0.23301
0.23301
0.23301
0.23301
0.23301
0.23301
0.23301
0.23301
0.23301
0.23301
0.23301
0.23301
0.23301
0.23301
0.23301
0.23301
0.23301
0.23301
0.23301
0.23301
0.23301
0.23301
0.23301
0.23301
0.23301
0.23301
0.23301
0.23301
0.23301
0.23301
0.23301
0.23301
0.23301
0.23301
0.23301
0.23301
0.23301
0.23301
0.23301
0.23301
0.23301
0.23301
0.23301
0.23301
0.23301
0.23301
0.23301
0.23301
0.23301
0.23301
0.23301
0.23301
0.23301
0.23301
0.23301
0.23301
0.23301
0.23301
0.23301
0.23301
0.23301
0.23301
0.23301
0.23301
0.23301
0.23301
0.23301
0.23301
0.23301
0.23301
0.23301
0.23301
0.23301
0.23301
0.23301
0.23301
0.23301
0.23301
0.23301
0.23301
0.23301
0.23301
0.23301
0.23301
0.23301
0.23301
0.23301
0.23301
0.23301
0.23301
0.23301
0.23301
0.23301
0.23301
0.23301
0.23301
0.23301
0.23301
0.23301
0.23301
0.23301
0.23301
0.23301
0.23301
0.23301
0.23301
0.23301
0.23301
0.23301
0.23301
0.23301
0.23301
0.23301
0.23301
0.23301
0.23301
0.23301
0.23301
0.23301
0.23301
0.23301
0.23301
0.23301
0.23301
0.23301
0.23301
0.23301
0.23301
0.23301
0.23301
0.23301
0.23301
0.23301
0.23301
0.23301
0.23301
0.23301
0.23301
0.23301
0.23301
0.23301
0.23301
0.23301
0.23301
0.23301
0.23301
0.23301
0.23301
0.23301
0.23301
0.23301
0.23301
0.23301
0.23301
0.23301
0.23301
0.23301
0.23301
0.23301
0.23301
0.23301
0.23301
0.23301
0.23301
0.23301
0.23301
0.23301
0.23301
0.23301
0.23301
0.23301
0.23301
0.23301
0.23301
0.23301
0.23301
0.23301
0.23301
0.23301
0.23301
0.23301
0.23301
0.23301
0.23301
0.23301
0.23301
0.23301
0.23301
0.23301
0.23301
0.23301
0.23301
0.23301
0.23301
0.23301
0.23301
0.23301
0.23301
0.23301
0.23301
0.23301
0.23301
0.23301
0.23301
0.23301
0.23301
0.23301
0.23301
0.23301
0.23301
0.23301
0.23301
0.23301
0.23301
0.23301
0.23301
0.23301
0.23301
0.23301
0.23301
0.23301
0.23301
0.23301
0.23301
0.23301
0.23301
0.23301
0.23301
0.23301
0.23301
0.23301
0.23301
0.23301
0.23301
0.23301
0.23301
0.23301
0.23301
0.23301
0.23301
0.23301
0.23301
0.23301
0.23301
0.23301
0.23301
0.23301
0.23301
0.23301
0.23301
0.23301
0.23301
0.23301
0.23301
0.23301
0.23301
0.23301
0.23301
0.23301
0.23301
0.23301
0.23301
0.23301
0.23301
0.23301
0.23301
0.23301
0.23301
0.23301
0.23301
0.23301
0.23301
0.23301
0.23301
0.23301
0.23301
0.23301
0.23301
0.23301
0.23301
0.23301
0.23301
0.23301
0.23301
0.23301
0.23301
0.23301
0.23301
0.23301
0.23301
0.23301
0.23301
0.23301
0.23301
0.23301
0.23301
0.23301
0.23301
0.23301
0.23301
0.23301
0.23301
0.23301
0.23301
0.23301
0.23301
0.23301
0.23301
0.23301
0.23301
0.23301
0.23301
0.23301
0.23301
0.23301
0.23301
0.23301
0.23301
0.23301
0.23301
0.23301
0.23301
0.23301
0.23301
0.23301
0.23301
0.23301
0.23301
0.23301
0.23301
0.23301
0.23301
0.23301
0.23301
0.23301
0.23301
0.23301
0.23301
0.23301
0.23301
0.23301
0.23301
0.23301
0.23301
0.23301
0.23301
0.23301
0.23301
0.23301
0.23301
0.23301
0.23301
0.23301
0.23301
0.23301
0.23301
0.23301
0.23301
0.23301
0.23301
0.23301
0.23301
0.23301
0.23301
0.23301
0.23301
0.23301
0.23301
0.23301
0.23301
0.23301
0.23301
0.23301
0.23301
0.23301
0.23301
0.23301
0.23301
0.23301
0.23301
0.23301
0.23301
0.23301
0.23301
0.23301
0.23301
0.23301
0.23301
0.23301
0.23301
0.23301
0.23301
0.23301
0.23301
0.23301
0.23301
0.23301
0.23301
0.23301
0.23301
0.23301
0.23301
0.23301
0.23301
0.23301
0.23301
0.23301
0.23301
0.23301
0.23301
0.23301
0.23301
0.23301
0.23301
0.23301
0.23301
0.23301
0.23301
0.23301
0.23301
0.23301
0.23301
0.23301
0.23301
0.23301
0.23301
0.23301
0.23301
0.23301
0.23301
0.23301
0.23301
0.23301
0.23301
0.23301
0.23301
0.23301
0.23301
0.23301
0.23301
0.23301
0.233009
0.23301
0.233009
0.23301
0.233009
0.23301
0.23301
0.23301
0.23301
0.23301
0.23301
0.23301
0.23301
0.23301
0.23301
0.23301
0.23301
0.23301
0.23301
0.23301
0.23301
0.23301
0.23301
0.23301
0.23301
0.23301
0.23301
0.23301
0.23301
0.23301
0.23301
0.23301
0.23301
0.23301
0.23301
0.23301
0.23301
0.23301
0.23301
0.23301
0.23301
0.23301
0.23301
0.23301
0.23301
0.23301
0.23301
0.23301
0.23301
0.23301
0.233009
0.233007
0.233003
0.233007
0.233011
0.233008
0.233004
0.233008
0.233005
0.233009
0.233006
0.233009
0.233007
0.23301
0.233008
0.23301
0.233009
0.23301
0.23301
0.23301
0.23301
0.23301
0.23301
0.23301
0.23301
0.23301
0.23301
0.23301
0.23301
0.23301
0.23301
0.23301
0.23301
0.23301
0.23301
0.23301
0.23301
0.23301
0.23301
0.23301
0.23301
0.23301
0.23301
0.23301
0.23301
0.23301
0.23301
0.23301
0.23301
0.23301
0.23301
0.23301
0.23301
0.23301
0.23301
0.233009
0.233007
0.232998
0.232968
0.232889
0.232993
0.232942
0.232996
0.232971
0.232998
0.232977
0.233001
0.232984
0.233004
0.232993
0.233007
0.233
0.233009
0.233005
0.23301
0.233008
0.23301
0.23301
0.23301
0.23301
0.23301
0.23301
0.23301
0.23301
0.23301
0.23301
0.23301
0.23301
0.23301
0.23301
0.23301
0.23301
0.23301
0.23301
0.23301
0.23301
0.23301
0.23301
0.23301
0.23301
0.23301
0.23301
0.23301
0.23301
0.23301
0.23301
0.23301
0.23301
0.23301
0.23301
0.23301
0.233009
0.233008
0.232999
0.232967
0.232856
0.232563
0.232483
0.232041
0.232904
0.232745
0.232921
0.232774
0.232937
0.232812
0.232957
0.232856
0.232977
0.232908
0.232993
0.232952
0.233003
0.232982
0.233008
0.233
0.23301
0.233008
0.23301
0.23301
0.23301
0.23301
0.23301
0.23301
0.23301
0.23301
0.23301
0.23301
0.23301
0.23301
0.23301
0.23301
0.23301
0.23301
0.23301
0.23301
0.23301
0.23301
0.23301
0.23301
0.23301
0.23301
0.23301
0.23301
0.23301
0.23301
0.23301
0.23301
0.23301
0.23301
0.23301
0.233008
0.233001
0.232969
0.232861
0.232599
0.231987
0.23164
0.231126
0.231522
0.230993
0.232471
0.23202
0.23254
0.232043
0.232621
0.232135
0.232719
0.23229
0.232829
0.232509
0.232913
0.232707
0.232968
0.23286
0.232997
0.232952
0.233008
0.232995
0.233008
0.23301
0.233008
0.233009
0.23301
0.23301
0.23301
0.23301
0.23301
0.23301
0.23301
0.23301
0.23301
0.23301
0.23301
0.23301
0.23301
0.23301
0.23301
0.23301
0.23301
0.23301
0.23301
0.23301
0.23301
0.23301
0.23301
0.23301
0.23301
0.23301
0.23301
0.23301
0.233009
0.233004
0.232979
0.232884
0.232622
0.232071
0.231204
0.230663
0.230339
0.23048
0.229918
0.230278
0.229676
0.231468
0.230865
0.231509
0.230804
0.231624
0.230837
0.231856
0.230973
0.232212
0.231303
0.232539
0.231819
0.232794
0.232336
0.232938
0.232725
0.232995
0.232926
0.232997
0.23301
0.233001
0.233005
0.23301
0.23301
0.23301
0.23301
0.23301
0.23301
0.23301
0.23301
0.23301
0.23301
0.23301
0.23301
0.23301
0.23301
0.23301
0.23301
0.23301
0.23301
0.23301
0.23301
0.23301
0.23301
0.23301
0.23301
0.23301
0.23301
0.23301
0.23301
0.233007
0.232991
0.232919
0.232695
0.232217
0.231438
0.230309
0.22879
0.229495
0.228731
0.229103
0.228539
0.228782
0.22814
0.230114
0.229418
0.230051
0.22923
0.230085
0.229146
0.23027
0.229192
0.230683
0.22948
0.231348
0.230031
0.232116
0.230827
0.232665
0.231898
0.232924
0.232619
0.232935
0.233009
0.232958
0.232987
0.23301
0.23301
0.23301
0.23301
0.23301
0.23301
0.23301
0.23301
0.23301
0.23301
0.23301
0.23301
0.23301
0.23301
0.23301
0.23301
0.23301
0.23301
0.23301
0.23301
0.23301
0.23301
0.23301
0.23301
0.23301
0.23301
0.23301
0.233009
0.233001
0.232957
0.232785
0.232383
0.231732
0.230792
0.229482
0.228111
0.227462
0.227425
0.228038
0.227648
0.227604
0.227267
0.227171
0.226855
0.228472
0.227748
0.228265
0.227403
0.228193
0.227164
0.228259
0.227098
0.228618
0.227283
0.229322
0.227745
0.230326
0.228542
0.23172
0.229828
0.232614
0.231602
0.232666
0.233005
0.232776
0.232922
0.23301
0.23301
0.23301
0.23301
0.23301
0.23301
0.23301
0.23301
0.23301
0.23301
0.23301
0.23301
0.23301
0.23301
0.23301
0.23301
0.23301
0.23301
0.23301
0.23301
0.23301
0.23301
0.23301
0.23301
0.23301
0.23301
0.233008
0.232989
0.232884
0.232567
0.232025
0.231251
0.230156
0.228932
0.228086
0.227453
0.227573
0.227146
0.227266
0.2271
0.227096
0.22674
0.226776
0.226373
0.226424
0.226776
0.226453
0.226416
0.226045
0.226133
0.225649
0.22601
0.225326
0.226231
0.22511
0.226862
0.225226
0.22781
0.225942
0.229458
0.227116
0.231604
0.229233
0.231784
0.233
0.23217
0.232644
0.232914
0.23301
0.23301
0.23301
0.23301
0.23301
0.23301
0.23301
0.23301
0.23301
0.23301
0.23301
0.23301
0.23301
0.23301
0.23301
0.23301
0.23301
0.23301
0.23301
0.23301
0.23301
0.23301
0.23301
0.23301
0.233009
0.233004
0.232963
0.232766
0.232313
0.231639
0.230763
0.229633
0.228682
0.228161
0.227932
0.227442
0.227825
0.227288
0.227659
0.226854
0.227013
0.226545
0.226763
0.226217
0.226512
0.225982
0.226053
0.225551
0.225636
0.225086
0.22517
0.224628
0.224646
0.224344
0.224079
0.224368
0.223638
0.225106
0.223595
0.226577
0.224383
0.22927
0.226258
0.227778
0.231057
0.229426
0.232806
0.232988
0.232895
0.231844
0.230075
0.229988
0.232204
0.23301
0.23296
0.232988
0.233007
0.23301
0.23301
0.23301
0.23301
0.23301
0.23301
0.23301
0.23301
0.23301
0.23301
0.23301
0.23301
0.23301
0.23301
0.23301
0.23301
0.23301
0.23301
0.23301
0.23301
0.23301
0.233009
0.232998
0.232917
0.232615
0.232041
0.231278
0.230306
0.229305
0.228696
0.228328
0.228483
0.229023
0.229412
0.228094
0.228566
0.228121
0.228672
0.227121
0.227588
0.226956
0.22752
0.226775
0.227435
0.225836
0.226222
0.225374
0.2258
0.224811
0.225193
0.224215
0.22453
0.223582
0.223794
0.222976
0.223079
0.222926
0.222718
0.222538
0.225129
0.223949
0.222532
0.223199
0.226345
0.22791
0.226135
0.224938
0.228051
0.232507
0.232745
0.23069
0.228716
0.228235
0.231326
0.233003
0.23301
0.233007
0.232884
0.23296
0.23301
0.23301
0.23301
0.23301
0.23301
0.23301
0.23301
0.23301
0.23301
0.23301
0.23301
0.23301
0.23301
0.23301
0.23301
0.23301
0.23301
0.23301
0.23301
0.23301
0.233007
0.232984
0.232845
0.232438
0.23177
0.230923
0.229938
0.229153
0.228752
0.22861
0.229136
0.230614
0.23016
0.230708
0.22921
0.229719
0.229397
0.229953
0.228146
0.228786
0.228158
0.228885
0.228114
0.228932
0.226474
0.227274
0.225939
0.226891
0.22519
0.226193
0.224288
0.225227
0.223405
0.224144
0.222517
0.222635
0.222847
0.223186
0.222191
0.221999
0.222344
0.222287
0.223796
0.222919
0.221915
0.222299
0.224761
0.226301
0.22478
0.223602
0.226442
0.231934
0.232406
0.229298
0.226781
0.227237
0.230065
0.232991
0.233009
0.233004
0.232724
0.232893
0.23301
0.23301
0.23301
0.23301
0.23301
0.23301
0.23301
0.23301
0.23301
0.23301
0.23301
0.23301
0.23301
0.23301
0.23301
0.23301
0.23301
0.23301
0.233009
0.233003
0.232956
0.23274
0.232255
0.231514
0.230598
0.229697
0.229165
0.228879
0.229
0.229871
0.231401
0.231899
0.232143
0.231271
0.231617
0.230452
0.230892
0.230728
0.231191
0.229569
0.230189
0.229703
0.230391
0.229745
0.23052
0.227896
0.228865
0.227336
0.228488
0.226391
0.22764
0.225253
0.226482
0.223574
0.224108
0.224605
0.225238
0.222403
0.222634
0.222994
0.223444
0.221745
0.22176
0.222022
0.222164
0.2227
0.222058
0.221489
0.221663
0.22352
0.224834
0.22349
0.222545
0.22503
0.230956
0.231794
0.227872
0.225348
0.225813
0.228682
0.232971
0.233009
0.233
0.2324
0.232763
0.23301
0.23301
0.23301
0.23301
0.23301
0.23301
0.23301
0.23301
0.23301
0.23301
0.23301
0.23301
0.23301
0.23301
0.23301
0.23301
0.23301
0.233008
0.232993
0.232901
0.232604
0.232064
0.231292
0.230346
0.229576
0.229206
0.229083
0.229489
0.230587
0.231929
0.232661
0.232631
0.232779
0.232229
0.232465
0.231594
0.23194
0.231918
0.232261
0.230986
0.231497
0.231204
0.231766
0.231285
0.231928
0.229548
0.230494
0.22887
0.230027
0.227753
0.229003
0.225796
0.226467
0.227034
0.227699
0.22396
0.224532
0.225133
0.225758
0.222423
0.222805
0.223274
0.223811
0.221502
0.221916
0.221664
0.222196
0.221856
0.221429
0.221241
0.221237
0.222441
0.223557
0.222405
0.221688
0.223734
0.229676
0.230818
0.226456
0.224037
0.224486
0.227293
0.232928
0.233009
0.232993
0.231836
0.232506
0.23301
0.23301
0.23301
0.23301
0.23301
0.23301
0.23301
0.23301
0.23301
0.23301
0.23301
0.23301
0.23301
0.23301
0.23301
0.233009
0.233004
0.232968
0.232807
0.232446
0.231874
0.231069
0.230141
0.22956
0.229292
0.229351
0.230007
0.231212
0.232264
0.232796
0.232974
0.23298
0.232932
0.23297
0.232795
0.232878
0.232504
0.232676
0.232685
0.232814
0.232205
0.232492
0.232349
0.232622
0.232274
0.232618
0.231016
0.231751
0.230137
0.231057
0.228867
0.229926
0.226381
0.227006
0.227611
0.228214
0.224396
0.225012
0.225642
0.226275
0.222597
0.223082
0.223631
0.224227
0.221401
0.221953
0.221693
0.222367
0.221216
0.220991
0.221122
0.220977
0.221569
0.22245
0.221508
0.22103
0.222603
0.228327
0.229579
0.225121
0.222871
0.223294
0.225947
0.232845
0.233009
0.232981
0.23096
0.232041
0.23301
0.23301
0.23301
0.23301
0.23301
0.23301
0.23301
0.23301
0.23301
0.23301
0.23301
0.23301
0.23301
0.23301
0.233008
0.232995
0.232917
0.232678
0.232274
0.231683
0.230871
0.230022
0.229584
0.229423
0.229671
0.230518
0.231702
0.232494
0.232877
0.232998
0.233006
0.233008
0.232999
0.233005
0.232974
0.23299
0.232897
0.232946
0.232946
0.232975
0.232793
0.232892
0.232812
0.232912
0.232658
0.232848
0.231773
0.232306
0.230793
0.231501
0.229086
0.22963
0.230489
0.230034
0.226894
0.227494
0.22807
0.228611
0.224849
0.225482
0.226112
0.226728
0.222862
0.223418
0.224018
0.22464
0.221409
0.222111
0.221824
0.222609
0.220756
0.220708
0.221105
0.220829
0.220883
0.221523
0.220785
0.22054
0.221633
0.226997
0.228273
0.223892
0.22186
0.222236
0.224686
0.232687
0.233008
0.232955
0.229787
0.23132
0.23301
0.23301
0.23301
0.23301
0.23301
0.23301
0.23301
0.23301
0.23301
0.23301
0.23301
0.23301
0.233009
0.233005
0.232975
0.232835
0.232532
0.232097
0.231498
0.230692
0.229962
0.229631
0.229574
0.230013
0.230973
0.232046
0.232653
0.232928
0.233001
0.233009
0.233009
0.233009
0.23301
0.233008
0.233009
0.233004
0.233007
0.232991
0.233
0.232995
0.233001
0.23296
0.232983
0.232935
0.232972
0.232774
0.232904
0.23207
0.232501
0.230827
0.231198
0.231644
0.229333
0.229773
0.230551
0.230171
0.227316
0.227873
0.228393
0.228878
0.225269
0.225887
0.226481
0.227036
0.223166
0.223761
0.224375
0.224985
0.221503
0.222319
0.221987
0.22287
0.22044
0.220532
0.221154
0.220781
0.220355
0.220756
0.220212
0.220185
0.220816
0.225711
0.226989
0.222778
0.220988
0.221303
0.223522
0.232365
0.233006
0.232891
0.228509
0.230235
0.23301
0.23301
0.23301
0.23301
0.23301
0.23301
0.23301
0.23301
0.23301
0.23301
0.23301
0.233009
0.232999
0.232938
0.232731
0.23238
0.23192
0.231322
0.230552
0.229945
0.229697
0.229751
0.230339
0.231338
0.232269
0.232759
0.232959
0.233004
0.23301
0.23301
0.23301
0.23301
0.23301
0.233009
0.233009
0.233008
0.233009
0.233004
0.233006
0.233002
0.233004
0.232988
0.232997
0.232959
0.232982
0.232802
0.232916
0.232157
0.232556
0.230893
0.231215
0.231483
0.23179
0.229397
0.229806
0.230554
0.23019
0.227558
0.22805
0.228517
0.228967
0.225565
0.226116
0.226637
0.227139
0.223451
0.224035
0.2246
0.225141
0.221611
0.222522
0.222111
0.223071
0.220229
0.220442
0.221198
0.220778
0.219956
0.22013
0.219761
0.219932
0.220129
0.224497
0.225727
0.22178
0.220237
0.22048
0.222455
0.231785
0.232954
0.232524
0.227219
0.228906
0.23301
0.23301
0.23301
0.23301
0.23301
0.23301
0.23301
0.23301
0.23301
0.23301
0.233007
0.232988
0.232883
0.232614
0.232224
0.231746
0.231143
0.230418
0.229957
0.229778
0.229946
0.230634
0.231613
0.232424
0.232829
0.232977
0.233006
0.23301
0.23301
0.23301
0.23301
0.23301
0.23301
0.23301
0.233009
0.23301
0.233008
0.233009
0.233006
0.233008
0.233003
0.233005
0.232993
0.232999
0.232963
0.232983
0.232784
0.232911
0.232011
0.232264
0.232521
0.230891
0.231202
0.23141
0.231693
0.229307
0.229695
0.230432
0.23007
0.227614
0.228065
0.228496
0.228907
0.225663
0.226154
0.226612
0.227035
0.223613
0.224142
0.224648
0.225114
0.221666
0.222625
0.222144
0.223139
0.220093
0.220388
0.22119
0.220769
0.219656
0.219618
0.21941
0.219746
0.219547
0.223357
0.224509
0.220883
0.219582
0.219745
0.221475
0.230389
0.231787
0.230141
0.225898
0.227244
0.23301
0.23301
0.23301
0.23301
0.23301
0.23301
0.23301
0.23301
0.23301
0.233005
0.23297
0.232815
0.232493
0.232074
0.231577
0.230972
0.230338
0.229987
0.229877
0.230151
0.230898
0.231823
0.232535
0.232877
0.232988
0.233007
0.23301
0.23301
0.23301
0.23301
0.23301
0.23301
0.23301
0.23301
0.233009
0.23301
0.233009
0.233009
0.233007
0.233008
0.233003
0.233005
0.232993
0.233
0.232961
0.232983
0.232652
0.232786
0.23288
0.23195
0.23218
0.232517
0.232298
0.230777
0.231103
0.231243
0.231553
0.228997
0.229393
0.230175
0.229787
0.227436
0.227826
0.228213
0.228603
0.22553
0.225909
0.226262
0.226603
0.22362
0.22405
0.224426
0.224752
0.221609
0.222599
0.221991
0.223003
0.219984
0.220315
0.221037
0.220681
0.219415
0.219201
0.219115
0.219584
0.219052
0.222287
0.223332
0.220064
0.218996
0.219072
0.220568
0.227802
0.232384
0.229122
0.224516
0.225447
0.23301
0.23301
0.23301
0.23301
0.23301
0.23301
0.23301
0.233009
0.233001
0.232946
0.232738
0.232374
0.231931
0.231424
0.230827
0.23029
0.230032
0.229988
0.230363
0.231133
0.231993
0.232621
0.23291
0.232995
0.233008
0.23301
0.23301
0.23301
0.23301
0.23301
0.23301
0.23301
0.23301
0.23301
0.23301
0.23301
0.23301
0.233009
0.233009
0.233007
0.233008
0.233003
0.233006
0.232993
0.233
0.232954
0.232979
0.232592
0.232736
0.232783
0.232878
0.231833
0.232083
0.232411
0.232196
0.230549
0.230906
0.230996
0.231344
0.228489
0.228922
0.229794
0.22936
0.226944
0.227299
0.227673
0.22807
0.225039
0.225304
0.225569
0.225851
0.223343
0.223617
0.223836
0.224016
0.221337
0.222308
0.221561
0.222546
0.219852
0.220159
0.220667
0.220444
0.219195
0.218846
0.218833
0.219397
0.218612
0.221282
0.222187
0.219302
0.218455
0.21843
0.219721
0.22654
0.232623
0.229797
0.223162
0.224274
0.23301
0.23301
0.23301
0.23301
0.23301
0.23301
0.233009
0.232998
0.232914
0.232656
0.23226
0.231799
0.231279
0.230704
0.230281
0.230087
0.230124
0.230578
0.231343
0.232138
0.232692
0.232935
0.233
0.233009
0.23301
0.23301
0.23301
0.23301
0.23301
0.23301
0.23301
0.23301
0.23301
0.23301
0.23301
0.23301
0.23301
0.233009
0.233009
0.233007
0.233008
0.233003
0.233006
0.232992
0.232999
0.232922
0.232954
0.232974
0.23249
0.232658
0.232721
0.232832
0.23166
0.231945
0.23228
0.232031
0.230216
0.230619
0.230682
0.231072
0.227828
0.228322
0.229321
0.228824
0.226163
0.226518
0.226916
0.227355
0.22418
0.224358
0.22457
0.224835
0.222707
0.222804
0.222868
0.222925
0.220774
0.221687
0.220786
0.221713
0.21964
0.21986
0.219995
0.219977
0.218955
0.218502
0.218523
0.219137
0.218176
0.220335
0.221107
0.21858
0.217919
0.217814
0.218925
0.226286
0.23289
0.230977
0.222073
0.223538
0.23301
0.23301
0.23301
0.23301
0.23301
0.233008
0.232989
0.232879
0.232574
0.232153
0.231677
0.231148
0.230613
0.230292
0.230158
0.230282
0.230795
0.231535
0.232269
0.232752
0.232955
0.233002
0.233009
0.23301
0.23301
0.23301
0.23301
0.23301
0.23301
0.23301
0.23301
0.23301
0.23301
0.23301
0.23301
0.23301
0.23301
0.233009
0.233009
0.233007
0.233008
0.233003
0.233005
0.232989
0.232997
0.232902
0.232942
0.232972
0.232952
0.232355
0.232561
0.232626
0.232774
0.231426
0.231746
0.232105
0.23182
0.229801
0.230258
0.230321
0.230753
0.227071
0.227642
0.228788
0.228221
0.225162
0.225557
0.226013
0.226521
0.223003
0.22314
0.223349
0.223639
0.221693
0.221627
0.221579
0.221567
0.219913
0.220709
0.219707
0.220548
0.219282
0.219322
0.21908
0.219284
0.218641
0.218106
0.21811
0.218733
0.217675
0.21944
0.220153
0.217903
0.21737
0.217265
0.218166
0.226235
0.232915
0.231151
0.221215
0.222873
0.23301
0.23301
0.23301
0.23301
0.233007
0.232983
0.232835
0.232496
0.232055
0.231568
0.231035
0.230562
0.230317
0.230244
0.230457
0.231012
0.231717
0.232392
0.232805
0.232969
0.233005
0.23301
0.23301
0.23301
0.23301
0.23301
0.23301
0.23301
0.23301
0.23301
0.23301
0.23301
0.23301
0.23301
0.23301
0.23301
0.23301
0.23301
0.233009
0.23301
0.233007
0.233008
0.233002
0.233005
0.232985
0.232996
0.232869
0.232923
0.232964
0.23294
0.232179
0.232425
0.232503
0.232692
0.231145
0.2315
0.231892
0.231572
0.229333
0.229846
0.229925
0.230402
0.22624
0.226898
0.228206
0.227561
0.224016
0.224476
0.225009
0.225603
0.22159
0.221733
0.221971
0.222304
0.220355
0.220177
0.220061
0.220022
0.218789
0.219437
0.218443
0.21913
0.218747
0.218634
0.21791
0.218357
0.21812
0.217556
0.217373
0.218059
0.217106
0.21861
0.219317
0.217297
0.216898
0.2168
0.21747
0.225918
0.231501
0.228619
0.220395
0.222153
0.23301
0.23301
0.23301
0.233006
0.23297
0.232795
0.23242
0.231967
0.231473
0.230947
0.23054
0.230356
0.230344
0.230642
0.231221
0.231891
0.232505
0.23285
0.232981
0.233006
0.23301
0.23301
0.23301
0.23301
0.23301
0.23301
0.23301
0.23301
0.23301
0.23301
0.23301
0.23301
0.23301
0.23301
0.23301
0.23301
0.23301
0.23301
0.233009
0.23301
0.233007
0.233008
0.233001
0.233005
0.23297
0.232984
0.232993
0.232823
0.2329
0.232951
0.232921
0.231978
0.232261
0.232355
0.232586
0.230832
0.23122
0.231655
0.231302
0.228823
0.229398
0.229481
0.230013
0.225292
0.226041
0.227535
0.226799
0.222741
0.22327
0.223882
0.224563
0.220029
0.220158
0.220422
0.220781
0.218838
0.218602
0.218441
0.218375
0.217413
0.218082
0.216949
0.217718
0.217724
0.217231
0.216294
0.216609
0.217182
0.216859
0.216554
0.216722
0.216635
0.217824
0.218474
0.216804
0.216503
0.21645
0.216893
0.224499
0.232754
0.228835
0.219485
0.221131
0.23301
0.23301
0.233005
0.23296
0.232743
0.232353
0.231887
0.231388
0.230878
0.230543
0.230403
0.230461
0.230829
0.231416
0.232048
0.232599
0.23289
0.232989
0.233008
0.23301
0.23301
0.23301
0.23301
0.23301
0.23301
0.23301
0.23301
0.23301
0.23301
0.23301
0.23301
0.23301
0.23301
0.23301
0.23301
0.23301
0.23301
0.23301
0.233009
0.23301
0.233007
0.233008
0.232999
0.233004
0.232963
0.232979
0.232994
0.232985
0.232756
0.232864
0.232938
0.232896
0.231752
0.232072
0.232179
0.232455
0.230489
0.230915
0.231389
0.230998
0.228238
0.228888
0.228925
0.229537
0.224105
0.22495
0.22667
0.225823
0.221261
0.221846
0.222518
0.22328
0.218361
0.2184
0.218622
0.218949
0.217405
0.21717
0.217019
0.216935
0.215944
0.216569
0.215746
0.216362
0.216387
0.216097
0.215417
0.215955
0.216357
0.216398
0.216123
0.216141
0.216268
0.217155
0.217609
0.216409
0.216176
0.216202
0.216449
0.223393
0.232866
0.229601
0.218562
0.220059
0.233009
0.233003
0.232939
0.232703
0.232287
0.231817
0.231314
0.230827
0.230553
0.230459
0.230588
0.231009
0.231593
0.232189
0.232679
0.23292
0.232996
0.233008
0.23301
0.23301
0.23301
0.23301
0.23301
0.23301
0.23301
0.23301
0.23301
0.23301
0.23301
0.23301
0.23301
0.23301
0.23301
0.23301
0.23301
0.23301
0.23301
0.23301
0.23301
0.233009
0.23301
0.233007
0.233008
0.232992
0.232995
0.233
0.233003
0.232951
0.232972
0.232981
0.232667
0.232812
0.232918
0.232857
0.231485
0.231851
0.231959
0.232289
0.230083
0.230564
0.231069
0.230623
0.227485
0.228237
0.228163
0.228895
0.222506
0.223451
0.225468
0.224476
0.219432
0.220063
0.22076
0.221577
0.216901
0.216897
0.216938
0.217139
0.21616
0.216081
0.21602
0.21601
0.215183
0.215591
0.21513
0.21539
0.215818
0.215493
0.215085
0.215212
0.21585
0.215942
0.215476
0.215481
0.215815
0.21659
0.21706
0.216193
0.215741
0.215742
0.21623
0.22292
0.230841
0.227223
0.217753
0.219139
0.232996
0.232923
0.232646
0.232234
0.231754
0.231252
0.230801
0.230575
0.230522
0.230717
0.231177
0.231749
0.232311
0.232744
0.232943
0.233
0.233009
0.23301
0.23301
0.23301
0.23301
0.23301
0.23301
0.23301
0.23301
0.23301
0.23301
0.23301
0.23301
0.23301
0.23301
0.23301
0.23301
0.23301
0.23301
0.23301
0.23301
0.23301
0.23301
0.233009
0.23301
0.233007
0.233008
0.232987
0.232994
0.232999
0.233002
0.232937
0.232964
0.232974
0.232551
0.23274
0.232889
0.232801
0.231144
0.231572
0.231662
0.232068
0.229551
0.230116
0.230649
0.230126
0.22644
0.227333
0.227082
0.227987
0.220392
0.221412
0.223777
0.222615
0.217419
0.217925
0.218595
0.219364
0.216011
0.216021
0.216052
0.216129
0.2149
0.214959
0.214879
0.214841
0.212609
0.215051
0.212575
0.214921
0.215163
0.215117
0.212822
0.212791
0.215139
0.21536
0.215021
0.215104
0.215253
0.216382
0.216505
0.215728
0.215164
0.215127
0.215806
0.221641
0.232447
0.226458
0.217168
0.218334
0.23288
0.232612
0.232177
0.231704
0.231202
0.230787
0.230604
0.230587
0.230844
0.231327
0.231885
0.232415
0.232797
0.232961
0.233002
0.233009
0.23301
0.23301
0.23301
0.23301
0.23301
0.23301
0.23301
0.23301
0.23301
0.23301
0.23301
0.23301
0.23301
0.23301
0.23301
0.23301
0.23301
0.23301
0.23301
0.23301
0.23301
0.23301
0.23301
0.233009
0.23301
0.233006
0.233008
0.232983
0.23299
0.232997
0.232996
0.233
0.233004
0.232915
0.232952
0.232966
0.232396
0.23264
0.232847
0.23272
0.230684
0.231198
0.231258
0.231761
0.228811
0.229503
0.230081
0.229449
0.224956
0.226047
0.225566
0.226706
0.217867
0.218769
0.221478
0.220134
0.216174
0.216505
0.216818
0.217169
0.214938
0.215026
0.215171
0.215281
0.21222
0.212252
0.212241
0.21221
0.210998
0.212625
0.2109
0.212532
0.212912
0.212967
0.211115
0.211172
0.213024
0.214885
0.21306
0.213159
0.21477
0.216043
0.216275
0.215111
0.214686
0.214644
0.215144
0.220332
0.228535
0.222871
0.216597
0.217583
0.232541
0.232143
0.231655
0.231166
0.230789
0.230632
0.23066
0.230964
0.23146
0.232001
0.232504
0.232838
0.232974
0.233004
0.233009
0.23301
0.23301
0.23301
0.23301
0.23301
0.23301
0.23301
0.23301
0.23301
0.23301
0.23301
0.23301
0.23301
0.23301
0.23301
0.23301
0.23301
0.23301
0.23301
0.23301
0.23301
0.23301
0.23301
0.23301
0.233009
0.23301
0.233006
0.233008
0.232975
0.232986
0.232992
0.232998
0.233002
0.232883
0.232936
0.232954
0.23218
0.2325
0.232785
0.232601
0.230072
0.230699
0.230731
0.231344
0.227775
0.228647
0.229331
0.228546
0.222921
0.224249
0.223476
0.224947
0.216318