/*--------------------------------*- C++ -*----------------------------------*\
  =========                 |
  \\      /  F ield         | OpenFOAM: The Open Source CFD Toolbox
   \\    /   O peration     | Website:  https://openfoam.org
    \\  /    A nd           | Version:  dev
     \\/     M anipulation  |
\*---------------------------------------------------------------------------*/
FoamFile
{
    version     2.0;
    format      ascii;
    class       volScalarField;
    location    "2500";
    object      omega;
}
// * * * * * * * * * * * * * * * * * * * * * * * * * * * * * * * * * * * * * //

dimensions      [0 0 -1 0 0 0 0];

internalField   nonuniform List<scalar> 
9575
(
1.21893
1.23224
1.19085
1.15893
1.31816
1.0928
1.07024
1.32544
1.26174
1.03199
1.02895
1.29197
1.32225
1.14442
1.01473
1.00907
1.20935
1.3423
1.2573
1.06184
1.00731
0.999214
1.11558
1.33299
1.31591
1.13923
1.02612
1.00254
0.989012
1.05792
1.29804
1.33485
1.22885
1.05854
1.01002
0.999626
0.982811
1.0213
1.22492
1.34002
1.29226
1.1159
1.02141
1.00036
0.997324
0.979694
0.997672
1.14313
1.33013
1.32235
1.1901
1.04377
1.00298
0.993411
0.995841
0.979131
0.984312
1.0726
1.30057
1.33193
1.25713
1.0872
1.0097
0.990566
0.988596
0.99469
0.981122
0.975541
1.0297
1.24266
1.33661
1.29831
1.14708
1.02493
0.991201
0.981988
0.985033
0.993836
0.983064
0.967124
1.00085
1.16813
1.3309
1.32068
1.21172
1.05594
0.994762
0.977605
0.975933
0.982322
0.99323
0.984528
0.961164
0.981157
1.09307
1.30979
1.33002
1.26436
1.106
1.00473
0.975359
0.968366
0.971516
0.980291
0.992757
0.985494
0.957153
0.9679
1.04335
1.26704
1.33821
1.29808
1.16247
1.02651
0.97693
0.962535
0.961767
0.968128
0.9788
0.992393
0.985569
0.954872
0.959048
1.00902
1.20253
1.33672
1.32033
1.21757
1.06464
0.983028
0.957735
0.953678
0.95679
0.965558
0.977683
0.992111
0.985296
0.954869
0.952244
0.98489
1.13311
1.32451
1.33249
1.26238
1.11368
0.997349
0.958236
0.946457
0.946887
0.95306
0.963539
0.976847
0.991889
0.984974
0.955341
0.945777
0.968715
1.06927
1.29537
1.34186
1.29585
1.16458
1.02594
0.961845
0.941735
0.937908
0.941752
0.950217
0.962079
0.976158
0.991754
0.984694
0.955897
0.940854
0.956879
1.0301
1.24898
1.34561
1.31918
1.21163
1.06604
0.971447
0.939613
0.93049
0.931379
0.937905
0.948139
0.960955
0.97568
0.991635
0.984495
0.956236
0.937027
0.948246
1.00292
1.18735
1.34147
1.33517
1.25306
1.11105
0.991265
0.941232
0.924947
0.922259
0.92661
0.935097
0.946556
0.960113
0.975322
0.991533
0.984415
0.95614
0.933605
0.941792
0.983397
1.12931
1.32563
1.34338
1.28798
1.15664
1.0216
0.946874
0.920586
0.914669
0.916342
0.923079
0.932992
0.94534
0.959493
0.975008
0.991462
0.984504
0.955502
0.930362
0.936518
0.969055
1.0804
1.29361
1.35073
1.31322
1.19671
1.05925
0.959291
0.921034
0.908167
0.907393
0.911983
0.920369
0.931388
0.944408
0.958927
0.974796
0.991421
0.984738
0.954369
0.92724
0.932019
0.958527
1.04396
1.25455
1.35018
1.33096
1.23483
1.09884
0.981195
0.923984
0.903931
0.899404
0.902071
0.908623
0.918298
0.93016
0.943596
0.958546
0.974655
0.991392
0.985034
0.95291
0.92422
0.928239
0.950593
1.01981
1.20975
1.34523
1.3415
1.26768
1.13745
1.00991
0.931262
0.902172
0.893247
0.892924
0.897927
0.90605
0.916746
0.929151
0.943061
0.958326
0.974562
0.991379
0.985283
0.951143
0.921277
0.925046
0.944781
1.00232
1.16418
1.332
1.34553
1.29455
1.17307
1.04324
0.945746
0.903407
0.888265
0.885394
0.888023
0.894718
0.904112
0.91554
0.92845
0.942775
0.958157
0.974503
0.991378
0.985445
0.949143
0.918578
0.922244
0.940519
0.989783
1.12421
1.30728
1.3496
1.31304
1.20371
1.07708
0.967059
0.907495
0.88501
0.878613
0.879396
0.884315
0.892343
0.9027
0.914684
0.928044
0.942536
0.958053
0.974475
0.991367
0.985427
0.94666
0.916179
0.920371
0.937449
0.980763
1.09167
1.27652
1.34868
1.32624
1.23145
1.10967
0.992496
0.916417
0.884724
0.873142
0.871504
0.874944
0.881548
0.890697
0.901722
0.914133
0.927784
0.942386
0.957995
0.974479
0.991379
0.985117
0.943628
0.91421
0.918639
0.93645
0.97535
1.06657
1.24384
1.34319
1.33517
1.25565
1.13855
1.02073
0.93017
0.886226
0.869055
0.864863
0.86636
0.87166
0.87957
0.889539
0.901054
0.913862
0.927605
0.94232
0.958009
0.97455
0.991421
0.98436
0.940219
0.913208
0.917785
0.936355
0.97276
1.04562
1.21117
1.33117
1.33682
1.27764
1.16266
1.04886
0.948085
0.890186
0.866457
0.858833
0.858838
0.862611
0.869265
0.878175
0.888791
0.90073
0.913665
0.927552
0.942384
0.958146
0.974707
0.991501
0.983066
0.936825
0.913276
0.91812
0.938026
0.970475
1.03014
1.1792
1.31321
1.3348
1.29372
1.18476
1.07417
0.968908
0.898033
0.866522
0.854148
0.851808
0.854376
0.85979
0.867644
0.877364
0.888393
0.900537
0.913638
0.927701
0.942614
0.958398
0.974989
0.991655
0.981208
0.933843
0.91453
0.919774
0.940279
0.967623
1.0181
1.14733
1.29137
1.32984
1.30382
1.20173
1.09649
0.990985
0.909099
0.867793
0.850782
0.845927
0.846726
0.851107
0.857847
0.866736
0.876886
0.888235
0.900539
0.913884
0.92805
0.94305
0.958848
0.975438
0.991919
0.978777
0.931504
0.916993
0.922687
0.942273
0.964468
1.00721
1.11694
1.26567
1.32145
1.30641
1.21995
1.11419
1.01269
0.92307
0.870988
0.848925
0.840739
0.840013
0.843115
0.848853
0.856816
0.866176
0.876716
0.888298
0.900855
0.914429
0.928661
0.943824
0.959681
0.976116
0.992279
0.975825
0.930199
0.920587
0.926657
0.943107
0.960743
0.996661
1.08948
1.23702
1.30991
1.30505
1.23365
1.12943
1.03224
0.939139
0.877231
0.848672
0.836982
0.833824
0.835832
0.840612
0.847553
0.856187
0.865979
0.87686
0.88871
0.901661
0.915336
0.929646
0.945023
0.96108
0.977288
0.992806
0.972576
0.930541
0.925345
0.930186
0.941498
0.955829
0.986063
1.06293
1.20715
1.2951
1.30066
1.24372
1.14166
1.04884
0.956202
0.885581
0.84954
0.833865
0.828709
0.829051
0.832908
0.838952
0.846761
0.855943
0.866217
0.877451
0.88973
0.9028
0.916809
0.931303
0.946775
0.96312
0.979186
0.996929
0.990613
0.969393
0.933127
0.93062
0.932478
0.93757
0.949185
0.974974
1.03931
1.17805
1.27773
1.29192
1.25096
1.15125
1.06226
0.972798
0.895939
0.85174
0.832025
0.824169
0.822981
0.825712
0.830954
0.837984
0.846502
0.856231
0.867018
0.878672
0.891278
0.90443
0.918938
0.934072
0.949849
0.968644
0.961985
0.984371
0.969862
0.978236
0.997242
0.991405
0.966693
0.937316
0.935439
0.93354
0.932652
0.941209
0.963005
1.01899
1.14882
1.25852
1.28057
1.25306
1.15854
1.07197
0.988043
0.907777
0.855709
0.830755
0.820597
0.81751
0.819124
0.823515
0.829792
0.83765
0.846796
0.857158
0.868363
0.880475
0.893774
0.907223
0.921944
0.937896
0.955848
0.949858
0.963803
0.985636
0.972625
0.98006
0.997488
0.992434
0.964996
0.942816
0.940148
0.933901
0.926512
0.931384
0.950325
1.00019
1.1197
1.23831
1.26945
1.25132
1.16451
1.07865
1.00067
0.92046
0.861341
0.831077
0.817704
0.81288
0.813091
0.816579
0.8221
0.829236
0.837871
0.84778
0.858721
0.870602
0.883065
0.897255
0.912063
0.927244
0.944567
0.939516
0.958096
0.952707
0.967197
0.987379
0.974899
0.9826
0.997893
0.99375
0.96485
0.949456
0.944302
0.932892
0.918937
0.920524
0.937612
0.982647
1.0929
1.21773
1.25862
1.24687
1.1702
1.08292
1.01038
0.932847
0.868474
0.832167
0.815373
0.80891
0.80775
0.810107
0.814872
0.82126
0.829288
0.838839
0.84961
0.861095
0.874354
0.887403
0.901796
0.91833
0.93497
0.930716
0.94787
0.943384
0.961963
0.957215
0.970163
0.989636
0.978198
0.985836
0.998427
0.99545
0.966812
0.957137
0.947905
0.929963
0.911112
0.91014
0.925602
0.966902
1.06909
1.19772
1.24821
1.24092
1.17461
1.08568
1.01713
0.944286
0.876562
0.834373
0.814201
0.805594
0.802952
0.804141
0.80807
0.81377
0.821163
0.83019
0.840697
0.852693
0.864641
0.879477
0.894682
0.909666
0.926928
0.923519
0.939494
0.93586
0.952857
0.949109
0.965731
0.961846
0.974289
0.992556
0.982421
0.989998
0.999179
0.997773
0.970764
0.964551
0.950999
0.926599
0.904613
0.901131
0.914612
0.952921
1.04838
1.1792
1.23838
1.23498
1.178
1.08762
1.02113
0.954204
0.885442
0.83764
0.813149
0.802675
0.798734
0.798615
0.801671
0.806705
0.813533
0.821996
0.832112
0.843476
0.857462
0.870578
0.885815
0.904066
0.920401
0.917802
0.932889
0.929998
0.945793
0.943038
0.958352
0.955602
0.970755
0.967858
0.979585
0.996584
0.987961
0.995692
1.00018
1.00092
0.976349
0.972681
0.954951
0.924278
0.900009
0.894081
0.905252
0.940606
1.03032
1.16265
1.22948
1.22956
1.18032
1.08916
1.02286
0.962039
0.894684
0.841957
0.813289
0.799843
0.794702
0.793571
0.795696
0.800209
0.806158
0.814105
0.823837
0.835632
0.848113
0.86475
0.881159
0.89709
0.915572
0.913905
0.928102
0.926106
0.940808
0.938964
0.953237
0.951649
0.965408
0.96383
0.977215
0.975608
0.986598
1.00185
0.995774
1.0034
1.00147
1.0048
0.983059
0.981793
0.959931
0.924083
0.897584
0.889245
0.897961
0.93017
1.0144
1.14789
1.22227
1.22498
1.18318
1.09141
1.02271
0.967558
0.903382
0.847232
0.81389
0.797873
0.790875
0.788982
0.790126
0.794162
0.799528
0.806685
0.815491
0.82623
0.840778
0.854815
0.87412
0.897003
0.91419
0.91725
0.926265
0.928369
0.938443
0.939711
0.950646
0.951211
0.962735
0.962988
0.974632
0.974789
0.986001
0.98626
0.996393
1.00857
1.0056
1.013
1.00317
1.0096
0.990294
0.991806
0.965673
0.925905
0.897224
0.886581
0.892896
0.921851
1.00045
1.13447
1.21603
1.22146
1.18571
1.094
1.02218
0.970727
0.911071
0.853066
0.81513
0.796198
0.787603
0.78478
0.78523
0.788393
0.793413
0.799506
0.808333
0.819006
0.831737
0.857431
0.894347
0.913351
0.927256
0.964049
0.936776
0.96378
0.945826
0.966616
0.9547
0.968259
0.964747
0.972061
0.975823
0.97953
0.987227
0.989595
0.997818
1.00049
1.00912
1.01736
1.01848
1.0251
1.00524
1.01611
0.997499
1.00248
0.972306
0.930403
0.898735
0.88586
0.889964
0.915677
0.988693
1.12219
1.21043
1.22041
1.18865
1.09831
1.02162
0.972113
0.917664
0.859204
0.817026
0.794411
0.784399
0.780829
0.78084
0.783325
0.787612
0.793779
0.80102
0.811157
0.834089
0.88593
1.02925
1.36226
1.10938
1.15717
1.0448
1.29437
1.03064
1.22081
1.01409
1.15558
0.998681
1.09017
0.992889
1.04185
0.996029
1.01812
1.00437
1.01402
1.01365
1.01921
1.02583
1.02811
1.03624
1.04249
1.0082
1.02388
1.00328
1.01323
0.980277
0.936153
0.902999
0.886564
0.88889
0.911504
0.979161
1.11094
1.20547
1.22061
1.19219
1.10528
1.02171
0.971928
0.922839
0.865459
0.819601
0.793458
0.781516
0.776994
0.776549
0.778707
0.78256
0.787599
0.795078
0.813898
0.86368
1.02781
1.58592
2.90796
5.61612
2.02698
4.53792
1.75185
3.12673
1.56694
2.65992
1.38118
2.19923
1.21064
1.74835
1.10214
1.39782
1.04763
1.18058
1.03232
1.07958
1.03319
1.04981
1.04584
1.0432
1.05692
1.06326
1.01198
1.03392
1.00683
1.02372
0.989518
0.942744
0.90854
0.889529
0.889079
0.909087
0.971663
1.10038
1.2011
1.22195
1.19624
1.11434
1.02274
0.971308
0.92671
0.871524
0.82295
0.793437
0.778959
0.773547
0.772474
0.774011
0.778321
0.783692
0.796577
0.838089
1.00611
1.61932
3.08047
6.19835
11.3642
13.1751
15.6698
5.94585
10.1186
4.98355
9.40048
4.12633
8.02512
3.22047
6.33638
2.30251
4.5913
1.66222
3.09483
1.27542
1.99124
1.11035
1.37943
1.06569
1.13738
1.0791
1.06308
1.08732
1.08818
1.0149
1.05156
1.00644
1.02932
0.998668
0.949862
0.914786
0.894002
0.890801
0.90816
0.965955
1.08996
1.19704
1.22543
1.20139
1.12474
1.02595
0.969935
0.929492
0.877227
0.826903
0.79373
0.776632
0.769923
0.768433
0.770064
0.772999
0.781351
0.810576
0.944393
1.52554
3.06241
6.3192
10.7783
14.809
16.4243
17.101
17.0687
17.4605
13.6437
15.9677
12.876
15.8564
11.4992
15.3342
9.3204
14.3232
6.35785
12.2475
4.06973
8.65801
2.36413
5.09295
1.47145
2.74759
1.15588
1.5382
1.16194
1.08166
1.15377
1.13598
1.02006
1.06916
1.0038
1.02926
1.00418
0.956735
0.921255
0.899131
0.894277
0.908273
0.961478
1.0795
1.19271
1.23
1.2083
1.13607
1.03255
0.969326
0.931064
0.882715
0.831368
0.794616
0.774933
0.766648
0.764176
0.765302
0.770861
0.786033
0.870332
1.3192
2.74454
5.98557
10.2392
13.6467
15.9728
17.1145
17.1809
17.5963
17.5288
17.8103
17.743
17.1841
17.6913
17.1456
17.8229
16.9006
17.846
16.1674
17.7306
14.4478
17.292
10.9433
15.9209
6.07754
12.8523
3.03728
7.0784
1.55862
3.21274
1.51824
1.11313
1.42144
1.29316
1.03333
1.0776
0.996923
1.02409
1.00459
0.961498
0.927371
0.904567
0.898384
0.909243
0.957726
1.06898
1.18792
1.23482
1.21667
1.1491
1.04165
0.969551
0.93163
0.887964
0.836455
0.796639
0.774188
0.76355
0.759839
0.760832
0.766756
0.80747
1.0677
2.21533
5.14887
9.23076
12.6722
14.9186
15.8488
16.3704
17.3376
16.7554
17.5182
16.9853
17.6398
17.0675
17.993
17.915
18.1332
18.0694
18.2206
18.1931
18.2565
18.3462
17.9791
18.5309
17.0236
18.4978
14.2996
17.8372
7.65515
15.2231
3.21684
7.94477
2.98004
1.17581
2.52783
1.91757
1.03994
1.09966
1.01782
1.01507
1.0016
0.96331
0.93187
0.909639
0.90301
0.911623
0.954773
1.0588
1.1825
1.23948
1.22547
1.16402
1.05351
0.970903
0.931593
0.892473
0.842126
0.799704
0.77409
0.760696
0.755819
0.756318
0.76913
0.87339
1.55478
3.86831
7.83777
11.6331
13.8852
14.9188
15.4301
14.9878
15.1967
14.9318
16.3285
15.6311
16.3688
15.821
16.6032
16.1344
17.7782
17.1738
17.9498
17.405
18.1827
17.7379
18.4503
18.1821
18.7632
18.6439
18.9643
19.0874
18.4293
19.4476
15.7335
18.9828
7.7687
15.9196
6.91094
1.37819
5.66587
3.73064
1.03853
1.12672
1.03482
0.99815
0.964606
0.935501
0.913825
0.907489
0.914958
0.953008
1.04905
1.17644
1.24362
1.234
1.17917
1.06796
0.974764
0.931499
0.896515
0.848236
0.803532
0.774401
0.758629
0.751774
0.751116
0.780251
1.03594
2.51171
6.01226
10.247
12.8952
14.2091
14.6989
14.5877
14.5138
14.7167
14.5763
15.0119
15.054
15.4747
15.1816
15.8033
15.5388
16.2682
16.017
16.9403
16.5578
17.3742
17.0397
17.8342
17.5494
18.3539
18.1788
18.9701
18.9811
19.5467
19.6798
19.9097
20.2112
19.5038
20.4962
15.7444
19.8014
14.6176
1.82655
12.1047
8.77909
3.95462
1.03008
1.16043
1.01269
0.970002
0.941043
0.918771
0.911305
0.918597
0.952358
1.04004
1.16927
1.24711
1.24341
1.19395
1.08528
0.981887
0.931746
0.899874
0.854872
0.808278
0.775635
0.75778
0.748302
0.751273
0.815013
1.38925
3.78118
8.13411
11.7525
13.5133
14.1415
14.2336
13.9559
14.0821
15.3891
15.2575
15.95
15.8815
16.4433
15.4487
15.5527
16.0234
16.1834
16.7707
16.9588
16.8149
16.7057
17.51
17.5551
18.251
18.4463
19.1093
19.4041
20.0281
20.5254
20.8207
21.5634
21.3007
22.3083
21.2612
22.5939
19.8323
22.015
20.8069
16.7278
20.1358
5.87803
1.91803
4.30806
14.9231
19.79
19.5113
13.2834
1.02714
2.61779
1.79781
1.16692
0.998689
0.954259
0.927872
0.916251
0.921932
0.952526
1.03145
1.16092
1.25
1.25469
1.20925
1.105
0.99232
0.932826
0.902818
0.8615
0.81434
0.778155
0.757703
0.747402
0.756213
0.910185
2.07949
5.49098
9.99717
12.5884
13.6218
13.8726
13.5449
13.5035
14.0461
15.7712
17.6085
17.7941
17.0371
17.5147
17.6242
17.9309
16.5715
17.1263
17.3084
17.6876
18.0599
18.1298
17.7229
17.9663
18.8454
19.0042
19.9594
20.1738
21.0136
21.5352
22.3708
22.9236
23.526
24.5312
24.1287
24.5633
25.2566
22.7608
23.8292
25.7842
24.6852
22.3155
21.3047
22.8189
23.3629
21.4379
10.6639
6.86673
18.7295
21.0748
21.5459
17.4488
1.27901
1.01011
1.09495
4.46887
2.58583
0.998787
0.947593
0.925902
0.926223
0.953954
1.02451
1.1511
1.25188
1.26722
1.22537
1.12643
1.00598
0.93549
0.904885
0.868394
0.821007
0.78255
0.75818
0.748467
0.776368
1.15381
3.09909
7.32123
11.2373
13.0059
13.5527
13.3959
12.9807
13.1543
14.1677
16.2596
17.7271
18.1307
17.9842
18.1214
18.1575
18.321
18.3513
17.9936
18.2062
18.2247
18.3129
18.5434
18.428
18.9165
18.7005
20.0163
19.6416
21.3884
20.9177
23.0485
22.6634
24.9741
24.8236
25.7834
26.2973
26.5236
26.6666
26.6266
27.5982
26.1947
26.959
24.4603
25.5686
27.7712
26.7041
23.9032
22.8952
24.2401
25.1129
23.0377
15.095
11.4537
20.6331
22.9228
22.7711
19.7349
1.63575
1.01634
1.1884
7.12694
4.1951
1.00651
0.947476
0.934835
0.956307
1.02029
1.14041
1.25252
1.27979
1.24261
1.14923
1.02332
0.93996
0.907089
0.874165
0.828736
0.787125
0.760236
0.75443
0.846986
1.66449
4.63518
9.0288
11.9487
13.0996
13.342
12.8314
12.5996
12.9409
14.3325
16.1571
17.0378
16.5636
16.3805
17.8557
17.3441
18.3046
18.1468
18.2742
17.9876
18.3981
18.3835
18.3385
18.1998
18.1847
17.6936
19.1965
18.7107
20.2494
19.3787
21.8056
20.7263
24.0905
22.8605
26.5896
26.3787
25.9397
25.3255
27.4816
27.7642
27.8573
27.7781
28.7396
29.5246
28.3102
28.7982
26.3834
27.6638
29.9623
28.8807
25.6711
24.5684
26.1744
27.1337
24.718
18.2498
15.6911
22.359
24.7428
24.5719
21.695
2.29076
1.03774
1.38717
11.2617
6.56415
1.01343
0.954727
0.961695
1.01797
1.13117
1.25176
1.29199
1.26015
1.17295
1.04394
0.9474
0.908608
0.880165
0.836004
0.793617
0.76481
0.775039
1.05568
2.67272
6.4109
10.3094
12.3364
13.055
12.9452
12.318
12.2764
12.974
14.6665
15.8908
15.6402
12.035
13.6113
11.1561
16.0091
14.9193
17.5545
16.8796
16.7543
15.7774
17.9409
17.4923
17.1906
16.4445
16.1378
15.0041
18.3117
17.2028
19.2632
17.5811
21.2706
19.4034
24.6794
23.9152
23.0853
22.2343
27.5323
27.074
26.4867
25.7631
29.0908
29.184
29.1126
28.8642
30.863
30.1149
31.5537
30.4848
28.5971
29.985
32.2564
31.2184
27.8162
26.5416
28.3835
29.4742
26.7474
20.6435
18.8069
24.2033
26.758
26.5819
23.6075
3.53827
1.06311
1.80351
15.5695
10.2777
1.01661
0.975927
1.018
1.12067
1.24913
1.30301
1.27715
1.19747
1.06709
0.957425
0.911459
0.884644
0.844559
0.799315
0.77377
0.839718
1.52762
4.1863
8.19389
11.1186
12.4949
12.9262
12.4802
11.9195
12.0435
13.0443
14.6073
15.4071
13.9794
9.12474
5.01222
4.63878
6.94024
5.46449
10.7381
8.67815
14.5577
12.7363
11.9088
9.76737
15.4625
13.9316
13.431
11.3479
11.788
9.56852
15.7531
13.8287
17.4119
15.3625
20.7493
18.7303
24.9623
24.0701
23.143
22.1776
28.4123
27.8109
27.0868
26.2685
30.634
30.5871
30.3657
29.9335
33.0731
32.0148
33.6461
32.2391
31.061
32.4792
34.6622
33.6903
30.2529
28.8026
30.8956
32.077
29.0028
22.7294
21.3864
26.1852
28.9995
28.7637
25.6013
5.65912
1.18693
2.78216
19.0868
14.8809
1.02459
1.02258
1.11173
1.24442
1.31262
1.29481
1.22197
1.0929
0.971544
0.913858
0.889387
0.852052
0.809381
0.793129
1.00362
2.49746
5.8957
9.55642
11.5836
12.4757
12.6627
12.0057
11.6103
11.8722
13.1567
14.4558
14.703
12.1364
6.97156
3.77117
3.47321
3.2857
4.00562
3.63757
5.2927
4.52868
7.69844
6.31088
6.0782
5.16049
9.08158
7.33144
7.74687
6.37495
9.01386
7.07476
13.2729
11.1684
16.6555
14.6184
21.6042
20.5757
18.6136
19.659
25.3851
24.4563
23.5059
22.5349
29.3483
28.6397
27.8404
26.9811
32.2314
32.0468
31.6549
31.106
35.3754
33.9667
35.8153
34.0408
33.7235
35.1427
37.191
36.3059
32.9803
31.3374
33.7249
34.9055
31.5259
24.7996
23.6879
28.3227
31.464
31.1427
27.7219
9.15676
1.47351
4.94042
21.9803
19.2108
1.04886
1.11035
1.23471
1.32183
1.31208
1.24763
1.12145
0.988421
0.919299
0.892523
0.860024
0.818258
0.836727
1.37438
3.70606
7.54864
10.4475
11.8127
12.3948
12.2916
11.537
11.3462
11.8349
13.3265
14.2314
13.8146
10.4575
5.61125
3.39702
3.16865
3.05289
3.32274
3.21643
3.52637
3.41678
3.8212
3.64858
4.49499
4.0813
4.38753
4.14453
5.39383
4.76939
5.76903
5.10415
8.40594
6.62248
12.5846
10.5267
17.723
16.6368
15.5423
22.4026
21.469
19.5899
20.533
26.0888
25.1785
24.2605
23.3334
30.4396
29.6912
28.893
28.0693
33.9042
33.5756
33.0924
32.5018
37.7891
35.9945
38.0998
35.9442
36.5855
37.9828
39.8674
39.0789
35.9785
34.2155
36.8661
37.9775
34.3936
26.933
25.9169
30.643
34.2538
33.8188
29.9888
14.8192
2.28517
10.4066
24.5707
22.7753
1.11291
1.23108
1.32632
1.33219
1.27342
1.15133
1.01239
0.924872
0.896412
0.866702
0.835126
0.925905
1.9983
5.09752
8.85994
10.9725
11.8867
12.2206
11.8269
11.1527
11.1237
11.8676
13.3033
13.9423
12.8605
9.01385
4.64543
3.06767
2.92861
3.15413
3.04747
3.34901
3.25974
3.51294
3.43541
3.69599
3.59744
3.96843
3.8171
4.24823
4.10077
4.71079
4.44063
5.54342
5.05306
9.06271
7.07668
13.5602
11.4203
18.6375
17.6778
17.9901
16.7799
23.7694
22.8469
20.9244
21.8972
27.2351
26.391
25.5371
24.6668
31.8445
31.1543
30.4524
29.7449
35.7043
35.325
34.8548
34.3425
40.3653
38.1671
40.5932
38.0588
39.6667
41.0209
42.7578
42.0428
39.2458
37.4437
40.2895
41.2987
37.6556
29.1876
28.2034
33.2095
37.4646
36.9396
32.4853
21.5019
8.49199
25.7673
27.0091
25.8318
1.22287
1.33341
1.35161
1.29801
1.18608
1.03571
0.936974
0.899071
0.874624
0.852175
1.10683
2.8321
6.44712
9.76745
11.2563
11.8646
11.9986
11.4004
10.8618
10.9666
11.9488
13.2144
13.5787
11.9453
7.79222
3.96054
2.80461
2.75623
2.98155
2.86049
3.17234
3.06411
3.39173
3.27907
3.59982
3.49833
3.79427
3.69943
3.98196
3.88887
4.4314
4.28716
4.77737
4.59099
5.95842
5.42947
10.7486
8.13739
15.8792
14.5972
13.4769
19.9367
18.9441
19.3519
18.2586
25.729
24.7585
22.6681
23.7337
29.0246
28.2747
27.4853
26.6401
33.8219
33.3072
32.7947
32.2617
37.8281
37.5399
37.2401
36.9649
43.2234
40.655
43.5237
40.6342
42.9812
44.2996
46.0463
45.294
42.789
40.9739
44.0189
44.8885
41.2406
31.6262
30.6094
36.223
41.1088
40.6793
35.361
28.181
35.7378
45.1816
29.423
28.4086
1.33558
1.36743
1.32723
1.21501
1.07059
0.94738
0.904077
0.880642
0.887106
1.36188
3.74874
7.68953
10.3524
11.4045
11.7997
11.6707
10.9445
10.625
10.8575
12.0995
13.1149
13.2108
11.1299
6.74059
3.4646
2.59636
2.59107
2.72744
2.96499
2.86162
3.18104
3.06957
3.41173
3.29599
3.63956
3.52762
3.87498
3.75175
4.1509
4.01013
4.57349
4.39286
5.07371
4.79567
6.53858
5.76447
13.4498
11.5117
9.78393
17.1292
16.0074
14.7032
16.3381
21.5765
20.4684
21.1354
19.913
28.3659
27.2741
24.8793
26.1031
31.6759
31.0073
30.2426
29.3621
36.7166
36.4752
36.2066
35.8566
40.5944
40.5962
40.6477
40.7627
46.667
43.7762
47.2749
44.061
46.5851
47.9376
50.075
49.0542
46.6422
44.8173
48.0561
48.8191
45.1653
34.3595
33.2273
39.932
45.2384
45.1473
38.854
32.2184
30.7568
46.9016
31.8829
30.4637
1.39362
1.34627
1.25551
1.0974
0.969596
0.908038
0.889021
0.921576
1.73573
4.73497
8.6658
10.7014
11.4289
11.6644
11.2901
10.5741
10.4138
10.8731
12.2543
13.0027
12.7891
10.4232
5.84748
3.08585
2.42845
2.44285
2.55544
2.77544
2.6573
2.96095
2.85084
3.18691
3.06998
3.43695
3.3101
3.69424
3.56562
3.95554
3.82261
4.23863
4.09499
4.74608
4.54718
5.31007
4.99117
7.42614
6.28238
14.8953
13.2019
13.0078
10.6273
18.7128
17.5178
16.4894
17.8691
23.6322
22.3807
23.2299
21.8615
31.7222
30.424
27.5773
29.0286
35.3697
34.7181
33.8964
32.8922
40.8771
40.9256
40.8785
40.6512
44.4416
44.9336
45.4938
46.0614
51.1416
47.9862
52.3772
48.8467
50.6234
52.1902
55.3651
53.722
50.8329
48.9725
52.4013
53.2019
49.5611
37.5913
36.2296
44.5813
50.2171
50.6918
43.2682
34.371
26.1784
39.2505
34.6669
33.1943
1.38549
1.28059
1.14128
0.986111
0.916553
0.894632
0.995956
2.13767
5.68422
9.3742
10.8996
11.4123
11.4798
10.8859
10.2762
10.2588
10.939
12.3045
12.8657
12.3264
9.68514
5.0159
2.78683
2.28774
2.31
2.40589
2.52133
2.74022
2.64084
2.9525
2.84703
3.18892
3.06863
3.45047
3.31731
3.72944
3.58827
4.03685
3.87693
4.3752
4.20574
4.91811
4.68146
5.64621
5.22463
9.18113
7.84274
7.00064
16.6966
14.9103
14.6901
12.4944
20.5303
19.2174
18.3187
19.8087
26.1084
24.656
25.6699
24.1233
35.7996
34.2164
30.7802
32.5245
40.1675
39.4311
38.4503
37.2324
46.5466
46.7874
46.8505
46.6533
49.8643
50.9752
52.0723
53.0503
57.2615
53.8433
59.4533
55.511
55.3298
57.441
62.5571
59.8242
55.4082
53.5447
57.2021
58.1545
55.0023
41.6563
39.9805
50.2308
56.8612
57.5333
48.9514
35.588
17.9844
39.5699
38.223
36.6204
1.33374
1.1689
1.01995
0.92393
0.905886
1.06194
2.72452
6.61348
9.85871
11.0033
11.3645
11.2565
10.5278
10.0532
10.1616
11.0981
12.2837
12.6906
11.8375
8.9216
4.4004
2.53084
2.16566
2.18949
2.27209
2.364
2.47812
2.72654
2.62488
2.94345
2.82707
3.18918
3.062
3.46559
3.32274
3.76691
3.61336
4.10829
3.92915
4.48671
4.29795
5.11392
4.83487
6.05516
5.49249
10.3108
8.68403
7.32171
8.36051
18.7103
16.8224
16.8207
14.3427
22.6451
21.2355
20.4126
21.952
29.0251
27.3215
28.496
26.7158
40.6392
38.7103
34.5671
36.6596
46.0534
45.1344
43.9007
42.3984
53.7894
54.1217
54.2032
53.9188
57.2971
59.0435
60.621
61.9177
65.6966
61.9209
69.1303
64.5456
60.9387
64.0352
71.9206
67.6962
60.5771
59.5057
64.0949
64.0377
63.1702
47.1779
44.9877
57.2927
65.2655
66.4162
56.7574
38.4858
11.352
40.4178
42.6084
40.6049
1.23115
1.04369
0.939557
0.91529
1.20248
3.19284
7.4249
10.1938
11.0259
11.2712
10.9729
10.1841
9.86793
10.1024
11.2541
12.2142
12.4632
11.3312
8.13361
3.89813
2.31778
2.05607
2.07891
2.14999
2.21904
2.3033
2.50003
2.59501
2.38127
2.70795
2.92971
2.81547
3.18505
3.05415
3.47291
3.32425
3.79607
3.62982
4.18244
3.97686
4.61456
4.40068
5.32635
4.98584
6.62872
5.81849
11.8752
9.77796
7.98556
9.2206
20.9264
19.0244
19.1104
16.5454
25.0252
23.4781
22.6808
24.2897
32.4542
30.4447
31.8175
29.7364
46.4323
44.1039
39.1287
41.624
53.1188
51.9581
50.4031
48.563
62.7741
63.144
63.2122
62.7463
67.1502
69.5191
71.5306
73.0995
76.6356
72.7636
81.4972
76.4688
68.1359
73.2775
86.0724
79.4327
69.2888
69.9182
77.3921
75.5336
73.7874
54.6993
51.4876
67.6683
76.7856
79.9729
66.8354
42.752
32.6697
45.4885
47.9157
46.0541
1.10114
0.953629
0.935251
1.32157
3.92139
8.14437
10.3826
11.0103
11.1374
10.6699
9.89982
9.70575
10.1139
11.3795
12.1028
12.1978
10.8053
7.33026
3.46395
2.1442
1.95721
1.97807
2.03753
2.08635
2.15202
2.24201
2.57487
2.44841
2.35392
2.68229
2.9158
2.79486
3.17967
3.04314
3.47864
3.32442
3.82209
3.64465
4.25044
4.01926
4.73404
4.49575
5.56864
5.1456
7.69259
6.81858
6.23673
13.7673
11.1611
8.77176
10.4485
23.2428
21.3199
21.5159
18.9115
27.7331
25.9803
25.1107
26.8502
36.5598
34.1721
35.8512
33.3749
53.5772
50.8087
44.8225
47.7792
61.7223
60.2954
58.3685
56.1368
74.0657
74.4775
74.5376
73.8476
79.9848
83.0469
85.5321
87.4418
92.7846
86.4681
99.0905
91.6335
82.7001
90.2575
109.367
98.6305
85.6002
83.064
92.6562
94.1595
87.9689
63.9419
59.6359
80.2515
92.6414
93.7393
78.2927
43.4107
32.1245
66.8583
56.1547
50.165
0.992217
0.956872
1.5774
4.43745
8.69705
10.5104
10.9659
10.9841
10.3621
9.66459
9.58305
10.1577
11.3855
11.9712
11.8736
10.2611
6.50976
3.08307
2.00021
1.86865
1.88785
1.93516
1.96637
2.01906
2.0932
2.18468
2.55552
2.42485
2.32761
2.65924
2.89728
2.77427
3.17092
3.02991
3.48077
3.32128
3.84276
3.65422
4.31961
4.05818
4.85803
4.59521
5.8576
5.31238
8.28986
7.30934
6.32611
6.99437
15.9966
12.9702
9.78036
12.0418
25.7421
23.7415
24.084
21.4334
30.8959
28.8311
27.822
29.7854
41.6408
38.7993
40.9847
37.995
62.7128
59.4807
52.2398
55.6845
72.5863
70.8738
68.5298
65.8214
88.6222
89.1548
89.2555
88.3678
96.4916
100.678
103.952
106.446
122.232
105.619
134.406
112.651
103.836
116.91
172.729
138.622
103.49
99.3425
114.693
118.29
105.445
74.9505
70.8826
92.8535
107.296
107.06
90.6484
47.9897
21.7615
67.0203
63.5686
54.8422
1.03239
1.78797
5.23924
9.1044
10.5475
10.9119
10.7921
10.0717
9.47061
9.48852
10.2562
11.3551
11.8031
11.5089
9.69801
5.70063
2.74533
1.881
1.78712
1.80656
1.83965
1.8579
1.90158
1.95897
2.02416
2.18552
2.28433
2.08029
2.51967
2.39149
2.63294
2.87697
2.7497
3.1594
3.01306
3.48142
3.3155
3.85859
3.65993
4.38242
4.08999
4.97701
4.68877
6.68257
6.40583
5.86537
5.49749
9.17331
7.83818
7.34383
18.4503
15.1472
11.1683
14.08
28.5616
26.3702
26.9098
24.166
34.7892
32.2604
31.0034
33.3321
48.1724
44.8216
47.6978
44.0557
74.6617
71.0215
62.1307
66.0143
86.7356
84.6638
81.8703
78.6191
107.969
108.773
109.017
107.905
121.184
126.524
132.216
134.5
213.681
149.205
214.156
172.636
140.827
177.167
220.975
219.233
140.736
125.496
168.003
180.811
130.44
86.6393
79.4497
105.607
132.127
132.07
102.742
57.2801
42.0494
61.877
70.7413
65.909
2.39477
5.71127
9.39651
10.5474
10.8073
10.6106
9.80486
9.31711
9.41762
10.3427
11.2783
11.6069
11.1097
9.06714
4.89361
2.45336
1.77898
1.71286
1.73071
1.75176
1.76064
1.79707
1.83936
1.88658
1.94779
2.25772
2.126
2.0469
2.49423
2.3532
2.60231
2.85271
2.72315
3.14399
2.9931
3.47854
3.30604
3.86973
3.66278
4.44288
4.11773
5.09485
4.7798
6.98332
6.60272
6.10718
5.70819
10.342
8.54155
7.90939
21.1111
17.6494
12.965
16.5116
31.8828
29.3243
30.0845
27.1851
39.7835
36.6138
34.8758
37.7813
56.7308
52.8396
56.6027
52.128
90.0473
86.3832
75.3219
79.5318
105.271
102.294
98.843
95.4865
136.785
137.832
138.386
136.81
207.12
201.405
208.552
207.009
468.117
231.578
482.053
246.301
222.344
236.772
486.194
481.72
214.559
176.344
230.286
211.663
182.245
98.0995
91.5543
131.006
184.452
185.99
128.243
59.0082
37.3485
71.0992
89.7967
72.0535
6.69461
9.60598
10.5139
10.7267
10.3762
9.56406
9.17084
9.3514
10.392
11.1482
11.3848
10.6968
8.36887
4.20101
2.20073
1.69228
1.64333
1.66072
1.6702
1.67446
1.70393
1.73267
1.76837
1.81821
1.88401
2.22637
2.09709
2.01828
2.45812
2.31977
2.57158
2.82544
2.69255
3.12473
2.96903
3.47123
3.2924
3.87537
3.66341
4.49741
4.13893
5.20965
4.86288
7.39797
6.94667
6.28111
6.51114
6.15624
5.65289
11.892
9.53225
8.64213
24.0222
20.4328
15.193
19.2903
35.9296
32.7476
33.6481
30.5292
46.3138
42.33
39.7023
43.547
68.014
63.5625
68.4153
62.955
109.54
105.871
92.3924
96.886
131.598
125.502
119.263
117.203
203.493
199.915
192.877
189.528
439.434
447.381
438.611
443.506
890.319
463.831
908.908
470.011
497.1
498.432
902.17
905.264
503.552
245.338
498.118
491.658
250.531
122.055
127.133
186.773
255.462
259.279
183.576
65.3388
56.5292
70.8918
100.392
88.1265
9.70521
10.4706
10.5753
10.1904
9.33238
9.0424
9.32095
10.4021
11.0176
11.1483
10.2778
7.6836
3.67797
1.99446
1.615
1.58021
1.5946
1.5962
1.59691
1.62095
1.63845
1.66532
1.70527
1.7542
1.8094
1.9702
2.1814
2.05765
2.42442
2.28192
2.53695
2.79427
2.66031
3.10086
2.94107
3.45876
3.27404
3.87702
3.65691
4.54643
4.15357
5.32999
4.94038
7.94262
7.32302
6.77738
6.24771
5.80648
13.8229
10.8301
9.62629
27.2225
23.5004
17.8072
22.4248
40.9461
36.7785
37.6601
34.1868
54.9452
49.9804
45.78
51.1682
82.7027
77.6784
83.7919
77.1796
134.689
129.488
113.059
117.952
179.543
168.919
145.771
145.156
434.448
437.959
432.938
436.932
867.747
855.513
848.883
854.34
2527.07
853.884
2588.61
867.76
917.089
913.183
2526.13
2522.73
945.028
505.584
935.424
912.781
502.463
188.68
139.293
260.964
501.98
502.672
247.31
68.5947
54.3888
76.6875
128.115
95.7615
10.3427
10.479
9.92238
9.15675
8.91919
9.31862
10.3828
10.8873
10.8996
9.87233
7.03145
3.26812
1.83135
1.54843
1.52065
1.53429
1.52795
1.52831
1.54573
1.55528
1.57556
1.60625
1.64119
1.68309
1.73935
1.94444
1.89682
2.14741
2.01695
2.38686
2.24116
2.50164
2.76119
2.62523
3.07267
2.9099
3.44011
3.25001
3.87177
3.64418
4.59149
4.16089
5.57699
5.26112
5.01246
8.62192
7.80055
7.0781
6.48853
5.88018
16.154
12.488
10.9021
30.7157
26.9049
20.8488
25.9155
47.2411
41.6188
42.2713
38.1402
66.3727
60.2162
53.5336
61.5509
101.213
95.5891
102.847
95.5169
173.164
165.86
137.216
140.907
431.408
237.7
183.689
186.661
842.6
848.307
846.815
855.769
2530.73
2480.87
2489.58
2499.33
15627
2462.24
15643.8