/*--------------------------------*- C++ -*----------------------------------*\
  =========                 |
  \\      /  F ield         | OpenFOAM: The Open Source CFD Toolbox
   \\    /   O peration     | Website:  https://openfoam.org
    \\  /    A nd           | Version:  dev
     \\/     M anipulation  |
\*---------------------------------------------------------------------------*/
FoamFile
{
    version     2.0;
    format      ascii;
    class       volScalarField;
    location    "2500";
    object      p_rgh;
}
// * * * * * * * * * * * * * * * * * * * * * * * * * * * * * * * * * * * * * //

dimensions      [1 -1 -2 0 0 0 0];

internalField   nonuniform List<scalar> 
9575
(
0.00397685
0.00531242
0.00434973
0.00520062
0.0079456
0.00404261
0.00461678
0.00912816
0.00758695
0.00300377
0.00463394
0.00959228
0.0107275
0.00683595
0.00266258
0.00399235
0.00882001
0.0119785
0.0103287
0.00591922
0.00211245
0.00379699
0.00867463
0.0125005
0.0124789
0.00907427
0.00498404
0.00142195
0.00311378
0.00726161
0.0118159
0.0137436
0.0117844
0.00762127
0.00414761
0.0010314
0.00294166
0.0071834
0.0115415
0.0144674
0.0135956
0.0103704
0.00665973
0.00351531
0.000692889
0.00274012
0.0064914
0.0111175
0.0143212
0.0151212
0.0124728
0.00920375
0.00572718
0.00278062
0.000281923
0.00244482
0.0059934
0.0104928
0.0136239
0.0159123
0.0148203
0.0114807
0.00802497
0.00507592
0.00236301
6.58993e-05
0.00244005
0.00565178
0.00961527
0.0133042
0.0162729
0.0162405
0.0137091
0.0102423
0.00710478
0.00447862
0.00199218
-0.000212769
0.00217482
0.00482823
0.00813529
0.0123885
0.0158728
0.0167851
0.0154747
0.0124716
0.00882288
0.00637572
0.00388381
0.00161848
-0.000507219
0.00189721
0.00455453
0.00781647
0.0118016
0.0153751
0.0171757
0.0165333
0.0144493
0.0106709
0.00814414
0.00567503
0.00340537
0.00117721
-0.000808726
0.00181755
0.00442246
0.00714111
0.0110132
0.0148594
0.0172832
0.0175045
0.0159031
0.0126951
0.00949482
0.00736626
0.00512126
0.00300062
0.000932028
-0.00102133
0.00152718
0.00377454
0.00647049
0.0102735
0.0133784
0.016672
0.0179706
0.0171107
0.0150292
0.0114525
0.00860554
0.00674591
0.00466834
0.00253972
0.000545757
-0.00122476
0.00132312
0.00379523
0.00609173
0.00957383
0.0128353
0.0160783
0.0181218
0.0177937
0.0163227
0.0132978
0.010139
0.00821322
0.00620741
0.00428206
0.00231321
0.000316299
-0.00150134
0.00113347
0.00350638
0.00589997
0.00886344
0.0121851
0.0154804
0.018125
0.0186
0.0172812
0.0152835
0.0119657
0.00962184
0.00765119
0.00579839
0.00373971
0.00189204
9.20727e-05
-0.00174295
0.00112557
0.00306628
0.00537593
0.00777759
0.0109163
0.0147098
0.0174858
0.0188496
0.0181773
0.0164849
0.0141421
0.0111608
0.0091642
0.00723782
0.00539061
0.00356856
0.00182373
-8.09545e-05
-0.00174576
0.000866864
0.00270051
0.005211
0.00749936
0.0107843
0.0143771
0.0169296
0.0188249
0.0188788
0.0173851
0.0154864
0.0124226
0.0105365
0.00847827
0.00684983
0.00497416
0.00331055
0.00156626
-0.000188627
-0.00186938
0.000855879
0.00240236
0.00484682
0.00689217
0.0101162
0.0133598
0.016061
0.0184046
0.0193565
0.0185838
0.0166555
0.0140439
0.0115602
0.00991046
0.00821003
0.00637693
0.0047116
0.00305087
0.00129149
-0.00030109
-0.00203043
0.000630487
0.00218974
0.00457146
0.00671621
0.00900998
0.0125682
0.0154388
0.0181983
0.0192238
0.0191411
0.0177651
0.0154704
0.0130602
0.0112123
0.00941285
0.00783305
0.00609548
0.00448131
0.00286892
0.00117945
-0.000433397
-0.00215703
0.000585662
0.00217022
0.00434628
0.005862
0.00860068
0.0121979
0.0146249
0.0175687
0.0191633
0.0194756
0.0185993
0.0167292
0.0142935
0.0123615
0.0106755
0.00907723
0.00731587
0.00584371
0.0042726
0.00262464
0.000940526
-0.000516807
-0.00215827
0.00052597
0.00180574
0.00409661
0.00604361
0.00873537
0.011165
0.0140709
0.0169547
0.0188535
0.0195257
0.0191076
0.0176866
0.0156217
0.0132881
0.011772
0.0102477
0.00870689
0.00699475
0.00558985
0.00403968
0.00245794
0.000955486
-0.000582637
-0.00217445
0.000367564
0.00186048
0.00386129
0.00587535
0.00819095
0.0107501
0.0137443
0.0163695
0.018447
0.0195214
0.0194588
0.0184557
0.0164645
0.0147011
0.0127895
0.0112911
0.00987332
0.00830801
0.00681943
0.00533837
0.00397447
0.00242303
0.000948742
-0.000607079
-0.00219027
0.000397126
0.00179441
0.00320713
0.00567518
0.00785589
0.010302
0.0130247
0.0157586
0.0179776
0.0192632
0.019663
0.0189072
0.0175894
0.0155674
0.0138136
0.0123628
0.0108381
0.00948849
0.00795427
0.00654097
0.00527664
0.00371571
0.00239537
0.000913036
-0.000624338
-0.00218047
0.000225748
0.00146172
0.00289295
0.005267
0.00758453
0.00991415
0.0124895
0.0151798
0.017465
0.0189723
0.0196263
0.0193936
0.0182396
0.0166196
0.0149022
0.0131968
0.0119335
0.0106517
0.00917039
0.00780189
0.00651956
0.00517557
0.00373276
0.00235249
0.000909038
-0.000604015
-0.00214115
0.000261847
0.00163303
0.00302496
0.00517892
0.00721556
0.00955594
0.0119899
0.0145245
0.0168936
0.0186001
0.0195303
0.0195069
0.0187803
0.0173518
0.0156473
0.0141555
0.0129225
0.0116456
0.0103193
0.0090329
0.00769461
0.00635064
0.00509512
0.00365163
0.00232726
0.000902746
-0.000614268
-0.00206707
0.000213444
0.00142517
0.00246909
0.00472096
0.00708641
0.00943067
0.0115412
0.0139405
0.0162929
0.0181088
0.0192774
0.0196712
0.0191421
0.0178821
0.016519
0.0150833
0.0137274
0.0125105
0.0113498
0.0099859
0.0088654
0.00757451
0.00631928
0.00507958
0.00377014
0.00238075
0.000952171
-0.000503082
-0.00196019
0.000377535
0.00166029
0.00272773
0.00425626
0.00688822
0.00894104
0.0110283
0.0134399
0.015721
0.0176236
0.0189299
0.0195692
0.0193501
0.01846
0.0172023
0.0158515
0.0144287
0.0134201
0.012247
0.0111384
0.00989601
0.00864833
0.00751618
0.0063241
0.0050506
0.00378758
0.00251201
0.00113379
-0.000319199
-0.0018206
0.00044646
0.00139873
0.0029878
0.00474491
0.00703077
0.00867688
0.0103491
0.0130309
0.0151282
0.0170792
0.0185307
0.0193865
0.0194731
0.0188947
0.017752
0.0164738
0.0153229
0.0141514
0.0129403
0.0119798
0.0108693
0.00975375
0.00863191
0.00743549
0.00632562
0.00501455
0.00390865
0.00260592
0.00125371
-0.000134847
-0.00169763
0.000495259
0.00161773
0.00319858
0.00434933
0.00665513
0.00860262
0.010014
0.0127543
0.0146382
0.016548
0.018058
0.0191007
0.01947
0.0190872
0.0182049
0.017097
0.0158063
0.0148226
0.0137783
0.0127608
0.0116892
0.0107756
0.00967917
0.00862254
0.00748649
0.00633442
0.00522499
0.00400635
0.00275688
0.00147095
0.000108362
-0.00140149
0.000409261
0.0016879
0.00308987
0.00460782
0.00656922
0.008306
0.00984689
0.0123365
0.0142135
0.0160709
0.0175691
0.0187282
0.0193161
0.0192289
0.0184403
0.0175126
0.0164196
0.01547
0.0145164
0.0134996
0.0124525
0.011502
0.0105359
0.00965232
0.00861836
0.0076294
0.00648579
0.00533236
0.0042155
0.0029933
0.00173436
0.000363809
-0.00115501
0.000574963
0.00182317
0.00311947
0.00461472
0.00630557
0.00813344
0.00983919
0.0120414
0.0137628
0.0155589
0.0171219
0.0182894
0.019046
0.0192276
0.0188079
0.0178856
0.0170725
0.016062
0.015215
0.0143447
0.0134573
0.0124913
0.0115794
0.0105249
0.00959462
0.00871099
0.00761191
0.00664137
0.00554571
0.00438493
0.00325494
0.00199218
0.000622276
-0.00182812
-0.000865283
0.000456155
0.00150193
0.00315861
0.00458458
0.00609259
0.00787079
0.00944206
0.0115044
0.0133864
0.0150617
0.0166502
0.0178607
0.018754
0.0191041
0.0188018
0.0182616
0.0173593
0.016466
0.015617
0.0148607
0.0139913
0.0132511
0.0122885
0.0115322
0.0105396
0.00964142
0.00871497
0.00774965
0.00674874
0.00573562
0.00468201
0.00348642
0.00146946
0.00229604
0.000147356
0.00153334
0.00110073
-0.00164303
-0.000663908
0.000729327
0.00195682
0.00325144
0.00455582
0.00599538
0.00767871
0.00935721
0.0112969
0.0128772
0.0145729
0.0161563
0.0174553
0.0183164
0.0188848
0.0189185
0.0184974
0.0177912
0.0169795
0.0162563
0.0155564
0.0146169
0.0139321
0.0131419
0.0123125
0.0113822
0.0105401
0.00972754
0.00884825
0.00793288
0.00700617
0.00600793
0.00491092
0.00304217
0.00382372
0.00241598
0.000226921
0.00186564
0.00118086
-0.00147244
-0.00048262
0.000627333
0.0019617
0.00327572
0.0045752
0.00591235
0.00748451
0.00905993
0.0108236
0.0125079
0.01408
0.0156207
0.0169693
0.0179905
0.0185361
0.0188843
0.0185821
0.0180328
0.0173219
0.0166532
0.0159625
0.0154167
0.0145747
0.0138395
0.0129062
0.0121955
0.0113994
0.0106263
0.00986449
0.009029
0.00817712
0.00727827
0.00624246
0.00457228
0.00529216
0.00320123
0.00399676
0.00269376
0.000460248
0.00205619
0.00138693
-0.00132717
-0.000264101
0.000618344
0.00209913
0.00305234
0.00449802
0.00582857
0.00723729
0.00865995
0.0104105
0.0120607
0.0136429
0.0151037
0.0164631
0.0175307
0.0182547
0.0186412
0.0185445
0.0181479
0.0176369
0.0169963
0.0164414
0.0157506
0.0151103
0.0144582
0.013631
0.0129202
0.0121975
0.0114848
0.0107678
0.0100406
0.00926204
0.00843843
0.00749567
0.00599225
0.00665998
0.00475607
0.00548495
0.00350801
0.00429426
0.0029188
0.000721515
0.00230904
0.00168256
-0.00108924
-4.23389e-05
0.000684447
0.00219047
0.0031917
0.00453681
0.00558684
0.00702309
0.00841043
0.0101523
0.0116012
0.0131919
0.0146271
0.0159385
0.0170985
0.0179049
0.0183652
0.0184345
0.0181932
0.0177361
0.0173402
0.0167293
0.0162885
0.0156484
0.0148934
0.0142741
0.0135913
0.0129319
0.012278
0.0116048
0.0109497
0.0102625
0.00950655
0.00865461
0.00731249
0.00793715
0.00618712
0.00686271
0.00504774
0.00577268
0.00375491
0.00456052
0.0031889
0.000994435
0.00260975
0.00198463
-0.0008679
0.000247966
0.000917211
0.00219753
0.00313828
0.00434206
0.00538112
0.00678903
0.00809676
0.00964667
0.011161
0.0126722
0.0141283
0.0154121
0.0165871
0.0175255
0.0180604
0.0182897
0.0181863
0.0178571
0.0174968
0.0169292
0.0165817
0.0160395
0.0154277
0.0148503
0.0142123
0.0135936
0.0129898
0.0123823
0.0117909
0.0111636
0.0104914
0.00971261
0.00854178
0.00911377
0.00751705
0.00814813
0.00647097
0.0071435
0.00532679
0.00605839
0.00403494
0.00485212
0.00349928
0.00131251
0.00293176
0.00232951
-0.000592922
0.000564439
0.000746263
0.00197939
0.00291356
0.00412791
0.00523296
0.00655159
0.0077383
0.00919107
0.0106594
0.0121959
0.0135829
0.0148929
0.016039
0.017006
0.0177172
0.0180656
0.0181478
0.0178739
0.0175571
0.0172737
0.0168034
0.0163651
0.0158837
0.0153638
0.0148075
0.0142109
0.0136304
0.013072
0.0125212
0.0120148
0.0113703
0.0106901
0.00965926
0.0101734
0.00875552
0.00933412
0.00779468
0.00842382
0.00675979
0.00743466
0.00562682
0.0063634
0.00435315
0.00517744
0.0038374
0.00166771
0.00330047
0.00271847
-0.000291066
0.000912391
0.00085729
0.00199078
0.00276161
0.00401564
0.00501485
0.0061346
0.00737079
0.00871472
0.0101452
0.0116344
0.0130374
0.0143426
0.0155414
0.0165562
0.0172424
0.0177811
0.0179647
0.0178928
0.0176594
0.0173261
0.017071
0.0166921
0.0162656
0.0158245
0.0153242
0.0148058
0.0142398
0.0136938
0.013181
0.0126859
0.012238
0.0115359
0.0106725
0.0111388
0.00988374
0.0104072
0.00903211
0.00961522
0.00808626
0.00871855
0.00706718
0.00774512
0.00595754
0.00669959
0.00470482
0.00554153
0.00422696
0.00206092
0.0037183
0.00315134
3.41898e-05
0.0012949
0.000707972
0.00177968
0.00257318
0.00370996
0.0047207
0.00576285
0.00692605
0.00822609
0.00963454
0.0110692
0.0124563
0.0137346
0.0149553
0.0159993
0.0168504
0.0173799
0.0176629
0.0177767
0.0177365
0.0175215
0.0172825
0.0169652
0.0166085
0.01622
0.0157854
0.0153181
0.0148175
0.0142985
0.0137828
0.0133158
0.012869
0.012454
0.0116079
0.0121022
0.0109225
0.0114308
0.0101797
0.0107392
0.00933691
0.00994916
0.00840188
0.00905333
0.00741068
0.00810198
0.00633296
0.00708677
0.00511188
0.0059628
0.00467016
0.0024955
0.00418582
0.00363293
0.000390558
0.00171554
0.000701593
0.00167278
0.00238185
0.00345617
0.00437916
0.00536813
0.00646476
0.00772411
0.00907711
0.0104919
0.011888
0.0131969
0.0143911
0.0154733
0.0163491
0.0169998
0.0174318
0.0175344
0.0175289
0.0174792
0.0173598
0.0171744
0.0169069
0.0165851
0.0162059
0.0157713
0.0153247
0.0148485
0.0143942
0.0139267
0.0136301
0.0135833
0.012769
0.0125973
0.0119989
0.0127248
0.0113569
0.0121134
0.010602
0.0113762
0.00972974
0.0105068
0.00879153
0.00954331
0.00781731
0.00856424
0.00677011
0.00755158
0.00557689
0.00644764
0.00516801
0.00297782
0.00470916
0.00417264
0.000778857
0.0021816
0.000616375
0.00143501
0.00214395
0.00311377
0.00397017
0.00494716
0.00599018
0.00719125
0.00849204
0.00989057
0.0112997
0.0125891
0.0137547
0.0148755
0.0158329
0.0165219
0.0170368
0.0173774
0.01741
0.0174424
0.0173906
0.0173167
0.0171506
0.0169099
0.0165883
0.016197
0.0157788
0.015356
0.014949
0.0146757
0.0148121
0.0170602
0.0235176
0.0140821
0.0189784
0.0133412
0.0159146
0.0125801
0.0149076
0.0116381
0.0137112
0.0105394
0.0122413
0.00943448
0.0107599
0.0083659
0.0094183
0.00729569
0.00820131
0.00610611
0.00702629
0.00573139
0.00351663
0.00530435
0.00478502
0.00120061
0.0026984
0.000498055
0.00114955
0.00192013
0.00278615
0.00359286
0.00451602
0.00549263
0.00662429
0.00789655
0.00928841
0.0106489
0.011959
0.0131916
0.0142969
0.015264
0.0160565
0.0165838
0.0170121
0.0171983
0.0173235
0.0173558
0.0173969
0.0173363
0.0171827
0.016943
0.0165989
0.016203
0.0158228
0.0155577
0.0157952
0.0178234
0.0259232
0.0507239
0.0578064
0.0943621
0.0220295
0.0358678
0.0203642
0.0334126
0.0184749
0.0300202
0.0161292
0.0257698
0.0135512
0.0205181
0.0113008
0.0158117
0.00948529
0.012229
0.00805039
0.00965048
0.00673345
0.00786206
0.00640041
0.00412367
0.00600726
0.00549466
0.00166053
0.00327468
0.000365789
0.000911969
0.00167788
0.00236438
0.00319417
0.0040365
0.00500691
0.00603388
0.00729345
0.00864938
0.00999425
0.0113132
0.0125384
0.0136739
0.0146739
0.0154876
0.0161518
0.0166766
0.0169327
0.0171069
0.0172668
0.0174068
0.0174613
0.0174051
0.0172463
0.016973
0.0166295
0.0163002
0.0164169
0.0183216
0.0260913
0.046381
0.0949555
0.126439
0.166567
0.138774
0.180759
0.0597598
0.0978503
0.0543227
0.0974385
0.0474228
0.0906431
0.0385001
0.0775948
0.0280838
0.0579733
0.0195387
0.0396191
0.0135098
0.0248324
0.00982295
0.0151141
0.00763617
0.00987968
0.0073406
0.00482085
0.0069372
0.00637465
0.00215843
0.00392027
0.000246001
0.000731186
0.00138395
0.00199134
0.0027924
0.00356757
0.00448851
0.00546922
0.00669337
0.00799076
0.00932176
0.0106459
0.0118778
0.0130212
0.0140726
0.0149707
0.0156974
0.016173
0.0165578
0.0168571
0.0171039
0.0173422
0.017513
0.0175784
0.0175057
0.0173259
0.0170553
0.0169648
0.0182
0.0245987
0.0437183
0.0855663
0.153833
0.201271
0.223297
0.220113
0.262227
0.241384
0.28708
0.146011
0.195117
0.145031
0.204071
0.137067
0.204844
0.117779
0.19606
0.0863308
0.169021
0.0559437
0.123486
0.0312813
0.0761298
0.0166171
0.0384393
0.00979082
0.0177531
0.00941978
0.00563885
0.00869995
0.00772168
0.00269645
0.00465247
0.000127333
0.00049712
0.00104064
0.0016212
0.00236183
0.00310069
0.00393683
0.00489152
0.00604776
0.00730926
0.00863724
0.00995165
0.011196
0.0123418
0.0134266
0.0143431
0.0151391
0.0156836
0.0161558
0.0165372
0.0168676
0.0171967
0.0174814
0.0176769
0.0177419
0.0176409
0.0175586
0.0181503
0.0224424
0.0375947
0.0721001
0.130535
0.215991
0.336055
0.291717
0.346877
0.328886
0.369135
0.36192
0.408365
0.260034
0.314164
0.270421
0.336113
0.272252
0.349522
0.260312
0.351641
0.227085
0.33196
0.168701
0.287936
0.0978421
0.219279
0.0447754
0.119964
0.0180663
0.0497432
0.0169442
0.006656
0.0142676
0.0107325
0.00327482
0.00549053
2.7859e-05
0.000287159
0.000731749
0.00126964
0.00193212
0.00261723
0.00340288
0.00429758
0.005413
0.00662039
0.00793589
0.00924502
0.0104973
0.0116867
0.0127746
0.013743
0.0145192
0.0151875
0.0157062
0.0161537
0.0165585
0.0169642
0.0173583
0.0176849
0.0179063
0.0179807
0.018218
0.0205962
0.031244
0.0581453
0.104179
0.172676
0.270909
0.375712
0.436877
0.435434
0.4029
0.428091
0.445763
0.46702
0.489745
0.509002
0.394935
0.448524
0.420019
0.485952
0.433715
0.51508
0.43542
0.529614
0.410922
0.522159
0.354153
0.490487
0.268109
0.427572
0.138594
0.316816
0.0507847
0.15149
0.0458481
0.00803889
0.0345213
0.0188168
0.00386367
0.00629492
8.54784e-05
0.000421282
0.00090738
0.00148751
0.00214239
0.00287578
0.00369933
0.0047801
0.00592864
0.00720963
0.0085141
0.0097758
0.0109786
0.0120874
0.0131291
0.0139526
0.014638
0.0152217
0.0157145
0.0161759
0.0166508
0.0171289
0.0175953
0.0179738
0.0183146
0.0192519
0.0252622
0.0447649
0.0803847
0.133703
0.211317
0.301465
0.369431
0.42845
0.41603
0.461831
0.448858
0.474332
0.470485
0.513851
0.50612
0.554244
0.544838
0.531941
0.551947
0.572104
0.596496
0.605904
0.6408
0.626303
0.6785
0.616244
0.70644
0.570765
0.706095
0.49713
0.654512
0.354367
0.562719
0.152719
0.378635
0.136053
0.00938417
0.0978536
0.049052
0.0200507
0.0043745
0.00683074
0.000130093
0.000536946
0.00105472
0.00165641
0.00234942
0.00312337
0.00413559
0.00523171
0.00647019
0.00776443
0.00903945
0.0102458
0.0113922
0.0124195
0.013305
0.0140728
0.014693
0.0152387
0.0157302
0.0162532
0.0168048
0.0173797
0.0179345
0.0186046
0.0209699
0.03211
0.0595144
0.102711
0.161037
0.239993
0.310565
0.354787
0.384179
0.431503
0.400673
0.455773
0.425739
0.495371
0.479144
0.531377
0.510703
0.569885
0.544208
0.597725
0.586733
0.645409
0.633318
0.695665
0.684635
0.744889
0.740028
0.776804
0.797897
0.784173
0.842011
0.732257
0.853696
0.615453
0.799522
0.378392
0.647526
0.513379
0.208727
0.36575
0.0313214
0.0111354
0.0221751
0.131266
0.305862
0.312875
0.0946058
0.00466866
0.0138594
0.0106393
0.00724899
0.000168762
0.000626503
0.00118073
0.00182097
0.00256005
0.00347198
0.00453448
0.00571844
0.006993
0.0082682
0.0094941
0.0106487
0.0117145
0.0126613
0.0134672
0.014152
0.0147078
0.0152522
0.0157883
0.0163855
0.0170344
0.0177717
0.0188802
0.0234827
0.0403187
0.0741862
0.121511
0.184466
0.253159
0.30076
0.335671
0.338269
0.318103
0.288157
0.391005
0.3537
0.401347
0.357651
0.481195
0.443765
0.507744
0.462459
0.536701
0.483347
0.613518
0.581421
0.664233
0.629264
0.722626
0.689897
0.78379
0.755974
0.847247
0.826525
0.905611
0.895347
0.917071
0.930352
0.945414
0.742898
0.841113
0.95491
0.901265
0.641993
0.505188
0.663115
0.762204
0.494029
0.0636538
0.0380396
0.246517
0.43531
0.478992
0.184169
0.00732115
0.00386416
0.0057701
0.0231301
0.0136051
0.000201394
0.000709788
0.00129857
0.00199603
0.0028372
0.00382977
0.00496674
0.00621859
0.00747997
0.00871881
0.00989675
0.0109971
0.0119853
0.0128566
0.0135648
0.0141843
0.0147093
0.0152879
0.0158975
0.0165755
0.017487
0.0193055
0.026883
0.0491904
0.0874372
0.138241
0.200567
0.2547
0.288091
0.308786
0.28838
0.199036
0.239175
0.195453
0.314905
0.274359
0.311202
0.26587
0.412191
0.360705
0.424634
0.365056
0.441885
0.373566
0.575543
0.510848
0.63233
0.556703
0.705857
0.628097
0.787374
0.717525
0.867749
0.813655
0.947622
0.937151
0.921046
0.895337
0.981244
0.997446
0.965201
0.970458
0.856681
0.927556
1.00714
0.976719
0.780119
0.650519
0.781205
0.875852
0.640222
0.122735
0.074272
0.381519
0.611788
0.572146
0.308473
0.00915805
0.00399777
0.0062161
0.0402255
0.0213786
0.000236157
0.000783106
0.00141572
0.00219151
0.00312134
0.00420752
0.00540515
0.00666621
0.00791328
0.00912357
0.010259
0.0112894
0.0121871
0.0129885
0.0136026
0.0141949
0.0147194
0.0153515
0.0160746
0.0170854
0.0201578
0.0313938
0.0572979
0.098494
0.151419
0.207617
0.245526
0.272083
0.27609
0.234083
0.139513
0.107344
0.0883911
0.158036
0.129881
0.225123
0.18914
0.211113
0.172066
0.308351
0.25654
0.308178
0.249056
0.315987
0.247599
0.47419
0.392265
0.535625
0.438462
0.626383
0.523548
0.729618
0.631709
0.866724
0.827014
0.788812
0.739713
0.960338
0.942505
0.916454
0.883221
1.02106
1.01944
0.994822
0.983368
0.948577
0.999304
1.04463
1.03033
0.88575
0.779086
0.89104
0.964302
0.76451
0.221492
0.137232
0.51528
0.738936
0.699838
0.440785
0.0117025
0.00415485
0.00693215
0.0745307
0.0355852
0.000273877
0.000854831
0.00156366
0.00241972
0.00343623
0.00458954
0.00582998
0.00707617
0.00830468
0.00948539
0.0105562
0.0115348
0.0123288
0.0130525
0.0136023
0.0142048
0.0147449
0.0155103
0.0168371
0.0217776
0.0366843
0.0646875
0.10628
0.159438
0.206523
0.234561
0.251662
0.239267
0.181918
0.0988454
0.0478704
0.0517761
0.039239
0.085178
0.0656433
0.13814
0.109261
0.116429
0.0866205
0.197509
0.153042
0.186538
0.135885
0.187241
0.12707
0.345535
0.260152
0.417333
0.312967
0.525303
0.415409
0.695137
0.640714
0.593329
0.537039
0.844399
0.800645
0.753721
0.703777
0.963855
0.936267
0.901678
0.861414
1.0433
1.00688
1.03051
0.986037
1.01869
1.0519
1.06698
1.06727
0.97588
0.888067
0.98164
1.03518
0.875597
0.346804
0.23538
0.644112
0.852061
0.815416
0.569494
0.0166352
0.00434422
0.00799065
0.132873
0.0628899
0.000303838
0.000938288
0.00172367
0.00265853
0.00376721
0.00496712
0.00621268
0.00746356
0.00867466
0.00981892
0.0108151
0.0117234
0.0124049
0.0130623
0.0135972
0.0141901
0.0149133
0.0170763
0.0246253
0.0421064
0.0709299
0.112776
0.163602
0.199751
0.221692
0.22803
0.201687
0.137199
0.0727963
0.0366326
0.0231521
0.0224096
0.02752
0.0239068
0.0397279
0.0324256
0.0652936
0.0502123
0.0515726
0.0395811
0.0959978
0.069488
0.0867243
0.0601612
0.0974181
0.0630521
0.220304
0.149087
0.31064
0.221383
0.435196
0.335872
0.652856
0.600527
0.54854
0.495203
0.816672
0.768575
0.718183
0.666408
0.957082
0.921444
0.880262
0.834817
1.05464
1.00903
1.03295
0.979179
1.07177
1.08912
1.07934
1.09054
1.04761
0.980526
1.05523
1.08926
0.970322
0.474719
0.356305
0.761835
0.950092
0.916373
0.690273
0.025821
0.0042522
0.00929709
0.221175
0.111206
0.000326563
0.00102677
0.00189658
0.00292792
0.00409544
0.0053224
0.00658595
0.00783183
0.00901629
0.0101117
0.0110258
0.0118485
0.0124301
0.0130317
0.0136137
0.0145064
0.0180827
0.028433
0.0472327
0.0761257
0.116842
0.162528
0.190415
0.206835
0.202952
0.165466
0.102508
0.0550627
0.0295766
0.0202472
0.0199079
0.019343
0.0213358
0.0204316
0.024261
0.022518
0.0318309
0.027082
0.0279122
0.0247346
0.0434028
0.0335318
0.0432103
0.0326284
0.0598335
0.0400782
0.149747
0.0957237
0.250541
0.178595
0.418345
0.366962
0.282349
0.327337
0.61445
0.56279
0.511901
0.462665
0.786265
0.735759
0.684273
0.632548
0.942795
0.901227
0.855565
0.807186
1.05799
1.00268
1.0279
0.96607
1.11012
1.11384
1.08392
1.10442
1.10345
1.05647
1.11358
1.12934
1.04964
0.596842
0.479802
0.86708
1.03291
1.00337
0.799986
0.0426426
0.00359169
0.0116476
0.336012
0.184305
0.000344502
0.0011299
0.00208416
0.00319675
0.0044048
0.00566749
0.00694111
0.00818123
0.00932187
0.0103597
0.0111851
0.0119173
0.0124084
0.0130972
0.0145214
0.019883
0.0323664
0.0516963
0.0799575
0.119125
0.157829
0.180139
0.19116
0.177933
0.134027
0.0779888
0.0428149
0.0249769
0.0193351
0.0181558
0.0178626
0.0188334
0.018455
0.0197276
0.0192515
0.0208345
0.0202272
0.0228584
0.0216506
0.0225888
0.0214924
0.0272321
0.0243099
0.0305498
0.0259474
0.0476222
0.0336535
0.120132
0.0757253
0.248049
0.21027
0.163852
0.396735
0.354011
0.276188
0.314527
0.5819
0.532628
0.485357
0.440134
0.75708
0.706639
0.656846
0.609018
0.924525
0.879357
0.831767
0.783353
1.05491
0.991478
1.01931
0.950494
1.13665
1.12936
1.08324
1.11075
1.14594
1.11795
1.15907
1.15819
1.11485
0.7111
0.597133
0.959494
1.10224
1.0777
0.897841
0.0760873
0.000992254
0.0168708
0.456942
0.291188
0.000365544
0.00124228
0.00228238
0.0034554
0.00470796
0.00600365
0.00728635
0.00850812
0.00959622
0.0105631
0.011309
0.0119435
0.0126132
0.0150412
0.0221409
0.0358911
0.0554234
0.0824458
0.118951
0.151139
0.169288
0.174663
0.154451
0.109118
0.0616045
0.0343074
0.0218724
0.0183814
0.0171368
0.0172683
0.0169988
0.0179175
0.0175654
0.0187183
0.0182878
0.0195656
0.0191282
0.0207082
0.0200886
0.0210064
0.0202168
0.0235694
0.0220455
0.0272375
0.0239974
0.0439777
0.0316723
0.110573
0.0694863
0.241273
0.207997
0.179123
0.147188
0.390905
0.350724
0.275484
0.312336
0.562857
0.518187
0.47491
0.432379
0.736072
0.689982
0.645222
0.601142
0.906477
0.861388
0.816603
0.772666
1.04952
0.979459
1.01228
0.937998
1.15426
1.1381
1.08176
1.11298
1.17747
1.167
1.19395
1.17832
1.16808
0.815311
0.708522
1.03939
1.15992
1.14053
0.984338
0.134985
9.39566e-05
0.052345
0.57479
0.417761
0.000397909
0.00135054
0.00247973
0.00370956
0.00501624
0.00633983
0.00761932
0.00881637
0.00984127
0.0107302
0.011457
0.0123183
0.0157414
0.0245532
0.0388807
0.0583711
0.0843199
0.117866
0.142982
0.158167
0.158432
0.13346
0.0901757
0.0501436
0.0284125
0.0196529
0.0174403
0.0165077
0.0158822
0.0157022
0.0163025
0.0160151
0.0168894
0.0165652
0.0175965
0.0172399
0.0184348
0.0180319
0.0195181
0.018919
0.0198447
0.0190463
0.0221997
0.0208004
0.0259368
0.0229542
0.0440136
0.0309736
0.124131
0.0980109
0.0708253
0.240882
0.208532
0.185495
0.156017
0.398321
0.360133
0.286108
0.322681
0.5584
0.516906
0.476509
0.437167
0.729258
0.687315
0.647168
0.609084
0.896165
0.854452
0.81348
0.774671
1.04679
0.97342
1.01046
0.933855
1.16557
1.14309
1.08236
1.11438
1.20041
1.20586
1.21988
1.19247
1.21125
0.9096
0.812009
1.10814
1.20764
1.19348
1.06035
0.273448
0.0688555
0.286191
0.691086
0.569912
0.00043278
0.00146954
0.00267484
0.00397517
0.00532898
0.00667802
0.00794257
0.00910364
0.0100583
0.0109689
0.0122758
0.0165909
0.0266239
0.0411738
0.0603802
0.0852687
0.11438
0.134403
0.146656
0.142623
0.115296
0.0756399
0.0418445
0.0242388
0.0179686
0.0165254
0.0158441
0.0150373
0.0151188
0.0148597
0.0155946
0.0153374
0.0161781
0.0158839
0.0168094
0.0164888
0.0174524
0.01712
0.0183081
0.0178048
0.0188721
0.0180112
0.0213072
0.0198532
0.0249657
0.0216748
0.0562315
0.0426159
0.0322652
0.129364
0.105522
0.0701002
0.0922927
0.250892
0.217298
0.201055
0.169068
0.424995
0.386631
0.309498
0.347979
0.572349
0.536097
0.499748
0.462787
0.73883
0.705366
0.673526
0.642424
0.895775
0.860535
0.828618
0.799976
1.04982
0.974948
1.01933
0.942227
1.17362
1.14795
1.09089
1.1193
1.21757
1.23557
1.23976
1.20345
1.24543
0.994319
0.907989
1.16726
1.24682
1.23788
1.12682
0.517949
0.063782
0.394405
0.807911
0.72713
0.000469478
0.00160187
0.00288356
0.00424948
0.00565185
0.00701991
0.00825789
0.00936383
0.0103916
0.0122591
0.017506
0.0281006
0.0426666
0.0612156
0.0848826
0.109258
0.125569
0.134876
0.127282
0.0997838
0.0641758
0.035505
0.0211893
0.016662
0.0157113
0.0152182
0.01453
0.0139311
0.013755
0.0142862
0.0140434
0.0147576
0.0145202
0.0153026
0.0150108
0.0159341
0.015619
0.0165849
0.0162462
0.017436
0.0169514
0.0180666
0.0170847
0.0198343
0.0189484
0.0246301
0.0210642
0.0613276
0.046718
0.040994
0.0313874
0.140104
0.114344
0.0796377
0.10143
0.271866
0.235563
0.224144
0.188641
0.468472
0.427819
0.34406
0.386069
0.611121
0.578537
0.544109
0.507396
0.774027
0.749575
0.725152
0.699446
0.913566
0.889214
0.868581
0.850684
1.06554
0.992634
1.04481
0.970952
1.18165
1.15657
1.11154
1.13232
1.23167
1.25838
1.25651
1.21426
1.27211
1.06994
0.997163
1.21792
1.27813
1.27478
1.18466
0.632393
0.0437079
0.329868
0.917357
0.825637
0.000519203
0.00174192
0.00310842
0.00454172
0.00599017
0.00736661
0.00856964
0.00973188
0.012134
0.0182377
0.0289697
0.0432729
0.0611833
0.0832258
0.102953
0.116697
0.122748
0.112546
0.0863652
0.0548033
0.0305048
0.018937
0.0156542
0.0149934
0.0146074
0.0140538
0.0131605
0.0131948
0.0129346
0.0135427
0.0133619
0.013967
0.0137472
0.014445
0.0141998
0.0150035
0.0147117
0.0156018
0.015296
0.016404
0.0159875
0.0166807
0.0162188
0.0188899
0.0175397
0.0266276
0.0232133
0.0205507
0.0704372
0.0535743
0.0462101
0.0350401
0.156235
0.127067
0.0915325
0.116634
0.302599
0.262374
0.253469
0.214194
0.523787
0.479166
0.386454
0.433008
0.671349
0.639877
0.604748
0.565938
0.834052
0.816737
0.796941
0.77347
0.954324
0.941982
0.932034
0.922681
1.09783
1.0303
1.08986
1.02207
1.19309
1.17243
1.14868
1.15761
1.2449
1.27687
1.27164
1.22765
1.29301
1.13705
1.07686
1.26068
1.30237
1.30354
1.23422
0.653153
0.0126566
0.210368
1.00116
0.883627
0.000584685
0.00189552
0.00334683
0.00486484
0.00635347
0.00774036
0.00905956
0.0117556
0.0185577
0.0291898
0.0430521
0.0601396
0.0801641
0.0958904
0.107569
0.110812
0.0986494
0.0745748
0.0468448
0.0264793
0.017219
0.0148471
0.0143588
0.0140456
0.0135685
0.0128334
0.0117076
0.0124018
0.0123039
0.0127381
0.0125687
0.0131051
0.0129139
0.0135539
0.0133171
0.0140747
0.0138082
0.0146256
0.0143563
0.015485
0.0149737
0.0156675
0.0149652
0.0181078
0.0166012
0.0277877
0.0236182
0.0194486
0.0215283
0.0827006
0.0621601
0.0546396
0.0399516
0.178184
0.145585
0.107545
0.136184
0.340429
0.295766
0.286847
0.243841
0.58476
0.53533
0.432874
0.48424
0.745453
0.712285
0.674125
0.631415
0.912342
0.89857
0.879766
0.855448
1.01684
1.01494
1.01191
1.00631
1.14516
1.08716
1.14872
1.08966
1.21132
1.20065
1.19508
1.19372
1.2592
1.29257
1.28583
1.24672
1.30926
1.19574
1.14268
1.29516
1.31934
1.32281
1.27622
0.652815
-0.00427457
0.183742
1.06262
0.931895
0.000659609
0.00206562
0.00362359
0.00523125
0.00676852
0.00830968
0.0114004
0.0183375
0.028706
0.0419727
0.058124
0.075559
0.0884377
0.0981179
0.0988601
0.0857785
0.0640579
0.0398848
0.0232251
0.015918
0.0142105
0.0138269
0.0135306
0.0131174
0.0124662
0.0114611
0.0106854
0.0115127
0.0106487
0.0116837
0.0119257
0.0117949
0.0122278
0.0120693
0.0126049
0.0124053
0.0130671
0.0128266
0.0135835
0.0133188
0.0145613
0.0139426
0.0143805
0.0137262
0.0173211
0.0154413
0.0302811
0.0246483
0.0193258
0.0218618
0.0986491
0.0743983
0.0656635
0.0471117
0.204365
0.168459
0.127032
0.158944
0.3822
0.333164
0.322585
0.275946
0.647837
0.593538
0.481422
0.537591
0.825112
0.788629
0.746417
0.699209
0.99878
0.985553
0.965416
0.939008
1.09406
1.09762
1.09732
1.09214
1.2016
1.15584
1.21055
1.16459
1.23764
1.23418
1.24574
1.23764
1.27656
1.30588
1.29916
1.26887
1.31957
1.24501
1.19514
1.31973
1.32833
1.33289
1.30842
0.672658
0.072436
0.410543
1.11636
0.979468
0.000748564
0.00226111
0.00396711
0.00567354
0.00746609
0.0107334
0.0176339
0.0275016
0.0400122
0.0551204
0.0700167
0.0808487
0.0883436
0.0869281
0.0740461
0.0546487
0.0338842
0.0205729
0.014964
0.0136924
0.0133557
0.0130897
0.0126933
0.0121216
0.0112409
0.0102054
0.0108064
0.00998965
0.00987984
0.0108736
0.0110758
0.010977
0.0113042
0.0111829
0.0116131
0.0114466
0.0120102
0.0118028
0.0124094
0.0122264
0.0130609
0.012704
0.0130091
0.0122207
0.0175829
0.0160702
0.0143124
0.0340657
0.0261545
0.0196643
0.0228846
0.116901
0.0892155
0.0789236
0.056553
0.233231
0.194271
0.148566
0.183628
0.426119
0.372832
0.361621
0.310816
0.714615
0.656004
0.534394
0.595439
0.906025
0.866565
0.820989
0.770032
1.08434
1.07138
1.05051
1.02351
1.17197
1.17591
1.17571
1.17011
1.25384
1.21938
1.25856
1.22695
1.26672
1.2678
1.26585
1.26862
1.29129
1.3133
1.30279
1.28419
1.32294
1.28514
1.24193
1.33281
1.32959
1.33348
1.32668