/*--------------------------------*- C++ -*----------------------------------*\
  =========                 |
  \\      /  F ield         | OpenFOAM: The Open Source CFD Toolbox
   \\    /   O peration     | Website:  https://openfoam.org
    \\  /    A nd           | Version:  dev
     \\/     M anipulation  |
\*---------------------------------------------------------------------------*/
FoamFile
{
    version     2.0;
    format      ascii;
    class       surfaceScalarField;
    location    "2500";
    object      phi;
}
// * * * * * * * * * * * * * * * * * * * * * * * * * * * * * * * * * * * * * //

dimensions      [1 0 -1 0 0 0 0];

internalField   nonuniform List<scalar> 
18974
(
1.51405e-07
1.05971e-07
1.32434e-07
2.68236e-07
4.2888e-07
9.61857e-08
1.0929e-07
3.72611e-07
4.24507e-07
2.72617e-07
6.2625e-07
8.1529e-08
9.08945e-08
4.5007e-07
3.93872e-07
4.03226e-07
6.46661e-07
2.52213e-07
7.82594e-07
6.93829e-08
7.68035e-08
5.1263e-07
3.46376e-07
4.97523e-07
6.50749e-07
3.99142e-07
8.14198e-07
2.20592e-07
9.23311e-07
6.06866e-08
6.5178e-08
5.66451e-07
2.95365e-07
5.6366e-07
6.29885e-07
5.1838e-07
8.45452e-07
3.67916e-07
9.50662e-07
1.93243e-07
1.04947e-06
5.40338e-08
5.5846e-08
6.17889e-07
2.47422e-07
6.14471e-07
5.85979e-07
6.07558e-07
8.60928e-07
5.02899e-07
9.91025e-07
3.2756e-07
1.0705e-06
1.72222e-07
1.16358e-06
4.88067e-08
4.86384e-08
6.6731e-07
2.09181e-07
6.56131e-07
5.29303e-07
6.71147e-07
8.5262e-07
6.15871e-07
1.03145e-06
4.62459e-07
1.10585e-06
2.92248e-07
1.18113e-06
1.54681e-07
1.26953e-06
4.42468e-08
4.41724e-08
7.12641e-07
1.83938e-07
6.92589e-07
4.69781e-07
7.15715e-07
8.19557e-07
7.04216e-07
1.05882e-06
5.88434e-07
1.15295e-06
4.15369e-07
1.21103e-06
2.62284e-07
1.28349e-06
1.40708e-07
1.36645e-06
4.04256e-08
4.12115e-08
7.56522e-07
1.66421e-07
7.30256e-07
4.12415e-07
7.49913e-07
7.66638e-07
7.68567e-07
1.065e-06
6.9811e-07
1.2035e-06
5.37868e-07
1.25424e-06
3.72229e-07
1.30734e-06
2.38453e-07
1.37911e-06
1.28097e-07
1.45637e-06
3.67321e-08
3.90127e-08
7.99173e-07
1.55025e-07
7.67923e-07
3.64319e-07
7.78296e-07
7.04077e-07
8.12464e-07
1.04687e-06
7.86696e-07
1.24514e-06
6.56379e-07
1.30825e-06
4.83855e-07
1.34451e-06
3.35077e-07
1.4008e-06
2.16768e-07
1.46777e-06
1.16717e-07
1.53911e-06
3.32853e-08
3.69846e-08
8.41161e-07
1.45907e-07
8.08319e-07
3.2576e-07
8.0644e-07
6.38963e-07
8.43421e-07
1.00709e-06
8.52235e-07
1.26759e-06
7.64323e-07
1.36688e-06
5.9775e-07
1.39452e-06
4.33852e-07
1.43128e-06
3.04588e-07
1.48709e-06
1.97446e-07
1.54948e-06
1.06354e-07
1.61513e-06
3.01713e-08
3.48924e-08
8.81789e-07
1.37734e-07
8.49319e-07
2.97382e-07
8.36703e-07
5.7735e-07
8.68136e-07
9.52366e-07
8.98128e-07
1.26713e-06
8.52708e-07
1.42012e-06
7.11095e-07
1.45495e-06
5.37324e-07
1.47281e-06
3.92386e-07
1.51543e-06
2.76249e-07
1.56667e-06
1.80252e-07
1.62482e-06
9.66649e-08
1.68462e-06
2.74318e-08
3.31623e-08
9.19787e-07
1.31532e-07
8.87913e-07
2.77261e-07
8.69482e-07
5.24613e-07
8.89317e-07
8.89721e-07
9.30632e-07
1.24463e-06
9.20619e-07
1.45941e-06
8.13375e-07
1.5215e-06
6.44559e-07
1.52707e-06
4.82974e-07
1.55152e-06
3.56304e-07
1.59165e-06
2.51277e-07
1.64083e-06
1.64243e-07
1.69361e-06
8.76845e-08
1.74904e-06
2.45951e-08
3.13552e-08
9.56524e-07
1.24096e-07
9.27264e-07
2.6028e-07
9.05006e-07
4.81835e-07
9.1212e-07
8.23813e-07
9.55293e-07
1.20398e-06
9.7134e-07
1.4798e-06
9.00287e-07
1.58696e-06
7.47932e-07
1.59339e-06
5.78209e-07
1.59745e-06
4.37046e-07
1.62403e-06
3.23936e-07
1.6638e-06
2.2831e-07
1.7091e-06
1.48742e-07
1.75745e-06
7.92762e-08
1.8075e-06
2.22176e-08
2.94194e-08
9.91176e-07
1.1684e-07
9.63769e-07
2.48375e-07
9.39162e-07
4.48454e-07
9.38191e-07
7.61017e-07
9.75003e-07
1.15153e-06
1.00776e-06
1.47957e-06
9.71559e-07
1.64334e-06
8.43905e-07
1.66718e-06
6.74175e-07
1.65458e-06
5.21032e-07
1.66377e-06
3.97256e-07
1.69427e-06
2.93476e-07
1.73087e-06
2.06542e-07
1.77163e-06
1.34531e-07
1.81577e-06
7.1008e-08
1.86165e-06
1.9755e-08
2.77528e-08
1.02267e-06
1.11751e-07
9.96275e-07
2.3884e-07
9.7323e-07
4.21179e-07
9.66414e-07
7.06719e-07
9.92628e-07
1.09366e-06
1.03289e-06
1.4607e-06
1.02663e-06
1.68482e-06
9.30061e-07
1.7431e-06
7.68004e-07
1.72407e-06
6.04703e-07
1.71383e-06
4.71001e-07
1.73174e-06
3.59792e-07
1.75907e-06
2.65281e-07
1.79213e-06
1.86067e-07
1.82901e-06
1.21282e-07
1.86863e-06
6.40122e-08
1.91056e-06
1.75019e-08
2.62503e-08
1.05187e-06
1.05598e-07
1.02881e-06
2.26782e-07
1.00831e-06
3.98115e-07
9.96362e-07
6.60552e-07
1.01254e-06
1.03489e-06
1.05135e-06
1.42675e-06
1.0668e-06
1.70856e-06
1.00288e-06
1.81507e-06
8.58008e-07
1.80327e-06
6.88816e-07
1.77615e-06
5.42386e-07
1.77617e-06
4.26444e-07
1.79416e-06
3.24718e-07
1.81868e-06
2.38727e-07
1.84804e-06
1.67037e-07
1.8814e-06
1.08526e-07
1.91811e-06
5.64469e-08
1.95505e-06
1.53736e-08
2.45417e-08
1.07893e-06
9.77758e-08
1.05964e-06
2.16134e-07
1.03948e-06
3.80786e-07
1.02559e-06
6.24353e-07
1.03247e-06
9.80554e-07
1.06671e-06
1.38347e-06
1.09452e-06
1.71408e-06
1.06125e-06
1.87666e-06
9.41308e-07
1.88756e-06
7.73776e-07
1.84964e-06
6.15327e-07
1.82896e-06
4.89725e-07
1.83556e-06
3.85022e-07
1.8508e-06
2.92596e-07
1.87318e-06
2.13594e-07
1.89955e-06
1.48891e-07
1.93008e-06
9.65445e-08
1.9618e-06
4.96787e-08
1.99597e-06
1.31682e-08
2.28353e-08
1.10312e-06
9.06911e-08
1.08604e-06
2.0763e-07
1.06815e-06
3.66956e-07
1.05327e-06
5.96671e-07
1.05321e-06
9.31854e-07
1.08113e-06
1.3358e-06
1.11446e-06
1.70369e-06
1.10494e-06
1.92453e-06
1.01339e-06
1.97227e-06
8.56565e-07
1.9322e-06
6.91217e-07
1.89172e-06
5.52557e-07
1.88322e-06
4.42069e-07
1.88905e-06
3.46757e-07
1.90391e-06
2.61857e-07
1.92287e-06
1.90288e-07
1.94729e-06
1.31681e-07
1.97377e-06
8.45952e-08
2.00268e-06
4.29404e-08
2.03229e-06
1.11267e-08
2.11283e-08
1.12337e-06
8.46177e-08
1.10915e-06
1.99073e-07
1.09452e-06
3.53752e-07
1.08132e-06
5.72512e-07
1.07733e-06
8.89731e-07
1.09531e-06
1.28862e-06
1.12826e-06
1.68207e-06
1.13605e-06
1.9567e-06
1.07275e-06
2.05178e-06
9.33742e-07
2.02213e-06
7.66625e-07
1.96586e-06
6.17057e-07
1.93809e-06
4.97681e-07
1.93424e-06
3.96868e-07
1.94008e-06
3.10581e-07
1.95224e-06
2.32498e-07
1.96955e-06
1.68011e-07
1.99056e-06
1.149e-07
2.01387e-06
7.34166e-08
2.03899e-06
3.62338e-08
2.06438e-06
9.08932e-09
1.94619e-08
1.13873e-06
7.9159e-08
1.12879e-06
1.89359e-07
1.11881e-06
3.39052e-07
1.10916e-06
5.54264e-07
1.09945e-06
8.57481e-07
1.10951e-06
1.24553e-06
1.13838e-06
1.65396e-06
1.15636e-06
1.97404e-06
1.11872e-06
2.12198e-06
1.00261e-06
2.11566e-06
8.40195e-07
2.04996e-06
6.82513e-07
2.0025e-06
5.52679e-07
1.98575e-06
4.46192e-07
1.98203e-06
3.54934e-07
1.9868e-06
2.75986e-07
1.99669e-06
2.05378e-07
2.01212e-06
1.46446e-07
2.03005e-06
9.87378e-08
2.04992e-06
6.24978e-08
2.07041e-06
3.01982e-08
2.09258e-06
7.31486e-09
1.82675e-08
1.14958e-06
7.36894e-08
1.14412e-06
1.7834e-07
1.13976e-06
3.2725e-07
1.13054e-06
5.44269e-07
1.11893e-06
8.32304e-07
1.12456e-06
1.20818e-06
1.14668e-06
1.62318e-06
1.16906e-06
1.97916e-06
1.15115e-06
2.17987e-06
1.06085e-06
2.20845e-06
9.09795e-07
2.14254e-06
7.47512e-07
2.07627e-06
6.08754e-07
2.04266e-06
4.95769e-07
2.02943e-06
3.98778e-07
2.02642e-06
3.15315e-07
2.02939e-06
2.43285e-07
2.03843e-06
1.7906e-07
2.05063e-06
1.25863e-07
2.06529e-06
8.33674e-08
2.08105e-06
5.18496e-08
2.09921e-06
2.35794e-08
2.11749e-06
5.26606e-09
1.70577e-08
1.15634e-06
6.99293e-08
1.15328e-06
1.68292e-07
1.15418e-06
3.2047e-07
1.14647e-06
5.36807e-07
1.13789e-06
8.13846e-07
1.13743e-06
1.17948e-06
1.15326e-06
1.59429e-06
1.17558e-06
1.97499e-06
1.17321e-06
2.22478e-06
1.10621e-06
2.29646e-06
9.72855e-07
2.24101e-06
8.11447e-07
2.15893e-06
6.64796e-07
2.10757e-06
5.43821e-07
2.08321e-06
4.41992e-07
2.07163e-06
3.53564e-07
2.06759e-06
2.77112e-07
2.06908e-06
2.12618e-07
2.07564e-06
1.54056e-07
2.0853e-06
1.05786e-07
2.09674e-06
6.76714e-08
2.11e-06
4.10654e-08
2.12419e-06
1.68729e-08
2.13843e-06
4.16698e-09
1.58487e-08
1.15825e-06
6.71705e-08
1.1592e-06
1.57031e-07
1.16447e-06
3.14317e-07
1.16024e-06
5.3141e-07
1.15175e-06
8.0528e-07
1.14636e-06
1.15879e-06
1.15798e-06
1.56944e-06
1.17794e-06
1.96552e-06
1.18498e-06
2.25801e-06
1.13995e-06
2.3765e-06
1.02615e-06
2.34213e-06
8.71708e-07
2.25123e-06
7.19156e-07
2.18143e-06
5.90936e-07
2.14288e-06
4.84155e-07
2.12158e-06
3.92051e-07
2.10959e-06
3.11556e-07
2.10455e-06
2.4164e-07
2.105e-06
1.83263e-07
2.10931e-06
1.30118e-07
2.11659e-06
8.59412e-08
2.12504e-06
5.26173e-08
2.13535e-06
2.98989e-08
2.14554e-06
9.7634e-09
2.16391e-06
1.55952e-09
1.44249e-08
1.15588e-06
6.1907e-08
1.16352e-06
1.47252e-07
1.16898e-06
3.09838e-07
1.16884e-06
5.31559e-07
1.15997e-06
8.04402e-07
1.1525e-06
1.14515e-06
1.15985e-06
1.54979e-06
1.17751e-06
1.95471e-06
1.18868e-06
2.28116e-06
1.1618e-06
2.44693e-06
1.06949e-06
2.44276e-06
9.25558e-07
2.3514e-06
7.71525e-07
2.26327e-06
6.37158e-07
2.20893e-06
5.2484e-07
2.17653e-06
4.29175e-07
2.15678e-06
3.44839e-07
2.14513e-06
2.70959e-07
2.13896e-06
2.07698e-07
2.13798e-06
1.54567e-07
2.14098e-06
1.05722e-07
2.1447e-06
6.62784e-08
2.15095e-06
3.7015e-08
2.15696e-06
1.84708e-08
2.16978e-06
3.89589e-09
2.17674e-06
-6.82051e-10
1.30344e-08
1.14788e-06
5.83997e-08
1.15927e-06
1.43724e-07
1.16709e-06
3.073e-07
1.1712e-06
5.35889e-07
1.16437e-06
8.09347e-07
1.15488e-06
1.14004e-06
1.15746e-06
1.53675e-06
1.17277e-06
1.94566e-06
1.18647e-06
2.29747e-06
1.1723e-06
2.50723e-06
1.10143e-06
2.53993e-06
9.72265e-07
2.45619e-06
8.20762e-07
2.35381e-06
6.81125e-07
2.28223e-06
5.63852e-07
2.23749e-06
4.63914e-07
2.20924e-06
3.76737e-07
2.18999e-06
2.99977e-07
2.17758e-06
2.32315e-07
2.17114e-06
1.74528e-07
2.16923e-06
1.26319e-07
2.16828e-06
8.21412e-08
2.17059e-06
4.66109e-08
2.1727e-06
2.12761e-08
2.18078e-06
7.46729e-09
2.18363e-06
-3.0007e-09
2.18433e-06
-3.10919e-09
1.194e-08
1.13298e-06
5.61375e-08
1.15007e-06
1.41714e-07
1.16128e-06
3.06137e-07
1.16797e-06
5.4383e-07
1.16303e-06
8.20214e-07
1.15335e-06
1.14284e-06
1.15193e-06
1.53003e-06
1.16405e-06
1.93963e-06
1.17871e-06
2.30969e-06
1.1742e-06
2.55748e-06
1.12202e-06
2.63066e-06
1.01066e-06
2.56346e-06
8.64986e-07
2.45148e-06
7.23098e-07
2.36245e-06
6.0095e-07
2.30414e-06
4.97082e-07
2.26558e-06
4.07539e-07
2.23889e-06
3.27829e-07
2.22009e-06
2.5744e-07
2.20766e-06
1.95798e-07
2.20125e-06
1.42463e-07
2.19594e-06
9.86741e-08
2.19434e-06
5.84186e-08
2.19286e-06
2.64407e-08
2.19645e-06
5.57521e-09
2.19574e-06
-4.65988e-09
2.19254e-06
-1.12103e-08
2.18848e-06
-5.75325e-09
1.18334e-08
1.11113e-06
5.40719e-08
1.13492e-06
1.42052e-07
1.1496e-06
3.09938e-07
1.15734e-06
5.57365e-07
1.15424e-06
8.38129e-07
1.14506e-06
1.15244e-06
1.14359e-06
1.5298e-06
1.15202e-06
1.93768e-06
1.16589e-06
2.31928e-06
1.16905e-06
2.59944e-06
1.1322e-06
2.71369e-06
1.03898e-06
2.67045e-06
9.03654e-07
2.55507e-06
7.6145e-07
2.44973e-06
6.35773e-07
2.37642e-06
5.28731e-07
2.32637e-06
4.36292e-07
2.29223e-06
3.54122e-07
2.26676e-06
2.81138e-07
2.24853e-06
2.16548e-07
2.23705e-06
1.60015e-07
2.22782e-06
1.10568e-07
2.22228e-06
7.07365e-08
2.21732e-06
3.39664e-08
2.21663e-06
6.27954e-09
2.2134e-06
-1.20667e-08
2.20628e-06
-1.84058e-08
2.19752e-06
-2.02586e-08
2.1881e-06
-8.85171e-09
1.21349e-08
1.08246e-06
5.43574e-08
1.11078e-06
1.49748e-07
1.12721e-06
3.24353e-07
1.13496e-06
5.78937e-07
1.13551e-06
8.62069e-07
1.13014e-06
1.16808e-06
1.12926e-06
1.53718e-06
1.13605e-06
1.94013e-06
1.14944e-06
2.32845e-06
1.15664e-06
2.63522e-06
1.13321e-06
2.78831e-06
1.05754e-06
2.77447e-06
9.34962e-07
2.66287e-06
7.95817e-07
2.54345e-06
6.67703e-07
2.45451e-06
5.5767e-07
2.39254e-06
4.62509e-07
2.34992e-06
3.78646e-07
2.31693e-06
3.03946e-07
2.29276e-06
2.36895e-07
2.27549e-06
1.78098e-07
2.26284e-06
1.25002e-07
2.25373e-06
7.91118e-08
2.24535e-06
4.2698e-08
2.24099e-06
9.57893e-09
2.23543e-06
-1.57859e-08
2.22515e-06
-3.09398e-08
2.21281e-06
-3.36878e-08
2.19839e-06
-3.05545e-08
2.18224e-06
-1.2449e-08
1.28805e-08
1.04701e-06
5.72973e-08
1.07929e-06
1.62632e-07
1.09776e-06
3.4857e-07
1.10266e-06
6.07046e-07
1.10668e-06
8.91992e-07
1.10538e-06
1.19171e-06
1.10628e-06
1.55242e-06
1.11389e-06
1.94785e-06
1.12821e-06
2.33893e-06
1.13886e-06
2.66532e-06
1.12647e-06
2.85444e-06
1.06704e-06
2.87347e-06
9.58451e-07
2.77255e-06
8.25233e-07
2.64271e-06
6.96555e-07
2.53817e-06
5.84037e-07
2.46336e-06
4.86861e-07
2.41072e-06
4.01706e-07
2.3706e-06
3.24922e-07
2.34041e-06
2.56305e-07
2.31767e-06
1.94715e-07
2.30132e-06
1.39582e-07
2.28838e-06
9.03381e-08
2.27725e-06
4.71945e-08
2.26912e-06
1.45873e-08
2.26189e-06
-1.68546e-08
2.2491e-06
-3.97377e-08
2.23332e-06
-5.1453e-08
2.21544e-06
-5.07257e-08
2.19415e-06
-4.2467e-08
2.16969e-06
-1.59554e-08
1.4608e-08
1.00457e-06
6.41039e-08
1.0401e-06
1.81119e-07
1.06074e-06
3.82628e-07
1.06356e-06
6.41251e-07
1.06824e-06
9.26861e-07
1.0716e-06
1.22298e-06
1.07388e-06
1.5741e-06
1.08446e-06
1.9621e-06
1.09948e-06
2.35221e-06
1.11481e-06
2.69234e-06
1.11178e-06
2.91311e-06
1.06774e-06
2.96601e-06
9.74507e-07
2.88149e-06
8.49509e-07
2.74569e-06
7.22232e-07
2.62676e-06
6.07932e-07
2.53857e-06
5.08875e-07
2.47588e-06
4.21703e-07
2.42819e-06
3.44111e-07
2.39155e-06
2.73777e-07
2.36324e-06
2.10721e-07
2.34235e-06
1.53674e-07
2.32575e-06
1.02205e-07
2.31202e-06
5.55703e-08
2.3005e-06
1.58151e-08
2.29254e-06
-1.60706e-08
2.27733e-06
-4.50813e-08
2.25912e-06
-6.55389e-08
2.2379e-06
-7.39159e-08
2.21429e-06
-7.08677e-08
2.18327e-06
-5.60608e-08
2.15073e-06
-1.96783e-08
1.75469e-08
9.55817e-07
7.37275e-08
9.94826e-07
2.07134e-07
1.01391e-06
4.26306e-07
1.01688e-06
6.81369e-07
1.02316e-06
9.65504e-07
1.02937e-06
1.25939e-06
1.03497e-06
1.59941e-06
1.04841e-06
1.98029e-06
1.06611e-06
2.36816e-06
1.08339e-06
2.719e-06
1.08807e-06
2.9655e-06
1.05932e-06
3.05143e-06
9.8227e-07
2.98854e-06
8.67415e-07
2.85202e-06
7.43161e-07
2.7203e-06
6.28704e-07
2.61905e-06
5.27437e-07
2.54542e-06
4.39311e-07
2.48929e-06
3.60643e-07
2.44608e-06
2.89529e-07
2.41186e-06
2.2513e-07
2.3861e-06
1.66934e-07
2.36584e-06
1.13565e-07
2.3493e-06
6.49164e-08
2.33414e-06
2.19147e-08
2.32672e-06
-1.83759e-08
2.30985e-06
-4.85975e-08
2.29028e-06
-7.62759e-08
2.26652e-06
-9.41683e-08
2.23858e-06
-9.8202e-08
2.20547e-06
-9.30707e-08
2.16756e-06
-7.28933e-08
2.12318e-06
-6.0878e-09
-1.82007e-08
2.09792e-08
9.0382e-07
8.51394e-08
9.44349e-07
2.41408e-07
9.60376e-07
4.73732e-07
9.66276e-07
7.24984e-07
9.73061e-07
1.00718e-06
9.81283e-07
1.29874e-06
9.89825e-07
1.62848e-06
1.0057e-06
2.00181e-06
1.02673e-06
2.3863e-06
1.04783e-06
2.74364e-06
1.05863e-06
3.01246e-06
1.04107e-06
3.13138e-06
9.79256e-07
3.09286e-06
8.77915e-07
2.96022e-06
7.59179e-07
2.81815e-06
6.45303e-07
2.70411e-06
5.43541e-07
2.61811e-06
4.54703e-07
2.5533e-06
3.7525e-07
2.50321e-06
3.03494e-07
2.46317e-06
2.38193e-07
2.43253e-06
1.78707e-07
2.40856e-06
1.24192e-07
2.38905e-06
7.38313e-08
2.37192e-06
2.71504e-08
2.36363e-06
-1.49985e-08
2.34584e-06
-5.43521e-08
2.32552e-06
-8.38159e-08
2.30053e-06
-1.10303e-07
2.27022e-06
-1.25828e-07
2.23378e-06
-1.2652e-07
2.18997e-06
-5.32293e-08
-6.22541e-08
1.07007e-06
-3.825e-08
1.06766e-06
-4.91936e-08
1.04444e-06
-5.17002e-09
1.04807e-06
-2.18302e-08
2.62493e-08
8.46345e-07
1.02962e-07
8.85794e-07
2.84403e-07
9.01188e-07
5.23675e-07
9.10242e-07
7.73815e-07
9.17291e-07
1.0515e-06
9.28544e-07
1.33894e-06
9.40791e-07
1.65936e-06
9.58794e-07
2.02455e-06
9.82825e-07
2.40629e-06
1.00659e-06
2.76821e-06
1.02313e-06
3.05461e-06
1.0164e-06
3.20316e-06
9.69313e-07
3.19168e-06
8.80409e-07
3.06955e-06
7.6853e-07
2.92044e-06
6.56727e-07
2.79297e-06
5.56381e-07
2.6948e-06
4.66809e-07
2.62124e-06
3.86701e-07
2.56347e-06
3.14961e-07
2.51696e-06
2.49683e-07
2.48117e-06
1.89491e-07
2.45333e-06
1.33895e-07
2.43075e-06
8.24446e-08
2.4116e-06
3.41414e-08
2.40056e-06
-9.79627e-09
2.38422e-06
-5.34012e-08
2.36409e-06
-9.29301e-08
2.33921e-06
-1.22495e-07
2.30808e-06
-1.48158e-07
2.26993e-06
-1.61975e-07
2.22246e-06
-7.42208e-08
-8.47906e-08
1.07685e-06
-6.00041e-08
1.08545e-06
-7.0859e-08
1.0499e-06
-4.00885e-08
1.07337e-06
-6.57142e-08
1.05695e-06
-5.6232e-08
1.03501e-06
-5.73754e-09
1.03704e-06
-2.38603e-08
3.30092e-08
7.84474e-07
1.27874e-07
8.2128e-07
3.32523e-07
8.37393e-07
5.76153e-07
8.48532e-07
8.26344e-07
8.57545e-07
1.0964e-06
8.72205e-07
1.37848e-06
8.88815e-07
1.69044e-06
9.09588e-07
2.04706e-06
9.36136e-07
2.42569e-06
9.63291e-07
2.79053e-06
9.84152e-07
3.09271e-06
9.8492e-07
3.26928e-06
9.50213e-07
3.28519e-06
8.75773e-07
3.17711e-06
7.72758e-07
3.02386e-06
6.65152e-07
2.88482e-06
5.64898e-07
2.77617e-06
4.74893e-07
2.69292e-06
3.95157e-07
2.62705e-06
3.23093e-07
2.57402e-06
2.57875e-07
2.53261e-06
1.98278e-07
2.50023e-06
1.42619e-07
2.47384e-06
9.07953e-08
2.45244e-06
4.15219e-08
2.43902e-06
-4.33017e-09
2.42465e-06
-5.0246e-08
2.40539e-06
-9.47147e-08
2.38177e-06
-1.35496e-07
2.35143e-06
-1.65849e-07
2.31246e-06
-1.90696e-07
2.26398e-06
-9.79924e-08
-1.05504e-07
1.09284e-06
-8.16139e-08
1.10391e-06
-9.58587e-08
1.08085e-06
-7.83379e-08
1.04067e-06
-4.3711e-08
1.06383e-06
-7.26015e-08
1.04695e-06
-6.25189e-08
1.02283e-06
-6.24273e-09
1.02527e-06
-2.62935e-08
4.01225e-08
7.21014e-07
1.57563e-07
7.54634e-07
3.82686e-07
7.7093e-07
6.30925e-07
7.82626e-07
8.78712e-07
7.96e-07
1.14021e-06
8.1354e-07
1.41623e-06
8.34304e-07
1.72115e-06
8.57981e-07
2.06925e-06
8.87283e-07
2.44428e-06
9.17388e-07
2.81035e-06
9.43389e-07
3.12493e-06
9.51846e-07
3.32664e-06
9.27504e-07
3.37247e-06
8.6294e-07
3.28351e-06
7.69412e-07
3.12929e-06
6.6731e-07
2.98023e-06
5.69709e-07
2.85949e-06
4.81685e-07
2.76649e-06
4.01308e-07
2.69341e-06
3.28756e-07
2.63402e-06
2.63071e-07
2.58664e-06
2.03825e-07
2.5496e-06
1.48883e-07
2.51868e-06
9.77677e-08
2.49495e-06
4.8313e-08
2.4786e-06
1.93049e-09
2.46642e-06
-4.61172e-08
2.44834e-06
-9.32012e-08
2.42701e-06
-1.39959e-07
2.39903e-06
-1.83106e-07
2.36126e-06
-2.14649e-07
2.31196e-06
-1.16126e-07
-1.2255e-07
1.11378e-06
-1.07861e-07
1.12657e-06
-1.18298e-07
1.08966e-06
-9.04264e-08
1.09985e-06
-1.06049e-07
1.07274e-06
-8.72443e-08
1.02967e-06
-4.81028e-08
1.05475e-06
-8.03992e-08
1.03633e-06
-6.91903e-08
1.00981e-06
-6.2049e-09
1.01255e-06
-2.90386e-08
4.93219e-08
6.54792e-07
1.93583e-07
6.84925e-07
4.35048e-07
7.02218e-07
6.85476e-07
7.16236e-07
9.27318e-07
7.33867e-07
1.1828e-06
7.53281e-07
1.45252e-06
7.77057e-07
1.75098e-06
8.04333e-07
2.09034e-06
8.36761e-07
2.46185e-06
8.69578e-07
2.8286e-06
8.99054e-07
3.15269e-06
9.15534e-07
3.37601e-06
9.02376e-07
3.45031e-06
8.49484e-07
3.38239e-06
7.6404e-07
3.2344e-06
6.64305e-07
3.07944e-06
5.68092e-07
2.9468e-06
4.82354e-07
2.84439e-06
4.0376e-07
2.76176e-06
3.32965e-07
2.69588e-06
2.66884e-07
2.64265e-06
2.06978e-07
2.60063e-06
1.52777e-07
2.5657e-06
1.01836e-07
2.53889e-06
5.38118e-08
2.5189e-06
7.99947e-09
2.50882e-06
-4.04823e-08
2.49241e-06
-9.01988e-08
2.47352e-06
-1.39725e-07
2.44951e-06
-1.90443e-07
2.41477e-06
-2.36629e-07
2.36625e-06
-1.30972e-07
-1.37969e-07
1.13869e-06
-1.28239e-07
1.15315e-06
-1.37017e-07
1.11114e-06
-1.19152e-07
1.12386e-06
-1.31021e-07
1.08319e-06
-1.0088e-07
1.09406e-06
-1.16915e-07
1.06491e-06
-9.7399e-08
1.01757e-06
-5.31141e-08
1.04487e-06
-8.89426e-08
1.02475e-06
-7.63689e-08
9.96195e-07
-6.42547e-09
9.99047e-07
-3.18891e-08
6.00194e-08
5.89403e-07
2.32253e-07
6.16046e-07
4.85473e-07
6.3436e-07
7.35449e-07
6.52006e-07
9.72372e-07
6.71124e-07
1.22357e-06
6.92973e-07
1.48596e-06
7.19729e-07
1.77781e-06
7.50151e-07
2.10936e-06
7.85192e-07
2.47777e-06
8.20744e-07
2.84497e-06
8.53013e-07
3.17694e-06
8.74716e-07
3.41988e-06
8.71601e-07
3.521e-06
8.3164e-07
3.47491e-06
7.56935e-07
3.33545e-06
6.62842e-07
3.1764e-06
5.67329e-07
3.03659e-06
4.78319e-07
2.92694e-06
3.99724e-07
2.83456e-06
3.30972e-07
2.7617e-06
2.67135e-07
2.70084e-06
2.08733e-07
2.65305e-06
1.54522e-07
2.61395e-06
1.04508e-07
2.58403e-06
5.6677e-08
2.56143e-06
1.12668e-08
2.55183e-06
-3.50248e-08
2.53661e-06
-8.4697e-08
2.52117e-06
-1.3786e-07
2.50093e-06
-1.91156e-07
2.47295e-06
-2.48626e-07
2.42783e-06
-1.46387e-07
-1.5183e-07
1.16722e-06
-1.45038e-07
1.18331e-06
-1.54069e-07
1.13731e-06
-1.41692e-07
1.15214e-06
-1.51839e-07
1.10655e-06
-1.31647e-07
1.1203e-06
-1.44771e-07
1.07681e-06
-1.1278e-07
1.08811e-06
-1.28217e-07
1.05551e-06
-1.08041e-07
1.00421e-06
-5.82799e-08
1.03432e-06
-9.85139e-08
1.01226e-06
-8.44126e-08
9.79675e-07
-6.85287e-09
9.82803e-07
-3.50168e-08
6.94939e-08
5.285e-07
2.70394e-07
5.51194e-07
5.29867e-07
5.71583e-07
7.79382e-07
5.90331e-07
1.01471e-06
6.09537e-07
1.25998e-06
6.34595e-07
1.51582e-06
6.63042e-07
1.80139e-06
6.96071e-07
2.12615e-06
7.33281e-07
2.49141e-06
7.7145e-07
2.85911e-06
8.06568e-07
3.19755e-06
8.32321e-07
3.45782e-06
8.36713e-07
3.58508e-06
8.07502e-07
3.563e-06
7.4351e-07
3.43455e-06
6.57925e-07
3.27271e-06
5.6636e-07
3.12515e-06
4.78739e-07
3.0069e-06
3.98365e-07
2.90984e-06
3.24407e-07
2.83276e-06
2.59791e-07
2.76341e-06
2.04568e-07
2.70794e-06
1.53826e-07
2.66205e-06
1.06398e-07
2.62894e-06
5.95852e-08
2.60426e-06
1.38292e-08
2.59373e-06
-3.06481e-08
2.58055e-06
-7.89845e-08
2.56936e-06
-1.329e-07
2.55333e-06
-1.90275e-07
2.53021e-06
-2.48424e-07
2.49283e-06
-1.56238e-07
-1.57398e-07
1.19936e-06
-1.62433e-07
1.21712e-06
-1.69589e-07
1.16777e-06
-1.60672e-07
1.1846e-06
-1.70899e-07
1.13525e-06
-1.56638e-07
1.15102e-06
-1.67611e-07
1.10158e-06
-1.45122e-07
1.11662e-06
-1.5981e-07
1.06804e-06
-1.2531e-07
1.08141e-06
-1.41584e-07
1.04587e-06
-1.19592e-07
9.88944e-07
-6.44205e-08
1.02279e-06
-1.09048e-07
9.97986e-07
-9.3455e-08
9.61361e-07
-8.04048e-09
9.64932e-07
-3.85875e-08
7.84081e-08
4.71274e-07
3.07349e-07
4.91473e-07
5.68447e-07
5.12539e-07
8.1932e-07
5.31601e-07
1.05332e-06
5.51673e-07
1.2915e-06
5.78022e-07
1.54245e-06
6.07931e-07
1.82148e-06
6.4293e-07
2.14005e-06
6.82118e-07
2.50206e-06
7.22565e-07
2.87067e-06
7.59824e-07
3.21469e-06
7.89326e-07
3.49014e-06
7.99878e-07
3.64208e-06
7.79633e-07
3.64482e-06
7.25625e-07
3.53109e-06
6.46919e-07
3.37006e-06
5.6064e-07
3.21489e-06
4.76486e-07
3.08768e-06
3.97862e-07
2.98405e-06
3.24135e-07
2.90029e-06
2.56987e-07
2.82733e-06
1.95796e-07
2.76872e-06
1.43763e-07
2.71355e-06
1.02311e-07
2.67378e-06
6.15356e-08
2.6455e-06
1.83324e-08
2.63176e-06
-2.42178e-08
2.62246e-06
-7.25673e-08
2.61537e-06
-1.25012e-07
2.60783e-06
-1.87411e-07
2.59181e-06
-2.51892e-07
2.5631e-06
-1.58866e-07
-1.59833e-07
1.23434e-06
-1.73467e-07
1.25247e-06
-1.75528e-07
1.20204e-06
-1.79874e-07
1.22043e-06
-1.87984e-07
1.16813e-06
-1.77783e-07
1.18598e-06
-1.88754e-07
1.1328e-06
-1.72812e-07
1.15015e-06
-1.84964e-07
1.09653e-06
-1.60238e-07
1.11293e-06
-1.76209e-07
1.05937e-06
-1.3881e-07
1.07458e-06
-1.56791e-07
1.03554e-06
-1.32337e-07
9.71401e-07
-7.08893e-08
1.00967e-06
-1.20727e-07
9.81597e-07
-1.0365e-07
9.39658e-07
-9.37394e-09
9.44297e-07
-4.32263e-08
8.65443e-08
4.20521e-07
3.39435e-07
4.39135e-07
6.01928e-07
4.58002e-07
8.54507e-07
4.77367e-07
1.08718e-06
4.97716e-07
1.31933e-06
5.23881e-07
1.5654e-06
5.5508e-07
1.83805e-06
5.91356e-07
2.15079e-06
6.3216e-07
2.50949e-06
6.74639e-07
2.87939e-06
7.13779e-07
3.22814e-06
7.46311e-07
3.51719e-06
7.62242e-07
3.69219e-06
7.4972e-07
3.72027e-06
7.04116e-07
3.62347e-06
6.33187e-07
3.46607e-06
5.50871e-07
3.30638e-06
4.69201e-07
3.17131e-06
3.92805e-07
3.0604e-06
3.21553e-07
2.96864e-06
2.55678e-07
2.89017e-06
1.94112e-07
2.82511e-06
1.39383e-07
2.76865e-06
8.86446e-08
2.72265e-06
5.34237e-08
2.68883e-06
1.81805e-08
2.6664e-06
-1.63251e-08
2.66116e-06
-6.29381e-08
2.65549e-06
-1.12705e-07
2.657e-06
-1.74195e-07
2.64838e-06
-2.43992e-07
2.63794e-06
-1.62842e-07
-1.639e-07
1.2712e-06
-1.77595e-07
1.29176e-06
-1.80393e-07
1.23892e-06
-1.91961e-07
1.25842e-06
-1.95022e-07
1.20486e-06
-1.98748e-07
1.22439e-06
-2.07517e-07
1.16853e-06
-1.96161e-07
1.1876e-06
-2.07825e-07
1.13046e-06
-1.90345e-07
1.14934e-06
-2.0385e-07
1.09134e-06
-1.76998e-07
1.10918e-06
-1.94053e-07
1.05044e-06
-1.53713e-07
1.06742e-06
-1.73773e-07
1.02387e-06
-1.46538e-07
9.52244e-07
-7.88353e-08
9.94374e-07
-1.33504e-07
9.62868e-07
-1.14275e-07
9.16113e-07
-1.0384e-08
9.2134e-07
-4.8453e-08
9.29172e-08
3.78951e-07
3.65416e-07
3.94502e-07
6.30782e-07
4.10263e-07
8.84021e-07
4.28479e-07
1.11624e-06
4.48338e-07
1.34375e-06
4.73338e-07
1.58472e-06
5.04625e-07
1.85184e-06
5.4132e-07
2.15857e-06
5.83595e-07
2.5138e-06
6.27825e-07
2.88531e-06
6.68647e-07
3.23844e-06
7.03416e-07
3.53932e-06
7.24063e-07
3.73555e-06
7.1877e-07
3.78929e-06
6.80668e-07
3.71062e-06
6.16955e-07
3.56025e-06
5.38947e-07
3.39796e-06
4.59253e-07
3.25628e-06
3.84247e-07
3.13945e-06
3.13662e-07
3.04116e-06
2.49019e-07
2.95632e-06
1.895e-07
2.88335e-06
1.35853e-07
2.82207e-06
8.59326e-08
2.77132e-06
3.99568e-08
2.73685e-06
5.39473e-09
2.70403e-06
-1.9461e-08
2.69693e-06
-5.21095e-08
2.69333e-06
-1.00794e-07
2.69767e-06
-1.53394e-07
2.69929e-06
-2.25118e-07
2.69629e-06
-1.62945e-07
-1.39406e-07
1.31269e-06
-1.83778e-07
1.33807e-06
-1.89281e-07
1.27868e-06
-1.97856e-07
1.30046e-06
-2.02184e-07
1.24461e-06
-2.12184e-07
1.26562e-06
-2.16027e-07
1.20787e-06
-2.19027e-07
1.22906e-06
-2.28707e-07
1.16907e-06
-2.15885e-07
1.19023e-06
-2.28984e-07
1.12845e-06
-2.09613e-07
1.14876e-06
-2.24167e-07
1.08577e-06
-1.95353e-07
1.10547e-06
-2.13746e-07
1.04031e-06
-1.70161e-07
1.0593e-06
-1.92756e-07
1.01037e-06
-1.62532e-07
9.29909e-07
-8.74043e-08
9.77414e-07
-1.48049e-07
9.42233e-07
-1.26598e-07
8.88713e-07
-1.20058e-08
8.94748e-07
-5.44886e-08
9.90168e-08
3.46048e-07
3.85622e-07
3.58685e-07
6.55014e-07
3.70331e-07
9.08832e-07
3.85525e-07
1.14093e-06
4.0385e-07
1.36528e-06
4.26896e-07
1.60096e-06
4.57186e-07
1.86239e-06
4.9414e-07
2.16316e-06
5.36765e-07
2.51511e-06
5.82313e-07
2.88815e-06
6.2496e-07
3.2456e-06
6.61439e-07
3.557e-06
6.85732e-07
3.77301e-06
6.86595e-07
3.85149e-06
6.56512e-07
3.79291e-06
5.98285e-07
3.65197e-06
5.25208e-07
3.4887e-06
4.48101e-07
3.34156e-06
3.73941e-07
3.21926e-06
3.04351e-07
3.11545e-06
2.39326e-07
3.02585e-06
1.79464e-07
2.9469e-06
1.25922e-07
2.87891e-06
7.89967e-08
2.8208e-06
3.64332e-08
2.7786e-06
-1.81143e-09
2.74467e-06
-3.52611e-08
2.73129e-06
-5.3837e-08
2.72723e-06
-8.60235e-08
2.73859e-06
-1.41733e-07
2.77234e-06
-2.26458e-07
2.82162e-06
-3.50454e-07
1.36097e-06
-1.8585e-07
1.41451e-06
-1.92945e-07
1.32432e-06
-2.07635e-07
1.35754e-06
-2.22493e-07
1.2879e-06
-2.20137e-07
1.31382e-06
-2.28108e-07
1.25167e-06
-2.34795e-07
1.27636e-06
-2.40714e-07
1.21231e-06
-2.4111e-07
1.23596e-06
-2.52354e-07
1.17061e-06
-2.37735e-07
1.19428e-06
-2.52653e-07
1.12663e-06
-2.30776e-07
1.14947e-06
-2.47005e-07
1.0795e-06
-2.15551e-07
1.10117e-06
-2.35422e-07
1.02865e-06
-1.88441e-07
1.05002e-06
-2.14131e-07
9.95121e-07
-1.80239e-07
9.05132e-07
-9.77882e-08
9.58637e-07
-1.64453e-07
9.19227e-07
-1.40692e-07
8.59891e-07
-1.50154e-08
8.65908e-07
-6.05049e-08
1.03643e-07
3.2517e-07
3.9851e-07
3.33159e-07
6.75866e-07
3.37868e-07
9.2973e-07
3.49485e-07
1.16185e-06
3.64684e-07
1.38405e-06
3.85191e-07
1.61454e-06
4.1343e-07
1.87008e-06
4.49586e-07
2.16536e-06
4.92019e-07
2.51363e-06
5.38263e-07
2.88786e-06
5.8261e-07
3.2498e-06
6.20734e-07
3.57054e-06
6.47852e-07
3.80464e-06
6.54067e-07
3.90728e-06
6.30738e-07
3.87051e-06
5.78911e-07
3.73968e-06
5.10449e-07
3.57815e-06
4.35754e-07
3.42665e-06
3.63003e-07
3.29891e-06
2.94253e-07
3.19143e-06
2.28365e-07
3.09821e-06
1.66939e-07
3.01438e-06
1.11952e-07
2.94039e-06
6.44146e-08
2.875e-06
2.47736e-08
2.82232e-06
-7.30102e-09
2.78304e-06
-4.01967e-08
2.76207e-06
-6.60566e-08
2.773e-06
-9.96207e-08
2.7982e-06
-1.45645e-07
2.89594e-06
-2.65355e-07
3.07953e-06
-4.84353e-07
-1.48632e-06
3.35868e-06
-3.29963e-07
-4.78211e-07
1.40605e-06
-2.34355e-07
-2.73188e-07
1.35244e-06
-2.46241e-07
1.41794e-06
-2.8797e-07
1.30913e-06
-2.52899e-07
1.36674e-06
-2.857e-07
1.26479e-06
-2.6362e-07
1.31395e-06
-2.89862e-07
1.2209e-06
-2.67722e-07
1.25876e-06
-2.90207e-07
1.1738e-06
-2.62073e-07
1.20398e-06
-2.82827e-07
1.12522e-06
-2.54822e-07
1.15132e-06
-2.73109e-07
1.07238e-06
-2.37905e-07
1.09762e-06
-2.60663e-07
1.01593e-06
-2.09254e-07
1.04004e-06
-2.38233e-07
9.78853e-07
-2.00455e-07
8.77912e-07
-1.09792e-07
9.37953e-07
-1.83179e-07
8.93903e-07
-1.56683e-07
8.25202e-07
-1.74294e-08
8.3245e-07
-6.77529e-08
1.06658e-07
3.15213e-07
4.07523e-07
3.16155e-07
6.95504e-07
3.13586e-07
9.46998e-07
3.20722e-07
1.18046e-06
3.30957e-07
1.40057e-06
3.48294e-07
1.62634e-06
3.73534e-07
1.87561e-06
4.0805e-07
2.16558e-06
4.49479e-07
2.50943e-06
4.96296e-07
2.88451e-06
5.41641e-07
3.25108e-06
5.8132e-07
3.58037e-06
6.10867e-07
3.83084e-06
6.21584e-07
3.95719e-06
6.04112e-07
3.94253e-06
5.58643e-07
3.82442e-06
4.9413e-07
3.66598e-06
4.22613e-07
3.51068e-06
3.51649e-07
3.3783e-06
2.83598e-07
3.26788e-06
2.17772e-07
3.17207e-06
1.54469e-07
3.08515e-06
9.61409e-08
3.00583e-06
4.6485e-08
2.93404e-06
5.34848e-09
2.87124e-06
-2.41687e-08
2.82386e-06
-4.81371e-08
2.79731e-06
-7.54398e-08
2.82659e-06
-1.19671e-07
2.92055e-06
-2.22004e-07
3.11108e-06
-3.60844e-07
3.52324e-06
-7.09116e-07
4.24403e-06
-5.9971e-07
-7.69774e-07
2.0412e-06
-1.73924e-06
-6.31752e-07
2.37445e-06
-8.11275e-07
1.5369e-06
-3.53255e-07
-4.75385e-07
1.47229e-06
-3.51722e-07
1.67302e-06
-4.88561e-07
1.40212e-06
-3.41021e-07
1.57569e-06
-4.59151e-07
1.32939e-06
-3.34225e-07
1.47305e-06
-4.33437e-07
1.25582e-06
-3.19545e-07
1.36375e-06
-3.981e-07
1.18774e-06
-2.98493e-07
1.25925e-06
-3.54327e-07
1.12636e-06
-2.83567e-07
1.17132e-06
-3.18063e-07
1.06489e-06
-2.62756e-07
1.09764e-06
-2.93416e-07
1.00201e-06
-2.32414e-07
1.02785e-06
-2.64072e-07
9.60947e-07
-2.23448e-07
8.46124e-07
-1.23466e-07
9.1514e-07
-2.04416e-07
8.64762e-07
-1.7532e-07
7.88768e-07
-2.03221e-08
7.96332e-07
-7.5316e-08
1.09479e-07
3.09878e-07
4.17564e-07
3.05192e-07
7.13546e-07
2.98209e-07
9.62504e-07
2.98212e-07
1.19776e-06
3.03565e-07
1.41556e-06
3.16168e-07
1.63695e-06
3.37871e-07
1.87961e-06
3.69702e-07
2.16422e-06
4.09545e-07
2.5029e-06
4.56104e-07
2.87861e-06
5.02246e-07
3.24946e-06
5.43277e-07
3.58685e-06
5.74835e-07
3.85251e-06
5.89158e-07
4.00161e-06
5.77125e-07
4.00951e-06
5.37025e-07
3.90612e-06
4.76942e-07
3.75083e-06
4.09188e-07
3.59327e-06
3.39988e-07
3.45712e-06
2.72772e-07
3.3442e-06
2.07242e-07
3.24689e-06
1.42922e-07
3.15853e-06
8.10521e-08
3.07613e-06
2.58119e-08
2.99845e-06
-1.79451e-08
2.92652e-06
-4.99507e-08
2.86977e-06
-7.00952e-08