/*--------------------------------*- C++ -*----------------------------------*\
  =========                 |
  \\      /  F ield         | OpenFOAM: The Open Source CFD Toolbox
   \\    /   O peration     | Website:  https://openfoam.org
    \\  /    A nd           | Version:  dev
     \\/     M anipulation  |
\*---------------------------------------------------------------------------*/
FoamFile
{
    version     2.0;
    format      ascii;
    class       volScalarField;
    location    "2500";
    object      qr;
}
// * * * * * * * * * * * * * * * * * * * * * * * * * * * * * * * * * * * * * //

dimensions      [1 0 -3 0 0 0 0];

internalField   uniform 0;

boundaryField
{
    lowerOutlet
    {
        type            calculated;
        value           nonuniform List<scalar> 
148
(
945.876
949.002
952.478
956.281
960.418
964.895
969.722
974.909
980.467
986.411
992.758
999.526
1006.74
1014.42
1022.6
1031.3
1040.57
1050.46
1061
1072.25
1084.29
1097.18
1111.02
1125.91
1142
1159.44
1178.38
1199.03
1221.65
1246.57
1274.17
1304.96
1339.56
1369.29
1412.63
1462.73
1521.37
1591
1675.01
1778.28
1908.08
2075.83
2300.44
2567.67
2999.4
3928.51
5137.44
6707.78
-5164.87
3504.69
2712.95
2295.1
2034.81
1855.81
1709.08
1610.89
1532.96
1469.24
1415.84
1370.35
1331.05
1296.66
1266.26
1232.3
1208.43
1186.76
1166.95
1148.76
1131.97
1116.42
1101.95
1088.46
1075.87
1064.08
1053.02
1042.6
1032.79
1023.53
1014.79
1006.53
998.715
991.326
984.335
977.723
971.471
965.561
959.981
954.717
949.758
945.095
940.72
936.625
932.805
929.254
925.968
922.969
7510.58
3835.65
1630.95
1723.87
1839.26
1986.26
2179.38
2483.62
2874.17
3648.75
4711.06
6334.71
7696.94
4622.79
2861.06
2380.14
2090.41
1895.07
1768.53
1656.98
1569.84
1499.61
1441.42
1392.23
8514.7
4229.15
1554.63
2660.08
3143.91
4186.97
5454.66
3246.52
2586.2
2219.44
1984.12
1819.57
1350.02
2407.03
2761.78
3314.95
4434.5
5789.49
3036.19
2476.35
2151.63
1937.71
1390.21
1436.73
1490.85
1313.3
1281.01
1252.31
)
;
    }
    top
    {
        type            calculated;
        value           nonuniform List<scalar> 
100
(
861.889
862.137
863.19
864.52
866.165
867.931
869.741
871.507
873.135
874.534
875.766
876.865
877.858
878.847
879.942
881.172
882.507
883.891
885.298
886.644
887.483
884.567
873.287
857.158
839.228
822.065
814.414
816.824
830.74
852.56
875.35
896.176
913.132
921.405
924.838
926.928
928.692
930.261
931.669
932.945
934.062
935.027
935.797
936.512
937.055
937.502
937.801
937.998
938.129
938.136
938.064
937.865
937.624
937.281
936.876
936.408
935.866
935.245
934.582
933.844
933.018
932.121
931.226
930.142
929.027
927.77
926.402
925.014
923.407
921.826
920.044
918.319
916.455
914.769
913.186
911.805
911.728
919.166
916.804
914.405
911.971
909.504
907.008
904.487
901.943
899.38
896.801
894.212
891.614
889.009
883.793
880.184
876.554
873.07
869.791
866.91
864.52
862.69
861.352
862.924
)
;
    }
    sides
    {
        type            calculated;
        value           nonuniform List<scalar> 
100
(
945.892
948.409
950.62
952.519
954.108
955.392
956.379
957.075
957.489
957.63
957.508
957.134
956.519
955.675
954.616
953.352
951.897
950.265
948.467
946.516
944.426
942.207
939.872
937.433
934.9
932.284
929.596
926.844
924.038
921.184
918.291
915.368
912.423
909.463
906.496
903.526
900.559
897.599
894.652
891.722
888.813
885.928
883.07
880.242
877.447
874.685
871.96
869.271
866.618
864.038
922.986
925.494
927.757
929.768
931.528
933.04
934.309
935.339
936.137
936.708
937.06
937.199
937.134
936.872
936.423
935.794
934.996
934.036
932.924
931.67
930.282
928.769
927.139
925.403
923.566
921.638
919.627
917.539
915.381
913.159
910.88
908.549
906.173
903.76
901.312
898.836
896.334
893.811
891.271
888.717
886.151
883.577
880.998
878.414
875.828
873.242
870.656
868.072
865.489
862.941
)
;
    }
    front
    {
        type            empty;
    }
    back
    {
        type            empty;
    }
    roller
    {
        type            calculated;
        value           nonuniform List<scalar> 
142
(
10587.7
7093.14
4325.05
2915.16
1503.63
1226.63
1106.77
1078.02
1059.98
1078.66
14909.6
16551.4
9278.95
8860.54
2470.42
1887.02
1537.7
1677.88
1235.67
1117.21
1083.74
1065.48
1089.65
1075.46
6593.68
7380.32
6027.49
2262.87
1804.06
2258.36
2144.86
1479.66
1260.15
1149.67
1097.88
1081.32
13585.1
17694.3
11278.1
5906.7
8419.6
4100.2
4861.82
3185.79
2680.69
2042.85
1573.65
1743.96
1254.46
1179.03
1163.18
1214.27
1202.96
1063.6
16147.9
15008.5
1948.24
1859.89
1431.21
1404.63
1332.54
1275.84
1217.86
1196.7
1058.41
1060.55
1067.39
18825.5
18240.2
18959.5
2383.17
1612.35
1479.54
1349.21
1440.46
1341.01
1288.62
1313.45
1236.55
1154.94
1144.74
1118.35
1110.63
1060.88
1058.33
1059.58
1065.49
12253.9
17194.2
18667.5
13193.3
4857.77
3881.8
1698.5
1653.45
1611.67
1798.78
1385.15
1316.83
1280.85
1182.22
1172.63
1074.38
1100.46
1058.95
1058.65
1061.9
1069.49
5359.09
3499.2
3092.68
2762.32
3504.64
2106.52
1984.99
2523.22
1748.67
1457.86
1565.19
1521.17
1366.77
1404.25
1371.09
1302.18
1246.57
1192.24
1137.37
1126.88
1163.67
1090.28
1135.3
1126.55
1071.45
1067.8
1061.82
1085.55
1094.2
1105.22
1058.5
1058.96
1063.6
1071.88
)
;
    }
    burner
    {
        type            calculated;
        value           nonuniform List<scalar> 
16
(
-121203
-113403
-110327
-113320
-115001
-110601
-111849
-122514
-118816
-112145
-110405
-115397
-116856
-111214
-110895
-118298
)
;
    }
}


// ************************************************************************* //
