/*--------------------------------*- C++ -*----------------------------------*\
  =========                 |
  \\      /  F ield         | OpenFOAM: The Open Source CFD Toolbox
   \\    /   O peration     | Website:  https://openfoam.org
    \\  /    A nd           | Version:  dev
     \\/     M anipulation  |
\*---------------------------------------------------------------------------*/
FoamFile
{
    version     2.0;
    format      ascii;
    class       volScalarField;
    location    "2500";
    object      rAU;
}
// * * * * * * * * * * * * * * * * * * * * * * * * * * * * * * * * * * * * * //

dimensions      [-1 3 1 0 0 0 0];

internalField   nonuniform List<scalar> 
9575
(
0.00822087
0.00828647
0.00824514
0.00827239
0.00839884
0.00818277
0.00824491
0.0083928
0.00840262
0.00813053
0.00822169
0.00839099
0.00838815
0.00841415
0.00808086
0.00820396
0.00839466
0.00838026
0.00839733
0.00842345
0.00803583
0.00818809
0.00840388
0.00838019
0.00838273
0.00841149
0.00842804
0.00799503
0.00817145
0.00841244
0.00838467
0.0083738
0.00839599
0.0084219
0.0084302
0.00795755
0.00815498
0.00842037
0.00839472
0.00836955
0.00838139
0.00841143
0.00842752
0.0084315
0.00792328
0.00813917
0.00842431
0.00840682
0.008371
0.00837071
0.00839741
0.0084221
0.00843041
0.00843216
0.00789166
0.00812432
0.0084269
0.00841616
0.00837702
0.00836455
0.00838297
0.00841329
0.00842777
0.00843232
0.00843271
0.00786265
0.00811078
0.00842891
0.00842329
0.00838798
0.00836185
0.00837115
0.00840096
0.00842319
0.00843093
0.00843364
0.00843309
0.00783594
0.00809632
0.00843025
0.00842748
0.00840033
0.00836365
0.00836232
0.00838722
0.00841586
0.00842831
0.00843295
0.00843453
0.00843329
0.00781146
0.00808255
0.00843048
0.0084308
0.00841109
0.00836985
0.00835695
0.00837355
0.00840574
0.0084245
0.00843156
0.00843434
0.00843523
0.00843333
0.00778891
0.00807069
0.00843054
0.00843265
0.00841902
0.00838074
0.00835429
0.00836293
0.008393
0.00841889
0.00842942
0.00843353
0.00843539
0.00843578
0.00843343
0.00776823
0.00805794
0.00843139
0.00843377
0.008425
0.00839269
0.0083559
0.00835488
0.00837916
0.00841115
0.00842704
0.00843225
0.00843497
0.00843621
0.00843614
0.00843334
0.00774922
0.00804578
0.0084315
0.0084347
0.0084286
0.00840474
0.00836121
0.00835029
0.00836588
0.00839959
0.00842292
0.00843132
0.0084344
0.00843605
0.0084369
0.00843654
0.00843331
0.00773181
0.00803701
0.0084309
0.00843558
0.00843108
0.00841311
0.00837081
0.00834762
0.00835648
0.00838629
0.00841604
0.00842987
0.00843423
0.00843585
0.00843695
0.00843729
0.00843672
0.00843323
0.00771596
0.00803065
0.00843288
0.00843601
0.00843241
0.00841883
0.00838255
0.00834809
0.00834937
0.00837307
0.00840631
0.00842658
0.00843391
0.00843626
0.00843698
0.0084376
0.00843782
0.00843708
0.00843315
0.00770145
0.0080227
0.00843628
0.00843672
0.00843401
0.00842424
0.00839464
0.00835188
0.00834499
0.00836141
0.00839458
0.00842075
0.00843206
0.00843658
0.00843753
0.00843784
0.00843803
0.00843817
0.00843723
0.00843309
0.00768836
0.00801528
0.00843719
0.00843712
0.00843488
0.00842741
0.0084042
0.0083586
0.00834154
0.00835235
0.00838278
0.00841298
0.00842926
0.00843554
0.0084384
0.00843877
0.00843838
0.00843847
0.00843844
0.00843732
0.00843298
0.00767664
0.00800726
0.00843685
0.00843753
0.00843597
0.00842911
0.00841097
0.00836802
0.00834064
0.00834521
0.00837043
0.00840373
0.00842516
0.00843426
0.00843814
0.00843975
0.00843962
0.00843889
0.00843881
0.0084387
0.00843751
0.00843283
0.00766615
0.00800008
0.00843439
0.00843793
0.00843606
0.00843098
0.00841626
0.00837823
0.00834225
0.00834021
0.00835945
0.008393
0.00841951
0.00843226
0.00843725
0.00843981
0.00844091
0.0084401
0.00843929
0.00843909
0.00843886
0.00843754
0.00843269
0.00765698
0.00799192
0.0084305
0.00843821
0.00843717
0.00843298
0.00841972
0.00838821
0.00834621
0.0083373
0.00834996
0.00838186
0.00841203
0.00842946
0.00843617
0.00843927
0.00844111
0.00844176
0.00844059
0.00843957
0.00843928
0.00843902
0.00843773
0.00843255
0.00764888
0.00798501
0.00842422
0.00843843
0.00843768
0.00843366
0.00842289
0.00839694
0.00835253
0.00833532
0.00834329
0.00837105
0.00840332
0.00842497
0.0084352
0.00843883
0.00844076
0.00844215
0.00844238
0.00844105
0.00843976
0.00843952
0.00843924
0.00843788
0.00843246
0.00757575
0.00797991
0.00841688
0.00843797
0.00843796
0.00843404
0.00842473
0.00840327
0.00835997
0.00833477
0.00833844
0.00836074
0.00839384
0.00841961
0.00843299
0.00843839
0.00844073
0.0084419
0.00844291
0.00844286
0.00844132
0.00844003
0.00843955
0.00843941
0.008438
0.00834548
0.00754008
0.00797416
0.00840951
0.00843313
0.00842315
0.00842013
0.00841547
0.00840775
0.00836773
0.00833604
0.00833481
0.00835199
0.00838397
0.00841283
0.00843005
0.00843769
0.00844057
0.00844207
0.00844294
0.00844352
0.00844337
0.0084417
0.00844019
0.00843975
0.00843958
0.00842996
0.00830176
0.00763583
0.00796754
0.00840086
0.00843248
0.00839978
0.00838941
0.00840335
0.00832232
0.0083753
0.00833863
0.00833257
0.0083448
0.00837441
0.00840511
0.00842609
0.00843618
0.00844041
0.00844233
0.00844317
0.00844359
0.00844412
0.00844381
0.00844187
0.0084403
0.00843986
0.00843989
0.00842285
0.0084326
0.00763439
0.00796484
0.00838015
0.00843489
0.00841011
0.00840297
0.00841361
0.00830025
0.00838222
0.00834284
0.00833099
0.00833924
0.00836583
0.00839695
0.00842104
0.00843436
0.00844
0.00844238
0.00844349
0.00844396
0.00844405
0.00844455
0.00844412
0.0084421
0.00844044
0.00844025
0.00844003
0.0084384
0.00843261
0.00763469
0.00796798
0.00836093
0.00842641
0.00843113
0.00843268
0.00842558
0.00838949
0.00838817
0.00834814
0.00833052
0.00833521
0.00835785
0.00838875
0.00841534
0.00843172
0.00843925
0.00844227
0.00844386
0.00844446
0.00844461
0.00844457
0.00844483
0.00844442
0.0084423
0.00844069
0.0084404
0.00844014
0.00843846
0.00843268
0.00763655
0.00797536
0.00834738
0.00841802
0.00843225
0.00843225
0.00842528
0.00841482
0.00839318
0.00835408
0.00833119
0.00833269
0.00835068
0.00838093
0.00840897
0.00842826
0.00843796
0.00844222
0.00844404
0.00844478
0.00844515
0.00844503
0.00844492
0.00844519
0.00844464
0.00844258
0.00844078
0.00844048
0.00844015
0.00843832
0.0084327
0.00764031
0.00798678
0.00833998
0.00841428
0.00843067
0.00843084
0.00842517
0.00841575
0.00839738
0.00836018
0.00833301
0.00833135
0.00834525
0.00837347
0.00840223
0.00842405
0.00843619
0.0084415
0.00844409
0.0084452
0.00844566
0.0084456
0.00844544
0.00844521
0.00844548
0.00844501
0.00844276
0.00844093
0.0084405
0.00844011
0.008438
0.00843271
0.00764646
0.00800393
0.00833631
0.00841292
0.00843238
0.00843
0.00842476
0.00841673
0.00840068
0.0083659
0.00833553
0.00833076
0.00834136
0.00836733
0.00839577
0.00841932
0.00843377
0.00844063
0.0084439
0.00844546
0.0084461
0.00844616
0.00844599
0.0084456
0.00844546
0.00844579
0.00844537
0.00844287
0.00844092
0.00844061
0.00843996
0.00843756
0.00843261
0.00764811
0.00802485
0.00833832
0.00841113
0.0084337
0.00842897
0.00842468
0.00841795
0.00840348
0.00837145
0.00833873
0.00833051
0.00833799
0.00836198
0.00839006
0.00841477
0.00843147
0.00843989
0.00844356
0.00844554
0.00844653
0.00844694
0.00844683
0.00844649
0.00844587
0.00844564
0.00844616
0.00844535
0.00844286
0.00844093
0.00844072
0.00843967
0.00842565
0.00847749
0.00677699
0.00816757
0.00804814
0.00834349
0.00841027
0.00843243
0.00842813
0.00842453
0.00841842
0.00840521
0.00837675
0.00834289
0.0083309
0.00833567
0.00835678
0.00838427
0.00840972
0.00842885
0.00843912
0.00844357
0.00844551
0.00844655
0.00844707
0.00844739
0.00844709
0.00844676
0.00844609
0.008446
0.00844615
0.00844534
0.00844272
0.00844087
0.00844073
0.00842668
0.00833147
0.00817884
0.00818056
0.00830514
0.00817864
0.00676627
0.00813913
0.00807599
0.0083547
0.0084113
0.00843132
0.00842779
0.00842473
0.00841937
0.00840711
0.00838081
0.00834703
0.00833184
0.00833497
0.00835249
0.00837871
0.0084044
0.00842498
0.0084377
0.00844378
0.00844643
0.00844748
0.00844739
0.00844769
0.00844769
0.0084474
0.0084468
0.00844638
0.00844604
0.0084461
0.00844524
0.00844257
0.00844065
0.0084263
0.00818214
0.00818146
0.0081542
0.00815421
0.00815285
0.00815302
0.00677586
0.00813852
0.00810306
0.00836869
0.00841523
0.00843058
0.00842778
0.00842522
0.00842016
0.00840859
0.00838441
0.00835062
0.00833244
0.00833425
0.00834956
0.00837443
0.00839963
0.00842084
0.00843503
0.00844263
0.00844649
0.00844833
0.00844895
0.00844832
0.00844816
0.00844771
0.00844737
0.008447
0.00844641
0.00844597
0.00844593
0.00844499
0.00844219
0.00842457
0.00817665
0.0081738
0.00815893
0.00815935
0.00815293
0.00815377
0.00815192
0.00815213
0.00678709
0.00813801
0.00813052
0.00838278
0.00842058
0.00842989
0.00842802
0.00842579
0.00842095
0.00841025
0.00838768
0.00835425
0.00833311
0.00833309
0.00834635
0.00837063
0.00839556
0.00841742
0.00843285
0.0084413
0.00844549
0.00844806
0.00844952
0.00844978
0.00844927
0.00844852
0.00844792
0.00844746
0.00844697
0.00844628
0.00844575
0.00844561
0.00844451
0.00842516
0.0081716
0.00817049
0.00815544
0.00815308
0.00815693
0.0081578
0.00815136
0.00815325
0.00815073
0.00815138
0.00679972
0.00814091
0.00816074
0.00839012
0.0084282
0.00842965
0.00842799
0.00842651
0.00842211
0.00841222
0.00839072
0.00835789
0.0083343
0.00833224
0.0083434
0.00836636
0.008391
0.00841371
0.00843096
0.00844074
0.00844548
0.00844752
0.00844912
0.00845027
0.0084504
0.00845011
0.00844924
0.00844827
0.00844749
0.00844673
0.00844594
0.00844528
0.00844505
0.00842669
0.00817145
0.00817281
0.00815178
0.0081508
0.00815394
0.00815092
0.00815375
0.00815589
0.00814943
0.00815765
0.0081508
0.00815821
0.00682848
0.00816642
0.00819086
0.00839699
0.00842955
0.00842895
0.00842807
0.00842717
0.00842316
0.00841364
0.00839353
0.00836127
0.00833573
0.00833177
0.00834101
0.00836276
0.00838647
0.00840905
0.00842786
0.00843974
0.00844578
0.00844822
0.00844947
0.00845003
0.00845051
0.0084509
0.00845077
0.00844999
0.00844895
0.0084473
0.00844632
0.00844528
0.00844442
0.00842657
0.00817226
0.00817111
0.00815243
0.00815418
0.00814919
0.0081479
0.00815301
0.00814895
0.00814992
0.00815339
0.00815031
0.00818891
0.00816335
0.00819306
0.00687157
0.00820248
0.00821676
0.00840254
0.0084281
0.00842831
0.00842829
0.00842779
0.00842404
0.008415
0.00839596
0.0083645
0.00833723
0.00833143
0.00833896
0.00835971
0.00838278
0.00840478
0.00842406
0.00843734
0.00844487
0.00844874
0.00845044
0.00845109
0.00845112
0.00845071
0.00845095
0.00845099
0.00845067
0.0084493
0.00844708
0.00844563
0.00844428
0.00842499
0.00816864
0.00816477
0.00815419
0.0081534
0.0081493
0.00815088
0.00814635
0.00814581
0.00815298
0.00814948
0.00815095
0.00815773
0.00816965
0.00822544
0.00819827
0.00822852
0.006914
0.00823342
0.00824051
0.00840739
0.00842689
0.00842801
0.00842835
0.0084279
0.0084248
0.00841614
0.00839806
0.00836733
0.00833874
0.00833083
0.00833734
0.00835702
0.00837955
0.00840116
0.00842059
0.00843491
0.00844329
0.00844772
0.00845044
0.00845188
0.00845247
0.00845207
0.00845103
0.00845074
0.00845088
0.00845072
0.00844921
0.00844699
0.00844504
0.00842527
0.00816191
0.00816043
0.00815143
0.00814814
0.00815175
0.00815222
0.00814816
0.00815222
0.00814837
0.00815304
0.00816377
0.00816709
0.00817586
0.00818698
0.00820353
0.00825642
0.00823131
0.0082582
0.00695634
0.00825885
0.00825924
0.00841072
0.00842566
0.00842706
0.00842812
0.008428
0.00842518
0.00841701
0.00839984
0.00836995
0.0083402
0.0083298
0.00833563
0.0083541
0.00837691
0.00839782
0.00841728
0.00843264
0.00844209
0.00844696
0.00844972
0.00845141
0.0084526
0.00845329
0.0084528
0.00845171
0.0084506
0.00845044
0.00845028
0.00844944
0.00844853
0.00843452
0.00816247
0.00817455
0.00814738
0.00815166
0.00815074
0.00815137
0.00815741
0.00816067
0.00816153
0.00817166
0.00817143
0.00817836
0.0081932
0.0081955
0.00820854
0.00821867
0.00823424
0.00828192
0.00825899
0.00828343
0.0070003
0.00828031
0.00827451
0.00841387
0.00842457
0.00842635
0.00842761
0.00842787
0.00842532
0.00841759
0.00840115
0.00837232
0.00834165
0.00832882
0.00833373
0.00835112
0.00837418
0.00839495
0.0084143
0.00843024
0.0084407
0.00844635
0.00844929
0.00845095
0.00845206
0.00845287
0.00845368
0.0084535
0.00845243
0.00845085
0.00845056
0.0084513
0.00841916
0.00835998
0.00811797
0.00792149
0.00816574
0.00819417
0.00816074
0.00818047
0.00816351
0.00817594
0.00817477
0.00817921
0.00818425
0.00818752
0.00819877
0.00820152
0.00822238
0.0082227
0.00823727
0.00824494
0.0082602
0.00830335
0.00828363
0.00830523
0.00704744
0.00829925
0.008285
0.00841612
0.00842349
0.00842538
0.00842683
0.00842744
0.00842527
0.00841791
0.00840213
0.00837444
0.00834303
0.00832755
0.00833151
0.008348
0.00837135
0.00839216
0.00841132
0.00842799
0.00843938
0.00844592
0.00844916
0.00845093
0.00845194
0.00845252
0.00845309
0.00845375
0.00845398
0.00845377
0.00845329
0.00834153
0.0082867
0.00821186
0.0080714
0.00804011
0.00760858
0.00820391
0.0081312
0.00819807
0.00814967
0.00819467
0.00820874
0.00819236
0.00820857
0.00819803
0.00820061
0.00822036
0.0082137
0.00824703
0.00824455
0.00826144
0.00826491
0.00828352
0.0083213
0.0083064
0.00832362
0.00709676
0.00831542
0.0082903
0.00841779
0.00842263
0.00842452
0.00842616
0.00842687
0.00842495
0.00841796
0.00840292
0.00837639
0.00834431
0.00832615
0.00832907
0.00834486
0.00836834
0.00838953
0.00840838
0.00842546
0.00843791
0.00844532
0.00844905
0.00845106
0.00845213
0.00845267
0.00845293
0.0084533
0.00845417
0.00845631
0.00834223
0.00817699
0.00812251
0.0081801
0.00819496
0.00788893
0.00767332
0.00800607
0.00798278
0.00803551
0.00800004
0.00812325
0.00803412
0.00814525
0.00805757
0.00819662
0.00813617
0.00821187
0.00816825
0.00823035
0.00821853
0.00826446
0.00825176
0.00828218
0.00827893
0.00830402
0.0083365
0.00832538
0.00833732
0.00715213
0.0083301
0.00829222
0.00841876
0.00842197
0.00842328
0.00842543
0.00842607
0.00842452
0.00841777
0.00840357
0.00837812
0.00834571
0.00832494
0.00832611
0.00834123
0.00836516
0.00838439
0.00840561
0.00842298
0.00843626
0.0084445
0.0084489
0.00845118
0.00845238
0.008453
0.00845321
0.00845361
0.00845516
0.0084569
0.00815518
0.00808921
0.00811721
0.0082455
0.00822549
0.00746757
0.00730245
0.00750245
0.00733406
0.00793264
0.0077255
0.00797705
0.00780392
0.00802114
0.00788915
0.00806117
0.00796874
0.00808852
0.00803414
0.00815461
0.00807696
0.00821079
0.00813155
0.00826447
0.00820475
0.00829992
0.00827943
0.00832088
0.00834973
0.0083386
0.0083476
0.00721058
0.00834288
0.00829308
0.0084194
0.00842147
0.00842242
0.00842482
0.0084254
0.00842398
0.00841757
0.00840415
0.00837968
0.00834721
0.00832408
0.00832323
0.00833695
0.00836171
0.00838332
0.00840057
0.00842019
0.00843434
0.00844357
0.00844864
0.00845129
0.00845265
0.00845333
0.00845372
0.00845471
0.00845668
0.00832721
0.00805561
0.00812279
0.00823659
0.00826441
0.00818375
0.00719055
0.00691366
0.00722445
0.00716109
0.00728381
0.00722833
0.00757819
0.00739737
0.00766449
0.00748803
0.00777543
0.00757308
0.00790695
0.00769703
0.0080049
0.00784245
0.00805754
0.00796386
0.00811913
0.00805946
0.00818878
0.00809339
0.00830291
0.00821317
0.00832488
0.00836078
0.00834186
0.00835609
0.00727213
0.00835327
0.00829643
0.00841984
0.00842112
0.00842185
0.00842421
0.00842485
0.00842332
0.0084173
0.00840454
0.00838113
0.0083488
0.00832355
0.00832043
0.00833247
0.00835769
0.00838129
0.00839943
0.00841749
0.00843229
0.00844243
0.00844829
0.00845134
0.00845294
0.00845378
0.00845444
0.00845604
0.008457
0.00810164
0.00806789
0.00824526
0.00825326
0.00820332
0.0080285
0.00770882
0.00705739
0.00674578
0.00707581
0.00697196
0.00710692
0.00699266
0.00737031
0.00725431
0.00744418
0.00729862
0.00753737
0.00733988
0.00766359
0.0074359
0.00779852
0.00757845
0.00793921
0.00774619
0.00803513
0.00792338
0.00808037
0.00801168
0.00822896
0.00810898
0.00824854
0.00837157
0.00826999
0.00831672
0.0073363
0.00836201
0.00832257
0.00841724
0.00842143
0.00842183
0.00842376
0.00842432
0.00842282
0.00841698
0.00840502
0.00838257
0.00835046
0.00832322
0.00831739
0.00832824
0.00835313
0.00837814
0.00839755
0.00841482
0.00843006
0.00844113
0.00844776
0.00845134
0.00845322
0.00845428
0.00845562
0.0084576
0.00840701
0.00800505
0.00818188
0.00825956
0.00820071
0.00807395
0.00800514
0.00783006
0.0064835
0.00646533
0.0067623
0.00663877
0.00670758
0.00661115
0.00672556
0.00661276
0.0071536
0.00696215
0.00718965
0.00694002
0.00724854
0.00694097
0.00735441
0.00703576
0.00747879
0.00720282
0.00764891
0.00738973
0.00789008
0.00762454
0.00803941
0.0078536
0.00811331
0.00804519
0.00812348
0.00838049
0.00817026
0.00819919
0.00739696
0.00836889
0.00840505
0.00841168
0.00842186
0.0084232
0.00842388
0.0084224
0.00841666
0.00840558
0.00838411
0.00835226
0.008323
0.00831397
0.00832389
0.00834803
0.00837457
0.00839381
0.008412
0.0084277
0.00843957
0.00844704
0.00845122
0.00845351
0.00845496
0.00845719
0.00845812
0.00827363
0.00809611
0.0082488
0.00818333
0.00811411
0.00798183
0.00791037
0.00813328
0.00584045
0.00512628
0.00591273
0.00512396
0.00647142
0.00682303
0.00688302
0.00685331
0.00692274
0.00688117
0.00674797
0.00660535
0.00677251
0.00665893
0.00680989
0.00709903
0.00689453
0.00717879
0.00699541
0.00720835
0.00723052
0.00705897
0.0075794
0.00731295
0.00789444
0.00746724
0.00806378
0.007749
0.00794586
0.00836775
0.00805688
0.00757983
0.00791778
0.00744707
0.00839658
0.0083717
0.00836428
0.00842245
0.00842311
0.00842186
0.00841636
0.00840605
0.00838568
0.00835426
0.008323
0.00831039
0.00831905
0.00834254
0.00837045
0.00838753
0.00840813
0.00842505
0.00843788
0.00844603
0.00845095
0.00845376
0.00845611
0.00845918
0.00845727
0.00815544
0.00824266
0.00820163
0.00813321
0.00800091
0.00793967
0.00781461
0.00789803
0.00701998
0.00531895
0.00585467
0.00599756
0.00679111
0.00587263
0.00545847
0.00629151
0.00593486
0.00558936
0.0060827
0.0069604
0.00600892
0.00700212
0.00613459
0.00703532
0.00660487
0.00711032
0.00670317
0.00719245
0.00674519
0.00737752
0.00731969
0.00761894
0.00721455
0.00757008
0.007283
0.00788429
0.00576369
0.00623518
0.00707836
0.00648438
0.00770756
0.00811879
0.00777849
0.0072362
0.00675587
0.00678855
0.00739026
0.00750916
0.00804932
0.00795429
0.00809005
0.00829892
0.00830898
0.00842196
0.008421
0.00841603
0.00840617
0.00838726
0.00835643
0.0083233
0.00830703
0.00831375
0.00833635
0.00836564
0.00838317
0.0084019
0.00842231
0.00843572
0.00844504
0.0084504
0.008454
0.00845782
0.00846154
0.00839475
0.00818273
0.00826474
0.00813422
0.0080596
0.00792645
0.00784679
0.00806438
0.00713973
0.00730072
0.00677255
0.00659907
0.0069358
0.00683372
0.00699631
0.00690037
0.00676055
0.00708232
0.00693687
0.00716163
0.00708643
0.0072127
0.00582796
0.00640385
0.00608411
0.00669297
0.00620781
0.00682722
0.00632639
0.00690458
0.00715599
0.00699389
0.00681959
0.00656509
0.00725999
0.00496655
0.00443354
0.00557879
0.00544377
0.00477536
0.00535513
0.00609569
0.00596546
0.00586291
0.00560916
0.00620546
0.00755065
0.00764771
0.00697955
0.00645568
0.00632789
0.00718587
0.00803437
0.00598207
0.00776196
0.00776883
0.00786283
0.00822063
0.00832842
0.00837859
0.00841578
0.00840664
0.00838893
0.00835895
0.00832433
0.00830438
0.00830861
0.00832958
0.00835997
0.00838151
0.0083977
0.00841921
0.00843346
0.00844333
0.00844983
0.00845435
0.00845975
0.00846364
0.00825727
0.00828107
0.00819694
0.00808657
0.00797822
0.00788828
0.00776759
0.00803879
0.00685063
0.00793856
0.00784345
0.00672538
0.00662928
0.00681663
0.00675118
0.00690258
0.00685181
0.00707742
0.00698557
0.00714704
0.00708103
0.00721079
0.00717653
0.00720668
0.00726689
0.00731099
0.00734177
0.00739877
0.00742776
0.00744208
0.00750095
0.00711102
0.00732079
0.00487021
0.0050079
0.00497426
0.00495589
0.00460193
0.0050002
0.00474245
0.00501784
0.0054594
0.00534641
0.00499193
0.00507769
0.00557786
0.00588105
0.00567032
0.00548042
0.00597104
0.00737383
0.00754716
0.0066656
0.00606663
0.00619201
0.00689594
0.007868
0.00558415
0.00758407
0.00765199
0.00776037
0.0082191
0.008355
0.00834367
0.00822236
0.0083913
0.0083622
0.00832656
0.00830311
0.00830441
0.00832348
0.00835393
0.00838064
0.00839635
0.00841625
0.0084306
0.00844176
0.00844872
0.00845524
0.00846198
0.00837932
0.0082014
0.00829026
0.00813057
0.00804093
0.00789708
0.00782721
0.00774926
0.00736763
0.00717557
0.00814765
0.00805359
0.00714142
0.00719195
0.00690677
0.00699591
0.00683446
0.00685199
0.00699482
0.00703961
0.00702587
0.00699449
0.007165
0.00717026
0.00730484
0.00736152
0.00729175
0.00727985
0.00738783
0.00738299
0.00746393
0.00747099
0.00729836
0.00729907
0.00494971
0.00495976
0.00498292
0.00500596
0.0049629
0.00493433
0.00492085
0.00491665
0.00510035
0.00504445
0.00502162
0.00497498
0.00534524
0.00519473
0.00510308
0.00511842
0.00550853
0.00571669
0.00552013
0.00533424
0.00578876
0.00714557
0.00736641
0.00637232
0.00585038
0.005967
0.00658208
0.00780795
0.00534274
0.00759029
0.00756228
0.00768261
0.00826737
0.00825033
0.00804511
0.00839319
0.00836596
0.00832993
0.00830316
0.00830112
0.00831817
0.00834936
0.00837654
0.0083968
0.00841309
0.00842837
0.00843994
0.00844862
0.0084565
0.00846403
0.00814804
0.00827531
0.00822332
0.00807284
0.00798549
0.00786084
0.00775152
0.0079867
0.00667318
0.0078262
0.00805571
0.00801688
0.00804011
0.00759534
0.00760395
0.00731314
0.00745168
0.00712353
0.00720089
0.00732739
0.00743885
0.00720506
0.0072611
0.00743327
0.00748201
0.00762031
0.00771497
0.00742868
0.00751448
0.00752051
0.00760983
0.0075696
0.00764231
0.00504347
0.00510077
0.00517311
0.0053776
0.00492701
0.00495068
0.00498658
0.00503087
0.00494155
0.00493514
0.00494101
0.00495641
0.0050627
0.00499175
0.00502772
0.00496724
0.00519813
0.00515762
0.0050789
0.00512441
0.00539004
0.00556628
0.00539822
0.00528172
0.00561834
0.00685253
0.00714577
0.00611698
0.00566793
0.00577719
0.00629966
0.00771475
0.00586975
0.00766793
0.00740202
0.00754661
0.00817153
0.00807976
0.00821055
0.00836865
0.00833296
0.00830312
0.0082971
0.00831239
0.00834405
0.0083742
0.0083943
0.00841113
0.00842611
0.00843918
0.00844878
0.0084591
0.00834706
0.00801509
0.00830232
0.00814847
0.00802757
0.00792413
0.00783465
0.00772051
0.00796461
0.00688499
0.00810583
0.00799938
0.00800977
0.00812612
0.00778267
0.0076736
0.00776982
0.0077566
0.00772989
0.00779738
0.00757801
0.00765751
0.00772932
0.00779467
0.00757626
0.00767074
0.00781116
0.00782516
0.00795026
0.00800102
0.00773069
0.00785354
0.00773232
0.00783948
0.00736744
0.00760565
0.00508457
0.00516494
0.00525064
0.00547917
0.00498299
0.00502178
0.00507193
0.00512872
0.00495292
0.00496416
0.00498629
0.0050152
0.00505795
0.00499518
0.00504078
0.00498728
0.00519277
0.00514059
0.00508728
0.00510837
0.00529728
0.0054459
0.00531297
0.0052267
0.00547258
0.00654825
0.00685971
0.00589179
0.00552877
0.0056137
0.00605349
0.00766404
0.0060594
0.00800949
0.00716595
0.00742549
0.00809196
0.00804685
0.00837007
0.00833477
0.00830221
0.00829154
0.00830485
0.00833595
0.00836945
0.00839241
0.00840895
0.00842453
0.00843771
0.00844726
0.00846033
0.00808681
0.00810976
0.00823615
0.00807582
0.00799383
0.00785868
0.00779288
0.00794984
0.00788401
0.00743884
0.00804233
0.00797095
0.00804882
0.00815707
0.00818234
0.00813406
0.00803791
0.00812152
0.00816203
0.00783793
0.00799573
0.00787356
0.0078361
0.00802469
0.00801698
0.00786902
0.00794203
0.00805698
0.00808693
0.00815269
0.00819338
0.00795894
0.00807098
0.00770313
0.00796521
0.00566774
0.00576883
0.00601976
0.00590268
0.00519193
0.00527812
0.00536929
0.0054833
0.00505309
0.00510117
0.00515811
0.00521874
0.00498742
0.00501293
0.00504653
0.00508388
0.00508207
0.00502251
0.0050769
0.00502694
0.00516695
0.00513338
0.00512099
0.0051221
0.0052391
0.00535319
0.00526802
0.005204
0.00536908
0.00627428
0.00655779
0.0057045
0.00542751
0.00548158
0.00584875
0.0077333
0.00578891
0.00802202
0.00690423
0.00725707
0.00803895
0.00823123
0.00833688
0.00830108
0.00828568
0.00829634
0.00832602
0.00836192
0.00838862
0.00840631
0.00842168
0.00843566
0.00844963
0.00845527
0.00789917
0.00823656
0.00815282
0.00801167
0.00794475
0.00782707
0.00773652
0.00793498
0.00747826
0.00795111
0.0079844
0.00796704
0.00809478
0.00820432
0.00834317
0.00811937
0.00808369
0.00820362
0.00820378
0.0082084
0.00820535
0.00820841
0.00821044
0.00805521
0.00816672
0.00818314
0.00821384
0.00806221
0.00808804
0.00821398
0.00821817
0.00822789
0.00824669
0.00806449
0.00816075
0.00615572
0.0064325
0.00782749
0.00568713
0.00579467
0.00603684
0.00591469
0.00528366
0.00536995
0.00546097
0.00557308
0.00512847
0.00518136
0.00524192
0.00530496
0.00503867
0.00507398
0.00511436
0.00515711
0.00512596
0.00506945
0.00512901
0.00508206
0.00517194
0.00515445
0.0051738
0.00516102
0.0052224
0.00529686
0.00526179
0.00521626
0.00531069
0.00603236
0.00628164
0.00556327
0.00536013
0.00539864
0.00567719
0.00761411
0.00495865
0.00755847
0.00659796
0.006961
0.00803054
0.00829071
0.00830144
0.00828088
0.00828834
0.0083163
0.00835313
0.00838305
0.00840235
0.00841904
0.00842957
0.00844807
0.00844899
0.00794197
0.00824168
0.008067
0.00795728
0.00789936
0.00780142
0.00770339
0.00791566
0.00715438
0.00800601
0.0079308
0.00797989
0.00812308
0.00825447
0.00837277
0.00834883
0.00820069
0.00815955
0.00820775
0.00820508
0.00821183
0.00820935
0.00822023
0.00821604
0.00821906
0.00822143
0.0082231
0.00822541
0.00821535
0.00822212
0.00824511
0.00824031
0.00818735
0.00821802
0.00797027
0.00817821
0.00615514
0.00646559
0.00644796
0.00657541
0.00573992
0.00583057
0.00604421
0.00593748
0.00537084
0.00545474
0.00553922
0.00564099
0.00520669
0.00526298
0.00532379
0.00538317
0.00510129
0.00514321
0.00518911
0.00523626
0.00518354
0.00513258
0.00519525
0.00515107
0.00520925
0.00520609
0.00524358
0.00522379
0.00524259
0.00527555
0.00528513
0.00525681
0.00529839
0.00583342
0.00603929
0.00546063
0.00533608
0.00536244
0.00554908
0.00737666
0.00422426
0.00670609
0.00630772
0.00661271
0.00807147
0.00826508
0.00827776
0.00793259
0.00830633
0.00834516
0.00837649
0.00839835
0.00841467
0.00842481
0.00844242
0.00832386
0.00814109
0.00816376
0.00799164
0.00791649
0.00783296
0.00777426
0.00769266
0.00789193
0.00765917
0.00795405
0.00789725
0.00798739
0.00814326
0.00828227
0.00839991
0.00845739
0.00811308
0.00806728
0.00819983
0.00819715
0.00820816
0.00820364
0.00821465
0.00821199
0.0082226
0.00821799
0.00822706
0.00822631
0.00823163
0.00823193
0.0082335
0.00823121
0.0082595
0.00824761
0.00806168
0.00820498
0.00672402
0.00704118
0.00804792
0.0061516
0.00628356
0.00639833
0.00652826
0.00576649
0.00584452
0.00603231
0.00593767
0.00543323
0.00538953
0.00525206
0.00544912
0.00528793
0.00534328
0.00539984
0.0054506
0.00517663
0.00522506
0.00527478
0.0053239
0.00525813
0.00521489
0.00528126
0.00523948
0.00527401
0.00528514
0.00533458
0.00530895
0.00529213
0.00529897
0.00534274
0.00532081
0.00532806
0.0056714
0.00584265
0.00540277
0.00535402
0.00537299
0.00546431
0.00708344
0.00467015
0.0066611
0.00604907
0.00628534
0.0080235
0.008193
0.00764812
0.00829715
0.00833552
0.00837115
0.00839347
0.0084117
0.00841938
0.00843671
0.00810277
0.00824784
0.00808502
0.0079301
0.007883
0.00777399
0.00772045
0.00787633
0.00703238
0.00798016
0.00790804
0.00788059
0.00800567
0.00814828
0.00830251
0.00841308
0.00845566
0.00834005
0.00819727
0.00815231
0.00820055
0.00819856
0.00820709
0.00820323
0.00821702
0.00821227
0.00822357
0.00822039
0.00823042
0.00822723
0.00823568
0.0082339
0.00823976
0.00823663
0.00826432
0.0082537
0.00713474
0.00710433
0.00809366
0.00667012
0.00703323
0.00707662
0.00692437
0.00613119
0.00625795
0.00634368
0.00646116
0.00577715
0.00584382
0.00600351
0.00592139
0.00550141
0.00556718
0.00563036
0.00570704
0.00537537
0.00542745
0.00547665
0.00551788
0.00527018
0.00532538
0.00537926
0.00542906
0.005362
0.00531876
0.00540373
0.00535266
0.00535953
0.0053867
0.00545833
0.00541865
0.00537523
0.00536302
0.00543225
0.00541628
0.00539337
0.00555662
0.00568789
0.00539679
0.00541517
0.00543241
0.00542827
0.00638178
0.00489707
0.0069205
0.00583699
0.00592983
0.00792315
0.00778538
0.00828672
0.00832662
0.0083635
0.00839001
0.0084081
0.00842844
0.0084276
0.00798385
0.00821541
0.00801014
0.00787936
0.00783545
0.00773934
0.00766307
0.00785453
0.00647618
0.00793739
0.00786833
0.00787818
0.0080316
0.00807868
0.00830905
0.0084228
0.00845338
0.00845458
0.00809334
0.00804056
0.00819828
0.00819276
0.00820326
0.00820134
0.0082077
0.0082053
0.00821815
0.00821197
0.00822765
0.00822401
0.00823154
0.00822955
0.00823964
0.00823659
0.00824612
0.00824252
0.0081704
0.00826355
0.00721116
0.00755078
0.00737172
0.00746231
0.00660751
0.00677631
0.00702299
0.00684545
0.00609674
0.00621818
0.00626934
0.00638314
0.00576948
0.00582409
0.00595613
0.00588572
0.00555625
0.00560824
0.00565771
0.00571525
0.00547646
0.00551976
0.00555641
0.00558249
0.00539232
0.00545464
0.00551
0.00555655
0.0055081
0.00545729
0.00557207
0.00550225
0.00547208
0.00551818
0.00563084
0.0055665
0.00549302
0.00546166
0.00555312
0.00554713
0.00549456
0.00549235
0.00557912
0.00544028
0.00552425
0.00553764
0.00545149
0.00598162
0.00509374
0.00675566
0.00568635
0.00573211
0.00777189
0.00828298
0.00831493
0.00835685
0.00838456
0.00840584
0.00842593
0.00843085
0.00807006
0.00815437
0.00794409
0.00784133
0.00779674
0.0077109
0.00753558
0.0078287
0.00679845
0.00788877
0.00783743
0.0078873
0.00805609
0.00808829
0.00831148
0.00842659
0.00845093
0.00845192
0.00840365
0.00818394
0.00813183
0.00819725
0.00819026
0.00820704
0.00820313
0.00821083
0.00820956
0.00821791
0.00821298
0.00823173
0.0082252
0.00823523
0.00823472
0.00824285
0.00824135
0.00825399
0.00824731
0.00750259
0.00765616
0.00819141
0.00711364
0.00728937
0.00735395
0.00749558
0.00653099
0.00668985
0.00691765
0.00673334
0.00604768
0.00616257
0.00617584
0.00629305
0.00574461
0.00578784
0.0058917
0.00583311
0.0056052
0.00564281
0.00567352
0.0057057
0.00559542
0.00562436
0.00564392
0.00565206
0.00555584
0.00562315
0.00567581
0.00571451
0.00570916
0.00564014
0.00579562
0.00570132
0.00561888
0.00569177
0.00586779
0.0057695
0.00564232
0.00559648
0.00570758
0.00571586
0.00564318
0.00547802
0.00552939
0.00553842
0.00568672
0.00570189
0.00552952
0.00605206
0.0046544
0.007114
0.00559428
0.00565636
0.0079406
0.00829881
0.00834699
0.00838013
0.00840246
0.00842536
0.00841773
0.00823186
0.00809325
0.00788864
0.007813
0.00774185
0.00768667
0.00752024
0.00695196
0.0075142
0.00784527
0.00781647
0.00790534
0.00807875
0.00817852
0.00831754
0.00842975
0.00844864