/*--------------------------------*- C++ -*----------------------------------*\
  =========                 |
  \\      /  F ield         | OpenFOAM: The Open Source CFD Toolbox
   \\    /   O peration     | Website:  https://openfoam.org
    \\  /    A nd           | Version:  dev
     \\/     M anipulation  |
\*---------------------------------------------------------------------------*/
FoamFile
{
    version     2.0;
    format      ascii;
    class       volVectorField;
    location    "2500";
    object      U;
}
// * * * * * * * * * * * * * * * * * * * * * * * * * * * * * * * * * * * * * //

dimensions      [0 1 -1 0 0 0 0];

internalField   nonuniform List<vector> 
9575
(
(0.00440939 0.00674784 -1.2318e-28)
(0.010646 0.00610429 -1.94408e-28)
(0.00440952 0.0179251 -2.20972e-28)
(0.0149078 0.0051226 -8.70471e-28)
(0.0117492 0.0182276 -3.77821e-27)
(0.00383574 0.0261595 0)
(0.0184022 0.00423301 2.13811e-28)
(0.0167139 0.0176391 -2.76045e-27)
(0.0113609 0.027127 1.39233e-30)
(0.00324546 0.0329598 2.63466e-27)
(0.021259 0.00355979 2.44455e-28)
(0.0201245 0.0159254 0)
(0.0174214 0.0278677 -2.00184e-27)
(0.0100935 0.0339466 2.55434e-27)
(0.00283907 0.0391313 -8.45044e-32)
(0.0236825 0.00300051 0)
(0.0226541 0.0136621 8.57347e-28)
(0.0219628 0.0275904 -1.8231e-27)
(0.0165755 0.0354922 -2.38856e-27)
(0.00873384 0.039902 -2.78884e-27)
(0.00252931 0.0446227 -2.82703e-27)
(0.0259698 0.0025546 0)
(0.0248258 0.0114856 -6.61524e-28)
(0.0251662 0.0261691 1.59878e-27)
(0.0221137 0.0366864 -2.25371e-27)
(0.0148129 0.0414138 0)
(0.00774048 0.0452232 -2.93087e-27)
(0.00228124 0.0495705 6.02998e-29)
(0.0281675 0.00221519 0)
(0.026881 0.00966024 -5.18587e-28)
(0.0274134 0.0239567 8.26506e-28)
(0.0264853 0.0369288 1.69839e-27)
(0.0207316 0.0433169 0)
(0.0131033 0.0464464 0)
(0.00696689 0.0500659 -2.60048e-27)
(0.00207197 0.0541412 0)
(0.0302181 0.00198743 -3.92406e-28)
(0.0288213 0.00830896 8.09313e-28)
(0.0290538 0.0213859 -9.84548e-28)
(0.0296693 0.0360185 1.84393e-27)
(0.0260038 0.0449397 -3.01844e-28)
(0.0186357 0.0482777 0)
(0.0117381 0.0511023 0)
(0.00630192 0.0545646 -1.59197e-28)
(0.00189135 0.0583245 0)
(0.0321504 0.00183826 -3.92306e-28)
(0.0306665 0.00743708 1.25697e-27)
(0.0305004 0.0188293 2.82373e-29)
(0.0318273 0.034117 -1.06514e-28)
(0.0303018 0.045744 -9.35689e-28)
(0.0241312 0.0504943 -4.08797e-28)
(0.0166369 0.052687 0)
(0.0106127 0.0554195 -4.78036e-28)
(0.00573031 0.0586914 0)
(0.00172643 0.0621824 -1.58081e-29)
(0.0340036 0.00173235 0)
(0.0324679 0.00686902 6.2117e-28)
(0.0319618 0.0165342 -2.17819e-29)
(0.0333093 0.0316044 0)
(0.0335389 0.0454933 -8.9775e-28)
(0.0291737 0.0526014 0)
(0.0217001 0.0548174 -8.5749e-29)
(0.0149824 0.0567303 0)
(0.00963642 0.0594489 -5.43879e-28)
(0.00522117 0.0625291 -2.4442e-28)
(0.00157 0.0657397 0)
(0.0358006 0.00164228 0)
(0.0342672 0.00645781 0)
(0.0334315 0.0146803 8.30639e-28)
(0.0344333 0.0288042 -4.09328e-29)
(0.035811 0.0442197 1.36425e-28)
(0.0334283 0.0540746 1.26641e-28)
(0.0267986 0.0573179 -8.17644e-28)
(0.0194523 0.0585794 0)
(0.0135874 0.0605928 0)
(0.00875832 0.0632064 3.53878e-28)
(0.00475128 0.0660593 -3.43458e-28)
(0.00142462 0.0690074 1.2174e-27)
(0.0375321 0.00155781 4.02358e-28)
(0.0360433 0.00609872 0)
(0.034995 0.013286 -1.2337e-29)
(0.0354871 0.0260379 -9.92121e-28)
(0.037357 0.0421356 1.11555e-28)
(0.0367634 0.0546042 1.25434e-27)
(0.0316405 0.059841 -1.59101e-27)
(0.0240867 0.0609695 0)
(0.0175549 0.0621463 1.01638e-27)
(0.0123362 0.0642378 -6.86275e-28)
(0.00797619 0.0666683 6.8456e-28)
(0.00431528 0.0693066 -1.64401e-28)
(0.00129197 0.0720008 1.15054e-27)
(0.0391683 0.00147891 7.99007e-28)
(0.037745 0.00578501 5.21457e-31)
(0.0366217 0.0122804 -7.95046e-28)
(0.0366003 0.023532 -1.03327e-27)
(0.0384346 0.0395713 -1.14453e-27)
(0.0392318 0.0540983 1.31685e-27)
(0.0358729 0.0619379 2.99103e-28)
(0.0288303 0.0637858 -5.56732e-28)
(0.021619 0.06419 6.41231e-28)
(0.0159173 0.0656367 -9.17074e-28)
(0.0112058 0.0675904 0)
(0.0072525 0.0698807 0)
(0.00391362 0.0722757 1.55954e-28)
(0.00116689 0.0747574 3.42965e-29)
(0.0407309 0.00140019 7.88071e-28)
(0.0393747 0.0054951 0)
(0.0382381 0.0115137 -7.94708e-28)
(0.0378459 0.0214768 0)
(0.0392575 0.0367653 -1.15124e-27)
(0.0409587 0.0526915 0)
(0.0393193 0.0632777 -1.04849e-27)
(0.0334172 0.0667223 1.14462e-27)
(0.0258651 0.0667963 -1.01141e-28)
(0.0195079 0.0674154 3.38044e-28)
(0.0144575 0.0688365 0)
(0.0101823 0.0707398 0)
(0.0065716 0.0728166 1.25841e-27)
(0.00353642 0.0750238 3.89267e-28)
(0.00104935 0.0772793 0)
(0.0422052 0.00132223 3.89609e-28)
(0.0409324 0.00518955 0)
(0.0398236 0.0109143 -7.90829e-28)
(0.0392076 0.0198496 9.89408e-28)
(0.0400551 0.033966 0)
(0.0421438 0.0506296 0)
(0.0419629 0.0637175 -2.56058e-27)
(0.0375571 0.0694377 -1.47914e-28)
(0.0302188 0.0698683 -3.2661e-28)
(0.0232216 0.0696305 1.33689e-27)
(0.017707 0.0704043 -1.28923e-32)
(0.01313 0.0718867 0)
(0.00922941 0.0736354 0)
(0.00593209 0.0755333 -6.91131e-32)
(0.00317625 0.0775292 0)
(0.000938452 0.0795978 0)
(0.043559 0.00125044 0)
(0.0423838 0.00490648 -6.07914e-28)
(0.0413465 0.010448 0)
(0.0405909 0.018584 1.97141e-27)
(0.0409822 0.0314135 -7.03637e-29)
(0.0429613 0.048205 0)
(0.0438961 0.0632773 -1.36003e-27)
(0.041061 0.0715916 -1.33085e-27)
(0.0344779 0.0731795 -1.37712e-27)
(0.0270775 0.072357 0)
(0.0209852 0.0723329 8.06756e-28)
(0.016077 0.0733465 -3.20381e-28)
(0.0118902 0.074718 0)
(0.00833013 0.0762959 0)
(0.00532991 0.0780132 3.32958e-28)
(0.00284232 0.0798334 5.0669e-28)
(0.000830726 0.0816994 -2.86639e-28)
(0.044811 0.00118128 3.74177e-28)
(0.0437365 0.00465068 -6.61182e-30)
(0.042778 0.00999411 0)
(0.0419908 0.017556 9.80431e-28)
(0.0420584 0.0292322 1.14983e-27)
(0.0435903 0.0456787 1.28561e-27)
(0.0452232 0.0620926 -5.91685e-29)
(0.0438482 0.0730212 -1.37007e-27)
(0.0384405 0.0764312 -1.27266e-27)
(0.0309978 0.0755829 -6.60657e-28)
(0.0243067 0.0747409 4.97991e-28)
(0.0189917 0.0751243 0)
(0.0145328 0.0760841 -4.53628e-28)
(0.0107208 0.0773095 0)
(0.00748306 0.0787278 2.09439e-28)
(0.00477207 0.0802766 1.01611e-27)
(0.00251987 0.0819337 -8.94265e-29)
(0.000731655 0.0836097 -1.88539e-28)
(0.0459563 0.00110858 3.57747e-28)
(0.045003 0.00437042 5.81073e-28)
(0.0441245 0.00952273 -2.38023e-29)
(0.0433822 0.0167072 9.8725e-28)
(0.0431704 0.0274693 2.34657e-27)
(0.0442347 0.0432038 1.31718e-27)
(0.0461036 0.0603746 -1.46066e-27)
(0.0459496 0.0736414 -1.52319e-27)
(0.0419213 0.0793675 1.46348e-27)
(0.0348678 0.0791587 -1.11706e-27)
(0.0277048 0.0776696 -5.79187e-28)
(0.021889 0.0772383 3.01722e-28)
(0.0171454 0.0777425 -4.7677e-28)
(0.013092 0.0785836 0)
(0.00961892 0.0796828 1.36549e-28)
(0.00669023 0.0809505 -2.5374e-28)
(0.00423182 0.0823792 -3.219e-28)
(0.00221031 0.083827 8.31059e-28)
(0.000634015 0.0853628 8.32138e-29)
(0.0469872 0.00103611 0)
(0.0461664 0.00406599 5.48934e-28)
(0.0453876 0.00909375 7.94047e-28)
(0.044667 0.0160264 1.95982e-27)
(0.0442893 0.026113 1.20613e-27)
(0.0449378 0.0409634 1.47325e-27)
(0.0467358 0.0583789 -5.20522e-29)
(0.047446 0.0735079 1.65456e-27)
(0.0448016 0.081751 1.38485e-27)
(0.0385639 0.0828632 1.36343e-28)
(0.0311717 0.0810493 -1.03501e-27)
(0.0248213 0.0797347 0)
(0.0197491 0.0796819 7.16889e-28)
(0.0154484 0.0801163 0)
(0.0117482 0.0808899 0)
(0.0085896 0.0818522 1.26286e-28)
(0.00593547 0.0830302 0)
(0.00370892 0.0842466 0)
(0.00191452 0.085582 1.85097e-28)
(0.000535187 0.0869199 7.15491e-29)
(0.0478529 0.00096277 3.12279e-28)
(0.0471898 0.00377591 5.67307e-28)
(0.0465097 0.00871945 1.6278e-27)
(0.0458854 0.0154578 -2.06997e-29)
(0.0454227 0.0250336 0)
(0.0456927 0.0390183 2.7583e-27)
(0.0472174 0.0563099 1.62805e-27)
(0.0484734 0.072777 3.22708e-27)
(0.0470452 0.0834798 2.14489e-42)
(0.0418952 0.0864579 -1.85522e-28)
(0.0346263 0.0848008 1.38354e-28)
(0.0278102 0.0826677 0)
(0.0223407 0.0819054 7.37638e-28)
(0.0177869 0.0819195 -5.586e-28)
(0.0138701 0.0823393 6.13597e-29)
(0.010476 0.0829902 -3.88864e-28)
(0.00762052 0.0838822 -3.67649e-28)
(0.00520579 0.0848826 0)
(0.0032067 0.0859903 2.25631e-31)
(0.00162084 0.0871383 -6.32625e-28)
(0.000439561 0.0882977 2.99456e-29)
(0.0485107 0.000891681 6.24814e-28)
(0.0480378 0.00353052 -5.44053e-29)
(0.047512 0.00834369 1.60209e-27)
(0.0470276 0.0148772 -9.30361e-28)
(0.0465081 0.0241542 1.24623e-27)
(0.046556 0.0374071 1.59704e-27)
(0.0476413 0.0543546 1.36558e-27)
(0.0491253 0.0716645 3.3646e-27)
(0.0486907 0.0845246 1.65946e-27)
(0.0447606 0.0897104 1.39908e-27)
(0.0379486 0.0888007 -2.52035e-28)
(0.0308278 0.0860718 1.48864e-42)
(0.0249082 0.0844589 0)
(0.0200912 0.084 0)
(0.0159533 0.0840384 1.214e-28)
(0.0123613 0.0843729 -4.70328e-28)
(0.00927552 0.0849531 -7.44727e-28)
(0.00668465 0.0857211 2.08328e-28)
(0.00449792 0.0865972 -4.42888e-28)
(0.00271676 0.087541 -1.28453e-27)
(0.00133652 0.0885081 -1.92102e-28)
(0.000347395 0.0895123 -7.20157e-29)
(0.0489909 0.000829918 2.92508e-28)
(0.0486935 0.00329182 -3.4214e-29)
(0.0483761 0.0079027 1.58765e-27)
(0.0479979 0.0142958 -2.96863e-29)
(0.0475553 0.0235286 2.5416e-27)
(0.0474109 0.0361517 1.4673e-27)
(0.0480693 0.0526042 3.5866e-27)
(0.0495118 0.0703415 1.63476e-27)
(0.0497822 0.0849888 1.93476e-27)
(0.0470681 0.0924883 3.27477e-27)
(0.0410399 0.0928491 -1.43996e-27)
(0.0338282 0.0898939 -1.28799e-28)
(0.0274762 0.0874143 -1.10431e-27)
(0.0223493 0.0863509 0)
(0.0179918 0.0859779 6.58795e-28)
(0.0142176 0.0859954 0)
(0.0109263 0.0862511 5.61094e-29)
(0.00813576 0.086758 -3.62029e-28)
(0.00578243 0.0873941 1.85399e-28)
(0.00381452 0.0881261 0)
(0.00224997 0.0888909 -1.38969e-27)
(0.00105716 0.0897228 2.01136e-28)
(0.000255779 0.0905712 1.06088e-33)
(0.0492833 0.00078129 -2.65883e-28)
(0.0491376 0.00309148 -5.16296e-28)
(0.0490214 0.00743311 1.55991e-27)
(0.0488 0.0138753 1.02298e-27)
(0.0484566 0.0231315 2.54645e-27)
(0.0481533 0.0352302 1.63846e-27)
(0.048514 0.0511555 1.55903e-27)
(0.049736 0.0690291 2.15045e-27)
(0.0504747 0.0849739 0)
(0.0487683 0.0947013 3.83273e-27)
(0.0437545 0.096783 -1.36541e-27)
(0.0367456 0.0940331 1.33292e-27)
(0.030054 0.0907904 -2.51819e-32)
(0.0245595 0.0889843 -8.97101e-28)
(0.0199925 0.0881573 2.46463e-28)
(0.0160257 0.0878305 0)
(0.0125647 0.0877851 5.90944e-28)
(0.00957697 0.0879933 -1.20116e-27)
(0.00704509 0.0883875 0)
(0.0049098 0.0888946 1.62091e-28)
(0.00315669 0.0894636 9.76934e-28)
(0.00178389 0.0901181 3.19213e-28)
(0.000769075 0.0907895 0)
(0.000154759 0.0914674 4.35577e-29)
(0.0493626 0.000727639 -5.31064e-28)
(0.0494219 0.00296155 -5.0977e-28)
(0.0494251 0.00696359 1.81281e-32)
(0.0494104 0.0136029 -8.36184e-36)
(0.0491287 0.0228779 1.21445e-27)
(0.0487734 0.034661 -1.52296e-28)
(0.048902 0.0500793 2.03948e-27)
(0.049856 0.0678669 3.64219e-27)
(0.0507962 0.0846382 1.55021e-28)
(0.0499575 0.0963631 3.67916e-27)
(0.0459731 0.100418 1.857e-27)
(0.0394768 0.0983741 3.12881e-27)
(0.032596 0.0945689 2.42694e-27)
(0.0267449 0.0919517 -2.02012e-27)
(0.0219232 0.0905974 7.2294e-28)
(0.0177823 0.0898795 2.30834e-28)
(0.014167 0.0895268 1.04176e-27)
(0.0110039 0.0894376 4.69574e-28)
(0.00829914 0.0895696 -7.351e-28)
(0.00599728 0.0898552 3.4509e-28)
(0.00405874 0.0902321 4.26106e-28)
(0.00250308 0.0906968 -4.37622e-28)
(0.00130196 0.0911974 -3.30681e-28)
(0.00046673 0.091689 1.99765e-28)
(7.46911e-05 0.0922275 -3.75578e-30)
(0.0492504 0.000668996 -2.77446e-28)
(0.0495361 0.00279804 -1.21106e-28)
(0.0496408 0.00650695 -7.5689e-28)
(0.0498102 0.0133825 -1.04686e-27)
(0.049609 0.0227839 -1.47515e-27)
(0.049211 0.0344818 -8.07028e-29)
(0.0491612 0.0493489 1.5548e-27)
(0.0498737 0.0668975 2.19494e-27)
(0.0508469 0.0841637 1.42532e-28)
(0.0506476 0.0975465 3.97725e-27)
(0.047698 0.103664 1.8063e-27)
(0.0418797 0.102753 3.35889e-27)
(0.0350399 0.0987219 2.69481e-27)
(0.0288866 0.0952915 -1.11209e-27)
(0.023785 0.0933094 1.8739e-27)
(0.0194752 0.0921542 -1.10898e-28)
(0.0157084 0.0914593 0)
(0.0124087 0.0910826 4.00984e-28)
(0.00953468 0.0909404 3.63967e-28)
(0.00707667 0.0909991 4.12817e-28)
(0.004965 0.0911939 -3.46714e-28)
(0.00322434 0.09145 -5.59887e-28)
(0.00183836 0.091792 -7.86817e-28)
(0.000807025 0.0921095 0)
(0.000162929 0.0924233 -3.34275e-29)
(-6.29403e-05 0.0927914 6.79161e-30)
(0.0489107 0.000612868 0)
(0.0494188 0.00261475 -2.12158e-28)
(0.0497093 0.00625684 -6.27371e-29)
(0.0499596 0.01321 -1.05227e-27)
(0.0499061 0.022865 -1.11801e-27)
(0.0494726 0.0345722 -1.71834e-27)
(0.0492729 0.0489562 -1.74794e-27)
(0.0497585 0.0661877 1.90107e-27)
(0.050732 0.0837202 2.12865e-27)
(0.0509042 0.098365 4.20923e-27)
(0.0488896 0.106486 1.00605e-28)
(0.0439118 0.107026 3.31422e-27)
(0.0372998 0.103159 3.14084e-27)
(0.0309394 0.0990121 1.98946e-28)
(0.0255934 0.0963063 8.26666e-28)
(0.0210918 0.0946514 0)
(0.0171913 0.0935989 7.60002e-28)
(0.0137553 0.0929223 0)
(0.0107356 0.0925088 -3.58348e-28)
(0.00812647 0.0923351 0)
(0.00586544 0.0923395 -4.15596e-28)
(0.0039488 0.0923841 -3.43239e-28)
(0.00238657 0.0925611 8.59194e-29)
(0.00116207 0.0927173 0)
(0.00029933 0.0928557 4.63768e-28)
(-0.000125624 0.0929859 1.52045e-28)
(-0.000152163 0.0931046 0)
(0.0482862 0.000567828 4.51882e-28)
(0.0490555 0.00246833 0)
(0.049523 0.0061392 -1.43687e-28)
(0.0498691 0.013108 -1.04751e-27)
(0.0499464 0.0231286 -2.22151e-28)
(0.0495446 0.0348865 -1.39035e-27)
(0.0492193 0.0489244 -3.50873e-27)
(0.0495057 0.06576 1.53144e-28)
(0.0504135 0.0833789 2.04722e-27)
(0.0508482 0.0989705 -8.05706e-36)
(0.0495577 0.10885 2.07127e-27)
(0.0455145 0.111091 3.67919e-27)
(0.039323 0.107751 1.75072e-27)
(0.0328877 0.103077 0)
(0.0273115 0.0996078 1.34203e-27)
(0.0226286 0.0973871 9.71394e-28)
(0.0186011 0.0959467 6.46187e-28)
(0.0150425 0.0949497 0)
(0.0118921 0.0942673 6.3331e-28)
(0.00913862 0.0938511 -3.16254e-28)
(0.00674478 0.093659 4.81932e-28)
(0.0046728 0.0935025 -8.17737e-28)
(0.00294029 0.0935052 0)
(0.00152935 0.0935019 -1.17725e-28)
(0.000463664 0.0934909 3.38319e-28)
(-0.000195733 0.0934272 -9.32805e-29)
(-0.000461009 0.0933595 -3.64986e-28)
(-0.000276639 0.0932774 1.32726e-29)
(0.0473513 0.000540673 -3.19276e-27)
(0.0484005 0.00238598 1.84838e-28)
(0.0490962 0.0061303 0)
(0.0495117 0.013158 0)
(0.0496789 0.0235719 5.36904e-27)
(0.0493412 0.0355233 -2.00003e-28)
(0.0490407 0.0491531 -1.44181e-27)
(0.0491242 0.0656176 -1.66999e-27)
(0.0498868 0.0831952 -4.06899e-27)
(0.0505088 0.0994079 -2.19326e-27)
(0.0497975 0.110815 2.16233e-27)
(0.0466353 0.114846 1.94959e-27)
(0.0410528 0.112388 -1.98079e-28)
(0.0346827 0.107422 1.77532e-27)
(0.0289376 0.103218 1.26194e-27)
(0.0240843 0.100382 1.07134e-27)
(0.0199208 0.0984847 9.22509e-28)
(0.0162569 0.0971601 -1.79347e-28)
(0.0130022 0.0961969 8.75416e-28)
(0.0101197 0.0955262 -1.55347e-28)
(0.00760239 0.0951285 -2.7357e-28)
(0.00539119 0.0948026 5.37579e-28)
(0.00350128 0.0946249 -2.92369e-34)
(0.00190815 0.09447 -1.07024e-28)
(0.000647795 0.0943053 5.1514e-28)
(-0.000246786 0.0940969 -8.04847e-29)
(-0.000759653 0.0938489 0)
(-0.000839218 0.0935582 -1.23567e-27)
(-0.000409496 0.0932425 -4.37576e-28)
(0.0461213 0.000540338 -3.25949e-28)
(0.0474091 0.00236614 -4.02092e-27)
(0.048366 0.00628778 -2.73476e-27)
(0.0488003 0.0135396 4.04241e-27)
(0.0490276 0.0243368 5.44159e-27)
(0.0488031 0.0364554 0)
(0.048522 0.0497469 0)
(0.0485752 0.0657855 3.99105e-31)
(0.0491938 0.083215 -3.84875e-27)
(0.0499113 0.0997924 0)
(0.049665 0.112473 -4.3343e-27)
(0.0472988 0.118237 -2.02195e-27)
(0.0424171 0.116953 1.85147e-27)
(0.0362862 0.111991 1.39085e-27)
(0.0304432 0.107116 1.37508e-27)
(0.0254404 0.103623 1.16928e-27)
(0.0211578 0.101215 2.3543e-27)
(0.0173997 0.099551 -1.70024e-28)
(0.0140516 0.098287 0)
(0.0110623 0.0973604 8.37058e-28)
(0.00843338 0.0967362 -6.07309e-28)
(0.00610254 0.0962541 4.6188e-32)
(0.00406265 0.095915 0)
(0.0023109 0.0956114 -1.07098e-28)
(0.000853082 0.0953034 3.66455e-28)
(-0.000260747 0.0949571 -6.23574e-32)
(-0.00103117 0.0945637 -3.01261e-28)
(-0.00137901 0.0940931 1.36446e-27)
(-0.00125033 0.0935498 7.49381e-29)
(-0.00055972 0.0929721 -6.36345e-28)
(0.0446078 0.000568055 -2.4281e-28)
(0.0461117 0.00244247 2.05973e-27)
(0.0472593 0.00668992 -1.94441e-27)
(0.0476872 0.0143989 4.00302e-27)
(0.0479158 0.0254047 5.44132e-27)
(0.0478899 0.0376359 -5.52953e-27)
(0.0476758 0.0506234 -7.21015e-27)
(0.0477781 0.0662951 5.58224e-28)
(0.0483221 0.0834669 1.7059e-26)
(0.0490877 0.100222 4.9334e-29)
(0.0491895 0.113888 -4.41729e-27)
(0.0475309 0.121265 -2.19218e-27)
(0.0433979 0.121344 -1.93291e-27)
(0.037643 0.11669 0)
(0.0318044 0.111273 1.48992e-27)
(0.0266847 0.107105 1.28129e-27)
(0.0222915 0.104154 1.09227e-27)
(0.0184577 0.102107 1.27909e-27)
(0.0150342 0.100528 0)
(0.0119669 0.0993465 6.06269e-28)
(0.00923138 0.09848 -6.70116e-28)
(0.00679577 0.0978374 -3.7215e-28)
(0.0046281 0.09735 1.86089e-28)
(0.00272985 0.0969171 1.97875e-28)
(0.00109464 0.0964793 0)
(-0.000233539 0.09601 -2.84972e-29)
(-0.00125003 0.0954918 1.19778e-28)
(-0.00188348 0.0948667 0)
(-0.00205373 0.094145 -1.79033e-31)
(-0.00171086 0.0933093 2.69345e-27)
(-0.000727891 0.0924319 3.71446e-29)
(0.0428273 0.000621858 4.08427e-27)
(0.0445429 0.00264077 -1.40425e-27)
(0.0458025 0.00735125 3.41057e-27)
(0.0462155 0.0157021 -3.94028e-27)
(0.046376 0.0267701 5.354e-27)
(0.0465466 0.0390463 -7.35495e-27)
(0.046479 0.051803 -6.44303e-27)
(0.0466793 0.0670915 0)
(0.0472271 0.0839516 1.77505e-26)
(0.0480469 0.10074 9.10539e-27)
(0.04841 0.115137 0)
(0.0473595 0.123957 1.30503e-28)
(0.0439872 0.125489 -4.18531e-27)
(0.0387202 0.121419 -7.3149e-27)
(0.0329952 0.115647 6.39179e-27)
(0.0278055 0.110817 0)
(0.0233201 0.107301 0)
(0.0194052 0.104825 2.08025e-27)
(0.0159342 0.102923 0)
(0.0128057 0.101475 8.19723e-28)
(0.00999061 0.100364 -1.30631e-28)
(0.00746631 0.0995513 0)
(0.00518642 0.0989091 1.86958e-28)
(0.00316177 0.0983631 1.4324e-28)
(0.00136588 0.0978243 9.03192e-29)
(-0.000156601 0.0972445 1.17013e-28)
(-0.00140661 0.0966246 -1.00945e-28)
(-0.00231439 0.0958807 0)
(-0.00281806 0.0949996 1.47353e-27)
(-0.00281011 0.0939865 -2.51728e-27)
(-0.00224251 0.0928068 -2.92013e-28)
(-0.000915532 0.0915876 -2.07171e-27)
(0.0408162 0.000708576 -4.42866e-27)
(0.0427137 0.00296272 2.67203e-27)
(0.0439955 0.00830282 2.71275e-27)
(0.0444172 0.0173707 -3.88611e-27)
(0.0445406 0.0283843 0)
(0.0448119 0.0406416 0)
(0.0449341 0.0532823 7.27496e-28)
(0.0452441 0.0681141 -1.6467e-26)
(0.0458882 0.0846368 0)
(0.0467747 0.101367 9.16806e-27)
(0.0473596 0.116273 1.83056e-26)
(0.0468235 0.126345 0)
(0.0441818 0.129348 1.72277e-26)
(0.0394939 0.126099 -7.78305e-27)
(0.0339787 0.120183 6.83072e-27)
(0.028782 0.114748 -5.89727e-27)
(0.0242245 0.110658 4.34766e-28)
(0.0202498 0.10772 8.65812e-28)
(0.0167247 0.105476 2.25342e-27)
(0.0135537 0.10375 1.77392e-27)
(0.0106831 0.102398 7.95021e-28)
(0.00808925 0.10139 0)
(0.00573104 0.100589 9.55322e-29)
(0.00359953 0.0999253 6.82855e-28)
(0.00167218 0.0993009 1.00098e-28)
(-3.19689e-05 0.0986467 1.29419e-28)
(-0.00149089 0.0979486 -2.14748e-28)
(-0.00267233 0.0971127 0)
(-0.00348193 0.0961347 1.15496e-27)
(-0.00386179 0.0949379 -1.13756e-27)
(-0.00367323 0.0935976 -1.78067e-27)
(-0.00286634 0.0920372 -4.71333e-32)
(-0.00113696 0.0903842 -1.88169e-27)
(0.0386366 0.000835486 0)
(0.0406379 0.00340522 -4.25234e-27)
(0.0419147 0.00958423 6.39925e-27)
(0.0423284 0.0192975 1.59911e-27)
(0.0424435 0.0301955 0)
(0.0427949 0.0423688 -9.98119e-28)
(0.043094 0.0549331 -7.25356e-28)
(0.0435232 0.0693048 -1.53623e-26)
(0.0442894 0.0854932 -1.7536e-26)
(0.0452806 0.102091 1.84316e-26)
(0.0460663 0.117343 1.80618e-26)
(0.0459569 0.128462 1.0463e-26)
(0.0440008 0.132894 9.87753e-31)
(0.0399388 0.130657 0)
(0.034734 0.124825 -1.45047e-26)
(0.0295814 0.118884 -6.7258e-27)
(0.0249957 0.114222 0)
(0.0209728 0.110785 4.11992e-28)
(0.0174098 0.108176 1.43239e-27)
(0.0142092 0.106165 1.19593e-27)
(0.0112999 0.104564 0)
(0.00865462 0.103342 5.63973e-28)
(0.00624681 0.102379 0)
(0.00403582 0.101591 7.84373e-29)
(0.00200627 0.100883 -6.75558e-28)
(0.000152673 0.100179 1.45163e-28)
(-0.00150417 0.0994343 0)
(-0.00292711 0.0985596 2.96761e-28)
(-0.00405853 0.097487 -6.2921e-28)
(-0.0047798 0.0962257 5.01037e-28)
(-0.00503486 0.0946679 -4.44223e-27)
(-0.00465843 0.0929343 -1.31848e-27)
(-0.00351409 0.0908929 2.05199e-27)
(-0.000660936 0.0891734 6.20578e-28)
(-0.00201144 0.0892275 -7.25864e-29)
(0.03627 0.00102321 0)
(0.0383525 0.00401484 -6.49553e-28)
(0.0395927 0.0112091 -5.15417e-27)
(0.0399707 0.0213737 7.03151e-27)
(0.0401491 0.0321742 3.6678e-31)
(0.0405647 0.0441941 -2.5161e-28)
(0.0410201 0.0566424 -7.1362e-28)
(0.0415769 0.0705972 -4.2883e-28)
(0.0424599 0.0864508 2.74422e-28)
(0.0435749 0.10291 3.71826e-26)
(0.0445556 0.11837 9.90961e-28)
(0.0448034 0.130346 -1.08977e-26)
(0.0434661 0.136122 1.37402e-27)
(0.0400519 0.135021 0)
(0.0352384 0.129504 -1.52644e-26)
(0.0302011 0.123185 3.26806e-29)
(0.0256183 0.117967 -1.45825e-30)
(0.0215747 0.11401 -9.69001e-27)
(0.0179924 0.111015 0)
(0.0147704 0.108693 -4.25809e-28)
(0.0118457 0.106829 -1.83796e-27)
(0.00917052 0.105394 8.43655e-28)
(0.00671852 0.10426 -3.88273e-32)
(0.0044631 0.103347 -7.27624e-28)
(0.00235631 0.102556 -6.78234e-28)
(0.000387922 0.101812 -3.65432e-29)
(-0.00143665 0.101047 0)
(-0.00308047 0.100164 -1.24244e-29)
(-0.00449103 0.0990808 4.9779e-28)
(-0.00558844 0.0977172 -5.9824e-28)
(-0.00623351 0.0961496 0)
(-0.00636124 0.0941388 -3.81869e-28)
(-0.00493788 0.091677 8.35299e-29)
(-0.00602757 0.0923339 -2.15785e-27)
(-0.00337088 0.0895055 0)
(-0.00542609 0.0914088 9.01547e-29)
(-0.00472378 0.0899411 -7.02643e-28)
(-0.000761521 0.0882237 0)
(-0.00220175 0.0883548 -1.63362e-27)
(0.0337008 0.00128525 -1.2251e-29)
(0.0358313 0.0048895 -9.96504e-28)
(0.0369803 0.0131423 2.50457e-27)
(0.03737 0.0235686 4.9899e-28)
(0.03766 0.0343238 0)
(0.0381415 0.0460984 -9.92514e-28)
(0.0387619 0.0583525 -1.74079e-28)
(0.0394574 0.071935 0)
(0.0404562 0.0874346 1.71722e-26)
(0.0416863 0.103766 1.7803e-26)
(0.0428492 0.119363 1.1582e-27)
(0.0434094 0.13204 -4.01067e-26)
(0.0426119 0.139037 3.41858e-26)
(0.0398416 0.139144 1.63033e-26)
(0.0354835 0.134147 0)
(0.0306328 0.127596 1.4205e-26)
(0.0260881 0.121851 1.24087e-26)
(0.0220536 0.117392 -2.15284e-26)
(0.0184529 0.114002 5.77199e-28)
(0.0152222 0.111345 0)
(0.012294 0.109208 1.95639e-27)
(0.00961627 0.107544 -3.96038e-28)
(0.00714402 0.106234 1.66271e-27)
(0.0048564 0.105179 3.29175e-28)
(0.00270754 0.104299 -1.29752e-28)
(0.000661013 0.103521 -3.46842e-28)
(-0.00129115 0.102755 -2.95388e-28)
(-0.00312588 0.101904 -1.57897e-28)
(-0.00479455 0.100829 -2.38532e-29)
(-0.00621831 0.0995182 2.90031e-28)
(-0.00729724 0.0977865 0)
(-0.00788303 0.0958029 1.78845e-27)
(-0.00697899 0.0930146 -2.21494e-27)
(-0.00798853 0.0938747 -2.51006e-28)
(-0.00658739 0.0919816 -1.05113e-27)
(-0.00373994 0.0886525 0)
(-0.00605823 0.0905353 1.06615e-28)
(-0.00520379 0.0891099 0)
(-0.000798967 0.0872087 1.54446e-27)
(-0.00242452 0.0873664 -3.58459e-27)
(0.0310156 0.00159738 -1.48016e-29)
(0.0331373 0.00604896 -3.64601e-28)
(0.0341337 0.0152903 -5.14337e-27)
(0.0345618 0.0258766 3.17515e-27)
(0.0350113 0.0365646 7.23158e-27)
(0.0355779 0.0480113 9.70484e-28)
(0.0363562 0.0600146 6.69037e-27)
(0.0372084 0.0732669 0)
(0.0383306 0.0884049 0)
(0.0396648 0.104597 9.04961e-27)
(0.0409811 0.120284 0)
(0.041815 0.133549 -1.93297e-26)
(0.041491 0.141658 -4.00394e-27)
(0.0393217 0.142993 1.82203e-26)
(0.0354703 0.13869 1.80549e-26)
(0.0308661 0.132072 1.50481e-26)
(0.0264052 0.125855 1.30368e-26)
(0.0223913 0.120912 -1.01357e-28)
(0.0187997 0.117125 1.02922e-26)
(0.015559 0.114122 9.17768e-27)
(0.0126283 0.111713 -4.15356e-27)
(0.00995869 0.1098 8.28465e-27)
(0.00749238 0.108298 8.79885e-27)
(0.00520311 0.107076 3.28184e-27)
(0.00304108 0.106101 4.24735e-28)
(0.000957295 0.105285 -3.7244e-28)
(-0.00108091 0.104531 -7.19038e-28)
(-0.00305211 0.103722 -3.512e-28)
(-0.00496093 0.102747 3.34295e-28)
(-0.00669305 0.101447 0)
(-0.0081486 0.0998669 0)
(-0.00921504 0.0976402 -4.6629e-28)
(-0.00883211 0.0947229 0)
(-0.00972658 0.0957744 -3.88356e-28)
(-0.00773051 0.0926911 -2.17554e-27)
(-0.00878718 0.0935316 0)
(-0.00732208 0.0912335 1.2138e-28)
(-0.00410802 0.0876929 1.73642e-27)
(-0.00665663 0.0897272 0)
(-0.00575383 0.0881929 0)
(-0.000872277 0.0860675 1.68073e-27)
(-0.0026773 0.0862514 -2.21832e-27)
(0.0282834 0.00196296 0)
(0.0303252 0.0074419 3.98591e-28)
(0.0311814 0.0175393 -1.27864e-27)
(0.0316899 0.0282263 -3.04223e-27)
(0.0322592 0.0387512 1.16191e-26)
(0.03294 0.0498693 1.87213e-27)
(0.0338502 0.0615977 1.3651e-26)
(0.0348702 0.0745625 -7.49882e-27)
(0.0361145 0.089337 0)
(0.0375572 0.105384 6.1935e-32)
(0.0389983 0.121124 9.40842e-27)
(0.0400621 0.134861 4.92546e-28)
(0.0401495 0.143982 -2.04388e-26)
(0.0385359 0.146541 0)
(0.0351958 0.143075 1.23198e-29)
(0.0308993 0.136563 -1.36921e-26)
(0.0265513 0.129968 0)
(0.0225854 0.124558 -4.45188e-28)
(0.0190158 0.120363 1.10268e-26)
(0.015784 0.117009 -4.14759e-31)
(0.0128565 0.114322 4.59101e-31)
(0.0101989 0.112157 1.13611e-26)
(0.00775084 0.110441 8.03444e-27)
(0.00547955 0.109035 3.778e-27)
(0.00334181 0.10795 -5.94246e-28)
(0.00125629 0.107085 2.39656e-28)
(-0.000816672 0.106352 -2.72771e-28)
(-0.00289194 0.105603 -1.88204e-28)
(-0.00494302 0.104726 3.66055e-28)
(-0.00699947 0.103607 0)
(-0.00882364 0.101952 -7.00955e-28)
(-0.0103365 0.0999981 0)
(-0.0104493 0.0967751 -5.89686e-35)
(-0.0112323 0.0980026 -3.15664e-28)
(-0.00980376 0.094465 -4.56418e-28)
(-0.0107308 0.0955118 4.8545e-28)
(-0.00854999 0.0920528 -3.53626e-27)
(-0.00972341 0.0929906 -4.58431e-28)
(-0.00807039 0.0904826 -6.75558e-28)
(-0.00454077 0.0866152 1.52702e-27)
(-0.00736189 0.0888615 0)
(-0.00637049 0.0871741 0)
(-0.00095737 0.0848013 -3.13469e-28)
(-0.00295834 0.0850189 -4.86126e-27)
(0.0255611 0.00239421 4.68457e-27)
(0.0274139 0.00907487 8.57997e-28)
(0.0282031 0.0197607 0)
(0.0288405 0.0304725 2.8836e-27)
(0.0294927 0.0407727 2.23089e-27)
(0.0303065 0.0516427 1.35845e-30)
(0.0313131 0.0630838 1.20399e-26)
(0.0324715 0.0757768 -7.31694e-27)
(0.0338375 0.0902011 0)
(0.0353948 0.106107 -8.77382e-27)
(0.0369483 0.121874 1.86009e-26)
(0.0381941 0.135991 -9.62941e-27)
(0.0386286 0.146015 1.2259e-27)
(0.0375328 0.149774 -1.20274e-27)
(0.0346878 0.147252 -2.68481e-26)
(0.0307338 0.14101 -1.91569e-26)
(0.0265375 0.134157 0)
(0.0226261 0.128315 -1.30025e-26)
(0.0190871 0.123718 -2.31177e-26)
(0.0158847 0.120015 -1.00988e-26)
(0.0129632 0.117033 9.49411e-27)
(0.0103224 0.114605 4.62833e-27)
(0.0079115 0.112655 -5.7771e-28)
(0.00567581 0.111055 -7.20105e-27)
(0.00357774 0.109828 0)
(0.00154247 0.108908 -5.29151e-28)
(-0.000524503 0.108182 -9.7377e-29)
(-0.00263906 0.10751 2.45813e-29)
(-0.00482466 0.106771 5.38401e-30)
(-0.00704293 0.105793 1.31711e-28)
(-0.00928336 0.10449 -7.69106e-28)
(-0.0111882 0.102291 5.99627e-27)
(-0.0118446 0.0991562 -1.73356e-28)
(-0.0124979 0.100562 -1.79845e-28)
(-0.0116117 0.0966422 1.83596e-28)
(-0.0124128 0.0978797 -8.84538e-29)
(-0.0108312 0.0940335 -1.13423e-27)
(-0.0118671 0.0951765 6.97777e-32)
(-0.00943277 0.0913785 -3.72614e-27)
(-0.0107337 0.0924099 -4.71328e-27)
(-0.0089234 0.0896896 -1.32546e-27)
(-0.00502175 0.085437 0)
(-0.00814896 0.087921 0)
(-0.00704219 0.0860661 -1.97529e-27)
(-0.00105775 0.0833783 -3.34984e-65)
(-0.00327016 0.0836296 -1.4649e-30)
(0.0229147 0.0028404 5.9541e-29)
(0.0245789 0.0107804 8.7226e-27)
(0.0253469 0.0217737 0)
(0.0260654 0.0324985 0)
(0.0267993 0.0426321 -2.1811e-27)
(0.0277236 0.0532819 9.73002e-28)
(0.028807 0.0644348 5.0145e-27)
(0.0300729 0.0768512 -2.9121e-28)
(0.0315482 0.090966 0)
(0.0332056 0.106736 -9.25635e-29)
(0.0348652 0.122529 9.16334e-27)
(0.0362564 0.136957 -2.18897e-34)
(0.0369785 0.147778 0)
(0.0363358 0.152691 -8.30814e-27)
(0.0339864 0.151185 -6.86572e-31)
(0.0303889 0.145367 -8.93965e-28)
(0.0263753 0.138376 0)
(0.0225338 0.132159 -1.36776e-26)
(0.0190296 0.127175 -2.42876e-26)
(0.0158477 0.123138 -1.02865e-26)
(0.0129472 0.11986 1.89883e-26)
(0.0103202 0.117147 8.93617e-27)
(0.00795228 0.114935 -7.46461e-27)
(0.00577013 0.11313 -6.88444e-27)
(0.00373103 0.111747 6.07199e-28)
(0.00176523 0.110728 6.98052e-27)
(-0.000220217 0.109996 1.37874e-26)
(-0.00231969 0.109415 -7.86935e-29)
(-0.00454105 0.108806 1.7063e-27)
(-0.00693399 0.108048 -1.62999e-27)
(-0.00942422 0.106837 -6.263e-35)
(-0.011923 0.105279 6.55575e-27)
(-0.0129743 0.101847 -1.13541e-28)
(-0.0134977 0.103385 -3.88645e-28)
(-0.013158 0.0991882 -4.81176e-28)
(-0.0138318 0.100601 9.45241e-29)
(-0.0128308 0.0964176 0)
(-0.0137254 0.0977514 0)
(-0.0119585 0.0935605 -1.43991e-27)
(-0.0131055 0.0948146 -4.4368e-28)
(-0.0104266 0.0906728 -2.0059e-27)
(-0.0118589 0.0918095 -2.4013e-27)
(-0.00986895 0.0888439 0)
(-0.00555384 0.0841044 -2.26549e-27)
(-0.00900057 0.0868983 0)
(-0.00779525 0.084809 -4.16175e-27)
(-0.00117195 0.0817553 3.84192e-65)
(-0.00363019 0.0820324 5.12569e-27)
(0.0204532 0.0032585 4.09423e-27)
(0.0219553 0.0124092 4.6179e-28)
(0.0226756 0.0235606 6.12743e-27)
(0.0234651 0.0342946 -1.76351e-27)
(0.024246 0.0443475 4.20957e-27)
(0.0252112 0.0547371 2.04987e-27)
(0.0263719 0.0656284 -1.07853e-27)
(0.027723 0.0777732 0)
(0.0292824 0.0916086 7.67857e-27)
(0.0310286 0.10725 0)
(0.0327702 0.123079 -1.91064e-28)
(0.0342915 0.137764 9.59653e-27)
(0.0352442 0.149287 -9.69981e-27)
(0.034988 0.155295 1.41714e-31)
(0.0331113 0.154856 1.06753e-26)
(0.0298791 0.149596 0)
(0.0260756 0.142598 -7.81653e-28)
(0.0223226 0.136052 -1.43712e-26)
(0.0188626 0.130709 0)
(0.0156987 0.126354 -1.22719e-26)
(0.012815 0.122797 3.01382e-26)
(0.0101918 0.11979 8.86527e-27)
(0.00785836 0.117299 -8.18501e-27)
(0.0057365 0.115268 9.4934e-28)
(0.00377725 0.113686 7.92213e-27)
(0.00190491 0.112551 1.49741e-26)
(2.5975e-05 0.111776 1.48356e-26)
(-0.00195586 0.111236 0)
(-0.00417053 0.110843 1.80213e-27)
(-0.00660156 0.110322 -1.82994e-27)
(-0.00932218 0.109475 4.19869e-29)
(-0.0120289 0.107679 -1.4522e-28)
(-0.0138584 0.104795 -8.02529e-28)
(-0.0142272 0.106408 -5.09385e-28)
(-0.01443 0.102064 -1.14204e-28)
(-0.0149731 0.103627 0)
(-0.0145432 0.0991761 -5.62328e-28)
(-0.015297 0.100689 0)
(-0.0141667 0.0961714 1.00182e-28)
(-0.0151478 0.0976179 -2.22533e-28)
(-0.0132031 0.0930787 0)
(-0.0144572 0.0944578 0)
(-0.011516 0.0899363 0)
(-0.0130792 0.091186 0)