/*--------------------------------*- C++ -*----------------------------------*\
  =========                 |
  \\      /  F ield         | OpenFOAM: The Open Source CFD Toolbox
   \\    /   O peration     | Website:  https://openfoam.org
    \\  /    A nd           | Version:  dev
     \\/     M anipulation  |
\*---------------------------------------------------------------------------*/
FoamFile
{
    version     2.0;
    format      ascii;
    class       volScalarField;
    location    "2500";
    object      a;
}
// * * * * * * * * * * * * * * * * * * * * * * * * * * * * * * * * * * * * * //

dimensions      [0 -1 0 0 0 0 0];

internalField   nonuniform List<scalar> 
9836
(
0.100011
0.100011
0.100011
0.100011
0.100011
0.100011
0.100011
0.100011
0.100011
0.100011
0.10001
0.100011
0.100011
0.100011
0.100011
0.10001
0.10001
0.100011
0.100011
0.100011
0.100011
0.10001
0.10001
0.10001
0.100011
0.100011
0.100011
0.100011
0.10001
0.10001
0.10001
0.10001
0.100011
0.100011
0.100011
0.100011
0.100009
0.10001
0.10001
0.10001
0.10001
0.100011
0.100011
0.100011
0.100011
0.100009
0.100009
0.10001
0.10001
0.10001
0.10001
0.100011
0.100011
0.100011
0.100011
0.100009
0.100009
0.100009
0.10001
0.10001
0.10001
0.10001
0.100011
0.100011
0.100011
0.100011
0.100009
0.100009
0.100009
0.100009
0.10001
0.10001
0.10001
0.10001
0.100011
0.100011
0.100011
0.100011
0.100009
0.100009
0.100009
0.100009
0.100009
0.10001
0.10001
0.10001
0.10001
0.100011
0.100011
0.100011
0.100011
0.100008
0.100009
0.100009
0.100009
0.100009
0.100009
0.10001
0.10001
0.10001
0.10001
0.100011
0.100011
0.100011
0.100011
0.100008
0.100008
0.100009
0.100009
0.100009
0.100009
0.100009
0.10001
0.10001
0.10001
0.10001
0.100011
0.100011
0.100011
0.100011
0.100008
0.100008
0.100008
0.100009
0.100009
0.100009
0.100009
0.100009
0.10001
0.10001
0.10001
0.10001
0.100011
0.100011
0.100011
0.100011
0.100008
0.100008
0.100008
0.100008
0.100009
0.100009
0.100009
0.100009
0.100009
0.10001
0.10001
0.10001
0.10001
0.100011
0.100011
0.100011
0.100011
0.100007
0.100008
0.100008
0.100008
0.100008
0.100009
0.100009
0.100009
0.100009
0.100009
0.10001
0.10001
0.10001
0.10001
0.100011
0.100011
0.100011
0.100011
0.100007
0.100007
0.100008
0.100008
0.100008
0.100008
0.100009
0.100009
0.100009
0.100009
0.100009
0.10001
0.10001
0.10001
0.10001
0.100011
0.100011
0.100011
0.100011
0.100007
0.100007
0.100007
0.100008
0.100008
0.100008
0.100008
0.100009
0.100009
0.100009
0.100009
0.100009
0.10001
0.10001
0.10001
0.10001
0.100011
0.100011
0.100011
0.100011
0.100007
0.100007
0.100007
0.100007
0.100008
0.100008
0.100008
0.100008
0.100009
0.100009
0.100009
0.100009
0.100009
0.10001
0.10001
0.10001
0.10001
0.100011
0.100011
0.100011
0.100011
0.100006
0.100007
0.100007
0.100007
0.100007
0.100008
0.100008
0.100008
0.100008
0.100009
0.100009
0.100009
0.100009
0.100009
0.10001
0.10001
0.10001
0.10001
0.100011
0.100011
0.100011
0.100011
0.100006
0.100006
0.100007
0.100007
0.100007
0.100007
0.100008
0.100008
0.100008
0.100008
0.100008
0.100009
0.100009
0.100009
0.100009
0.10001
0.10001
0.10001
0.10001
0.100011
0.100011
0.100011
0.100011
0.100006
0.100006
0.100006
0.100007
0.100007
0.100007
0.100007
0.100008
0.100008
0.100008
0.100008
0.100008
0.100009
0.100009
0.100009
0.100009
0.10001
0.10001
0.10001
0.10001
0.100011
0.100011
0.100011
0.100011
0.100006
0.100006
0.100006
0.100006
0.100007
0.100007
0.100007
0.100007
0.100008
0.100008
0.100008
0.100008
0.100008
0.100009
0.100009
0.100009
0.100009
0.10001
0.10001
0.10001
0.10001
0.100011
0.100011
0.100011
0.100011
0.100006
0.100006
0.100006
0.100006
0.100006
0.100007
0.100007
0.100007
0.100007
0.100008
0.100008
0.100008
0.100008
0.100008
0.100009
0.100009
0.100009
0.100009
0.10001
0.10001
0.10001
0.10001
0.100011
0.100011
0.100011
0.100011
0.100005
0.100006
0.100006
0.100006
0.100006
0.100006
0.100007
0.100007
0.100007
0.100007
0.100008
0.100008
0.100008
0.100008
0.100008
0.100009
0.100009
0.100009
0.100009
0.10001
0.10001
0.10001
0.10001
0.100011
0.100011
0.100011
0.100011
0.100005
0.100005
0.100006
0.100006
0.100006
0.100006
0.100006
0.100007
0.100007
0.100007
0.100007
0.100008
0.100008
0.100008
0.100008
0.100008
0.100009
0.100009
0.100009
0.100009
0.10001
0.10001
0.10001
0.10001
0.100011
0.100011
0.100011
0.100011
0.100005
0.100005
0.100005
0.100006
0.100006
0.100006
0.100006
0.100006
0.100007
0.100007
0.100007
0.100007
0.100008
0.100008
0.100008
0.100008
0.100008
0.100009
0.100009
0.100009
0.100009
0.10001
0.10001
0.10001
0.10001
0.100011
0.100011
0.100011
0.100011
0.100005
0.100005
0.100005
0.100005
0.100006
0.100006
0.100006
0.100006
0.100006
0.100007
0.100007
0.100007
0.100007
0.100008
0.100008
0.100008
0.100008
0.100008
0.100009
0.100009
0.100009
0.100009
0.10001
0.10001
0.10001
0.10001
0.100011
0.100011
0.100011
0.100011
0.100004
0.100005
0.100005
0.100005
0.100005
0.100006
0.100006
0.100006
0.100006
0.100006
0.100007
0.100007
0.100007
0.100007
0.100008
0.100008
0.100008
0.100008
0.100008
0.100009
0.100009
0.100009
0.100009
0.10001
0.10001
0.10001
0.10001
0.100011
0.100011
0.100011
0.100011
0.100004
0.100004
0.100005
0.100005
0.100005
0.100005
0.100006
0.100006
0.100006
0.100006
0.100006
0.100007
0.100007
0.100007
0.100007
0.100008
0.100008
0.100008
0.100008
0.100008
0.100009
0.100009
0.100009
0.100009
0.10001
0.10001
0.10001
0.10001
0.100011
0.100011
0.100011
0.100011
0.100004
0.100004
0.100004
0.100005
0.100005
0.100005
0.100005
0.100006
0.100006
0.100006
0.100006
0.100006
0.100007
0.100007
0.100007
0.100007
0.100008
0.100008
0.100008
0.100008
0.100008
0.100009
0.100009
0.100009
0.100009
0.10001
0.10001
0.10001
0.10001
0.100011
0.100011
0.100011
0.100011
0.100004
0.100004
0.100004
0.100004
0.100005
0.100005
0.100005
0.100005
0.100006
0.100006
0.100006
0.100006
0.100006
0.100007
0.100007
0.100007
0.100007
0.100008
0.100008
0.100008
0.100008
0.100008
0.100009
0.100009
0.100009
0.100009
0.10001
0.10001
0.10001
0.10001
0.100011
0.100011
0.100011
0.100011
0.100011
0.100004
0.100004
0.100004
0.100004
0.100004
0.100005
0.100005
0.100005
0.100005
0.100006
0.100006
0.100006
0.100006
0.100006
0.100007
0.100007
0.100007
0.100007
0.100008
0.100008
0.100008
0.100008
0.100008
0.100009
0.100009
0.100009
0.100009
0.10001
0.10001
0.10001
0.10001
0.100011
0.100011
0.100011
0.100011
0.100011
0.100011
0.100003
0.100004
0.100004
0.100004
0.100004
0.100004
0.100005
0.100005
0.100005
0.100005
0.100006
0.100006
0.100006
0.100006
0.100006
0.100007
0.100007
0.100007
0.100007
0.100008
0.100008
0.100008
0.100008
0.100008
0.100009
0.100009
0.100009
0.100009
0.10001
0.10001
0.10001
0.10001
0.100011
0.10001
0.100011
0.100011
0.100011
0.100011
0.100011
0.100011
0.100011
0.100003
0.100003
0.100004
0.100004
0.100004
0.100004
0.100004
0.100005
0.100005
0.100005
0.100005
0.100006
0.100006
0.100006
0.100006
0.100006
0.100007
0.100007
0.100007
0.100007
0.100008
0.100008
0.100008
0.100008
0.100008
0.100009
0.100009
0.100009
0.100009
0.10001
0.10001
0.10001
0.10001
0.10001
0.10001
0.100011
0.100011
0.100011
0.100011
0.100011
0.100011
0.100011
0.100003
0.100003
0.100003
0.100004
0.100004
0.100004
0.100004
0.100004
0.100005
0.100005
0.100005
0.100005
0.100006
0.100006
0.100006
0.100006
0.100006
0.100007
0.100007
0.100007
0.100007
0.100008
0.100008
0.100008
0.100008
0.100008
0.100009
0.100009
0.100009
0.100009
0.10001
0.10001
0.10001
0.10001
0.10001
0.10001
0.10001
0.100011
0.100011
0.100011
0.100011
0.100011
0.100011
0.100011
0.100003
0.100003
0.100003
0.100003
0.100004
0.100004
0.100004
0.100004
0.100004
0.100005
0.100005
0.100005
0.100005
0.100006
0.100006
0.100006
0.100006
0.100006
0.100007
0.100007
0.100007
0.100007
0.100008
0.100008
0.100008
0.100008
0.100008
0.100009
0.100009
0.100009
0.100009
0.10001
0.10001
0.10001
0.10001
0.10001
0.10001
0.10001
0.10001
0.100011
0.100011
0.100011
0.100011
0.100011
0.100011
0.100011
0.100002
0.100003
0.100003
0.100003
0.100003
0.100004
0.100004
0.100004
0.100004
0.100004
0.100005
0.100005
0.100005
0.100005
0.100006
0.100006
0.100006
0.100006
0.100006
0.100007
0.100007
0.100007
0.100007
0.100008
0.100008
0.100008
0.100008
0.100008
0.100009
0.100009
0.100009
0.100009
0.10001
0.10001
0.10001
0.10001
0.10001
0.10001
0.10001
0.10001
0.10001
0.100011
0.100011
0.100011
0.100011
0.100011
0.100011
0.100011
0.100002
0.100002
0.100003
0.100003
0.100003
0.100003
0.100004
0.100004
0.100004
0.100004
0.100004
0.100005
0.100005
0.100005
0.100005
0.100006
0.100006
0.100006
0.100006
0.100006
0.100007
0.100007
0.100007
0.100007
0.100008
0.100008
0.100008
0.100008
0.100009
0.100009
0.100009
0.100009
0.10001
0.10001
0.10001
0.10001
0.10001
0.100011
0.10001
0.100011
0.10001
0.100011
0.100011
0.100011
0.100011
0.100011
0.100011
0.100011
0.100011
0.100011
0.100002
0.100002
0.100002
0.100003
0.100003
0.100003
0.100003
0.100003
0.100004
0.100004
0.100004
0.100004
0.100005
0.100005
0.100005
0.100005
0.100006
0.100006
0.100006
0.100006
0.100007
0.100007
0.100007
0.100007
0.100007
0.100008
0.100008
0.100008
0.100008
0.100009
0.100009
0.100009
0.10001
0.100012
0.100012
0.100015
0.100013
0.100019
0.100013
0.10002
0.100012
0.100017
0.100011
0.100013
0.100011
0.100011
0.100011
0.100011
0.100011
0.100011
0.100011
0.100011
0.100002
0.100002
0.100002
0.100002
0.100003
0.100003
0.100003
0.100003
0.100003
0.100004
0.100004
0.100004
0.100004
0.100005
0.100005
0.100005
0.100006
0.100006
0.100006
0.100007
0.100007
0.100007
0.100007
0.100007
0.100007
0.100008
0.100008
0.100008
0.100008
0.100009
0.100009
0.100011
0.100013
0.100017
0.100022
0.100038
0.100034
0.10007
0.100041
0.1001
0.100036
0.1001
0.100024
0.100069
0.100015
0.100034
0.100016
0.100011
0.100017
0.100016
0.100011
0.100011
0.100011
0.100011
0.100001
0.100002
0.100002
0.100002
0.100002
0.100003
0.100003
0.100003
0.100003
0.100003
0.100004
0.100004
0.100004
0.100005
0.100005
0.100006
0.100008
0.100009
0.10001
0.10001
0.100009
0.100009
0.100008
0.100008
0.100008
0.100008
0.100008
0.100009
0.10001
0.100012
0.100014
0.100015
0.10002
0.100028
0.100059
0.100105
0.100147
0.100328
0.10025
0.100592
0.100291
0.10079
0.100235
0.100737
0.100125
0.100478
0.100047
0.1002
0.100056
0.100015
0.100059
0.100052
0.100011
0.100013
0.100011
0.100011
0.100001
0.100001
0.100002
0.100002
0.100002
0.100002
0.100003
0.100003
0.100003
0.100003
0.100004
0.100004
0.100004
0.100005
0.100006
0.100009
0.100015
0.100026
0.100026
0.100026
0.100022
0.100018
0.100014
0.100011
0.10001
0.100009
0.10001
0.100014
0.100021
0.100035
0.100052
0.100062
0.100054
0.100008
0.100147
0.100196
0.100559
0.101037
0.101307
0.102771
0.101987
0.104567
0.102111
0.10547
0.101629
0.10476
0.10085
0.103067
0.100285
0.101319
0.100344
0.100038
0.100355
0.100299
0.100012
0.100025
0.100011
0.100011
0.100001
0.100001
0.100001
0.100002
0.100002
0.100002
0.100002
0.100003
0.100003
0.100003
0.100003
0.100004
0.100004
0.100006
0.100011
0.100021
0.100039
0.100069
0.100094
0.100099
0.100078
0.100057
0.100038
0.100025
0.100018
0.100016
0.100023
0.100048
0.100101
0.100182
0.100284
0.100377
0.100689
0.100286
0.100621
0.101488
0.102142
0.104752
0.107813
0.109452
0.116915
0.112743
0.125502
0.11249
0.128752
0.109374
0.124002
0.105056
0.11594
0.101801
0.107299
0.102107
0.1002
0.102128
0.101776
0.100017
0.100106
0.100011
0.100013
0.100001
0.100001
0.100001
0.100001
0.100002
0.100002
0.100002
0.100002
0.100003
0.100003
0.100003
0.100004
0.100005
0.100011
0.100026
0.10006
0.10012
0.100205
0.100291
0.100315
0.100284
0.100205
0.100126
0.100074
0.100046
0.100037
0.100086
0.100281
0.100645
0.101166
0.101611
0.101976
0.102705
0.105195
0.107263
0.102706
0.103698
0.111066
0.115432
0.126147
0.136737
0.142429
0.161253
0.152927
0.180492
0.153041
0.188767
0.140991
0.182772
0.123845
0.160675
0.109357
0.131568
0.110512
0.101183
0.110373
0.108627
0.100047
0.1006
0.100012
0.100022
0.100001
0.100001
0.100001
0.100001
0.100001
0.100002
0.100002
0.100002
0.100002
0.100003
0.100003
0.100004
0.100007
0.100021
0.100065
0.100173
0.100374
0.100646
0.100894
0.100957
0.100841
0.100623
0.100407
0.100232
0.100133
0.100093
0.100301
0.101423
0.103958
0.106995
0.108774
0.109026
0.109786
0.111563
0.116952
0.128578
0.13434
0.11964
0.124505
0.147287
0.157937
0.179918
0.197361
0.208382
0.234037
0.225521
0.260168
0.22819
0.272252
0.214341
0.26814
0.181117
0.244376
0.137655
0.197916
0.140475
0.105786
0.139017
0.132214
0.100222
0.102968
0.100013
0.100067
0.1
0.100001
0.100001
0.100001
0.100001
0.100001
0.100002
0.100002
0.100002
0.100002
0.100003
0.100004
0.100011
0.100044
0.100157
0.100463
0.101085
0.101983
0.102769
0.103033
0.102679
0.101974
0.101283
0.100734
0.100392
0.100223
0.100755
0.104719
0.115503
0.129718
0.135142
0.132867
0.130001
0.129497
0.136719
0.139991
0.150194
0.18189
0.188185
0.167303
0.175333
0.212653
0.226103
0.256474
0.275716
0.291392
0.317596
0.311813
0.346521
0.317169
0.360589
0.305268
0.358605
0.271562
0.337399
0.209222
0.291917
0.212854
0.12212
0.20706
0.189213
0.101101
0.112167
0.10002
0.100271
0.1
0.1
0.100001
0.100001
0.100001
0.100001
0.100001
0.100002
0.100002
0.100002
0.100002
0.100004
0.100017
0.100082
0.100339
0.101107
0.102827
0.105526
0.107963
0.109167
0.108557
0.106551
0.104209
0.102267
0.101097
0.100527
0.101223
0.109204
0.134964
0.170685
0.194651
0.192987
0.175477
0.181891
0.159645
0.182611
0.194147
0.202263
0.251073
0.256188
0.236792
0.244944
0.291628
0.304552
0.339313
0.357175
0.375473
0.396814
0.395552
0.419523
0.401885
0.429243
0.39323
0.429365
0.363666
0.417855
0.304595
0.381733
0.307916
0.165465
0.302393
0.281981
0.104685
0.139212
0.100032
0.100985
0.1
0.1
0.100001
0.100001
0.100001
0.100001
0.100001
0.100002
0.100002
0.100002
0.100004
0.100024
0.100142
0.100643
0.102289
0.106331
0.112915
0.119887
0.124373
0.124084
0.119495
0.112658
0.106547
0.102972
0.101236
0.10164
0.11288
0.151705
0.211429
0.253377
0.269397
0.260047
0.234784
0.239189
0.259829
0.210977
0.225233
0.260874
0.266351
0.325113
0.328244
0.314106
0.320713
0.370643
0.380001
0.41057
0.418512
0.432374
0.438709
0.443759
0.450321
0.448532
0.457082
0.446458
0.459787
0.432078
0.456591
0.390914
0.440362
0.390921
0.245742
0.383004
0.363477
0.116246
0.194151
0.100078
0.103439
0.1
0.1
0.100001
0.100001
0.100001
0.100001
0.100001
0.100002
0.100002
0.100005
0.100032
0.100219
0.101087
0.10409
0.111765
0.124306
0.137273
0.144845
0.14507
0.139053
0.129037
0.117435
0.107524
0.102906
0.102244
0.11507
0.16423
0.236739
0.289945
0.316651
0.328947
0.320744
0.281128
0.305431
0.294774
0.310868
0.27327
0.2829
0.330702
0.333409
0.390055
0.390278
0.385707
0.388801
0.422415
0.423647
0.440236
0.438987
0.450541
0.44886
0.458243
0.456508
0.464139
0.463313
0.466305
0.468648
0.462414
0.470685
0.444047
0.465848
0.443196
0.330573
0.436885
0.424431
0.385372
0.14651
0.275886
0.100418
0.113157
0.1
0.1
0.100001
0.100001
0.100001
0.100001
0.100001
0.100002
0.100004
0.100036
0.100287
0.101577
0.106331
0.118518
0.137776
0.156157
0.166693
0.167839
0.160881
0.148347
0.132934
0.117698
0.106771
0.103476
0.116175
0.171314
0.252118
0.295574
0.32307
0.345997
0.363561
0.377966
0.326717
0.35811
0.350808
0.360996
0.337379
0.342978
0.390054
0.390148
0.421782
0.420855
0.423399
0.422493
0.436949
0.434049
0.444856
0.438313
0.451709
0.441772
0.459531
0.450014
0.467429
0.462689
0.472726
0.471868
0.473555
0.476857
0.467524
0.474876
0.471883
0.45555
0.467455
0.412374
0.35045
0.401102
0.447918
0.464141
0.465173
0.44278
0.208861
0.382007
0.363839
0.30143
0.108578
0.161497
0.1
0.1
0.100001
0.100001
0.100001
0.100001
0.100002
0.100004
0.100036
0.100321
0.101955
0.108392
0.125101
0.150757
0.174583
0.188817
0.19139
0.183668
0.168798
0.150019
0.131251
0.115291
0.106104
0.116872
0.173953
0.250725
0.288098
0.312647
0.334118
0.358364
0.386346
0.407689
0.412587
0.374428
0.391354
0.396203
0.401918
0.390891
0.392747
0.420307
0.420129
0.427729
0.427567
0.43126
0.428928
0.43067
0.424013
0.428941
0.415606
0.435702
0.419145
0.454128
0.441415
0.469126
0.46432
0.476889
0.477842
0.479124
0.480596
0.4773
0.48026
0.483253
0.48958
0.48414
0.475486
0.472844
0.47653
0.478661
0.472735
0.434692
0.423636
0.460763
0.470448
0.471828
0.456358
0.341324
0.255148
0.324869
0.41013
0.395005
0.235051
0.317602
0.314092
0.246277
0.1
0.1
0.100001
0.100001
0.100001
0.100001
0.100003
0.10003
0.100314
0.102121
0.10981
0.130398
0.161942
0.191578
0.210508
0.214926
0.206011
0.188982
0.167667
0.145527
0.125593
0.112074
0.118354
0.173287
0.246597
0.273597
0.283467
0.289077
0.312473
0.355695
0.402493
0.426073
0.425452
0.410692
0.420381
0.423605
0.427551
0.420384
0.421365
0.427867
0.428782
0.418152
0.419859
0.419504
0.417784
0.403984
0.396227
0.401111
0.383544
0.422842
0.40024
0.455306
0.439878
0.481457
0.481554
0.480231
0.477006
0.486386
0.489759
0.492657
0.482671
0.488369
0.494972
0.504048
0.495732
0.480028
0.476913
0.481038
0.485211
0.476611
0.45005
0.441894
0.468101
0.475756
0.474367
0.464794
0.380775
0.374245
0.432212
0.422204
0.396712
0.160873
0.330591
0.382771
0.402959
0.1
0.1
0.100001
0.100001
0.100001
0.100002
0.100022
0.100275
0.10205
0.110335
0.13377
0.170552
0.206183
0.2306
0.23627
0.226036
0.207472
0.18378
0.158942
0.135978
0.11936
0.121964
0.172411
0.240236
0.261677
0.254168
0.221317
0.205672
0.241641
0.309925
0.409535
0.367974
0.434364
0.427992
0.432394
0.435334
0.436582
0.439842
0.430797
0.433415
0.4235
0.427812
0.39809
0.404984
0.393699
0.394527
0.369685
0.362722
0.375152
0.351196
0.4169
0.385951
0.471847
0.463367
0.453213
0.438866
0.494293
0.494196
0.491813
0.486712
0.500545
0.505223
0.508054
0.49274
0.502473
0.51194
0.52327
0.513279
0.487319
0.481347
0.488624
0.49672
0.48088
0.460364
0.454919
0.472392
0.479661
0.477905
0.469783
0.415121
0.417156
0.448977
0.443876
0.407886
0.14881
0.293824
0.429735
0.439008
0.1
0.1
0.100001
0.100001
0.100001
0.100014
0.1002
0.101843
0.110108
0.134893
0.17599
0.217556
0.247906
0.254721
0.243687
0.223481
0.197226
0.169898
0.144723
0.127562
0.128007
0.17292
0.234919
0.252698
0.235416
0.180693
0.146249
0.14989
0.182474
0.24323
0.388952
0.33305
0.435865
0.420941
0.441584
0.440855
0.44118
0.443445
0.432411
0.437058
0.413095
0.421364
0.376034
0.387711
0.362719
0.366667
0.333355
0.325625
0.351709
0.319698
0.423833
0.404723
0.386421
0.364891
0.478647
0.467695
0.454351
0.43823
0.508158
0.504891
0.498664
0.490184
0.518082
0.521152
0.519725
0.508881
0.522248
0.530428
0.54189
0.534236
0.499779
0.488888
0.501491
0.514426
0.487991
0.46667
0.463269
0.47562
0.485966
0.483055
0.473058
0.442674
0.447928
0.4603
0.45913
0.393114
0.156291
0.289701
0.455477
0.443185
0.1
0.1
0.100001
0.100001
0.100008
0.100128
0.101375
0.108929
0.134207
0.177926
0.224922
0.261543
0.270435
0.259315
0.236717
0.207237
0.176876
0.151509
0.136201
0.136388
0.176082
0.231326
0.246287
0.225868
0.165631
0.125908
0.115582
0.121838
0.142699
0.231939
0.168047
0.358088
0.296779
0.427248
0.400697
0.44308
0.439192
0.439158
0.439507
0.429035
0.435332
0.399747
0.410857
0.34856
0.363868
0.326897
0.334757
0.297443
0.286292
0.333577
0.304934
0.419888
0.399567
0.379038
0.358989
0.479418
0.466165
0.450204
0.431781
0.514588
0.507166
0.497614
0.485941
0.532405
0.52873
0.521592
0.5304
0.544423
0.542307
0.551733
0.552421
0.518427
0.501649
0.520495
0.537263
0.500068
0.470479
0.468173
0.479525
0.496663
0.491619
0.476002
0.461447
0.46661
0.467005
0.468134
0.383442
0.155997
0.287319
0.465949
0.44062
0.1
0.1
0.100001
0.100004
0.100072
0.100906
0.106805
0.130822
0.177138
0.227877
0.270675
0.283572
0.273427
0.248785
0.21501
0.182881
0.159818
0.145091
0.146511
0.183488
0.229911
0.241692
0.221637
0.165336
0.122293
0.107211
0.104929
0.108604
0.113942
0.189626
0.139895
0.316927
0.252513
0.404885
0.36875
0.436711
0.426936
0.42847
0.426689
0.420084
0.426343
0.378566
0.391076
0.306798
0.323558
0.284677
0.292337
0.284325
0.270707
0.337756
0.324212
0.304915
0.314847
0.411631
0.390803
0.370706
0.35263
0.472273
0.456428
0.438499
0.419105
0.511407
0.499278
0.485906
0.471377
0.536539
0.526006
0.511652
0.553612
0.562166
0.543424
0.550563
0.561026
0.542087
0.520379
0.54456
0.561479
0.517729
0.472999
0.47086
0.485744
0.51239
0.504549
0.480052
0.471778
0.475201
0.470509
0.472686
0.37765
0.182657
0.284516
0.468976
0.437405
0.1
0.1
0.100002
0.100037
0.100539
0.104748
0.124795
0.172434
0.22742
0.274815
0.293819
0.28627
0.260966
0.224719
0.193959
0.17147
0.157092
0.159677
0.193427
0.230027
0.238698
0.219749
0.168663
0.123558
0.106214
0.101667
0.10147
0.102178
0.106909
0.101504
0.150671
0.119238
0.265416
0.202549
0.36853
0.323636
0.418695
0.399717
0.404752
0.398657
0.400324
0.405074
0.339973
0.353319
0.251154
0.263797
0.258772
0.251479
0.297295
0.287897
0.281494
0.342476
0.335595
0.325372
0.330441
0.399386
0.380739
0.364844
0.352075
0.455478
0.438323
0.420462
0.403009
0.49589
0.47982
0.463647
0.447428
0.528663
0.509789
0.48954
0.571322
0.57057
0.531852
0.537451
0.558881
0.567351
0.544172
0.570796
0.579964
0.540405
0.475202
0.472026
0.495385
0.53297
0.522019
0.486259
0.476905
0.478438
0.471477
0.473747
0.366927
0.123898
0.227075
0.468944
0.431179
0.1
0.100001
0.100017
0.100289
0.102989
0.118429
0.162318
0.223072
0.274739
0.300604
0.297349
0.274498
0.238606
0.210292
0.187988
0.174154
0.179602
0.20963
0.231449
0.236866
0.218566
0.172853
0.127154
0.106677
0.101301
0.100352
0.100293
0.100155
0.101745
0.100375
0.120143
0.106311
0.204129
0.152086
0.315435
0.263317
0.382518
0.355055
0.361092
0.348449
0.36199
0.364701
0.279134
0.291965
0.222045
0.210374
0.2594
0.239753
0.319309
0.310332
0.342418
0.326435
0.359906
0.360373
0.361011
0.361378
0.387271
0.375095
0.366279
0.36144
0.431305
0.415699
0.401459
0.39023
0.469638
0.45107
0.434318
0.419504
0.508447
0.483388
0.459016
0.580575
0.568886
0.510222
0.517005
0.546328
0.587483
0.570767
0.593565
0.5905
0.566407
0.478316
0.47288
0.508934
0.557347
0.543354
0.495373
0.47858
0.479062
0.471279
0.472917
0.336538
0.108375
0.17188
0.467011
0.417665
0.1
0.100007
0.10014
0.101729
0.11244
0.150334
0.211351
0.271084
0.303114
0.305776
0.288163
0.255085
0.229775
0.208343
0.197826
0.206116
0.222683
0.23281
0.235251
0.216629
0.174047
0.128845
0.107189
0.101245
0.100211
0.10008
0.100036
0.100037
0.100013
0.100348
0.100082
0.105251
0.10141
0.144543
0.116928
0.243018
0.19041
0.324611
0.289397
0.291816
0.273042
0.299159
0.299974
0.206905
0.211567
0.22321
0.194007
0.309086
0.286654
0.265514
0.358508
0.35247
0.393719
0.377098
0.392476
0.400375
0.410011
0.407152
0.382992
0.379433
0.380637
0.385705
0.406844
0.397058
0.391052
0.389656
0.437546
0.42
0.406661
0.397421
0.480865
0.452462
0.427939
0.58124
0.559098
0.484866
0.496349
0.529258
0.599655
0.596536
0.608765
0.595525
0.593788
0.483282
0.474117
0.526105
0.583538
0.567474
0.507537
0.478144
0.478434
0.47022
0.470564
0.292904
0.101625
0.13001
0.462989
0.398129
0.100002
0.100074
0.100885
0.107744
0.137401
0.196061
0.259483
0.302213
0.310616
0.299717
0.271538
0.248015
0.229847
0.222751
0.225176
0.230168
0.23461
0.232513
0.212544
0.172114
0.128247
0.10705
0.10118
0.100163
0.100029
0.10001
0.100007
0.100012
0.100008
0.10006
0.100025
0.100883
0.100229
0.110651
0.103251
0.162848
0.129279
0.243168
0.204287
0.201425
0.181171
0.214927
0.212781
0.173233
0.156811
0.282172
0.248751
0.217381
0.354846
0.327566
0.313276
0.349175
0.409888
0.40462
0.450188
0.431771
0.439992
0.453227
0.468215
0.463594
0.391849
0.400232
0.411918
0.425604
0.392454
0.392502
0.395711
0.40562
0.409284
0.396905
0.390726
0.390452
0.45349
0.426504
0.406255
0.575597
0.547438
0.464059
0.484058
0.515524
0.608714
0.615781
0.620705
0.595391
0.618617
0.490085
0.476657
0.545816
0.610679
0.591994
0.521357
0.476398
0.477043
0.468969
0.468011
0.238517
0.100258
0.109396
0.458299
0.373535
0.100028
0.100397
0.104281
0.125685
0.178188
0.242366
0.296466
0.311623
0.308037
0.28565
0.263199
0.24738
0.237931
0.235157
0.235311
0.233614
0.226638
0.203743
0.164869
0.124511
0.106254
0.10103
0.10013
0.100019
0.100007
0.100006
0.100006
0.100006
0.100008
0.100007
0.100022
0.100011
0.100133
0.100046
0.101489
0.100441
0.113419
0.104777
0.155416
0.130774
0.128918
0.118732
0.147105
0.138459
0.174448
0.146512
0.319321
0.281962
0.284622
0.248717
0.407934
0.379903
0.356537
0.39266
0.468297
0.4625
0.502563
0.481757
0.496158
0.511855
0.526924
0.522978
0.420073
0.437997
0.457655
0.477447
0.393766
0.405053
0.420297
0.440006
0.393811
0.390156
0.391542
0.400072
0.435639
0.413888
0.400218
0.571384
0.542979
0.456051
0.489035
0.514666
0.615292
0.630888
0.632158
0.598472
0.638681
0.498105
0.478947
0.565368
0.635233
0.613555
0.535122
0.473959
0.47559
0.467921
0.465852
0.179879
0.100109
0.105235
0.453173
0.337702
0.100205
0.102232
0.115658
0.160033
0.22215
0.281011
0.309872
0.311599
0.296252
0.275226
0.259354
0.248854
0.241184
0.234922
0.228796
0.214701
0.186469
0.147647
0.117977
0.104483
0.100715
0.100097
0.100014
0.100006
0.100006
0.100006
0.100006
0.100006
0.100007
0.100007
0.100013
0.100009
0.10005
0.100025
0.100248
0.100098
0.10186
0.100675
0.110121
0.104637
0.10972
0.105472
0.128977
0.117044
0.222123
0.195592
0.171996
0.357139
0.319915
0.312419
0.276828
0.456053
0.426171
0.394679
0.430354
0.525857
0.517513
0.542344
0.5192
0.551773
0.566832
0.577521
0.575992
0.46261
0.486579
0.510328
0.532433
0.414716
0.434825
0.458485
0.483804
0.396422
0.398055
0.408293
0.426409
0.433562
0.418093
0.410719
0.575574
0.551923
0.466707
0.510865
0.529888
0.624422
0.646952
0.647933
0.609065
0.657797
0.505396
0.481251
0.582062
0.655598
0.631154
0.545294
0.471826
0.474354
0.467135
0.464714
0.158945
0.10005
0.103218
0.446835
0.317643
0.100914
0.109114
0.141354
0.201469
0.259522
0.302162
0.311372
0.302502
0.28326
0.266211
0.251691
0.240156
0.230006
0.216724
0.193015
0.160099
0.129916
0.111153
0.102754
0.100482
0.100063
0.100011
0.100006
0.100005
0.100006
0.100006
0.100006
0.100006
0.100007
0.100006
0.100011
0.100008
0.100036
0.100019
0.100134
0.100064
0.100655
0.100289
0.10284
0.101389
0.110517
0.105323
0.140624
0.121316
0.244096
0.214654
0.180138
0.20693
0.385675
0.349314
0.335147
0.30056
0.492658
0.46314
0.419288
0.449687
0.573646
0.561023
0.561902
0.533115
0.599118
0.611395
0.615837
0.6167
0.509857
0.53584
0.560109
0.581545
0.450182
0.475913
0.503989
0.532834
0.410889
0.420534
0.439618
0.466542
0.449183
0.439028
0.438429
0.592004
0.577483
0.496546
0.554804
0.56477
0.643046
0.665423
0.670411
0.633355
0.675393
0.510361
0.483074
0.593437
0.671971
0.644831
0.551683
0.470486
0.473797
0.467379
0.464871
0.151275
0.100033
0.102411
0.444493
0.317001
0.10392
0.127509
0.177581
0.238264
0.281591
0.307024
0.303987
0.287648
0.267974
0.250237
0.234775
0.217285
0.192995
0.162738
0.136242
0.117213
0.106064
0.101436
0.100285
0.100041
0.100008
0.100005
0.100005
0.100005
0.100006
0.100006
0.100006
0.100006
0.100006
0.100007
0.100006
0.10001
0.100008
0.100029
0.100015
0.100111
0.100055
0.100541
0.100246
0.102586
0.1012
0.113031
0.105962
0.155801
0.128344
0.26648
0.23494
0.194966
0.222635
0.398118
0.367837
0.345058
0.315842
0.505051
0.477763
0.426161
0.45195
0.605862
0.587634
0.565346
0.531742
0.643485
0.650523
0.644796
0.650618
0.561059
0.58746
0.610708
0.629604
0.497066
0.527163
0.55814
0.588304
0.443672
0.463417
0.489884
0.522598
0.486991
0.485975
0.490206
0.623474
0.61511
0.550677
0.610628
0.61146
0.671303
0.684038
0.692158
0.670565
0.69038
0.513792
0.485406
0.603171
0.684204
0.660864
0.558571
0.470662
0.474664
0.468412
0.465906
0.14979
0.10009
0.10369
0.446143
0.326467
0.113191
0.159143
0.212069
0.261397
0.290162
0.302072
0.288591
0.267373
0.245777
0.222213
0.194882
0.164646
0.140991
0.122358
0.109893
0.103523
0.10101
0.100191
0.100032
0.100008
0.100005
0.100005
0.100005
0.100005
0.100006
0.100006
0.100006
0.100006
0.100006
0.100007
0.100006
0.100009
0.100007
0.10002
0.100012
0.100081
0.100041
0.100491
0.100213
0.102665
0.101142
0.116277
0.106988
0.183718
0.158551
0.137246
0.284921
0.253124
0.209641
0.237607
0.397816
0.372593
0.344339
0.319448
0.502064
0.476377
0.419876
0.439239
0.626195
0.600049
0.561784
0.517306
0.683026
0.683997
0.66516
0.680107
0.615869
0.640168
0.660053
0.6745
0.556781
0.588266
0.618912
0.64685
0.506935
0.529849
0.560881
0.594254
0.55066
0.557698
0.57347
0.669794
0.674147
0.613528
0.682645
0.678969
0.695344
0.700224
0.705979
0.696608
0.7027
0.518599
0.488207
0.616655
0.698699
0.678925
0.570161
0.472336
0.476543
0.471366
0.469233
0.163774
0.103781
0.114032
0.452356
0.359983
0.132906
0.19391
0.235802
0.270118
0.290562
0.28688
0.265231
0.236441
0.204761
0.172138
0.148314
0.129401
0.116947
0.108496
0.103451
0.101086
0.100224
0.100038
0.100008
0.100005
0.100005
0.100005
0.100005
0.100005
0.100006
0.100006
0.100006
0.100006
0.100006
0.100007
0.100006
0.100008
0.100007
0.100016
0.10001
0.100069
0.100031
0.100465
0.100196
0.102853
0.101145
0.122455
0.108805
0.194616
0.17048
0.138626
0.159036
0.292825
0.265567
0.218997
0.243457
0.385124
0.366455
0.332088
0.313053
0.48181
0.457872
0.400014
0.412383
0.638829
0.603644
0.550857
0.496881
0.714691
0.711584
0.67596
0.698212
0.670524
0.689864
0.704483
0.713163
0.627091
0.655719
0.682171
0.704194
0.595618
0.620477
0.648173
0.675739
0.62237
0.639208
0.664033
0.699025
0.701044
0.693762
0.711732
0.706158
0.707332
0.708746
0.718545
0.711869
0.710015
0.527827
0.496405
0.641731
0.708255
0.698005
0.591124
0.475788
0.481172
0.480089
0.476942
0.218986
0.246865
0.254208
0.466985
0.42562
0.160246
0.219938
0.246018
0.269798
0.277625
0.260371
0.226363
0.189343
0.159447
0.139809
0.128003
0.118259
0.110639
0.105158
0.101971
0.100471
0.100082
0.100014
0.100005
0.100005
0.100005
0.100005
0.100005
0.100005
0.100006
0.100006
0.100005
0.100006
0.100006
0.100006
0.100007
0.100006
0.100008
0.100007
0.100014
0.10001
0.100065
0.100027
0.100487
0.100196
0.103445
0.101287
0.142574
0.130083
0.117511
0.108982
0.19856
0.177744
0.159326
0.291485
0.267898
0.219986
0.240951
0.360353
0.347996
0.30674
0.294182
0.452016
0.426137
0.369305
0.376696
0.643569
0.602024
0.536482
0.473169
0.735883
0.725163
0.680348
0.706775
0.720767
0.731999
0.737925
0.738433
0.70033
0.720774
0.736207
0.746416
0.684482
0.704291
0.721665
0.736504
0.705997
0.723754
0.731458
0.720185
0.725649
0.723024
0.726665
0.725694
0.725943
0.722715
0.740619
0.730752
0.719982
0.548594
0.519051
0.669467
0.715253
0.709661
0.629639
0.486383
0.493177
0.5005
0.499296
0.412813
0.441211
0.46132
0.492721
0.490546
0.18643
0.232248
0.246061
0.257012
0.249239
0.217915
0.178645