/*--------------------------------*- C++ -*----------------------------------*\
  =========                 |
  \\      /  F ield         | OpenFOAM: The Open Source CFD Toolbox
   \\    /   O peration     | Website:  https://openfoam.org
    \\  /    A nd           | Version:  dev
     \\/     M anipulation  |
\*---------------------------------------------------------------------------*/
FoamFile
{
    version     2.0;
    format      ascii;
    class       volScalarField;
    location    "2500";
    object      alphat;
}
// * * * * * * * * * * * * * * * * * * * * * * * * * * * * * * * * * * * * * //

dimensions      [1 -1 -1 0 0 0 0];

internalField   nonuniform List<scalar> 
9836
(
0.000152422
0.000156016
0.000147544
0.000142348
0.00018399
0.000131417
0.000130734
0.000194275
0.000172923
0.000125045
0.000126279
0.000188142
0.000196577
0.000148392
0.000123011
0.000122758
0.000171049
0.000212226
0.000181849
0.000135543
0.000121645
0.000120855
0.000152006
0.000212312
0.000206823
0.000155312
0.000130347
0.000120674
0.000120261
0.00014126
0.000204745
0.000221511
0.000184919
0.000140512
0.000127643
0.000119969
0.00012001
0.000133096
0.000184876
0.000229962
0.000211885
0.000158764
0.000134219
0.000125641
0.000119388
0.000119808
0.000128144
0.000161759
0.000226858
0.000228379
0.000185217
0.000143521
0.000130802
0.000124203
0.000118972
0.000119321
0.000125069
0.000148154
0.000214783
0.000239913
0.000214129
0.00016096
0.000136056
0.000128411
0.000123098
0.000118654
0.000118613
0.000123518
0.000138107
0.00018961
0.000242861
0.000234347
0.000183817
0.000145937
0.000132085
0.000126699
0.000122093
0.000118408
0.000118039
0.000122754
0.000132142
0.000165765
0.000236786
0.000244983
0.000212938
0.000160975
0.000137787
0.000129796
0.00012517
0.000121229
0.000118214
0.000117632
0.000122194
0.000128608
0.000151765
0.00021985
0.000254326
0.00023583
0.000182502
0.000146713
0.000133309
0.000128063
0.000123916
0.00012058
0.000118046
0.000117341
0.000121524
0.000126401
0.000141525
0.000192457
0.00025337
0.000251455
0.000208828
0.00016073
0.000138718
0.000130751
0.000126522
0.000122926
0.000120049
0.000117909
0.000117222
0.000120882
0.000125169
0.000135074
0.000168612
0.000245042
0.000260713
0.00023603
0.000179762
0.000147131
0.000134096
0.000128985
0.000125166
0.000122098
0.000119613
0.000117812
0.000117245
0.000120172
0.000124306
0.000130974
0.000154597
0.000224482
0.000267266
0.000254132
0.000203771
0.000159581
0.000139268
0.000131447
0.000127328
0.000124007
0.000121377
0.000119226
0.000117746
0.000117262
0.000119338
0.000123429
0.000128349
0.000143985
0.000196003
0.000264396
0.000266392
0.000230592
0.000176217
0.000147049
0.000134413
0.0001296
0.000125886
0.000123077
0.000120764
0.000118867
0.000117637
0.000117253
0.000118672
0.000122548
0.000126495
0.000137195
0.000171369
0.00025376
0.000275393
0.000254511
0.00019793
0.000157794
0.000139436
0.00013167
0.000127844
0.000124689
0.000122252
0.00012019
0.00011865
0.000117536
0.000117223
0.000118185
0.000121702
0.000125212
0.000132768
0.000157724
0.000230264
0.000280176
0.000270289
0.000223546
0.000172198
0.000146297
0.000134542
0.000129818
0.000126353
0.00012374
0.00012152
0.000119657
0.000118345
0.000117475
0.00011717
0.000117879
0.000120929
0.000124201
0.000129775
0.000147141
0.00020097
0.000276009
0.000280695
0.000249535
0.000191919
0.000155712
0.000138912
0.000131771
0.000128083
0.000125158
0.000122882
0.000120848
0.0001193
0.000118097
0.000117421
0.0001171
0.000117686
0.000120098
0.000123367
0.000127667
0.000140072
0.000175685
0.000263915
0.000289267
0.000270833
0.000214722
0.000168265
0.000145388
0.00013414
0.000129849
0.000126605
0.000124232
0.000122117
0.00012027
0.000118873
0.000117888
0.000117375
0.000117015
0.000117559
0.00011931
0.000122573
0.000126047
0.000135233
0.000162835
0.000239662
0.00029326
0.000285088
0.000241343
0.000185063
0.00015328
0.000138449
0.000131554
0.000128114
0.000125448
0.000123404
0.000121424
0.000119807
0.000118496
0.000117703
0.00011733
0.000116935
0.000117466
0.000118688
0.000121784
0.000124734
0.00013182
0.000152212
0.000210273
0.000288471
0.000294542
0.000265957
0.000206628
0.000164199
0.000143841
0.000133818
0.000129617
0.0001266
0.000124623
0.000122634
0.00012081
0.000119315
0.000118147
0.000117548
0.000117287
0.000116862
0.000117385
0.000118208
0.000121051
0.000123696
0.000129332
0.000144448
0.000184248
0.000276482
0.000302332
0.000285754
0.000229918
0.000178641
0.000151067
0.000137434
0.000131188
0.000127951
0.000125381
0.000123821
0.000121927
0.000120264
0.000118856
0.000117837
0.000117412
0.000117248
0.00011681
0.000117317
0.000117853
0.000120412
0.000122914
0.000127428
0.000139052
0.000169799
0.000255282
0.00030665
0.000298477
0.000256178
0.000197399
0.000159869
0.000142521
0.00013323
0.000129288
0.000126435
0.000124606
0.000123056
0.000121277
0.000119693
0.000118411
0.000117569
0.00011729
0.000117207
0.000116773
0.000117269
0.000117592
0.000119785
0.000122285
0.000125968
0.000135193
0.000159708
0.000226808
0.000302478
0.000307814
0.000279518
0.000218952
0.000172561
0.000148404
0.000136641
0.000130768
0.000127684
0.000125136
0.00012395
0.000122318
0.000120626
0.000119143
0.000117987
0.000117342
0.000117184
0.000117164
0.000116749
0.000117238
0.000117392
0.000119195
0.000121733
0.000124805
0.000132349
0.000151602
0.000200532
0.000293093
0.000314503
0.00029878
0.000242386
0.000188069
0.000156219
0.000140993
0.00013277
0.000128951
0.000126295
0.000124306
0.00012326
0.000121568
0.000119985
0.000118655
0.000117636
0.000117164
0.000117125
0.000117131
0.000116739
0.000117225
0.000117244
0.000118676
0.000121205
0.000123832
0.000130162
0.000145651
0.000181195
0.000275001
0.000320097
0.000310446
0.000266936
0.000207278
0.000166351
0.000146163
0.000135777
0.000130414
0.000127478
0.000125141
0.000123755
0.000122563
0.000120864
0.000119331
0.000118162
0.000117324
0.000116985
0.000117075
0.000117158
0.000116737
0.000117234
0.000117121
0.000118237
0.000120703
0.000123006
0.000128437
0.00014127
0.000170552
0.00025221
0.000318324
0.000320149
0.000289787
0.000228308
0.000179553
0.000152712
0.000139611
0.000132326
0.000128719
0.000126281
0.000124373
0.000123248
0.000121876
0.000120266
0.000118817
0.000117801
0.000117141
0.000116861
0.000116972
0.000117209
0.000116745
0.000117268
0.000117007
0.000117869
0.000120256
0.000122347
0.000127076
0.000138046
0.000163265
0.000227419
0.000313023
0.000326104
0.000309366
0.000251247
0.000195576
0.000160979
0.000144165
0.000135106
0.000130221
0.000127425
0.00012543
0.000123857
0.000122729
0.000121181
0.000119587
0.000118242
0.000117405
0.00011698
0.000116815
0.000116876
0.000117219
0.000116761
0.000117319
0.000116894
0.000117578
0.000119884
0.000121799
0.000125997
0.000135701
0.000157298
0.000206341
0.000300506
0.000332286
0.00032137
0.000273228
0.000214436
0.000171644
0.000149659
0.000138575
0.000132141
0.000128803
0.000126519
0.000124838
0.000123475
0.000122231
0.000120657
0.000119131
0.000117876
0.000117194
0.000117086
0.000117
0.000116939
0.000117206
0.000116788
0.00011737
0.000116778
0.000117368
0.000119578
0.000121337
0.000125166
0.000134026
0.000152978
0.000190828
0.000283253
0.000334675
0.000330478
0.000296766
0.000234372
0.000185062
0.000156447
0.000142551
0.000134849
0.000130334
0.000127753
0.000125956
0.000124396
0.000123105
0.000121659
0.000120102
0.000118738
0.000117661
0.000117166
0.000117398
0.000117469
0.00011738
0.000117364
0.000116819
0.000117414
0.000116654
0.000117215
0.000119328
0.000120964
0.00012457
0.000132928
0.000150149
0.000181484
0.000266053
0.000331921
0.000337036
0.000315374
0.000255826
0.000200802
0.000165108
0.000147435
0.000138169
0.000132487
0.000129185
0.00012712
0.000125553
0.000124118
0.000122673
0.000121158
0.000119694
0.000118533
0.000117691
0.000117451
0.000117797
0.000118101
0.000118241
0.000117448
0.000117936
0.000116857
0.000117435
0.000116514
0.000117101
0.000119135
0.000120689
0.000124202
0.000132356
0.000148663
0.000176389
0.000250316
0.000326417
0.00034181
0.000329548
0.000276525
0.000218452
0.000175912
0.000153116
0.000141883
0.000135212
0.000131198
0.000128574
0.000126649
0.000125239
0.000123907
0.000122376
0.000120869
0.000119594
0.000118682
0.000118273
0.000118539
0.000118989
0.000119083
0.000118496
0.000119045
0.000117575
0.000118221
0.000116898
0.000117432
0.000116375
0.000117041
0.000118994
0.000120504
0.00012409
0.000132299
0.000148432
0.000173951
0.000237935
0.000317087
0.000345844
0.000338251
0.000296984
0.00023715
0.000189056
0.000160128
0.000146313
0.000138529
0.000133816
0.000130681
0.000128096
0.00012627
0.000125036
0.000123627
0.000122023
0.000120787
0.000119789
0.000119353
0.00011947
0.000120119
0.00011979
0.00012047
0.000119899
0.000120655
0.000121009
0.000118818
0.000119651
0.000114187
0.000112346
0.000116943
0.000117399
0.000116227
0.000117037
0.000118905
0.000120427
0.000124261
0.000132769
0.000149788
0.000174037
0.000230093
0.0003082
0.000347056
0.000344662
0.000315993
0.000256055
0.000203893
0.000168938
0.000151595
0.000142304
0.000137139
0.000133217
0.000130419
0.000127895
0.000126114
0.000124658
0.00012315
0.000121905
0.000120982
0.000120468
0.00012081
0.000121369
0.000121304
0.000122271
0.000121588
0.000117964
0.000117448
0.000112088
0.000109497
0.000104316
9.51569e-05
9.35756e-05
0.000116986
0.000117345
0.000116064
0.00011709
0.000118889
0.0001205
0.000124793
0.000133958
0.000152587
0.000175274
0.000226687
0.000300759
0.000346487
0.000348844
0.000330956
0.000275836
0.000219897
0.000179606
0.000157633
0.000146902
0.000141255
0.00013668
0.000133242
0.000130732
0.000128034
0.000126133
0.000124587
0.000123221
0.000122437
0.000121975
0.000122127
0.000123705
0.000123145
0.000120169
0.000122649
0.000120949
0.000113833
0.000100353
0.000106762
9.5977e-05
9.16435e-05
8.83476e-05
8.03915e-05
7.93341e-05
0.000117036
0.000117249
0.000115898
0.000117196
0.000118938
0.000120802
0.000125773
0.000135931
0.000155699
0.000179702
0.000226668
0.000295631
0.000345142
0.000351301
0.000341761
0.000293547
0.000236892
0.000192623
0.000165088
0.000152831
0.000146295
0.000141151
0.000136807
0.000134062
0.000131919
0.000129268
0.000126898
0.000124939
0.000123983
0.000124002
0.000124061
0.000114364
0.000113829
0.000106442
0.00011382
0.000108007
0.000109291
0.000104132
0.000102279
8.59521e-05
9.18476e-05
8.31898e-05
7.79462e-05
7.59417e-05
6.88775e-05
6.82489e-05
0.000117086
0.000117112
0.000115745
0.000117346
0.000119043
0.000121367
0.000127291
0.000138865
0.000160294
0.000187293
0.000228485
0.000293385
0.000343842
0.000353971
0.000348563
0.000309604
0.000255914
0.000207622
0.000174132
0.000159175
0.000152471
0.000146647
0.000141505
0.000137804
0.000135144
0.000132603
0.000130067
0.000127119
0.000125476
0.000125462
0.000116022
0.000106278
0.000102016
9.63904e-05
0.000102424
9.79965e-05
9.95038e-05
9.61262e-05
9.77401e-05
9.34626e-05
8.89157e-05
7.45364e-05
7.99557e-05
7.24107e-05
6.7237e-05
6.60013e-05
5.96588e-05
5.9276e-05
0.000117125
0.000116932
0.000115649
0.000117584
0.000119196
0.000122214
0.000129441
0.000142878
0.0001667
0.000196147
0.000233795
0.000293529
0.000343665
0.000356637
0.0003532
0.000325594
0.00027498
0.000223913
0.000185294
0.000167206
0.000159058
0.000153244
0.000147874
0.000143144
0.000139175
0.000135828
0.00013308
0.000130118
0.000127589
0.000126854
0.000107724
9.75258e-05
9.37671e-05
8.95905e-05
9.35763e-05
9.02512e-05
9.22455e-05
9.02151e-05
8.96537e-05
8.73724e-05
8.55956e-05
8.31925e-05
7.80701e-05
6.50397e-05
7.01779e-05
6.34765e-05
5.8595e-05
5.78941e-05
5.23251e-05
5.20002e-05
0.000117148
0.000116716
0.000115636
0.000117913
0.000119487
0.000123407
0.000132317
0.000147987
0.000175041
0.000206456
0.000242411
0.000296559
0.000344946
0.000359648
0.000358011
0.000338682
0.000291884
0.000240981
0.000198531
0.000177845
0.000167905
0.000161258
0.000157369
0.000152722
0.000146983
0.000141699
0.000137617
0.000134459
0.000131414
0.000129602
0.00010031
8.68197e-05
8.78348e-05
8.12985e-05
8.57407e-05
8.36168e-05
8.68522e-05
8.40696e-05
8.49588e-05
8.34402e-05
8.05856e-05
7.92659e-05
7.57022e-05
7.45588e-05
6.90005e-05
5.71326e-05
6.20066e-05
5.61004e-05
5.16111e-05
5.12403e-05
4.62909e-05
4.62756e-05
0.000117144
0.00011647
0.000115757
0.000118331
0.000120008
0.000125056
0.000135991
0.000154639
0.000184991
0.000217829
0.000252771
0.000304282
0.000349512
0.000364665
0.000363277
0.000348193
0.000308773
0.000260108
0.000216447
0.000191405
0.000178854
0.000173153
0.000170503
0.000166402
0.000159564
0.000152182
0.000145183
0.000139711
0.000135581
0.000133138
9.4606e-05
7.88537e-05
7.86224e-05
7.07942e-05
7.9228e-05
7.66503e-05
8.08007e-05
7.88297e-05
8.12065e-05
7.99488e-05
7.87042e-05
7.80149e-05
7.27673e-05
7.28375e-05
6.73961e-05
6.6679e-05
6.12559e-05
5.06842e-05
5.47722e-05
4.93284e-05
4.5868e-05
4.59288e-05
4.1914e-05
4.15209e-05
0.000117122
0.000116226
0.000116054
0.000118784
0.000120849
0.000127235
0.000140467
0.000162728
0.00019558
0.000229877
0.000264872
0.000314579
0.000357758
0.000371802
0.000370692
0.000358708
0.000328467
0.000285952
0.000241577
0.000211879
0.000192333
0.000185253
0.000182662
0.000179303
0.000173288
0.00016446
0.000154512
0.000145601
0.000139687
0.000135568
9.02545e-05
7.13379e-05
7.18476e-05
6.28148e-05
7.23697e-05
7.24791e-05
7.84368e-05
8.5132e-05
8.20227e-05
9.34218e-05
8.22724e-05
9.64536e-05
7.72747e-05
8.91957e-05
6.7529e-05
7.65378e-05
6.02965e-05
6.287e-05
5.49808e-05
4.47064e-05
4.93348e-05
4.41094e-05
4.16896e-05
4.06997e-05
3.85931e-05
3.85759e-05
0.000117105
0.000116043
0.000116532
0.000119248
0.000122017
0.000129989
0.000145591
0.000171837
0.000206393
0.000242299
0.000278269
0.000327027
0.000368881
0.000381777
0.000381172
0.00037292
0.00035314
0.000319367
0.000278255
0.000240634
0.000215373
0.000198714
0.000192565
0.000186678
0.000183522
0.000176127
0.000164823
0.000153981
0.000144211
0.000138172
9.20619e-05
6.81095e-05
6.94669e-05
4.43521e-05
7.18472e-05
7.35502e-05
9.65801e-05
0.000103553
0.000102369
0.000103874
0.000102414
0.000103646
0.000103464
0.000105496
0.000104265
0.000105596
7.82787e-05
0.000102416
5.80239e-05
8.00965e-05
5.35613e-05
3.99773e-05
4.86224e-05
4.2688e-05
3.76636e-05
3.68662e-05
3.67431e-05
3.59883e-05
0.000117189
0.000116054
0.000117196
0.000119751
0.000123487
0.000133317
0.000151486
0.000181761
0.00021743
0.000254757
0.000292446
0.000341351
0.000383144
0.000395533
0.000394085
0.000389945
0.00037773
0.000354497
0.000322008
0.000281559
0.000251944
0.000224852
0.000201377
0.000187418
0.000188668
0.000185516
0.000176011
0.000162327
0.000150333
0.000139252
0.000130704
9.19051e-05
0.000101148
8.78237e-05
0.000103765
0.000102068
9.84232e-05
0.000109791
0.000126769
0.000124228
0.000155745
0.000127334
0.000171974
0.00012064
0.000168707
0.000113692
0.000143633
0.000103591
0.000123266
7.883e-05
0.000106561
7.44889e-05
3.72698e-05
6.73777e-05
5.59122e-05
3.50601e-05
3.40418e-05
3.64795e-05
3.36167e-05
0.000117936
0.000116628
0.000118129
0.000120413
0.000125307
0.000137192
0.000158526
0.000191984
0.000228423
0.000266846
0.000306776
0.000357011
0.000400591
0.000413712
0.000412687
0.000410909
0.000404493
0.000391451
0.000363005
0.00032639
0.000291266
0.00026217
0.000224306
0.000194904
0.000184841
0.000190329
0.000186129
0.000172658
0.000152778
0.00013693
0.000126269
0.000118858
0.000105557
0.000112085
0.000134888
9.96264e-05
0.000101194
0.000143211
0.000165753
0.000193336
0.000237112
0.00022866
0.00029362
0.000241494
0.000322826
0.000225684
0.000321043
0.000180033
0.000287048
0.000133131
0.000221068
0.000109253
0.000142469
0.000109233
4.39739e-05
0.00010566
9.81983e-05
3.42272e-05
3.43502e-05
4.01279e-05
3.59837e-05
0.00012216
0.000119291
0.000119548
0.000121337
0.000127463
0.000141417
0.000166257
0.000201639
0.000239025
0.000278216
0.000320561
0.000373304
0.000420707
0.000436369
0.000435969
0.000433777
0.000426479
0.000409865
0.000381932
0.000347296
0.000312759
0.000286187
0.000256252
0.000219829
0.000188663
0.000178831
0.000197272
0.000189216
0.000183348
0.000174408
0.000158984
0.000141369
0.000126521
0.000154672
0.000190007
0.000245736
0.000279913
0.000190329
0.000218602
0.000283879
0.000332822
0.000360121
0.000423632
0.000402031
0.000470151
0.000408037
0.000478854
0.000386557
0.000462611
0.000338981
0.000429045
0.000254943
0.000373422
0.000148785
0.000277086
0.000149212
8.94378e-05
0.000143159
0.000129339
3.09926e-05
5.63827e-05
5.62869e-05
3.83258e-05
0.000133417
0.000129063
0.000122518
0.000122843
0.000130038
0.000145903
0.000174299
0.00021106
0.000248717
0.000288623
0.000333178
0.000389397
0.00044262
0.000462723
0.000462601
0.000454959
0.000437033
0.000415873
0.000383002
0.000345538
0.000311546
0.000286824
0.000274422
0.000253863
0.000224083
0.000188007
0.000221893
0.000252601
0.000275791
0.000315832
0.000316504
0.000274231
0.000255124
0.000235841
0.000276521
0.000309141
0.000357094
0.000462473
0.000492464
0.000382142
0.000424878
0.000480411
0.000528556
0.000524399
0.000564854
0.000530873
0.000569533
0.000516841
0.000556853
0.000493627
0.000540418
0.000457159
0.000516808
0.000394433
0.00047841
0.000284095
0.000407562
0.000280886
0.000111332
0.000259609
0.000220123
3.64146e-05
9.75432e-05
7.35505e-05
3.12803e-05
0.000149707
0.000153036
0.000130683
0.000126145
0.000133144
0.00015108
0.000183015
0.000219712
0.000257545
0.000297688
0.000344111
0.000404362
0.000465108
0.000491705
0.000491014
0.000472981
0.000450474
0.000426593
0.000399168
0.000382118
0.000353333
0.00031414
0.000287367
0.000264727
0.00024871
0.000233283
0.000247997
0.000337573
0.000471844
0.000609724
0.000608341
0.000520923
0.000462525
0.000473684
0.000387595
0.000453458
0.000515336
0.00053529
0.000615991
0.00062826
0.00056593
0.00059516
0.000597672
0.000623257
0.000598948
0.000621833
0.000588072
0.00061478
0.000575823
0.000608788
0.000561201
0.000601666
0.000536225
0.00058505
0.000491024
0.000556048
0.00041046
0.000501467
0.000407297
0.000173099
0.000390475
0.000357663
7.42296e-05
0.000135327
1.99723e-05
2.63981e-05
0.000160408
0.000154131
0.000134732
0.000137072
0.000157322
0.000191241
0.000227945
0.000264842
0.000305256
0.000352883
0.000417275
0.000486783
0.000522019
0.000520069
0.000494553
0.000483495
0.000495939
0.000544351
0.000576292
0.000560258
0.000495666
0.000404266
0.000321986
0.000270576
0.000245163
0.000267354
0.000394548
0.00061928
0.000763527
0.000744158
0.000655038
0.000556297
0.000527881
0.000583231
0.000591209
0.000554949
0.000570163
0.00063557
0.000642225
0.000669626
0.000676409
0.000643882
0.000660131
0.000641725
0.000658568
0.000638213
0.000660588
0.000639759
0.000669246
0.00063491
0.000674726
0.000628623
0.000672745
0.000607213
0.000659878
0.000568924
0.000634279
0.000503668
0.000580387
0.000505358
0.000305406
0.000494834
0.000470818
9.86108e-05
0.000227218
8.13015e-06
4.2463e-05
0.000165766
0.000152863
0.000142775
0.000163728
0.000199543
0.000234121
0.000270834
0.000310812
0.000359223
0.000427086
0.000506126
0.000551926
0.000550276
0.00052783
0.00055299
0.000640321
0.000757988
0.000816257
0.000810097
0.000747902
0.000643007
0.000507003
0.000370742
0.000282598
0.000277708
0.000426918
0.000711621
0.000827545
0.000803647
0.000733857
0.000638709
0.000581046
0.000600655
0.000599031
0.000635965
0.000629084
0.000644205
0.000641154
0.000681056
0.000680367
0.000690319
0.000696203
0.000673502
0.000683293
0.000682937
0.000702742
0.000696975
0.000727691
0.000711055
0.000745203
0.000710585
0.000734214
0.000698565
0.000711795
0.000683912
0.000698127
0.000649628
0.000689359
0.000589136
0.000656957
0.000590081
0.000429058
0.000582998
0.000568258
0.000511768
0.000155557
0.000362945
6.27759e-06
0.000106117
0.000176556
0.000157694
0.000167465
0.000205855
0.000239885
0.000274661
0.000314446
0.000362633
0.000433219
0.00052154
0.000579636
0.000583026
0.000574282
0.000650041
0.000807316
0.000960618
0.00102919
0.00102821
0.000972999
0.000872588
0.000733925
0.000570654
0.000413743
0.000336472
0.00046402
0.000764516
0.000865353
0.000825795
0.000768913
0.000738209
0.000703892
0.000673892
0.00063884
0.000655353
0.000660268
0.000665028
0.000675006
0.000667162
0.00069941
0.00069915
0.000739479
0.000747208
0.000719774
0.000730845
0.000756534
0.000780865
0.000779342
0.000808857
0.00076093
0.000787154
0.000726046
0.000744152
0.000698804
0.000702312
0.000689143
0.000681596
0.000687545
0.000677576
0.000662532
0.000687882
0.000680263
0.000626881
0.000657196
0.000552476
0.000467373
0.000535969
0.000612203
0.000647708
0.000652533
0.000603167
0.000287791
0.000512955
0.000490922
0.000412845
9.13246e-05
0.000236716
0.00018811
0.000175909
0.000209439
0.000243418
0.000277036
0.000315742
0.000363403
0.00043481
0.000531858
0.000604199
0.000615635
0.000625697
0.000746451
0.000961571
0.00113088
0.00119836
0.00119655
0.00114673
0.00105508
0.000925969
0.000765849
0.00059265
0.000459978
0.000508525
0.000795199
0.000879833
0.000843501
0.000775477
0.000774107
0.000812995
0.000856762
0.000739543
0.000838646
0.000675495
0.00069392
0.000705815
0.000714234
0.000697318
0.000696894
0.000752076
0.000753948
0.000828531
0.00083872
0.000800444
0.000815555
0.000833203
0.000855618
0.000811748
0.000838573
0.000767451
0.000789522
0.000708286
0.000711717
0.000664695
0.000642239
0.000670949
0.000656918
0.000640042
0.000620615
0.000682708
0.000668089
0.000643132
0.00062318
0.000649298
0.000684833
0.000675721
0.000681649
0.000677712
0.00067345
0.000590061
0.000573623
0.000640491
0.000663795
0.000669252
0.000631161
0.000466236
0.000325262
0.000453414
0.000554898
0.00053464
0.00031205
0.000357798
0.000264008
0.000235034
0.000205073
0.000214548
0.00024619
0.000278153
0.000314872
0.000361568
0.000432697
0.000535776
0.000624484
0.000646116
0.000670879
0.000825721
0.00109164
0.00125945
0.00131512
0.00130983
0.0012642
0.00118276
0.00106837
0.00092342
0.00075551
0.000600879
0.000576983
0.00080598
0.000890489
0.000858385
0.000774904
0.000762366
0.000795351
0.000865429
0.000946953
0.000846898
0.000931948
0.000732381
0.000773946
0.00077792
0.000793204
0.000756674
0.000766897
0.000845048
0.000848765
0.000902858
0.000912377
0.000874262
0.000890709
0.000859304
0.000879033
0.000799321
0.000789853
0.000716263
0.000685511
0.000625743
0.000619446
0.000604332
0.000589096
0.000580767
0.000573509
0.000619742
0.000596996
0.000576835
0.000662042
0.000637242
0.000598357
0.000577717
0.000607947
0.000672681
0.000678488
0.000667913
0.000653872
0.000674909
0.000619184
0.000604648
0.000657347
0.00067087
0.000666499
0.000649107
0.000517286
0.000509361
0.000587752
0.000569351
0.000245775
0.000133482
0.0002677
0.000417963
0.000311846
0.000233353
0.000249905
0.000277013
0.000309457
0.000354203
0.000425795
0.000534291
0.000637602
0.000674869
0.000705534
0.000884921
0.00119084
0.00134273
0.00137996
0.00137244
0.0013295
0.00125796
0.00115876
0.00102969
0.000879344
0.000728424
0.000655337
0.000817505
0.000895242
0.000870737
0.000791837
0.00074099
0.000723252
0.000788227
0.000882841
0.000985234
0.000965208
0.000939813
0.000979567
0.000825352
0.000878232
0.000874839
0.000891474
0.000852434
0.000862173
0.000918858
0.000922784
0.000924106
0.000935086
0.000895502
0.000910589
0.000784396
0.000788279
0.000653252
0.000624884
0.00060681
0.000567284
0.000572035
0.000571851
0.000573053
0.000553781
0.000562721
0.000553467
0.000548549
0.000546726
0.000573902
0.000554631
0.000540752
0.000625166
0.000591721
0.000552528
0.000533092
0.000558891
0.000646045
0.000663711
0.000639927
0.000613679
0.000659978
0.000638919
0.000626543
0.000661776
0.000656692
0.000643646
0.000652298
0.000553973
0.0005457
0.000610889
0.000592733
0.000276977
0.000118362
0.000265278
0.000554183
0.000404089
0.000257093
0.000274509
0.000303304
0.000343096
0.000413346
0.000525935
0.000644733
0.000695275
0.000727775
0.000923953
0.00125848
0.0013897
0.00141134
0.00139784
0.00135426
0.00128957
0.00120213
0.00109393
0.00096817
0.000830915
0.000738975
0.000832346
0.000913195
0.000889468
0.000816764
0.000756394
0.000589548
0.000484374
0.00055738
0.000651925
0.000971343
0.000869243
0.00098587
0.000993748
0.000920056
0.000957044
0.000941359
0.00095461
0.000926147
0.000931422
0.000943127
0.000948561
0.000882001
0.000905431
0.000809988
0.0008441
0.000605672
0.000599251
0.000545222
0.000524123
0.000572717
0.000532044
0.000558899
0.000506687
0.000548145
0.000550555
0.000531478
0.000520123
0.0005321
0.000528819
0.000530249
0.00053401
0.000534113
0.000521764
0.000516189
0.000576563
0.000541341
0.000514907
0.000497625
0.000514831
0.000604292
0.000635423
0.000597603
0.000563473
0.000632661
0.00064252
0.000638504
0.00061661
0.000627207
0.000598759
0.000603556
0.000575667
0.000566165
0.000623878
0.000605346
0.000358132
0.000121298
0.000280644
0.000572623
0.000546479
0.000275561
0.000297182
0.000329993
0.000395719
0.000508623
0.000644684
0.000713721
0.000742762
0.000937438
0.001295
0.0014127
0.00142393
0.00139391
0.00134649
0.0012928
0.00122297
0.00114156
0.00103569
0.000911442
0.000825994
0.000858885
0.000941254
0.000933371
0.000886157
0.000788049
0.00052866
0.000326914
0.000339376
0.000381711
0.000570441
0.000403047
0.00088719
0.000735723
0.000989876
0.000967636
0.000971976
0.000985376
0.000963676
0.000970597
0.000952771
0.000957463
0.000919178
0.000928194
0.000689578
0.000731046
0.000615901
0.000646685
0.000514878
0.000521133
0.000521893
0.00048947
0.000511574
0.000519198
0.000529098
0.000526678
0.000517296
0.000494339
0.000478803
0.000472372
0.00051698
0.000521886
0.000512096
0.00048193
0.000505653
0.000504651
0.000509505
0.00052569
0.000497916
0.000491636
0.000477857
0.00048164
0.000553454
0.000593589
0.000546744
0.000512291
0.000592488
0.00060415
0.000625562
0.000576632
0.000592559
0.000569422
0.000566626
0.000587666
0.000581833
0.000628635
0.000610971
0.000496431
0.00013104
0.000192869
0.000584879
0.000566728
0.000289582
0.000321595
0.000372383
0.000488487
0.000632297
0.000729509
0.000758328
0.000933231
0.00130614
0.00142165
0.00142019
0.00136936
0.00131913
0.0012762
0.00123147
0.00117663
0.00108774
0.00098554
0.000901259
0.000901045
0.000974915
0.0010123
0.000994842
0.000884243
0.000533078
0.000270103
0.000217987
0.000229797
0.000239256
0.000437117
0.000315197
0.000749077
0.000591343
0.000938912
0.000870539
0.000974565
0.000968137
0.000941358
0.00093986
0.000934182
0.00093841
0.000769928
0.000802443
0.000547862
0.000585509
0.000522381
0.00053199
0.000463078
0.000450769
0.000482097
0.00046378
0.000427955
0.000445151
0.000471219
0.000479858
0.000492734
0.000498631
0.000458711
0.000444204
0.000438561
0.000440097
0.000511905
0.000478127
0.000449147
0.000428416
0.000494567
0.00050292
0.000478199
0.000482879
0.000465987
0.000483761
0.000470603
0.000463346
0.000502085
0.000543586
0.000495236
0.000469793
0.000544359
0.000572495
0.000605764
0.000554179
0.000548796
0.000540056
0.000545148
0.000597176
0.000594658
0.000626223
0.000613909
0.000498784
0.000179537
0.000165351
0.000591229
0.000558474
0.000304793
0.000358572
0.000452464
0.000615577
0.000732309
0.000764197
0.000901871
0.00129969
0.00142344
0.00140875
0.00133374
0.0012867
0.00124767
0.00121677
0.00118122
0.00111982
0.00103547
0.000959119
0.000938425
0.00102003
0.00110536
0.00111262
0.000994035
0.000575175
0.00026456
0.000176544
0.000163555
0.000168958
0.00020836
0.000172416
0.000336336
0.000255539
0.000597841
0.00045395
0.000834995
0.000734855
0.000927248
0.000895557
0.000856087
0.000861544
0.000823685
0.000840682
0.000625392
0.000660213
0.000467297
0.000522398
0.00044241
0.00044843
0.000414409
0.000399217
0.000379678
0.000465765
0.000449673
0.00041884
0.000433942
0.000447824
0.000463833
0.000487195
0.000481616
0.000417177
0.000414175
0.000417514
0.000427355
0.000444899
0.00042022
0.000404798
0.000398652
0.000484284
0.000447563
0.000416695
0.000450957
0.000447873
0.000459913
0.000440913
0.000454858
0.000459211
0.000492222
0.000451661
0.000436794
0.000493719
0.000551861
0.000580677
0.000530552
0.000499886
0.000500031
0.000529502
0.000604792
0.000602772
0.000616539
0.000612775
0.000434466
8.36399e-05
0.00017231
0.000591885
0.000551646
0.000330016
0.000430029
0.000575633
0.000728904
0.000769723
0.000863397
0.00126009
0.00142168
0.00139786
0.00128446
0.00123698
0.00121807
0.00118518
0.00116552
0.00112103
0.0010597
0.00099885
0.00099066
0.00109612
0.00121398
0.00122444
0.0010895
0.000615616
0.000277019
0.000171601
0.000145892
0.00014535
0.000147607
0.000178265
0.000158253
0.000260936
0.000210858
0.000449415
0.000338837
0.000693481
0.000578187
0.000832131
0.000777719
0.000724924
0.000732857
0.000687813
0.0007089
0.000542889
0.000548853
0.000374854
0.000371445
0.000369944
0.000373261
0.000405417
0.000393974
0.000394731
0.00038178
0.000462565
0.000451738
0.000429506
0.000441083
0.00044283
0.000465441
0.000484899
0.000474262
0.00039972
0.000406185
0.000417353
0.000432582
0.00039648
0.000388096
0.000388389
0.00039499
0.000424506
0.000397618
0.000382423
0.000431639
0.000436831
0.000411401
0.0004015
0.000426008
0.000424581
0.000447684
0.000415282
0.000414779
0.000448117
0.00053471
0.000547515
0.000500627
0.000453252
0.000456968
0.00050738
0.000608375
0.000605095
0.000560773
0.000557924
0.000378166
5.32389e-05
0.000201645
0.000590364
0.000539087
0.000380704
0.000546987
0.000703453
0.000783054
0.000828346
0.00117139
0.00141667
0.00139201
0.00123941
0.0011881
0.00117475
0.00115994
0.0011417
0.00110999
0.0010707
0.0010564
0.00109155
0.0012117
0.00134163
0.00132179
0.00117635
0.000613759
0.000295309
0.000178727
0.000144736
0.000139802
0.000139882
0.000143383
0.000139875
0.000160023
0.000149405
0.000207129
0.000177804
0.000321006
0.000252142
0.000524835
0.000416533
0.000694304
0.000622082
0.000607692
0.000571637
0.000565871
0.000590517
0.000380724
0.000406753
0.000308657
0.000295949
0.000369009
0.000354499
0.000334436
0.000417962
0.000406187
0.000417515
0.000404628
0.000466643
0.000460992
0.000447049
0.000454625
0.00045006
0.000475469
0.000479234
0.000473582
0.000405625
0.000417642
0.000430288
0.000444761
0.000380161
0.000386582
0.000399218
0.000413081
0.000387039
0.0003767
0.000378951
0.000417755
0.000410563
0.000383105
0.000379029
0.000391914
0.000398501
0.000409261
0.000384988
0.000397691
0.000407295
0.000514787
0.00051557
0.000466126
0.000409487
0.000416984
0.000483008
0.000555071
0.000571712
0.000504904
0.000492646
0.000352678
2.87858e-05
0.000119904