/*--------------------------------*- C++ -*----------------------------------*\
  =========                 |
  \\      /  F ield         | OpenFOAM: The Open Source CFD Toolbox
   \\    /   O peration     | Website:  https://openfoam.org
    \\  /    A nd           | Version:  dev
     \\/     M anipulation  |
\*---------------------------------------------------------------------------*/
FoamFile
{
    version     2.0;
    format      ascii;
    class       volScalarField;
    location    "2500";
    object      CO2;
}
// * * * * * * * * * * * * * * * * * * * * * * * * * * * * * * * * * * * * * //

dimensions      [0 0 0 0 0 0 0];

internalField   nonuniform List<scalar> 
9836
(
1.07523e-32
2.92427e-32
2.09204e-32
4.04914e-32
7.46139e-32
1.13574e-32
9.62776e-32
2.17575e-31
1.10204e-31
1.27173e-32
7.62314e-32
3.22378e-31
2.57172e-31
9.82392e-32
1.05452e-32
9.02511e-32
6.31898e-31
4.36989e-31
2.52783e-31
6.18488e-32
4.72889e-33
1.99738e-31
8.82121e-31
9.77385e-31
4.57965e-31
1.54424e-31
3.24734e-32
5.18181e-34
3.44264e-31
1.10574e-30
1.41184e-30
1.07639e-30
4.6343e-31
1.08554e-31
7.21002e-33
5.09897e-34
3.49242e-31
1.5406e-30
1.87127e-30
1.67662e-30
8.36797e-31
3.3024e-31
5.32219e-32
4.87322e-33
7.64181e-35
3.46648e-31
2.17895e-30
2.98798e-30
3.29729e-30
1.89373e-30
7.23579e-31
1.3345e-31
2.82415e-32
9.36846e-34
2.31861e-35
8.96837e-31
4.68356e-30
4.734e-30
5.1441e-30
3.01466e-30
1.62505e-30
3.88102e-31
8.64042e-32
9.472e-33
5.20917e-34
2.11706e-35
4.02441e-30
1.00514e-29
9.22026e-30
8.20679e-30
5.7411e-30
2.82766e-30
1.38115e-30
2.69072e-31
3.11685e-32
3.72046e-33
2.7842e-34
5.27818e-35
1.77756e-29
3.49963e-29
2.90319e-29
2.0241e-29
1.25473e-29
6.26242e-30
2.62939e-30
7.93825e-31
1.50539e-31
1.38643e-32
2.10897e-33
1.47323e-33
1.07121e-33
2.37305e-29
1.06009e-28
8.8422e-29
7.09169e-29
2.66835e-29
1.33985e-29
5.08855e-30
1.73876e-30
3.76837e-31
4.11309e-32
1.30985e-32
1.31143e-32
1.66518e-32
9.94332e-33
7.47185e-29
2.62707e-28
2.98836e-28
1.54927e-28
8.83914e-29
3.00106e-29
1.29705e-29
4.25052e-30
1.27586e-30
1.77862e-31
7.58081e-32
9.82186e-32
1.59399e-31
1.81748e-31
8.73868e-32
9.74523e-29
3.598e-28
8.11795e-28
4.85394e-28
2.24833e-28
1.05517e-28
2.99952e-29
9.82567e-30
3.50559e-30
1.10715e-30
7.36543e-31
1.0905e-30
1.30964e-30
2.14834e-30
2.5584e-30
1.50865e-30
2.39323e-28
1.33634e-27
1.79554e-27
1.53723e-27
7.61455e-28
3.10659e-28
1.00647e-28
3.06692e-29
9.68549e-30
4.59981e-30
4.71074e-30
9.48523e-30
1.25736e-29
1.98041e-29
2.30011e-29
3.38748e-29
3.47909e-29
1.30464e-27
2.42534e-27
3.66931e-27
4.8443e-27
3.24783e-27
1.0025e-27
3.24761e-28
9.77005e-29
3.75631e-29
2.08734e-29
3.57582e-29
6.34228e-29
1.07063e-28
1.70359e-28
1.83577e-28
3.50074e-28
6.2042e-28
2.69968e-28
3.18264e-27
6.54294e-27
1.54369e-26
1.3709e-26
8.64899e-27
3.4785e-27
9.73181e-28
4.20092e-28
1.87045e-28
1.36746e-28
1.95517e-28
3.8111e-28
8.93556e-28
1.2857e-27
2.24162e-27
2.83565e-27
5.03766e-27
6.35756e-27
5.20458e-27
3.11238e-27
1.43758e-26
3.82125e-26
4.08449e-26
2.48356e-26
1.30673e-26
4.47171e-27
1.77576e-27
1.20347e-27
1.05296e-27
1.37913e-27
2.06943e-27
5.90049e-27
8.70018e-27
1.80737e-26
1.93643e-26
2.92263e-26
6.06478e-26
4.77072e-26
5.31589e-26
5.11068e-27
4.78989e-26
8.51484e-26
8.98111e-26
7.73953e-26
3.06629e-26
1.64767e-26
7.74338e-27
7.45084e-27
6.96996e-27
8.26121e-27
1.58741e-26
2.90643e-26
7.22646e-26
1.2468e-25
1.73202e-25
2.0744e-25
3.20073e-25
6.66141e-25
6.37243e-25
7.50239e-25
1.51623e-26
9.21889e-26
1.2959e-25
2.004e-25
1.8019e-25
1.14528e-25
5.54565e-26
3.64307e-26
4.3279e-26
4.46365e-26
4.45992e-26
1.00528e-25
1.60269e-25
3.41614e-25
7.88981e-25
1.02147e-24
1.74224e-24
2.67743e-24
4.24543e-24
6.03269e-24
7.46767e-24
5.85939e-24
6.66771e-26
1.16702e-25
4.38448e-25
5.61222e-25
5.0292e-25
2.79955e-25
2.02812e-25
2.12331e-25
2.95197e-25
3.55948e-25
4.22893e-25
5.06549e-25
1.19739e-24
1.49028e-24
4.56087e-24
8.17685e-24
1.06148e-23
2.39263e-23
2.43832e-23
3.71807e-23
5.01764e-23
6.3129e-23
3.2642e-23
6.59947e-26
3.60295e-25
6.83881e-25
1.19762e-24
9.5599e-25
8.9865e-25
6.42467e-25
1.4125e-24
1.90808e-24
1.60836e-24
2.72014e-24
3.75022e-24
6.56451e-24
1.10251e-23
1.85554e-23
4.46884e-23
1.11097e-22
1.11487e-22
2.74285e-22
1.7847e-22
2.88862e-22
4.53197e-22
3.70689e-22
1.5085e-22
4.98944e-25
1.02165e-24
2.13024e-24
2.91975e-24
2.75032e-24
2.09496e-24
3.40094e-24
5.42694e-24
1.30648e-23
1.31715e-23
1.69064e-23
2.01229e-23
2.99461e-23
6.22602e-23
6.48442e-23
1.75378e-22
5.62406e-22
9.9901e-22
1.11087e-21
1.83575e-21
2.01634e-21
2.16349e-21
3.45439e-21
1.58788e-21
2.71362e-22
4.71404e-25
3.77115e-24
6.44207e-24
5.22946e-24
5.40916e-24
6.55072e-24
1.09126e-23
3.30474e-23
6.63586e-23
9.45393e-23
1.00458e-22
1.16942e-22
1.53905e-22
2.81051e-22
5.66424e-22
7.32419e-22
1.64836e-21
5.03097e-21
9.91511e-21
1.40917e-20
1.08074e-20
1.02376e-20
1.25522e-20
2.577e-20
7.78793e-21
2.3758e-21
1.48544e-24
6.01118e-24
1.35661e-23
1.25178e-23
1.73102e-23
2.03678e-23
5.26021e-23
1.60534e-22
4.4669e-22
5.03493e-22
6.11254e-22
6.45407e-22
9.5246e-22
1.16368e-21
2.93672e-21
3.5506e-21
7.92092e-21
1.17363e-20
5.14091e-20
7.98506e-20
1.14545e-19
1.18793e-19
1.06661e-19
1.40679e-19
1.26289e-19
7.10053e-20
1.10079e-20
3.07455e-24
7.60111e-24
3.05767e-23
3.26206e-23
4.41964e-23
4.51586e-23
1.51292e-22
6.10017e-22
2.36493e-21
4.16228e-21
3.31253e-21
4.39662e-21
3.73035e-21
5.6906e-21
9.84078e-21
1.8541e-20
3.86813e-20
6.64727e-20
1.40369e-19
3.24048e-19
4.72859e-19
4.79248e-19
4.71686e-19
5.67944e-19
7.04257e-19
4.40797e-19
2.31067e-19
6.07262e-20
4.08537e-24
1.74078e-23
6.47512e-23
8.64231e-23
1.03343e-22
1.85735e-22
6.36638e-22
3.36781e-21
7.71864e-21
1.94904e-20
2.83387e-20
2.29635e-20
2.53823e-20
3.03919e-20
4.65405e-20
8.97034e-20
2.84785e-19
5.01846e-19
6.52507e-19
1.07152e-18
1.46297e-18
1.8074e-18
2.32344e-18
2.26231e-18
2.98678e-18
2.73707e-18
1.81667e-18
8.46613e-19
1.13084e-19
1.15072e-23
4.84677e-23
1.37702e-22
1.77131e-22
2.80529e-22
4.70559e-22
2.73532e-21
1.06758e-20
4.34737e-20
8.08506e-20
1.84791e-19
1.17489e-19
1.68578e-19
2.05537e-19
2.32713e-19
5.0102e-19
1.03973e-18
1.58973e-18
2.49841e-18
5.21604e-18
1.01725e-17
1.12693e-17
1.34787e-17
1.06882e-17
1.2222e-17
7.99935e-18
1.10409e-17
2.85037e-18
1.41347e-18
3.10567e-19
1.20035e-23
1.01571e-22
2.45984e-22
4.27211e-22
6.03318e-22
1.55801e-21
7.34215e-21
4.57838e-20
1.60098e-19
4.3803e-19
7.55042e-19
1.08536e-18
6.32587e-19
9.97992e-19
1.06852e-18
1.79353e-18
5.97548e-18
7.21395e-18
1.29382e-17
2.60854e-17
3.50646e-17
4.24696e-17
7.13841e-17
5.20658e-17
4.43596e-17
3.92195e-17
4.50196e-17
1.81988e-17
1.27628e-17
8.04704e-18
1.4001e-18
2.95818e-23
1.23303e-22
4.10072e-22
7.89568e-22
1.22115e-21
4.0636e-21
2.66602e-20
1.87184e-19
6.2166e-19
2.13824e-18
3.90895e-18
5.05425e-18
5.53053e-18
6.35593e-18
6.58016e-18
8.09175e-18
1.84157e-17
3.52309e-17
5.79713e-17
7.86648e-17
1.05094e-16
9.43946e-17
1.87472e-16
1.71814e-16
1.59084e-16
1.6855e-16
1.11319e-16
1.27696e-16
7.78532e-17
4.66623e-17
1.29727e-17
1.43366e-18
1.18599e-22
3.65341e-22
6.40129e-22
1.24876e-21
2.64071e-21
1.21707e-20
9.75312e-20
6.56361e-19
2.87519e-18
1.1136e-17
1.91641e-17
2.6038e-17
3.7078e-17
3.51356e-17
3.35452e-17
3.74577e-17
6.08013e-17
1.37749e-16
1.68791e-16
2.09812e-16
3.31472e-16
3.98015e-16
5.31932e-16
5.75996e-16
7.6127e-16
4.76777e-16
4.98878e-16
4.92221e-16
3.61001e-16
1.8321e-16
1.21715e-16
2.30214e-17
8.13141e-19
1.20682e-21
1.14474e-21
1.32583e-21
1.67381e-21
5.44792e-21
3.36066e-20
2.43116e-19
2.58289e-18
1.12076e-17
3.71091e-17
8.61968e-17
1.45797e-16
1.55398e-16
2.12087e-16
2.11311e-16
1.75343e-16
2.59382e-16
3.51845e-16
5.33894e-16
7.88678e-16
1.00545e-15
1.53013e-15
1.57547e-15
2.01211e-15
2.22481e-15
2.6146e-15
2.52883e-15
1.95449e-15
1.53426e-15
1.12089e-15
5.99003e-16
2.34994e-16
2.06486e-17
2.5536e-19
3.89872e-18
5.13619e-21
7.30317e-21
7.8214e-21
6.87376e-21
1.05886e-20
9.50142e-20
8.58234e-19
6.73876e-18
3.84676e-17
1.85119e-16
3.82139e-16
7.043e-16
7.03291e-16
9.34792e-16
1.04281e-15
8.83166e-16
1.16704e-15
1.6031e-15
2.38772e-15
3.43036e-15
4.5879e-15
6.05852e-15
7.29167e-15
8.55466e-15
1.01082e-14
1.14613e-14
1.1708e-14
1.01557e-14
8.35503e-15
6.13748e-15
4.46364e-15
1.80138e-15
0
2.39242e-17
2.95025e-16
1.45756e-18
1.30205e-17
2.63378e-20
2.78637e-20
3.54512e-20
2.55023e-20
2.99793e-20
2.3333e-19
3.02995e-18
2.51318e-17
1.45065e-16
5.85265e-16
1.53451e-15
3.20623e-15
4.01763e-15
5.314e-15
7.14776e-15
4.97557e-15
5.91485e-15
8.99375e-15
1.29196e-14
1.85887e-14
2.44286e-14
3.04497e-14
3.51663e-14
4.05762e-14
4.78267e-14
5.52957e-14
6.12496e-14
5.45545e-14
5.27628e-14
4.26655e-14
3.65546e-14
2.27134e-14
2.82802e-15
1.41408e-14
1.64741e-15
1.50605e-14
1.57529e-14
1.17931e-16
1.29972e-15
7.61466e-18
8.4585e-17
7.10215e-20
2.1457e-19
1.5119e-19
1.26297e-19
9.81241e-20
5.16799e-19
7.4122e-18
7.17356e-17
4.57661e-16
2.0267e-15
7.05224e-15
1.43939e-14
2.51346e-14
3.52178e-14
4.60078e-14
4.30035e-14
4.31272e-14
5.89536e-14
8.37691e-14
1.13731e-13
1.43583e-13
1.68378e-13
1.84461e-13
2.00681e-13
2.27464e-13
2.63042e-13
2.95871e-13
2.79972e-13
2.75516e-13
3.02112e-13
3.34247e-13
3.31432e-13
7.83796e-14
4.40266e-13
9.78062e-14
1.3497e-14
1.26826e-13
1.30662e-13
7.69101e-16
9.34257e-15
2.72622e-17
3.44578e-16
8.2817e-19
7.77426e-19
1.03861e-18
7.76731e-19
3.59308e-19
1.41235e-18
1.84252e-17
1.74254e-16
1.3682e-15
6.87317e-15
2.63927e-14
7.27409e-14
1.43157e-13
2.30376e-13
3.3456e-13
4.35396e-13
3.22713e-13
4.15601e-13
5.60333e-13
7.25689e-13
8.72928e-13
9.63006e-13
9.88543e-13
9.91702e-13
1.06946e-12
1.19761e-12
1.28824e-12
1.25506e-12
1.52138e-12
1.58564e-12
2.71819e-12
3.92198e-12
1.95476e-12
7.86643e-12
6.04424e-13
3.37537e-12
9.33245e-13
1.09816e-13
1.14841e-12
1.14003e-12
5.30633e-15
7.3649e-14
7.30127e-17
2.32409e-15
1.52333e-18
5.54781e-18
3.65568e-18
3.67695e-18
1.59377e-18
2.93975e-18
4.67364e-17
5.76671e-16
4.21745e-15
2.56706e-14
1.10956e-13
3.40636e-13
7.62881e-13
1.37109e-12
2.14698e-12
3.33018e-12
2.4228e-12
2.97066e-12
3.79423e-12
4.6716e-12
5.33113e-12
5.55622e-12
5.35938e-12
4.93438e-12
4.86584e-12
5.56158e-12
5.69903e-12
5.75659e-12
6.30089e-12
9.63682e-12
1.49675e-11
3.45257e-11
2.85778e-11
1.01908e-10
1.67305e-11
7.43895e-11
5.92769e-12
3.38763e-11
8.81225e-12
9.35334e-13
1.04442e-11
1.02147e-11
3.94621e-14
6.032e-13
4.62193e-16
1.59252e-14
4.53931e-18
1.77481e-17
1.85656e-17
1.74447e-17
6.62355e-18
6.57799e-18
9.74388e-17
1.35047e-15
1.30377e-14
8.87159e-14
4.27945e-13
1.45501e-12
3.66692e-12
7.45055e-12
1.29095e-11
1.93886e-11
1.86097e-11
2.10649e-11
2.59514e-11
3.01911e-11
3.23418e-11
3.15825e-11
2.87273e-11
2.46396e-11
2.20711e-11
2.25648e-11
2.21816e-11
2.3241e-11
2.78268e-11
3.85956e-11
8.26297e-11
2.10908e-10
3.04326e-10
9.04179e-10
2.92511e-10
1.02862e-09
1.7027e-10
7.59196e-10
5.75683e-11
3.33012e-10
8.26981e-11
8.08575e-12
9.53839e-11
9.13438e-11
3.09356e-13
5.04216e-12
3.31313e-15
1.20408e-13
2.23156e-17
5.82566e-17
6.03206e-17
6.38091e-17
3.18946e-17
1.8794e-17
1.98145e-16
3.12978e-15
3.72564e-14
2.85434e-13
1.52486e-12
5.72093e-12
1.58705e-11
3.61802e-11
7.16289e-11
1.20787e-10
1.68257e-10
1.4282e-10
1.72413e-10
1.93691e-10
1.96077e-10
1.76568e-10
1.49609e-10
1.20899e-10
9.97101e-11
9.26986e-11
9.62813e-11
9.97167e-11
1.23223e-10
2.01794e-10
3.11345e-10
1.09355e-09
2.25017e-09
5.65297e-09
3.20709e-09
9.2517e-09
3.00836e-09
1.05788e-08
1.68327e-09
7.5031e-09
5.49733e-10
3.16952e-09
7.64648e-10
6.98704e-11
8.58531e-10
8.02966e-10
2.48877e-12
4.20236e-11
2.43281e-14
9.3356e-13
7.69565e-17
1.89173e-16
2.355e-16
1.81266e-16
1.32551e-16
5.77597e-17
3.37341e-16
6.63833e-15
9.38219e-14
8.38461e-13
5.02813e-12
2.08564e-11
6.31803e-11
1.55755e-10
3.4676e-10
6.92316e-10
1.17911e-09
9.11708e-10
1.08746e-09
1.17973e-09
1.14169e-09
9.76622e-10
7.60497e-10
5.75367e-10
4.41635e-10
3.80642e-10
3.9931e-10
4.4295e-10
6.30032e-10
9.25931e-10
1.94005e-09
3.53792e-09
1.19145e-08
2.68214e-08
2.41834e-08
5.91095e-08
3.33608e-08
9.6625e-08
2.97109e-08
1.03723e-07
1.59278e-08
7.02641e-08
5.10058e-09
2.87777e-08
6.82671e-09
5.92623e-10
7.50845e-09
6.82195e-09
1.98803e-11
3.42578e-10
1.803e-13
7.16878e-12
3.08857e-16
5.79795e-16
6.52479e-16
7.88341e-16
5.46386e-16
2.24622e-16
5.54632e-16
1.24806e-14
2.11134e-13
2.23376e-12
1.51848e-11
7.02712e-11
2.33726e-10
6.17519e-10
1.44484e-09
3.27714e-09
7.00853e-09
5.6374e-09
6.50647e-09
6.76448e-09
6.21502e-09
5.07379e-09
3.74762e-09
2.65038e-09
1.90663e-09
1.54115e-09
1.623e-09
2.16898e-09
3.62843e-09
5.87442e-09
7.94805e-09
2.00731e-08
4.55902e-08
8.37057e-08
1.32949e-07
3.1357e-07
2.57675e-07
6.39083e-07
3.27453e-07
9.49657e-07
2.74711e-07
9.40323e-07
1.42178e-07
6.12788e-07
4.49238e-08
2.46205e-07
5.81894e-08
4.85274e-09
6.26913e-08
5.51664e-08
1.55171e-10
2.6916e-09
1.34162e-12
5.41579e-11
7.30653e-16
2.25607e-15
2.43227e-15
2.69654e-15
2.05786e-15
8.80397e-16
8.87652e-16
2.00827e-14
4.1514e-13
5.26752e-12
4.1674e-11
2.17212e-10
8.00017e-10
2.29066e-09
5.57504e-09
1.25924e-08
3.02721e-08
3.53273e-08
3.65967e-08
3.64475e-08
3.16822e-08
2.44745e-08
1.71754e-08
1.15617e-08
7.91866e-09
6.21938e-09
6.74036e-09
1.07219e-08
2.14772e-08
4.04753e-08
5.60327e-08
5.92042e-08
1.22739e-07
2.04177e-07
5.42069e-07
1.04438e-06
1.4692e-06
3.40089e-06
2.5217e-06
6.13508e-06
2.91615e-06
8.12675e-06
2.32226e-06
7.50238e-06
1.1758e-06
4.80596e-06
3.71113e-07
1.94747e-06
4.65663e-07
3.7945e-08
4.91859e-07
4.20007e-07
1.1774e-09
2.025e-08
9.86781e-12
3.95229e-10
3.98501e-15
1.01129e-14
1.15069e-14
1.03262e-14
8.40021e-15
3.46708e-15
1.58345e-15
2.95507e-14
7.121e-13
1.0885e-11
1.02265e-10
6.10872e-10
2.51405e-09
7.89015e-09
2.04189e-08
4.58479e-08
9.84639e-08
1.95079e-07
1.83669e-07
1.81923e-07
1.50655e-07
1.10446e-07
7.34984e-08
4.68609e-08
3.07079e-08
2.43593e-08
3.15264e-08
6.28449e-08
1.3345e-07
2.62112e-07
4.12754e-07
5.00507e-07
4.54152e-07
0
1.51711e-06
2.05028e-06
5.91548e-06
1.10969e-05
1.37107e-05
2.92868e-05
2.06445e-05
4.77556e-05
2.17236e-05
5.6655e-05
1.66356e-05
4.88918e-05
8.60564e-06
3.13522e-05
2.81497e-06
1.34001e-05
3.41663e-06
2.8118e-07
3.52851e-06
2.95546e-06
8.54248e-09
1.44913e-07
7.09552e-11
2.75505e-09
2.3486e-14
5.29408e-14
5.421e-14
4.4158e-14
3.53743e-14
1.10085e-14
4.20999e-15
3.80638e-14
1.08773e-12
1.95442e-11
2.21569e-10
1.54534e-09
7.19068e-09
2.49536e-08
6.98926e-08
1.62491e-07
3.25393e-07
5.92083e-07
8.25059e-07
8.31645e-07
6.51628e-07
4.63045e-07
2.97666e-07
1.77631e-07
1.10179e-07
9.15821e-08
1.63834e-07
4.07336e-07
9.13207e-07
1.66515e-06
2.58802e-06
3.41353e-06
6.5735e-06
2.94421e-06
6.18024e-06
1.60739e-05
2.33324e-05
5.05953e-05
8.35674e-05
9.95064e-05
0.000179065
0.000132792
0.000268126
0.000129173
0.00029979
9.62961e-05
0.000248228
5.17411e-05
0.000164083
1.83437e-05
7.48085e-05
2.15024e-05
1.94442e-06
2.17479e-05
1.81651e-05
5.8752e-08
9.78458e-07
4.9369e-10
1.8057e-08
1.44055e-13
2.9466e-13
2.74949e-13
2.23368e-13
1.40861e-13
4.16115e-14
1.04258e-14
4.42932e-14
1.45215e-12
3.12177e-11
4.16235e-10
3.48632e-09
1.85253e-08
7.16102e-08
2.19122e-07
5.43063e-07
1.0932e-06
1.85582e-06
2.64743e-06
2.85464e-06
2.58237e-06
1.80463e-06
1.10384e-06
6.27974e-07
3.69903e-07
3.09224e-07
8.41919e-07
2.78717e-06
6.30026e-06
1.11402e-05
1.50703e-05
1.82203e-05
2.51519e-05
5.39272e-05
7.36817e-05
2.93296e-05
3.91316e-05
0.000118834
0.000165792
0.000278207
0.00039249
0.000449567
0.000653822
0.000558354
0.000858854
0.000556119
0.00094465
0.00042596
0.000875642
0.000246159
0.000634902
9.60862e-05
0.000326898
0.000108149
1.2089e-05
0.000106901
8.89984e-05
3.74713e-07
6.08011e-06
3.34303e-09
1.08375e-07
8.3491e-13
1.68938e-12
1.40373e-12
1.13969e-12
5.78584e-13
1.59661e-13
3.50518e-14
4.71199e-14
1.68741e-12
4.36588e-11
6.94952e-10
6.8182e-09
4.27419e-08
1.84587e-07
6.19629e-07
1.65835e-06
3.52111e-06
5.97769e-06
8.1864e-06
8.73469e-06
7.66971e-06
5.66523e-06
3.68315e-06
2.08534e-06
1.18234e-06
8.74727e-07
3.26681e-06
1.49491e-05
3.98116e-05
6.81503e-05
8.3275e-05
8.43544e-05
9.10494e-05
0.000114354
0.000165365
0.000303584
0.000360901
0.00021073
0.000262065
0.000507032
0.000622998
0.000859006
0.00105316
0.00116903
0.00145994
0.00135492
0.0017526
0.00138013
0.00188625
0.00122175
0.00183396
0.000855002
0.00155917
0.000391101
0.00103833
0.000421301
5.97545e-05
0.000406539
0.000335401
2.18071e-06
3.06255e-05
2.04727e-08
5.75452e-07
3.30163e-12
8.72347e-12
7.20779e-12
5.38322e-12
2.16492e-12
5.86808e-13
1.28837e-13
5.28755e-14
1.71417e-12
5.30131e-11
1.02117e-09
1.18374e-08
8.56483e-08
4.24544e-07
1.56462e-06
4.55412e-06
1.04316e-05
1.85865e-05
2.554e-05
2.76812e-05
2.42744e-05
1.78326e-05
1.15925e-05
6.68379e-06
3.57291e-06
2.14634e-06
8.6793e-06
5.17961e-05
0.000161998
0.000299228
0.000344172
0.000314758
0.000285966
0.00028654
0.000353539
0.000415325
0.00051552
0.000882532
0.000948586
0.000724996
0.000812206
0.00122537
0.00137818
0.00171926
0.00194531
0.00212023
0.00243546
0.00235532
0.00277992
0.00241402
0.00294543
0.00226797
0.00291519
0.00187079
0.00265336
0.00116379
0.00210871
0.00120532
0.000230258
0.00114268
0.000947852
1.13217e-05
0.000126691
9.06263e-08
2.6973e-06
6.29305e-12
2.79862e-11
3.32356e-11
2.38898e-11
7.90845e-12
2.18269e-12
4.46527e-13
8.23365e-14
1.49457e-12
5.62618e-11
1.30136e-09
1.81942e-08
1.52478e-07
8.47366e-07
3.48711e-06
1.11226e-05
2.76394e-05
5.27543e-05
7.47691e-05
8.45861e-05
7.77443e-05
5.91325e-05
3.80301e-05
2.05927e-05
1.00534e-05
5.00023e-06
1.43415e-05
0.000104282
0.000380555
0.00074911
0.000978353
0.000930845
0.00073174
0.000831166
0.000610383
0.000848425
0.00100918
0.00109154
0.0016628
0.00171918
0.00150028
0.00159349
0.00213474
0.00229011
0.00270319
0.00292649
0.00314257
0.00341607
0.00338771
0.00369807
0.00346068
0.00381765
0.00334589
0.00381307
0.00297424
0.00365817
0.00225949
0.00319838
0.0023011
0.000692558
0.00223757
0.0019997
4.86679e-05
0.00041227
2.17148e-07
1.01583e-05
3.84704e-11
1.02831e-10
9.23023e-11
2.81117e-11
7.00954e-12
1.46997e-12
2.02941e-13
1.07568e-12
5.17291e-11
1.45736e-09
2.43737e-08
2.4088e-07
1.50762e-06
6.74446e-06
2.34834e-05
6.34535e-05
0.00012684
0.000192196
0.000232948
0.000227337
0.000181067
0.00011489
5.96605e-05
2.71972e-05
1.15636e-05
1.89781e-05
0.000148509
0.000572106
0.0012132
0.00165565
0.00180622
0.00165894
0.00137046
0.00147896
0.00170069
0.00118023
0.00132981
0.00176908
0.0018264
0.0025386
0.00257472
0.00240574
0.00248585
0.00309643
0.00321534
0.00359315
0.00369678
0.0038681
0.00395329
0.00401175
0.0041027
0.00407032
0.00419035
0.00403591
0.00422042
0.00384163
0.00417101
0.00331409
0.00395085
0.00331798
0.00158396
0.00321978
0.00297842
0.000170036
0.00100927
7.1153e-07
3.61989e-05
1.40338e-10
2.77856e-10
9.29729e-11
2.34332e-11
4.37245e-12
6.00569e-13
7.21675e-13
3.83748e-11
1.4112e-09
2.89393e-08
3.38832e-07
2.39002e-06
1.15829e-05
4.27396e-05
0.000120585
0.000245465
0.000374243
0.000447986
0.000446148
0.000381673
0.00027873
0.000162097
6.87826e-05
2.69144e-05
2.47408e-05
0.000175525
0.000720968
0.0015144
0.00210624
0.00240737
0.0025186
0.00237286
0.00194098
0.0021982
0.00213156
0.00231362
0.00189904
0.00200293
0.00260176
0.00263015
0.00334381
0.00334468
0.00328819
0.00332763
0.0037478
0.00376424
0.00397508
0.00395946
0.00410918
0.00408788
0.00421188
0.00419035
0.00428819
0.0042835
0.00431381
0.00435793
0.00425151
0.0043804
0.00399996
0.0043021
0.00399046
0.00257899
0.00390677
0.00374467
0.00324969
0.000494726
0.00193729
4.40136e-06
0.000140851
4.95438e-10
2.72169e-10
7.33681e-11
1.27901e-11
1.75535e-12
5.51266e-13
2.44923e-11
1.1228e-09
2.95313e-08
4.0189e-07
3.2134e-06
1.72248e-05
6.74929e-05
0.000193744
0.000390883
0.000578264
0.000683035
0.00068956
0.000612243
0.000479299
0.000319901
0.000165748
6.20109e-05
3.6037e-05
0.000188825
0.000807138
0.00169754
0.00219224
0.00251647
0.00278576
0.00297223
0.0031156
0.00248709
0.00287122
0.00282108
0.00293752
0.00267246
0.00273345
0.00334119
0.00334002
0.00374143
0.00372863
0.0037608
0.0037507
0.00393271
0.00389465
0.00403599
0.00394962
0.00412933
0.00400193
0.00423899
0.00412215
0.00434902
0.00429611
0.00442199
0.00442179
0.0044254
0.00448849
0.0043262
0.00444832
0.00439481
0.00415503
0.00432068
0.00359
0.00281985
0.00344709
0.00405157
0.00427326
0.00428873
0.00398313
0.00118212
0.00320799
0.00298437
0.00223642
9.10745e-05
0.000666329
6.4042e-10
2.10087e-10
3.64579e-11
4.95948e-12
6.86181e-13
1.34377e-11
7.51487e-10
2.54439e-08
4.05826e-07
3.68353e-06
2.1827e-05
9.12168e-05
0.000267564
0.000535066
0.000782089
0.000926511
0.000946411
0.000858192
0.000696794
0.000497921
0.000303847
0.000143346
5.99449e-05
0.000194886
0.000839541
0.00168015
0.00210628
0.00239809
0.00266206
0.0029446
0.00329685
0.00351794
0.00362181
0.0030927
0.003298
0.00340162
0.00346577
0.00334582
0.00336355
0.00372272
0.00372008
0.00381243
0.0038106
0.00385813
0.0038287
0.00384723
0.00375753
0.00383212
0.00365429
0.00393732
0.00371772
0.0041883
0.00402064
0.00439645
0.00433439
0.00449675
0.0045172
0.004539
0.00456028
0.00449368
0.00454805
0.00459678
0.00468988
0.00460992
0.00445902
0.00440664
0.00447561
0.00451781
0.00440467
0.00387678
0.0037334
0.00422561
0.00436944
0.0043914
0.0041645
0.00271122
0.00170428
0.00251488
0.00356056
0.00336988
0.00146959
0.00243306
0.00240125
0.00161223
5.6117e-10
1.04579e-10
1.37866e-11
1.53083e-12
6.39304e-12
4.26879e-10
1.76418e-08
3.57861e-07
3.68105e-06
2.41527e-05
0.000108478
0.000328842
0.000662386
0.000974677
0.00117067
0.00120868
0.00110492
0.000916313
0.000686133
0.00045315
0.000248166
0.000115959
0.000207222
0.000831771
0.00162749
0.00192801
0.00205522
0.00215385
0.00246825
0.0029783
0.00354273
0.00379217
0.00380503
0.00356991
0.00369707
0.00375779
0.00380492
0.00372267
0.00373324
0.00381518
0.0038277
0.00367808
0.00370055
0.00369729
0.0036734
0.0034983
0.00339303
0.00347745
0.0032436
0.00377354
0.00347196
0.00421092
0.00399517
0.00456997
0.00456628
0.00454209
0.00448996
0.00464274
0.00468653
0.00471962
0.00458698
0.00467509
0.00476259
0.00488804
0.00477909
0.00454097
0.00448027
0.00455783
0.00462785
0.00447623
0.00407872
0.00396959
0.00433392
0.00446285
0.00443991
0.00428464
0.00319293
0.00311374
0.00384224
0.0037127
0.00341799
0.000627416
0.00259255
0.00322208
0.00348035
3.34923e-10
4.00548e-11
4.23296e-12
2.96203e-12
2.04601e-10
1.05181e-08
2.5807e-07
3.32581e-06
2.37737e-05
0.000116066
0.000370149
0.000763688
0.00114465
0.00140244
0.00145181
0.00133078
0.00112142
0.000861981
0.000596482
0.000356507
0.00018961
0.000238796
0.000815874
0.00155031
0.00178048
0.00168616
0.00133909
0.00122992
0.00170757
0.00253219
0.0036587
0.00319981
0.00391567
0.00385605
0.00386805
0.00391763
0.00392837
0.00397277
0.00385336
0.00388746
0.00374884
0.00380777
0.00340897
0.00349887
0.00335598
0.00336515
0.00305786
0.00296026
0.00314126
0.00282899
0.00367742
0.00326759
0.00441063
0.00428325
0.0041391
0.00394124
0.00473235
0.00471978
0.00467333
0.00458867
0.00483177
0.00488309
0.00490549
0.0047414
0.00487647
0.0049827
0.00513182
0.00501546
0.00466229
0.00456407
0.00468482
0.00480254
0.00455841
0.00422033
0.00414308
0.00440702
0.00454008
0.00451075
0.00436461
0.00362231
0.00364875
0.00406029
0.00399045
0.00355406
0.000494775
0.0021556
0.00381225
0.00394167
1.43958e-10
1.33811e-11
2.34762e-12
8.48693e-11
5.32987e-09
1.61855e-07
2.4812e-06
2.17963e-05
0.000114867
0.000386892
0.000831418
0.00128173
0.00160735
0.00166511
0.00153179
0.00130104
0.00101102
0.000716635
0.000451035
0.000274123
0.000297232
0.00081601
0.00148516
0.00167069
0.00145102
0.000848342
0.000515155
0.000598118
0.00100791
0.00173468
0.00343291
0.00278284
0.00395252
0.00379357
0.00400302
0.00400031
0.00399048
0.004028
0.00387
0.00393289
0.00360632
0.0037173
0.00311799
0.00326929
0.00295675
0.00300209
0.00259538
0.00249144
0.00282696
0.00244101
0.00373762
0.00348477
0.00325015
0.00298369
0.00446768
0.00431293
0.00412725
0.00390509
0.00488616
0.00482344
0.00472894
0.00460538
0.00504749
0.00506043
0.00501525
0.00496973
0.00514003
0.0051997
0.00533684
0.00527754
0.00485099
0.00469211
0.00488065
0.00505209
0.0046821
0.0043149
0.00426144
0.00447174
0.00465386
0.00460934
0.00442695
0.00397314
0.00404165
0.004214
0.00419139
0.00337788
0.000578144
0.00213039
0.00414469
0.00399944
5.89586e-11
6.27989e-12
2.99644e-11
2.31738e-09
8.75233e-08
1.62038e-06
1.6774e-05
0.000104244
0.000382883
0.000860414
0.00137552
0.00177401
0.00184929
0.00171082
0.00144872
0.00112227
0.000794581
0.000524321
0.000364997
0.00038205
0.000839668
0.00143894
0.0015932
0.00133295
0.000660995
0.000268169
0.000180624
0.00027188
0.000530871
0.00158892
0.000841394
0.00306161
0.00234743
0.00386205
0.00356061
0.00402917
0.00399197
0.00396793
0.00398118
0.00382154
0.00390963
0.00342787
0.0035768
0.00276621
0.00296098
0.00250459
0.00259509
0.00218137
0.00204451
0.0026186
0.00229631
0.00366012
0.00339881
0.0031453
0.00290604
0.00445092
0.00426225
0.0040414
0.00379444
0.00493358
0.0048218
0.00468174
0.00451614
0.0051892
0.00511666
0.00500132
0.0052548
0.00541325
0.00530181
0.00541081
0.00546805
0.00511459
0.00488831
0.00515168
0.00535463
0.00487118
0.00438086
0.00433888
0.00455198
0.00482709
0.00475611
0.00449106
0.00421799
0.00428511
0.00431232
0.00431565
0.00327321
0.000596097
0.00216226
0.00428193
0.00397259
4.08379e-11
1.76395e-11
8.22176e-10
4.18511e-08
9.32202e-07
1.12832e-05
8.10175e-05
0.000352617
0.000856951
0.00141984
0.00189223
0.00200677
0.00187353
0.00158113
0.00120356
0.000854788
0.000609526
0.000457776
0.000486066
0.000909733
0.00141612
0.00153807
0.00128226
0.000651083
0.000218305
7.48304e-05
6.05131e-05
0.000110133
0.00017693
0.0010823
0.00049215
0.00256122
0.00181283
0.00359495
0.00316818
0.00395423
0.00384767
0.00383158
0.00381691
0.00370336
0.00379363
0.00315288
0.0033203
0.0022558
0.00246024
0.00200461
0.00208559
0.00206043
0.00189985
0.00269749
0.00255919
0.0023539
0.00246273
0.00353542
0.00328103
0.00304844
0.00285659
0.00432433
0.00410578
0.00386666
0.00361979
0.00485028
0.00468043
0.00449618
0.00429663
0.00519464
0.00502634
0.00482314
0.00553806
0.00559358
0.0052586
0.00532437
0.00552035
0.00543048
0.00515915
0.00547777
0.00565055
0.00513155
0.00443444
0.00438971
0.0046672
0.00506591
0.00496068
0.00457453
0.00435717
0.00439861
0.00436901
0.00438235
0.00323464
0.000981689
0.00223767
0.00432243
0.00394144
5.70025e-11
2.85324e-10
1.67533e-08
4.82956e-07
6.85283e-06
5.76718e-05
0.000288463
0.000816256
0.00142062
0.00195514
0.00213473
0.00202468
0.00171262
0.00130145
0.000965442
0.000727465
0.000579856
0.000620433
0.0010073
0.00141366
0.00150147
0.00126267
0.000685307
0.000227201
5.97683e-05
1.79905e-05
1.88211e-05
2.83786e-05
8.78478e-05
1.98921e-05
0.000613693
0.00023956
0.00193887
0.00121527
0.00314166
0.00261352
0.00373011
0.00351199
0.00352435
0.00346017
0.00344804
0.00352012
0.00266786
0.00284282
0.00162068
0.0017595
0.00175184
0.00164833
0.00227196
0.00216075
0.0020877
0.00281262
0.00275917
0.00266866
0.00271742
0.0033833
0.00317726
0.00301549
0.00289269
0.0040822
0.00385853
0.00363803
0.00343699
0.00461003
0.00439602
0.00418374
0.00397522
0.00502876
0.00476529
0.00449696
0.00571835
0.00563962
0.00503803
0.0050827
0.00541484
0.00574428
0.00548857
0.00581212
0.00583477
0.00545335
0.00448977
0.0044259
0.0048294
0.00536564
0.00522317
0.00469035
0.00442574
0.00444089
0.00439623
0.00440684
0.00313537
0.00027327
0.0014731
0.00432327
0.00387272
1.92588e-10
6.32368e-09
2.17715e-07
3.77098e-06
3.7074e-05
0.000218289
0.000711577
0.00138336
0.00196201
0.00222642
0.00216062
0.00186343
0.00145003
0.00113588
0.000896436
0.000754331
0.000825274
0.0011729
0.00142227
0.00147828
0.00125166
0.000736615
0.000260864
6.29756e-05
1.2463e-05
3.96016e-06
3.74698e-06
1.99009e-06
2.24789e-05
4.84586e-06
0.000246738
7.94096e-05
0.0012147
0.000620879
0.00248692
0.00188716
0.00327574
0.00295115
0.00297146
0.00283088
0.00296117
0.00300612
0.00193982
0.00209892
0.00131854
0.0011735
0.00179206
0.00153681
0.00259767
0.00248063
0.00290618
0.00268115
0.00311338
0.00315268
0.00318006
0.00317748
0.00327954
0.00316765
0.00310838
0.00309634
0.00377534
0.003593
0.00344743
0.00335424
0.0042426
0.00401365
0.00381421
0.00364605
0.00471212
0.00438368
0.00408378
0.00578019
0.00553833
0.00470118
0.00476212
0.0051797
0.00595163
0.00584228
0.00605663
0.00592945
0.00581248
0.00456117
0.00446171
0.00504314
0.0057085
0.00553652
0.00484581
0.00445012
0.00444799
0.00440906
0.00440669
0.00276018
0.000108156
0.000853702
0.00429936
0.00370588
2.04902e-09
9.85616e-08
1.80493e-06
2.19467e-05
0.000150268
0.000582103
0.0012659
0.00193256
0.00227092
0.0022703
0.0020272
0.00163403
0.00134955
0.00111401
0.00100332
0.00110654
0.00131252
0.00143313
0.00145871
0.00123262
0.000754634
0.000280095
6.83241e-05
1.17562e-05
2.09298e-06
9.06961e-07
4.0558e-07
3.93168e-07
8.61452e-08
4.42063e-06
9.68193e-07
6.49473e-05
1.78098e-05
0.000522898
0.000204087
0.00162542
0.00103797
0.00255565
0.0021502
0.00212739
0.00192081
0.00219203
0.00221219
0.00112933
0.00118037
0.001339
0.000998604
0.0024427
0.00214391
0.00186062
0.0031443
0.00305306
0.00356858
0.00332192
0.00362572
0.00374705
0.00385958
0.00383309
0.00331012
0.00332455
0.00339671
0.00350301
0.00351685
0.00343603
0.00341658
0.0034442
0.00383591
0.00364659
0.00351671
0.00344388
0.00431808
0.00397605
0.00370651
0.00570809
0.00533995
0.00433978
0.00446625
0.00490588
0.00607851
0.00613973
0.00622448
0.00591806
0.00616341
0.00465913
0.00450707
0.00530341
0.00607945
0.00588028
0.00504113
0.00444631
0.00443852
0.0044147
0.00439243
0.00222954
2.30623e-05
0.000371329
0.00424441
0.00345881
3.16867e-08
9.78189e-07
1.15009e-05
9.55836e-05
0.00043945
0.00109822
0.00182151
0.00227024
0.00234168
0.00217312
0.00182368
0.00155896
0.00135128
0.00128449
0.00132705
0.00139508
0.00145059
0.00142771
0.00119131
0.000738358
0.000276716
6.74696e-05
1.11539e-05
1.52091e-06
2.68652e-07
6.06644e-08
1.11805e-08
7.20155e-08
1.64827e-08
6.70545e-07
2.25421e-07
1.08695e-05
2.79074e-06
0.000126202
3.94086e-05
0.000708992
0.000338445
0.00158906
0.00116148
0.00108857
0.00087493
0.00122036
0.00120515
0.000766887
0.000588045
0.00201707
0.00161695
0.00124866
0.00300907
0.00264246
0.00240131
0.0028615
0.00384259
0.00374282
0.00428636
0.00400465
0.00432454
0.00450108
0.00464843
0.00461694
0.00355107
0.00371296
0.00390703
0.00411754
0.00343941
0.00347755
0.00360147