/*--------------------------------*- C++ -*----------------------------------*\
  =========                 |
  \\      /  F ield         | OpenFOAM: The Open Source CFD Toolbox
   \\    /   O peration     | Website:  https://openfoam.org
    \\  /    A nd           | Version:  dev
     \\/     M anipulation  |
\*---------------------------------------------------------------------------*/
FoamFile
{
    version     2.0;
    format      ascii;
    class       volScalarField;
    location    "2500";
    object      G;
}
// * * * * * * * * * * * * * * * * * * * * * * * * * * * * * * * * * * * * * //

dimensions      [1 0 -3 0 0 0 0];

internalField   nonuniform List<scalar> 
9836
(
4051.97
4057.84
4059.37
4062.94
4065.25
4067.56
4067.28
4070.36
4073.45
4076.55
4070.86
4074.7
4078.57
4082.46
4086.36
4073.7
4078.29
4082.91
4087.58
4092.28
4097
4075.8
4081.12
4086.48
4091.91
4097.39
4102.93
4108.49
4077.2
4083.22
4089.3
4095.46
4101.71
4108.04
4114.43
4120.85
4077.9
4084.6
4091.37
4098.24
4105.22
4112.32
4119.52
4126.8
4134.13
4077.92
4085.28
4092.72
4100.27
4107.96
4115.79
4123.77
4131.88
4140.08
4148.34
4077.29
4085.28
4093.35
4101.56
4109.93
4118.46
4127.18
4136.08
4145.13
4154.29
4163.52
4076.04
4084.62
4093.31
4102.14
4111.14
4120.35
4129.77
4139.42
4149.27
4159.31
4169.47
4179.73
4074.19
4083.34
4092.6
4102.02
4111.63
4121.47
4131.56
4141.91
4152.52
4163.38
4174.45
4185.68
4197.01
4071.77
4081.46
4091.26
4101.24
4111.42
4121.85
4132.56
4143.57
4154.89
4166.52
4178.44
4190.6
4202.95
4215.43
4068.81
4079
4089.32
4099.81
4110.53
4121.52
4132.81
4144.43
4156.41
4168.75
4181.45
4194.48
4207.81
4221.35
4235.04
4065.34
4076.01
4086.8
4097.78
4108.99
4120.49
4132.32
4144.51
4157.1
4170.1
4183.52
4197.35
4211.57
4226.13
4240.94
4255.92
4061.38
4072.49
4083.73
4095.16
4106.84
4118.81
4131.13
4143.84
4156.98
4170.58
4184.66
4199.23
4214.27
4229.75
4245.63
4261.8
4278.17
4056.97
4068.49
4080.15
4092
4104.1
4116.51
4129.28
4142.46
4156.1
4170.24
4184.91
4200.14
4215.92
4232.24
4249.09
4266.38
4284.02
4301.89
4052.14
4064.04
4076.08
4088.32
4100.81
4113.61
4126.79
4140.4
4154.49
4169.11
4184.31
4200.12
4216.56
4233.63
4251.34
4269.64
4288.46
4307.69
4327.18
4046.92
4059.17
4071.56
4084.15
4096.99
4110.16
4123.71
4137.7
4152.18
4167.23
4182.89
4199.21
4216.22
4233.96
4252.43
4271.62
4291.49
4311.97
4332.92
4354.19
4041.33
4053.9
4066.61
4079.52
4092.69
4106.18
4120.06
4134.39
4149.23
4164.64
4180.7
4197.46
4214.97
4233.27
4252.4
4272.37
4293.16
4314.74
4337.02
4359.85
4383.06
4035.4
4048.26
4061.26
4074.47
4087.93
4101.71
4115.88
4130.51
4145.66
4161.39
4177.79
4194.92
4212.84
4231.61
4251.3
4271.93
4293.5
4316.03
4339.47
4363.73
4388.64
4413.98
4029.16
4042.29
4055.55
4069.02
4082.74
4096.79
4111.22
4126.1
4141.51
4157.52
4174.2
4191.64
4209.89
4229.05
4249.19
4270.35
4292.59
4315.92
4340.34
4365.81
4392.24
4419.44
4447.16
4022.65
4036.01
4049.51
4063.21
4077.16
4091.44
4106.09
4121.2
4136.83
4153.07
4169.99
4187.67
4206.19
4225.66
4246.13
4267.72
4290.48
4314.46
4339.69
4366.18
4393.89
4422.73
4452.47
4482.84
4015.88
4029.45
4043.16
4057.06
4071.22
4085.69
4100.55
4115.84
4131.66
4148.08
4165.19
4183.06
4201.79
4221.48
4242.22
4264.11
4287.25
4311.73
4337.6
4364.91
4393.67
4423.86
4455.37
4487.97
4521.39
4008.88
4022.63
4036.52
4050.61
4064.95
4079.59
4094.61
4110.07
4126.04
4142.61
4159.85
4177.86
4196.74
4216.58
4237.5
4259.6
4283
4307.81
4334.16
4362.09
4391.68
4422.95
4455.9
4490.41
4526.29
4563.16
4001.67
4015.58
4029.63
4043.88
4058.37
4073.16
4088.31
4103.9
4120
4136.68
4154.02
4172.13
4191.1
4211.03
4232.05
4254.28
4277.83
4302.85
4329.47
4357.83
4388.02
4420.12
4454.18
4490.21
4528.16
4567.77
4608.52
3994.29
4008.33
4022.52
4036.89
4051.51
4066.42
4081.69
4097.39
4113.58
4130.33
4147.75
4165.91
4184.92
4204.89
4225.94
4248.21
4271.82
4296.92
4323.68
4352.26
4382.82
4415.49
4450.36
4487.53
4527.09
4568.95
4612.77
4657.98
3986.75
4000.9
4015.2
4029.68
4044.4
4059.41
4074.78
4090.55
4106.81
4123.62
4141.07
4159.25
4178.26
4198.22
4219.24
4241.47
4265.05
4290.14
4316.9
4345.53
4376.23
4409.2
4444.59
4482.54
4523.25
4566.82
4613.1
4661.75
4712.1
3979.08
3993.32
4007.7
4022.26
4037.07
4052.16
4067.59
4083.42
4099.73
4116.56
4134.02
4152.19
4171.17
4191.06
4212.01
4234.15
4257.62
4282.59
4309.25
4337.79
4368.43
4401.43
4437.04
4475.44
4516.88
4561.6
4609.69
4661.03
4715.3
4771.66
3971.29
3985.6
4000.04
4014.67
4029.53
4044.67
4060.16
4076.03
4092.36
4109.21
4126.65
4144.78
4163.69
4183.49
4204.32
4226.3
4249.59
4274.37
4300.82
4329.16
4359.6
4392.41
4427.92
4466.42
4508.2
4553.57
4602.81
4656.05
4713.28
4774.16
4837.61
3963.41
3977.76
3992.25
4006.91
4021.81
4036.99
4052.5
4068.4
4084.73
4101.57
4118.98
4137.05
4155.87
4175.55
4196.21
4218
4241.06
4265.57
4291.73
4319.75
4349.86
4382.34
4417.51
4455.74
4497.45
4543.03
4592.81
4647.17
4706.38
4770.5
4839.18
4911.03
3955.46
3969.83
3984.35
3999.03
4013.94
4029.13
4044.65
4060.54
4076.87
4093.68
4111.04
4129.04
4147.76
4167.29
4187.76
4209.31
4232.09
4256.28
4282.07
4309.68
4339.35
4371.36
4406.03
4443.73
4484.95
4530.25
4580.05
4634.8
4695.04
4761.19
4833.49
4911.49
4993.35
3947.46
3961.83
3976.35
3991.04
4005.94
4021.13
4036.63
4052.5
4068.8
4085.57
4102.87
4120.77
4139.37
4158.74
4179
4200.29
4222.76
4246.58
4271.94
4299.07
4328.2
4359.62
4393.65
4430.65
4471.1
4515.64
4564.9
4619.4
4679.8
4746.84
4821.13
4903.33
4992.47
5061.65
5063.45
3939.45
3953.78
3968.29
3982.95
3997.84
4012.99
4028.46
4044.3
4060.55
4077.26
4094.48
4112.29
4130.74
4149.94
4169.98
4190.99
4213.12
4236.53
4261.42
4288.01
4316.54
4347.27
4380.54
4416.69
4456.19
4499.65
4547.81
4601.43
4661.24
4728.12
4803.08
4886.96
4981.57
5062.34
5058.11
5111.31
5112.88
3931.44
3945.72
3960.18
3974.8
3989.64
4004.75
4020.17
4035.95
4052.13
4068.77
4085.92
4103.61
4121.93
4140.94
4160.74
4181.45
4203.22
4226.2
4250.59
4276.59
4304.45
4334.44
4366.85
4402.04
4440.45
4482.65
4529.36
4581.45
4639.91
4705.74
4780.09
4864.41
4947.91
4935.77
5051.08
4986.42
5040.89
5111.13
5106.05
5164.51
5165.75
3923.46
3937.66
3952.05
3966.61
3981.38
3996.42
4011.77
4027.47
4043.58
4060.14
4077.18
4094.76
4112.94
4131.76
4151.33
4171.74
4193.12
4215.65
4239.51
4264.9
4292.05
4321.23
4352.73
4386.88
4424.09
4464.89
4509.96
4560.13
4616.51
4680.39
4753.07
4836.14
4922.23
4906.85
4973.43
5097.75
5028.06
5086.21
5163.29
5157.19
5221.61
5222.46
3915.52
3929.63
3943.92
3958.39
3973.08
3988.03
4003.29
4018.9
4034.91
4051.37
4068.3
4085.76
4103.79
4122.44
4141.77
4161.88
4182.9
4204.96
4228.25
4252.99
4279.41
4307.75
4338.29
4371.36
4407.3
4446.61
4489.92
4537.99
4591.86
4652.94
4722.88
4803.46
4890.35
4872.4
4958.22
4941.14
5013.16
5147.51
5071.82
5134.36
5219.16
5211.86
5283.03
5283.46
3907.65
3921.64
3935.83
3950.18
3964.76
3979.59
3994.74
4010.24
4026.14
4042.48
4059.3
4076.63
4094.51
4112.98
4132.09
4151.92
4172.57
4194.18
4216.91
4240.97
4266.6
4294.06
4323.62
4355.57
4390.23
4428.02
4469.5
4515.37
4566.56
4624.39
4690.62
4767.39
4853.56
4833.52
4922.69
4902.92
4996.01
4976.94
5054.96
5200.65
5118.09
5185.67
5279.17
5270.48
5349.27
5349.2
3899.86
3913.72
3927.78
3942
3956.44
3971.13
3986.14
4001.51
4017.27
4033.48
4050.17
4067.37
4085.11
4103.41
4122.32
4141.88
4162.18
4183.35
4205.53
4228.92
4253.76
4280.3
4308.81
4339.61
4372.98
4409.27
4448.94
4492.59
4541.03
4595.45
4657.46
4729.31
4812.86
4791.4
4882.05
4860.14
4956.4
4934.52
5035.69
5014.39
5099.06
5257.5
5167.22
5240.39
5343.77
5333.44
5420.78
5420.19
3892.18
3905.89
3919.79
3933.86
3948.14
3962.68
3977.53
3992.73
4008.34
4024.4
4040.94
4058
4075.59
4093.73
4112.45
4131.77
4151.76
4172.51
4194.16
4216.89
4240.94
4266.55
4294.01
4323.61
4355.65
4390.45
4428.37
4469.87
4515.61
4566.6
4624.3
4690.71
4769.78
4747.88
4837.42
4814.08
4911.48
4887.41
4991.52
4967.27
5077.44
5053.63
5145.71
5318.4
5219.42
5298.8
5413.51
5401.29
5498.33
5497.23
3884.62
3898.16
3911.9
3925.8
3939.9
3954.26
3968.92
3983.94
3999.37
4015.25
4031.62
4048.52
4065.96
4083.95
4102.5
4121.61
4141.33
4161.7
4182.86
4204.95
4228.2
4252.88
4279.28
4307.68
4338.39
4371.68
4407.89
4447.35
4490.54
4538.24
4591.69
4652.64
4726.2
4704.65
4790.49
4766.81
4862.5
4837.04
4941.83
4915.33
5028.13
5001.22
5121.45
5094.81
5195.07
5383.81
5274.9
5361.29
5489.15
5474.65
5582.77
5581.1
3877.2
3890.56
3904.12
3917.83
3931.74
3945.89
3960.35
3975.16
3990.37
4006.05
4022.23
4038.94
4056.22
4074.05
4092.44
4111.38
4130.86
4150.93
4171.64
4193.15
4215.64
4239.38
4264.69
4291.87
4321.24
4353.08
4387.63
4425.16
4465.97
4510.61
4560.05
4615.73
4683.52
4662.75
4743.32
4720.16
4811.35
4785.67
4888.02
4860.22
4973.08
4943.88
5066.3
5036.39
5167.83
5137.96
5247.32
5454.27
5334.05
5428.36
5571.37
5554.2
5674.97
5672.57
3869.93
3883.1
3896.47
3909.97
3923.67
3937.6
3951.83
3966.4
3981.38
3996.82
4012.77
4029.28
4046.37
4064.04
4082.28
4101.07
4120.37
4140.18
4160.53
4181.52
4203.31
4226.15
4250.35
4276.27
4304.26
4334.63
4367.63
4403.4
4442.08
4483.95
4529.69
4580.43
4642.48
4622.72
4697.46
4675.27
4760.27
4735.32
4832.26
4804.42
4913.92
4883.62
5005.25
4973.07
5106.07
5072.82
5216.63
5183.12
5302.75
5530.39
5397.29
5500.51
5660.99
5640.8
5776.04
5772.74
3862.83
3875.79
3888.95
3902.25
3915.72
3929.42
3943.39
3957.71
3972.42
3987.59
4003.29
4019.55
4036.42
4053.91
4072
4090.66
4109.82
4129.44
4149.51
4170.07
4191.24
4213.24
4236.37
4261.01
4287.55
4316.38
4347.82
4382.01
4418.87
4458.41
4500.92
4547.16
4603.54
4585.27
4653.66
4632.66
4710.96
4687.23
4776.98
4750.15
4853.25
4823.16
4940.3
4907.42
5038.43
5003.18
5147.51
5110.69
5268.1
5230.5
5361.74
5612.91
5465
5578.27
5759.03
5735.32
5887.3
5882.85
3855.9
3868.65
3881.6
3894.67
3907.91
3921.35
3935.06
3949.1
3963.52
3978.4
3993.8
4009.78
4026.4
4043.67
4061.59
4080.12
4099.18
4118.69
4138.56
4158.8
4179.45
4200.7
4222.83
4246.21
4271.27
4298.47
4328.23
4360.83
4396.14
4433.86
4473.81
4516.35
4562.27
4612.43
4593.21
4664.2
4641.87
4724.06
4698.77
4793.67
4764.98
4874.68
4842.4
4967.64
4932.28
5073.02
5034.86
5190.96
5150.66
5322.56
5280.65
5424.61
5702.65
5537.62
5662.44
5866.53
5838.83
6010.37
6004.47
3849.15
3861.69
3874.42
3887.26
3900.25
3913.43
3926.87
3940.6
3954.71
3969.26
3984.34
4000
4016.31
4033.32
4051.04
4069.43
4088.41
4107.86
4127.65
4147.68
4167.95
4188.57
4209.78
4231.96
4255.54
4281.03
4308.98
4339.85
4373.69
4410
4448.1
4487.75
4529.54
4580.84
4562.66
4620.48
4600.2
4674.31
4650.67
4737.18
4710.31
4810.83
4780.2
4897.1
4862.5
4996.65
4958.63
5109.97
5068.9
5237.37
5193.92
5380.7
5334.82
5492.17
5800.71
5616.26
5754.36
5984.98
5952.57
6147.15
6139.45
3842.6
3854.92
3867.42
3880.02
3892.76
3905.68
3918.82
3932.25
3946.03
3960.23
3974.94
3990.24
4006.2
4022.9
4040.36
4058.57
4077.47
4096.91
4116.7
4136.67
4156.71
4176.85
4197.28
4218.33
4240.48
4264.23
4290.21
4319.13
4351.39
4386.51
4423.32
4460.91
4499.4
4545.43
4529.02
4586.68
4567.7
4628.11
4606.81
4684.37
4659.38
4750.63
4722.16
4828.86
4796.38
4921.11
4884.39
5028.05
4987.75
5150.37
5106.84
5288.38
5242.21
5444.1
5395.32
5566.45
5908.32
5703.37
5856.5
6116.01
6077.9
6299.87
6290.05
3836.23
3848.34
3860.61
3872.98
3885.46
3898.11
3910.95
3924.06
3937.49
3951.32
3965.64
3980.53
3996.1
4012.42
4029.56
4047.54
4066.32
4085.77
4105.63
4125.67
4145.66
4165.52
4185.33
4205.4
4226.19
4248.23
4272.15
4298.85
4329.19
4362.84
4398.58
4434.95
4470.9
4513.29
4497.86
4549.77
4532.7
4592.1
4572.2
4635.59
4613.21
4694.77
4668.41
4765.1
4734.99
4848.71
4814.21
4947.92
4908.78
5063.56
5020.6
5196.4
5150.25
5346.65
5298.16
5515.76
5465.45
5651.31
6027.71
5803.44
5973.72
6261.88
6217.5
6471.19
6459.15
3830.15
3841.95
3854
3866.13
3878.36
3890.73
3903.28
3916.06
3929.13
3942.58
3956.48
3970.94
3986.05
4001.93
4018.67
4036.34
4054.96
4074.38
4094.37
4114.57
4134.67
4154.47
4173.91
4193.19
4212.76
4233.18
4255.06
4279.36
4307.15
4338.55
4372.67
4408.08
4442.92
4475.96
4516.33
4500.16
4553.37
4535.45
4597.52
4576.48
4643.36
4619.77
4705.98
4678.09
4780.95
4748.86
4870.6
4833.55
4977.75
4935.33
5103.68
5056.86
5249.26
5199.03
5414.68
5362.45
5599.82
5547.56
5751.75
6164.37
5922.59
6113.74
6425.56
6376.69
6664.42
6649.73
3835.84
3847.6
3859.49
3871.47
3883.56
3895.81
3908.26
3920.98
3934.03
3947.5
3961.49
3976.11
3991.49
4007.75
4025.02
4043.38
4062.75
4082.84
4103.24
4123.56
4143.47
4162.81
4181.61
4200.17
4219.15
4239.14
4261.04
4285.94
4314.18
4345.28
4378.62
4412.87
4445.12
4484.4
4467.32
4518.15
4501.16
4556.55
4537.51
4602.94
4580.55
4651.58
4626.57
4717.89
4688.19
4797.77
4763.24
4893.84
4853.61
5009.87
4963.21
5147.7
5095.64
5308.43
5252.24
5492.61
5434.17
5698.76
5641.58
5870.43
6327.45
6064.92
6282.62
6610.55
6564.04
6882.67
6864.39
3841.47
3853.07
3864.79
3876.62
3888.57
3900.69
3913.05
3925.7
3938.73
3952.24
3966.33
3981.15
3996.86
4013.64
4031.65
4050.86
4070.99
4091.59
4112.18
4132.33
4151.77
4170.39
4188.33
4206.11
4224.45
4244.17
4266.31
4291.2
4318.39
4347.76
4379.29
4411.48
4450.94
4433.5
4483.35
4465.7
4519.09
4501.07
4559.28
4538.91
4608.17
4584.25
4660.01
4633.38
4729.96
4698.21
4814.77
4777.36
4917.55
4873.43
5043.24
4991.33
5194.41
5135.78
5372.54
5308.52
5579.3
5511.74
5812.55
5745.86
6007.98
6526.48
6232.81
6420.76
6445.77
6823.29
6790.81
7130.6
7107.2
3846.94
3858.34
3869.9
3881.56
3893.36
3905.36
3917.62
3930.21
3943.22
3956.77
3970.99
3986.08
4002.26
4019.8
4038.75
4058.86
4079.63
4100.48
4120.9
4140.53
4159.2
4176.9
4193.92
4210.91
4228.8
4248.58
4270.58
4294.07
4318.92
4345.73
4374.87
4404.44
4448.22
4430.2
4481.34
4462.87
4519.21
4500.06
4561.46
4539.6
4612.87
4587.3
4668.18
4639.79
4741.51
4707.53
4831.02
4790.37
4940.73
4892.12
5076.93
5018.91
5242.89
5176.69
5440.21
5367.24
5673.34
5594.59
5941.06
5811.82
5851.89
6143.63
6107.77
6554.14
6713.99
6696
6392.36
6358.92
6228.11
6528.89
7077.33
6842.31
6996.42
7004.55
7425.22
7402.22
3852.2
3863.41
3874.79
3886.28
3897.93
3909.8
3921.95
3934.47
3947.46
3961.07
3975.48
3990.99
4007.94
4026.5
4046.51
4067.41
4088.5
4109.17
4129.03
4147.84
4165.54
4182.23
4198.35
4214.79
4232.68
4252.47
4273.23
4294.1
4315.77
4339.85
4366.54
4406.76
4387.59
4444.49
4425.82
4478.48
4459.14
4518.54
4498.21
4562.91
4539.52
4616.57
4589.33
4675.5
4645.24
4751.78
4715.52
4845.78
4801.77
4962.79
4909.33
5110.7
5046.03
5292.89
5218.44
5514.27
5473.83
5433.78
5392.66
5770.54
5726.99
5551.68
5636.31
5682.55
5913.51
6068.35
6025.19
5869.71
6188.8
6674.11
6827.24
6497.32
6459.67
6319.19
6646.1
7157.33
7325.07
7327.02
6987.52
7156.67
7890.21
7517.32
7738.11
7742.47
3857.26
3868.27
3879.45
3890.76
3902.25
3913.97
3926.01
3938.45
3951.43
3965.14
3979.9
3996.15
4014.22
4034.01
4054.97
4076.26
4097.18
4117.27
4136.26
4154.05
4170.69
4186.42
4201.9
4218.33
4236.54
4255.56
4273.85
4291.35
4309.88
4331.55
4356.23
4401.42
4382.23
4439.97
4420.74
4474.9
4454.73
4517.11
4495.62
4563.34
4538.51
4618.93
4590.05
4681.46
4649.33
4760.39
4721.8
4858.77
4811.24
4983.87
4925.11
5144.73
5073
5352.35
5311.44
5271.17
5230.6
5508.99
5466.02
5422.69
5824.3
5777.14
5590.54
5679.53
5728.73
5978.5
6145
6097.25
5929.9
6274.77
6804.35
6971.55
6610.51
6415.62
6567.63
6772.84
7335.61
7532.03
7148.45
7336.78
8039.84
8473.17
8450.35
7758.46
8042.38
3862.11
3872.89
3883.87
3894.99
3906.3
3917.87
3929.77
3942.12
3955.12
3969.09
3984.55
4001.99
4021.44
4042.36
4063.81
4084.95
4105.27
4124.46
4142.4
4159.12
4174.76
4189.76
4205.18
4222.2
4240.2
4257.38
4272.9
4288.04
4304.6
4323.83
4357.92
4341.73
4395.75
4376.6
4434.88
4415.22
4470.66
4449.74
4514.85
4492.3
4562.52
4536.38
4619.6
4589.11
4685.68
4651.7
4766.99
4725.99
4870
4818.71
5004.47
4940.14
5190.86
5151.36
5112.72
5074.92
5379.72
5336.82
5294.12
5251.64
5544.86
5499.06
5453.19
5880.07
5828.8
5630.41
5723.73
5776.44
6045.9
6225.88
6172.94
5992.4
6365.87
6945.8
7129.88
6732.17
6518.1
6683.15
6909.51
7541.44
7772.87
7326.76
7539.71
8426.15
8841.23
8836.42
8050.3
8400.08
3866.73
3877.27
3888.03
3898.94
3910.05
3921.44
3933.19
3945.47
3958.62
3973.23
3989.91
4008.86
4029.61
4051.17
4072.54
4093.09
4112.49
4130.6
4147.45
4163.19
4178.05
4192.87
4208.99
4226.27
4243.11
4258.26
4272.31
4286.42
4301.64
4318.78
4353.44
4337.88
4389.97
4371.16
4429.37
4409.44
4465.67
4444.17
4511.6
4488.08
4560.18
4532.88
4618.14
4586.09
4687.79
4651.96
4771.39
4727.79
4880
4824.56
5038.16
5002.74
4968.37
4935.85
5209.71
5168.35
5127.8
5088.22
5407.74
5362.57
5317.6
5273.02
5581.51
5532.76
5484.19
5937.86
5882.1
5671.06
5768.73
5825.47
6116.33
6311.3
6252.59
6057.55
6462.36
7099.52
7303.53
6862.92
6627.11
6807.13
7057.17
7776.27
8050
7524.06
7766.11
8809.75
9217.74
9215.87
8379.17
8769.49
3871.1
3881.39
3891.92
3902.59
3913.49
3924.67
3936.26
3948.56
3962.25
3978.08
3996.37
4016.8
4038.37
4059.94
4080.74
4100.37
4118.68
4135.73
4151.59
4166.5
4181.06
4196.53
4213.2
4229.89
4245.25
4259.17
4272.58
4286.24
4300.84
4322.2
4313.27
4349.11
4334.53
4384.12
4365.87
4423.44
4403.4
4459.78
4437.92
4507.12
4482.79
4555.89
4527.61
4614.02
4580.58
4687.36
4649.57
4773.74
4727.01
4889.88
4829.87
5049.86
5012.78
4976.98
4942.52
5229.02
5185.71
5143.28
5101.94
5436.22
5388.71
5341.47
5294.73
5618.74
5566.91
5515.54
5997.78
5937.09
5712.18
5814.48
5875.77
6190.32
6401.45
6336.39
6125.69
6564.74
7266.59
7493.35
7003.64
6743.63
6940.29
7216.47
8038.76
8355.27
7740.59
8014.43
9190.08
9613.84
9613.64
8725.38
9140.63
3875.2
3885.22
3895.49
3905.92
3916.57
3927.53
3939.03
3951.7
3966.58
3984.08
4004
4025.46
4047.17
4068.24
4088.11
4106.68
4123.95
4139.99
4155.02
4169.51
4184.53
4200.66
4217.14
4232.75
4246.86
4260.2
4273.45
4287.1
4301.73
4321.69
4313.26
4345.5
4332.37
4378.36
4360.99
4417.05
4397.15
4452.91
4430.97
4501.09
4476.23
4549.37
4520.35
4606.84
4572.31
4683.97
4644.06
4774.73
4723.76
4914.82
4881.68
4818.67
4849.27
5061.94
5023.27
4985.94
4949.85
5248.65
5203.38
5159.09
5116.04
5464.97
5415.04
5365.51
5316.58
5656.29
5601.23
5546.93
6059.93
5993.69
5753.62
5860.71
5927.13
6267.88
6496.88
6424.62
6196.6
6673.61
7447.64
7699.42
7154.69
6868.33
7082.78
7388.14
8323.88
8678.09
7975.49
8281.72
9580.68
10050.6
10039.8
9078.77
9517.32
3879.01
3888.75
3898.74
3908.89
3919.28
3930.05
3941.74
3955.48
3972.09
3991.34
4012.51
4034.27
4055.55
4075.7
4094.56
4112.08
4128.35
4143.57
4158.09
4172.83
4188.5
4204.65
4220.35
4234.71
4248.16
4261.36
4274.7
4288.64
4306.61
4299.93
4321.79
4313.84
4342.84
4331.26
4372.92
4356.8
4410.26
4390.85
4445.11
4423.45
4493.38
4468.36
4540.46
4511.13
4596.65
4561.57
4677.37
4635.11
4788.8
4760.95
4718.39
4921.28
4886.39
4820.23
4852.66
5074.42
5034.18
4995.31
4957.68
5268.43
5221.21
5175.14
5130.45
5493.71
5441.3
5389.44
5338.33
5693.87
5635.41
5578.07
6124.06
6051.55
5795.12
5907.08
5979.08
6348.89
6597.86
6517.46
6270.09
6789.32
7642.99
7921.35
7316.85
7001.49
7235.15
7572.9
8625.25
9011.01
8226.86
8564.35
9984.68
10455.9
10446.5
9437.24
9899.86
3882.52
3891.94
3901.62
3911.48
3921.61
3932.42
3944.96
3960.44
3978.92
3999.61
4021.26
4042.7
4063.1
4082.24
4100.06
4116.62
4132.09
4146.69
4161.3
4176.59
4192.38
4207.99
4222.55
4236.17
4249.41
4262.63
4276.16
4290.35
4307.66
4300.79
4322.53
4314.85
4341.36
4331.17
4368.18
4353.64
4403.32
4384.83
4436.69
4415.78
4484.17
4459.43
4529.53
4500.4
4584.01
4548.76
4668.57
4623.71
4789.12
4759.63
4727.29
4699.42
4927.5
4890.89
4821.37
4855.51
5087.2
5045.3
5004.82
4965.55
5288.13
5239
5191.16
5144.82
5522.11
5467.2
5413.02
5359.74
5731.26
5669.22
5608.73
6190.06
6110.47
5836.56
5953.72
6031.52
6433.5
6704.51
6614.99
6346.55
6912.46
7852.63
8158.29
7491.02
7143.66
7398.25
7770.93
8938.04
9350.13
8492.7
8858.87
10381.6
10792.2
10797.2
9799.39
10279.4
3885.68
3894.77
3904.13
3913.69
3923.71
3935.12
3949.29
3966.76
3986.85
4008.22
4029.71
4050.34
4069.71
4087.82
4104.71
4120.42
4135.22
4149.88
4164.87
4180.3
4195.7
4210.35
4224.16
4237.48
4250.65
4263.92
4277.54
4294.77
4288.2
4308.59
4301.58
4323.57
4315.89
4341.12
4331.85
4364.66
4351.89
4396.72
4379.63
4428.33
4408.71
4474
4450.06
4517.36
4489.19
4570.27
4535.26
4672.81
4648.4
4610.27
4788.7
4757.5
4723.49
4694.35
4932.97
4894.5
4821.5
4857.34
5099.88
5056.22
5013.96
4972.88
5307.51
5256.46
5206.79
5158.63
5549.97
5492.54
5436.02
5380.56
5768.41
5702.57
5638.82
6258.39
6170.84
5878.21
6000.95
6084.83
6521.85
6817.5
6717.75
6426.14
7043.67
8076.34
8409.1
7677.31
7295.21
7572.08
7982.17
9258.78
9693.21
8771.15
9162.58
10748
11097.4
11106.9
10160.5
10644.2
3888.49
3897.22
3906.24
3915.58
3925.96
3938.8
3954.99
3974.29
3995.26
4016.67
4037.46
4057.03
4075.42
4092.58
4108.56
4123.71
4138.47
4153.29
4168.39
4183.55
4198.21
4212.17
4225.59
4238.75
4251.86
4265.09
4278.61
4295.33
4288.65
4309.32
4302.21
4324.48
4316.71
4341.67
4332.75
4362.84
4351.56
4391.24
4375.98
4421.1
4403.26
4463.93
4441.29
4504.78
4478.08
4568.93
4550.24
4521.18
4667.2
4642.17
4588.84
4610.8
4787.28
4754.67
4718.26
4688.28
4937.04
4896.54
4820.05
4857.54
5111.85
5066.3
5022.07
4978.99
5326.28
5273.2
5221.49
5171.26
5577.22
5517.2
5458.29
5400.52
5805.56
5735.65
5668.41
6329.21
6233.2
5920.22
6049.24
6139.63
6614.41
6937.28
6826.13
6509.13
7183
8313.55
8672.89
7875.71
7456.11
7757
8206.06
9584.86
10037.7
9059.59
9473.3
11080
11382.8
11388.8
10515.1
10988.1
3890.91
3899.27
3908
3917.47
3929.01
3943.79
3961.98
3982.46
4003.66
4024.56
4044.33
4062.93
4080.35
4096.67
4112.14
4127.08
4141.85
4156.69
4171.56
4186.2
4200.27
4213.78
4226.94
4239.95
4252.94
4266.02
4282.41
4276.06
4295.7
4288.98
4309.77
4302.62
4325.04
4317.22
4342.2
4333.33
4362.35
4351.8
4387.69
4374.18
4415.58
4399.6
4454.61
4433.84
4492.53
4467.57
4561.25
4542.86
4518.81
4503.46
4660.56
4634.83
4581.15
4602.89
4784.33
4750.4
4711.25
4680.77
4939.05
4896.48
4816.52
4855.59
5122.41
5074.77
5028.38
4983.14
5344
5288.71
5234.66
5182.02
5603.8
5541.03
5479.49
5419.2
5842.79
5768.52
5697.53
6403.14
6298.47
5962.76
6099.5
6196.94
6711.86
7063.93
6940.63
6596.2
7330.85
8563.46
8947.63
8085.86
7627.16
7952.78
8441.93
9914.64
10380.6
9356.3
9789.75
11375.1
11660.8
11662.9
10858.5
11306.2
3892.93
3900.92
3909.6
3919.9
3933.28
3950.11
3969.85
3990.77
4011.7
4031.68
4050.49
4068.16
4084.8
4100.58
4115.76
4130.56
4145.23
4159.89
4174.46
4188.54
4202.1
4215.27
4228.2
4241.02
4253.82
4266.63
4282.62
4276.22
4295.88
4289.17
4309.95
4302.79
4325.18
4317.39
4342.19
4333.41
4361.87
4351.62
4385.57
4373.11
4410.57
4396.07
4445.9
4427.03
4489.98
4477.07
4456.69
4553.26
4535.23
4511.31
4496.67
4652.71
4626.76
4572.89
4594.25
4779.37
4744.2
4702.32
4671.61
4938.48
4893.88
4810.6
4851.17
5130.82
5080.87
5032.15
4984.67
5360.11
5302.21
5245.53
5190.21
5629.56
5563.71
5499.25
5436
5880.12
5801.19
5726.03
6480.78
6367.04
6006.44
6151.81
6257.01
6814.75
7198.57
7062.32
6688.02
7487.84
8824.59
9231.02
8307.03
7807.98
8158.49
8688.76
10246.7
10720.1
9660.38
10111.7
11652.9
11940.3
11940.9
11189.5
11604.1
3894.51
3902.28
3911.48
3923.41
3938.88
3957.5
3978.04
3998.94
4019.14
4038.17
4056.08
4073.01
4089.1
4104.52
4119.46
4134.14
4148.7
4163.08
4177.08
4190.61
4203.75
4216.62
4229.33
4241.93
4254.46
4266.94
4282.66
4276.27
4295.86
4289.18
4309.83
4302.73
4324.91
4317.21
4341.59
4333.01
4360.64
4350.75
4383.11
4371.37
4404.86
4391.69
4436.8
4419.71
4483.27
4470.83
4443.6
4453.81
4544.83
4527.27
4503.76
4489.65
4643.47
4617.72
4564.02
4584.84
4772.16
4735.92
4691.6
4660.87
4934.94
4888.51
4802.18
4844.15
5136.43
5083.98
5032.77
4983.09
5373.87
5312.95
5253.35
5195.18
5654.26
5584.82
5516.86
5450.12
5917.83
5833.81
5753.98
6562.48
6439.16
6051.36
6205.8
6319.86
6924.1
7341.52
7191.59
6785.63
7653.46
9094.8
9522.4
8538.35
7997.55
8372.96
8944.43
10580.8
11056.3
9971.87
10439
11932.6
12223.7
12224.4
11511.5
11900.2
3895.7
3903.64
3914.22
3928.27
3945.67
3965.48
3986.3
4006.7
4026.01
4044.17
4061.34
4077.7
4093.4
4108.62
4123.45
4137.95
4152.13
4165.95
4179.37
4192.44
4205.24
4217.83
4230.28
4242.63
4254.84
4269.92
4276.24
4263.95
4282.56
4295.64
4289.02
4309.44
4302.44
4324.25
4316.7
4340.46
4332.15
4358.66
4349.26
4379.74
4368.78
4398.44
4386.51
4427.27
4411.81
4476.64
4464.69
4438.09
4447.91
4536
4519.13
4496.05
4482.49
4632.94
4607.66
4554.48
4574.62
4762.62
4725.6
4679.21
4648.69
4928.22
4880.26
4791.32
4834.53
5138.66
5083.63
5029.98
4978.13
5384.52
5320.23
5257.44
5196.24
5677.57
5603.66
5531.39
5460.56
5956
5866.01
5780.6
6648.9
6515.03
6097.03
6260.88
6385.29
7040.44
7492.28
7327.77
6889.44
7826.59
9372.62
9822.11
8777.97
8194.6
8595.12
9207.49
10917.9
11394.1
10291.1
10773.6
12218.9
12509.5
12514.5
11836.6
12207.3
3896.62
3905.53
3918.25
3934.42
3953.27
3973.76
3994.35
4013.98
4032.4
4049.79
4066.37
4082.43
4097.99
4113.03
4127.54
4141.57
4155.18
4168.43
4181.38
4194.06
4206.55
4218.87
4231.05
4243.1
4254.9
4276.08
4269.79
4263.82
4282.33
4295.23
4288.71
4308.78
4301.91
4323.23
4315.88
4338.87
4330.88
4356.11
4347.25
4375.61
4365.53
4391.64
4380.88
4424.36
4416.5
4403.68
4469.98
4458.47
4432.84
4442.17
4526.8
4510.76
4488.2
4475.26
4621.26
4596.7
4544.39
4563.68
4750.78
4713.26
4665.3
4635.1
4918.2
4869.05
4778.26
4822.34
5136.88
5079.39
5023.55
4969.71
5391.07
5323.15
5257.02
5192.78
5698.48
5618.98
5541.63
5466.14
5993.91
5896.84
5804.48
6740.11
6593.91
6142.4
6316.06
6451.94
7162.09
7649.38
7468.25
6996.61
8006.26
9658.56
10131
9024.2
8398.72
8823.76
9477.81
11263.3
11743.1
10619.8
11120.7
12519.7
12799.4
12819.6
12179.8
12544.8
3897.72
3908.58
3923.7
3941.6
3961.41
3982.03
4002.02
4020.73
4038.32
4055.15
4071.5
4087.38
4102.69
4117.35
4131.34
4144.78
4157.82
4170.59
4183.13
4195.48
4207.66
4219.71
4231.62
4243.34
4254.8
4275.86
4269.55
4263.62
4282.02
4294.67
4288.28
4307.9
4301.2
4321.89
4314.79
4336.87
4329.25
4353.1
4344.81
4371.02
4361.81
4384.69
4375.02
4419.4
4411.81
4394.85
4400.83
4463.32
4452.31
4427.61
4436.54
4517.42
4502.22
4480.34
4468.08
4608.43
4584.86
4534.01
4552.26
4737.05
4699.26
4650.28
4620.53
4905.04
4854.97
4763.25
4807.69
5130.68
5070.92
5013.26
4957.83
5392.45
5320.76
5251.3
5184.18
5715.46
5629.41
5546.25
5465.73
6030.22
5924.62
5824.01
6832.32
6671.5
6185.99
6362.89
6515.94
7285.87
7811.22
7611.23
7104.62
8192.31
9954.1
10451.3
9277.21
8609.46
9058.7
9757.26
11625.8
12116.6
10964.2
11488.4
12864.8
13190.9
13239
12565.3
12962
3899.68
3913.18
3930.41
3949.52
3969.79
3990.03
4009.11
4026.89
4043.92
4060.48
4076.63
4092.24
4107.18
4121.33
4134.72
4147.57
4160.11
4172.46
4184.64
4196.68
4208.59
4220.37
4231.98
4243.36
4257.41
4263.43
4251.8
4275.54
4269.26
4281.61
4294
4287.76
4306.85
4300.36
4320.31
4313.49
4334.54
4327.32
4349.73
4342
4366.14
4357.76
4390.86
4382.02
4377.41
4369.13
4414.64
4407.41
4396.71
4456.73
4446.23
4422.51
4431.07
4507.91
4493.58
4472.64
4461.08
4594.76
4572.35
4523.47
4540.54
4721.84
4684.05
4634.48
4605.37
4889.05
4838.5
4746.67
4791.06
5119.64
5057.94
4998.94
4942.57
5387.72
5312.32
5239.72
5170.08
5726.97
5633.71
5544.47
5459.06
6062.06
5940.18
5829.92
6916.04
6737.33
6220.53
6429.53
6574.97
7410.1
7978.09
7752.67
7213.18
8384.3
10262.4
10788.7
9539.22
8826.36
9302.58
10049.7
12017.6
12535
11330.7
11887.6
13372
13973.6
14035.7
13032.1
13540.8
3903.2
3919.34
3938.12
3957.87
3978.05
3997.45
4015.46
4032.61
4049.31
4065.64
4081.56
4096.88
4111.36
4124.9
4137.67
4149.97
4162.08
4174.06
4185.92
4197.68
4209.32
4220.82
4232.15
4243.21
4263.14
4257.22
4251.62
4275.15
4268.9
4281.11
4293.23
4287.13
4305.68
4299.4
4318.55
4312.05
4331.98
4325.19
4346.11
4338.94
4361.11
4353.49
4387.16
4378.64
4374.1
4363.33
4410.05
4403.08
4392.78
4450.32
4440.33
4417.62
4425.85
4498.44
4485.05
4465.32
4454.42
4580.65
4559.43
4512.95
4528.78
4705.45
4667.92
4618.25
4589.97
4870.27
4819.83
4728.74
4772.65
5103.58
5040.42
4980.66
4923.93
5377.01
5298.24
5222.89
5151.11
5728.08
5630.44
5537.36
5448.76
6093.13
5978.66
5818
7017.3
6752.33
6224.01
6406.88
6596.73
7530.55
8149.32
7911
7336.46
8582.1
10588.4
11148.9
9814.31
9051.68
9559.16
10359.9
12454.3
13025.7
11728.7
12330.9
14199.1
15025.4
15145
13620.6
14314.6
3908.61
3926.83
3946.44
3966.27
3985.77
4004.01
4021.23
4037.98
4054.45
4070.61
4086.29
4101.21
4115.13
4128.03
4140.17
4152.01
4163.75
4175.41
4186.99
4198.48
4209.85
4221.1
4232.17
4243.06
4262.86
4256.98
4251.41
4274.7
4268.53
4280.54
4292.36
4286.43
4304.4
4298.35
4316.69
4310.51
4329.29
4322.94
4342.33
4335.74
4355.99
4349.06
4383.59
4375.33
4370.97
4367.76
4360.6
4357.19
4405.69
4398.95
4389.03
4444.23
4434.72
4413.03
4420.99
4489.37
4476.94
4458.61
4448.32
4566.39
4546.4
4502.78
4517.36
4688.15
4651.17
4601.9
4574.64
4848.47
4798.63
4709.34
4752.25
5083.04
5018.8
4958.64
4901.92
5363.85
5282.59
5205.14
5131.58
5718.48
5622.12
5529.28
5440.4
6103.14
5957.05
5813.22
6991.08
6747.33
6219.26
6401.19
6592.4
7578.67
8335.44
7888.71
7316.86
8794.78
10937.5
11538.8
10105.9
9292.54
9830.67
10691.6
12956.3
13611.8
12168.8
12832.1
15232.2
16355.8
16468.9
14346.2
15247.1
3915.76
3935.2
3954.89
3974.21
3992.57
4009.83
4026.57
4043.08
4059.41
4075.38
4090.73
4105.16
4118.46
4130.67
4142.27
4153.73
4165.15
4176.53
4187.85
4199.08
4210.22
4221.24
4232.12
4242.83
4251.25
4262.55
4256.73
4274.22
4268.14
4279.94
4291.45
4285.68
4303.05
4297.24
4314.74
4308.89
4326.54
4320.62
4338.47
4332.48
4350.76
4344.55
4380.12
4372
4364.47
4357.54
4354.26
4401.63
4395.03
4385.42
4438.65
4429.55
4408.82
4416.59
4481.02
4469.5
4452.68
4442.94
4552.27
4533.59
4493.33
4506.61
4669.86
4633.88
4585.67
4559.7
4823.49
4774.59
4688.37
4729.66
5061.88
4995.1
4933.44
4876.73
5354.88
5273.08
5195.35
5121.71
5713.63
5617.26
5524.44
5435.62
6098.79
5951.84
5808.89
6985.24
6742.41
6214.77
6396.09
6587.96
7574.42
8319.1
7881.55
7310.23
8781.69
11324.9
11968.5
10408.7
9283.65
9826.72
11036.9
13536.4
14302.9
12658.5
13401.6
16421.9
19302.5
18155.6
15196.6
16303.2
3924.16
3943.86
3963
3981.26
3998.49
4015.15
4031.63
4048.01
4064.18
4079.91
4094.85
4108.7
4121.29
4132.84
4144.01
4155.16
4166.3
4177.43
4188.51
4199.51
4210.45
4221.29
4232.02
4242.62
4251.03
4250.9
4262.23
4256.49
4273.73
4267.74
4279.33
4290.53
4284.93
4301.69
4296.12
4312.78
4307.25
4323.76
4318.28
4334.58
4329.19
4345.41
4339.96
4376.63
4368.56
4361.1
4354.27
4351.16
4397.72
4391.27
4381.75
4433.69
4424.91
4404.78
4412.42
4473.6
4462.9
4447.27
4438.01
4538.58
4521.34
4484.83
4496.8
4650.57
4616.19
4569.54
4545.3
4798.11
4749.12
4665.55
4704.72
5051.89
4962.65
4907.68
4851.69
5350.14
5268.43
5190.77
5117.26
5709.38
5612.99
5520.28
5431.52
6094.56
5947.28
5805.18