/*--------------------------------*- C++ -*----------------------------------*\
  =========                 |
  \\      /  F ield         | OpenFOAM: The Open Source CFD Toolbox
   \\    /   O peration     | Website:  https://openfoam.org
    \\  /    A nd           | Version:  dev
     \\/     M anipulation  |
\*---------------------------------------------------------------------------*/
FoamFile
{
    version     2.0;
    format      ascii;
    class       volScalarField;
    location    "2500";
    object      H2O;
}
// * * * * * * * * * * * * * * * * * * * * * * * * * * * * * * * * * * * * * //

dimensions      [0 0 0 0 0 0 0];

internalField   nonuniform List<scalar> 
9836
(
1.02478e-32
2.78706e-32
1.99387e-32
3.85914e-32
7.11128e-32
1.08244e-32
9.176e-32
2.07366e-31
1.05033e-31
1.21206e-32
7.26544e-32
3.07251e-31
2.45105e-31
9.36296e-32
1.00504e-32
8.60163e-32
6.02248e-31
4.16484e-31
2.40922e-31
5.89467e-32
4.50699e-33
1.90366e-31
8.4073e-31
9.31523e-31
4.36476e-31
1.47178e-31
3.09496e-32
4.93866e-34
3.2811e-31
1.05385e-30
1.34559e-30
1.02588e-30
4.41685e-31
1.0346e-31
6.8717e-33
4.85971e-34
3.32855e-31
1.46831e-30
1.78347e-30
1.59795e-30
7.97532e-31
3.14744e-31
5.07246e-32
4.64456e-33
7.28324e-35
3.30382e-31
2.07671e-30
2.84777e-30
3.14257e-30
1.80487e-30
6.89626e-31
1.27188e-31
2.69164e-32
8.92886e-34
2.20982e-35
8.54754e-31
4.4638e-30
4.51187e-30
4.90272e-30
2.8732e-30
1.5488e-30
3.69891e-31
8.23499e-32
9.02755e-33
4.96474e-34
2.01772e-35
3.83557e-30
9.57976e-30
8.78762e-30
7.82171e-30
5.47171e-30
2.69498e-30
1.31634e-30
2.56446e-31
2.9706e-32
3.54588e-33
2.65356e-34
5.03051e-35
1.69415e-29
3.33542e-29
2.76697e-29
1.92912e-29
1.19586e-29
5.96857e-30
2.50601e-30
7.56577e-31
1.43475e-31
1.32138e-32
2.01001e-33
1.4041e-33
1.02095e-33
2.2617e-29
1.01035e-28
8.4273e-29
6.75893e-29
2.54315e-29
1.27698e-29
4.84978e-30
1.65717e-30
3.59154e-31
3.92009e-32
1.24839e-32
1.24989e-32
1.58704e-32
9.47675e-33
7.12125e-29
2.5038e-28
2.84814e-28
1.47657e-28
8.42438e-29
2.86024e-29
1.23619e-29
4.05108e-30
1.21599e-30
1.69516e-31
7.22509e-32
9.36098e-32
1.5192e-31
1.7322e-31
8.32864e-32
9.28795e-29
3.42917e-28
7.73703e-28
4.62618e-28
2.14283e-28
1.00565e-28
2.85877e-29
9.36462e-30
3.3411e-30
1.0552e-30
7.01982e-31
1.03933e-30
1.24819e-30
2.04753e-30
2.43835e-30
1.43786e-30
2.28094e-28
1.27364e-27
1.71129e-27
1.4651e-27
7.25725e-28
2.96082e-28
9.59246e-29
2.92301e-29
9.23102e-30
4.38397e-30
4.4897e-30
9.04015e-30
1.19836e-29
1.88748e-29
2.19218e-29
3.22853e-29
3.31584e-29
1.24343e-27
2.31154e-27
3.49713e-27
4.617e-27
3.09544e-27
9.5546e-28
3.09522e-28
9.31161e-29
3.58005e-29
1.98939e-29
3.40803e-29
6.04468e-29
1.02039e-28
1.62365e-28
1.74963e-28
3.33648e-28
5.91308e-28
2.573e-28
3.0333e-27
6.23593e-27
1.47126e-26
1.30657e-26
8.24316e-27
3.31528e-27
9.27516e-28
4.0038e-28
1.78268e-28
1.3033e-28
1.86343e-28
3.63227e-28
8.51627e-28
1.22538e-27
2.13643e-27
2.70259e-27
4.80128e-27
6.05925e-27
4.96037e-27
2.96634e-27
1.37012e-26
3.64195e-26
3.89283e-26
2.36702e-26
1.24541e-26
4.26189e-27
1.69243e-27
1.147e-27
1.00355e-27
1.31441e-27
1.97233e-27
5.62362e-27
8.29194e-27
1.72256e-26
1.84556e-26
2.78549e-26
5.7802e-26
4.54686e-26
5.06645e-26
4.87087e-27
4.56514e-26
8.1153e-26
8.55969e-26
7.37637e-26
2.92241e-26
1.57036e-26
7.38004e-27
7.10122e-27
6.64291e-27
7.87357e-27
1.51292e-26
2.77005e-26
6.88738e-26
1.1883e-25
1.65075e-25
1.97707e-25
3.05055e-25
6.34884e-25
6.07342e-25
7.15035e-25
1.44509e-26
8.78632e-26
1.23509e-25
1.90997e-25
1.71735e-25
1.09154e-25
5.28543e-26
3.47212e-26
4.12482e-26
4.2542e-26
4.25065e-26
9.58109e-26
1.52749e-25
3.25584e-25
7.5196e-25
9.73536e-25
1.66048e-24
2.5518e-24
4.04622e-24
5.74962e-24
7.11726e-24
5.58444e-24
6.35484e-26
1.11226e-25
4.17874e-25
5.34888e-25
4.79322e-25
2.66819e-25
1.93296e-25
2.02367e-25
2.81346e-25
3.39246e-25
4.0305e-25
4.8278e-25
1.14121e-24
1.42035e-24
4.34686e-24
7.79317e-24
1.01168e-23
2.28036e-23
2.3239e-23
3.54361e-23
4.78219e-23
6.01668e-23
3.11103e-23
6.28981e-26
3.43389e-25
6.51791e-25
1.14143e-24
9.11132e-25
8.56483e-25
6.12321e-25
1.34622e-24
1.81855e-24
1.53289e-24
2.5925e-24
3.57425e-24
6.25648e-24
1.05078e-23
1.76847e-23
4.25915e-23
1.05884e-22
1.06255e-22
2.61414e-22
1.70095e-22
2.75307e-22
4.31931e-22
3.53295e-22
1.43771e-22
4.75532e-25
9.73709e-25
2.03028e-24
2.78275e-24
2.62127e-24
1.99665e-24
3.24136e-24
5.17229e-24
1.24517e-23
1.25535e-23
1.61131e-23
1.91787e-23
2.85409e-23
5.93388e-23
6.18015e-23
1.67149e-22
5.36016e-22
9.52133e-22
1.05874e-21
1.74961e-21
1.92173e-21
2.06197e-21
3.2923e-21
1.51337e-21
2.58629e-22
4.49284e-25
3.5942e-24
6.13979e-24
4.98408e-24
5.15534e-24
6.24334e-24
1.04006e-23
3.14967e-23
6.32448e-23
9.01032e-23
9.57445e-23
1.11455e-22
1.46683e-22
2.67864e-22
5.39845e-22
6.98052e-22
1.57102e-21
4.79491e-21
9.44986e-21
1.34305e-20
1.03002e-20
9.75719e-21
1.19632e-20
2.45608e-20
7.42249e-21
2.26432e-21
1.41573e-24
5.72912e-24
1.29295e-23
1.19305e-23
1.64979e-23
1.94121e-23
5.01339e-23
1.53001e-22
4.2573e-22
4.79868e-22
5.82572e-22
6.15123e-22
9.07767e-22
1.10908e-21
2.79892e-21
3.38399e-21
7.54925e-21
1.11856e-20
4.89968e-20
7.61038e-20
1.09171e-19
1.13219e-19
1.01656e-19
1.34078e-19
1.20363e-19
6.76735e-20
1.04914e-20
2.93028e-24
7.24444e-24
2.9142e-23
3.109e-23
4.21226e-23
4.30396e-23
1.44193e-22
5.81393e-22
2.25396e-21
3.96698e-21
3.1571e-21
4.19032e-21
3.55531e-21
5.42358e-21
9.37902e-21
1.7671e-20
3.68662e-20
6.33536e-20
1.33782e-19
3.08843e-19
4.50671e-19
4.5676e-19
4.49553e-19
5.41294e-19
6.71212e-19
4.20113e-19
2.20225e-19
5.78767e-20
3.89367e-24
1.65909e-23
6.17129e-23
8.23678e-23
9.84943e-23
1.77019e-22
6.06765e-22
3.20978e-21
7.35645e-21
1.85758e-20
2.7009e-20
2.1886e-20
2.41913e-20
2.89658e-20
4.43567e-20
8.54943e-20
2.71422e-19
4.78298e-19
6.21889e-19
1.02125e-18
1.39432e-18
1.72259e-18
2.21442e-18
2.15615e-18
2.84663e-18
2.60864e-18
1.73142e-18
8.06887e-19
1.07777e-19
1.09673e-23
4.61934e-23
1.3124e-22
1.68819e-22
2.67366e-22
4.48479e-22
2.60697e-21
1.01748e-20
4.14337e-20
7.70569e-20
1.7612e-19
1.11976e-19
1.60668e-19
1.95893e-19
2.21793e-19
4.7751e-19
9.90942e-19
1.51513e-18
2.38118e-18
4.97128e-18
9.69518e-18
1.07405e-17
1.28463e-17
1.01867e-17
1.16485e-17
7.62399e-18
1.05228e-17
2.71662e-18
1.34714e-18
2.95994e-19
1.14403e-23
9.68053e-23
2.34442e-22
4.07165e-22
5.75008e-22
1.48491e-21
6.99764e-21
4.36354e-20
1.52586e-19
4.17476e-19
7.19613e-19
1.03443e-18
6.02904e-19
9.51163e-19
1.01839e-18
1.70937e-18
5.69509e-18
6.87545e-18
1.23311e-17
2.48614e-17
3.34193e-17
4.04768e-17
6.80345e-17
4.96227e-17
4.22781e-17
3.73792e-17
4.29072e-17
1.73448e-17
1.21639e-17
7.66944e-18
1.3344e-18
2.81937e-23
1.17517e-22
3.9083e-22
7.52519e-22
1.16385e-21
3.87292e-21
2.54092e-20
1.78401e-19
5.92489e-19
2.03791e-18
3.72553e-18
4.81709e-18
5.27102e-18
6.05769e-18
6.2714e-18
7.71206e-18
1.75516e-17
3.35778e-17
5.52511e-17
7.49736e-17
1.00163e-16
8.99653e-17
1.78675e-16
1.63752e-16
1.5162e-16
1.60641e-16
1.06095e-16
1.21704e-16
7.42001e-17
4.44727e-17
1.2364e-17
1.36639e-18
1.13034e-22
3.48198e-22
6.10092e-22
1.19016e-21
2.5168e-21
1.15996e-20
9.29547e-20
6.25562e-19
2.74027e-18
1.06135e-17
1.82649e-17
2.48162e-17
3.53381e-17
3.34869e-17
3.19712e-17
3.57001e-17
5.79483e-17
1.31286e-16
1.60871e-16
1.99967e-16
3.15918e-16
3.79339e-16
5.06972e-16
5.48969e-16
7.25549e-16
4.54405e-16
4.75469e-16
4.69125e-16
3.44061e-16
1.74613e-16
1.16004e-16
2.19412e-17
7.74986e-19
1.15019e-21
1.09102e-21
1.26362e-21
1.59527e-21
5.19229e-21
3.20297e-20
2.31708e-19
2.46169e-18
1.06817e-17
3.53678e-17
8.21522e-17
1.38956e-16
1.48106e-16
2.02135e-16
2.01396e-16
1.67116e-16
2.47211e-16
3.35335e-16
5.08842e-16
7.51671e-16
9.58267e-16
1.45833e-15
1.50154e-15
1.9177e-15
2.12041e-15
2.49192e-15
2.41017e-15
1.86277e-15
1.46227e-15
1.0683e-15
5.70896e-16
2.23967e-16
1.96797e-17
2.43377e-19
3.71578e-18
4.89518e-21
6.96048e-21
7.4544e-21
6.55122e-21
1.00918e-20
9.05559e-20
8.17963e-19
6.42255e-18
3.66626e-17
1.76432e-16
3.64208e-16
6.71252e-16
6.70291e-16
8.90929e-16
9.93881e-16
8.41725e-16
1.11228e-15
1.52787e-15
2.27568e-15
3.2694e-15
4.37262e-15
5.77423e-15
6.94952e-15
8.15325e-15
9.63387e-15
1.09235e-14
1.11586e-14
9.67914e-15
7.96299e-15
5.84949e-15
4.2542e-15
1.71685e-15
0
2.28016e-17
2.81182e-16
1.38917e-18
1.24095e-17
2.51019e-20
2.65562e-20
3.37877e-20
2.43057e-20
2.85726e-20
2.22381e-19
2.88778e-18
2.39526e-17
1.38258e-16
5.57802e-16
1.4625e-15
3.05578e-15
3.82911e-15
5.06466e-15
6.81237e-15
4.7421e-15
5.63731e-15
8.57173e-15
1.23133e-14
1.77164e-14
2.32823e-14
2.90209e-14
3.35162e-14
3.86722e-14
4.55826e-14
5.27011e-14
5.83756e-14
5.19946e-14
5.0287e-14
4.06635e-14
3.48394e-14
2.16477e-14
2.69532e-15
1.34773e-14
1.57011e-15
1.43538e-14
1.50137e-14
1.12398e-16
1.23873e-15
7.25736e-18
8.0616e-17
6.76889e-20
2.04501e-19
1.44096e-19
1.20371e-19
9.35198e-20
4.9255e-19
7.0644e-18
6.83695e-17
4.36186e-16
1.93161e-15
6.72133e-15
1.37185e-14
2.39552e-14
3.35653e-14
4.3849e-14
4.09857e-14
4.11035e-14
5.61873e-14
7.98384e-14
1.08394e-13
1.36845e-13
1.60478e-13
1.75806e-13
1.91264e-13
2.1679e-13
2.50699e-13
2.81988e-13
2.66835e-13
2.62588e-13
2.87936e-13
3.18563e-13
3.1588e-13
7.47018e-14
4.19607e-13
9.32168e-14
1.28637e-14
1.20875e-13
1.24531e-13
7.33012e-16
8.90419e-15
2.5983e-17
3.2841e-16
7.8931e-19
7.40947e-19
9.89878e-19
7.40284e-19
3.42448e-19
1.34608e-18
1.75607e-17
1.66078e-16
1.304e-15
6.55066e-15
2.51543e-14
6.93277e-14
1.3644e-13
2.19566e-13
3.18862e-13
4.14966e-13
3.0757e-13
3.96099e-13
5.34041e-13
6.91637e-13
8.31968e-13
9.17818e-13
9.42158e-13
9.45168e-13
1.01928e-12
1.14141e-12
1.22779e-12
1.19617e-12
1.44999e-12
1.51124e-12
2.59064e-12
3.73795e-12
1.86304e-12
7.49731e-12
5.76062e-13
3.21699e-12
8.89454e-13
1.04663e-13
1.09453e-12
1.08653e-12
5.05734e-15
7.01932e-14
6.95867e-17
2.21503e-15
1.45185e-18
5.28749e-18
3.48414e-18
3.50442e-18
1.51899e-18
2.80181e-18
4.45434e-17
5.49612e-16
4.01955e-15
2.4466e-14
1.0575e-13
3.24652e-13
7.27084e-13
1.30676e-12
2.04624e-12
3.17392e-12
2.30911e-12
2.83127e-12
3.61619e-12
4.45239e-12
5.08098e-12
5.29551e-12
5.1079e-12
4.70284e-12
4.63752e-12
5.30061e-12
5.43161e-12
5.48647e-12
6.00524e-12
9.18463e-12
1.42652e-11
3.29056e-11
2.72368e-11
9.71261e-11
1.59455e-11
7.08989e-11
5.64955e-12
3.22867e-11
8.39875e-12
8.91446e-13
9.95409e-12
9.73538e-12
3.76104e-14
5.74896e-13
4.40505e-16
1.51779e-14
4.32631e-18
1.69153e-17
1.76944e-17
1.66261e-17
6.31275e-18
6.26933e-18
9.28666e-17
1.28711e-15
1.24259e-14
8.45531e-14
4.07864e-13
1.38674e-12
3.49486e-12
7.10095e-12
1.23037e-11
1.84789e-11
1.77365e-11
2.00765e-11
2.47337e-11
2.87744e-11
3.08243e-11
3.01006e-11
2.73793e-11
2.34834e-11
2.10354e-11
2.1506e-11
2.11407e-11
2.21504e-11
2.65211e-11
3.67846e-11
7.87525e-11
2.01012e-10
2.90046e-10
8.61752e-10
2.78786e-10
9.80357e-10
1.6228e-10
7.23573e-10
5.4867e-11
3.17386e-10
7.88177e-11
7.70634e-12
9.09082e-11
8.70577e-11
2.9484e-13
4.80556e-12
3.15767e-15
1.14758e-13
2.12684e-17
5.55231e-17
5.74902e-17
6.0815e-17
3.0398e-17
1.79122e-17
1.88847e-16
2.98292e-15
3.55082e-14
2.72041e-13
1.45331e-12
5.45249e-12
1.51258e-11
3.44825e-11
6.82678e-11
1.15119e-10
1.60362e-10
1.36118e-10
1.64323e-10
1.84602e-10
1.86877e-10
1.68283e-10
1.42589e-10
1.15226e-10
9.50314e-11
8.83489e-11
9.17635e-11
9.50376e-11
1.17441e-10
1.92325e-10
2.96736e-10
1.04223e-09
2.14458e-09
5.38772e-09
3.0566e-09
8.81759e-09
2.8672e-09
1.00824e-08
1.60429e-09
7.15103e-09
5.23938e-10
3.0208e-09
7.28768e-10
6.65918e-11
8.18246e-10
7.65288e-10
2.37199e-12
4.00517e-11
2.31866e-14
8.89754e-13
7.33455e-17
1.80297e-16
2.2445e-16
1.7276e-16
1.26331e-16
5.50494e-17
3.21512e-16
6.32684e-15
8.94195e-14
7.99117e-13
4.7922e-12
1.98777e-11
6.02156e-11
1.48446e-10
3.30489e-10
6.5983e-10
1.12379e-09
8.68928e-10
1.03643e-09
1.12438e-09
1.08812e-09
9.30796e-10
7.24812e-10
5.48369e-10
4.20912e-10
3.62781e-10
3.80573e-10
4.22166e-10
6.00469e-10
8.82483e-10
1.84902e-09
3.37191e-09
1.13554e-08
2.55628e-08
2.30486e-08
5.63359e-08
3.17954e-08
9.2091e-08
2.83168e-08
9.88564e-08
1.51804e-08
6.69671e-08
4.86124e-09
2.74274e-08
6.50638e-09
5.64816e-10
7.15613e-09
6.50185e-09
1.89475e-11
3.26503e-10
1.7184e-13
6.8324e-12
2.94364e-16
5.52589e-16
6.21863e-16
7.5135e-16
5.20748e-16
2.14082e-16
5.28607e-16
1.1895e-14
2.01227e-13
2.12895e-12
1.44723e-11
6.69739e-11
2.22759e-10
5.88543e-10
1.37705e-09
3.12337e-09
6.67967e-09
5.37288e-09
6.20116e-09
6.44707e-09
5.92339e-09
4.83572e-09
3.57177e-09
2.52602e-09
1.81717e-09
1.46883e-09
1.54684e-09
2.0672e-09
3.45817e-09
5.59877e-09
7.57511e-09
1.91312e-08
4.3451e-08
7.9778e-08
1.2671e-07
2.98856e-07
2.45584e-07
6.09096e-07
3.12088e-07
9.05096e-07
2.61821e-07
8.962e-07
1.35506e-07
5.84034e-07
4.28158e-08
2.34652e-07
5.5459e-08
4.62504e-09
5.97496e-08
5.25779e-08
1.4789e-10
2.56531e-09
1.27866e-12
5.16166e-11
6.96369e-16
2.15021e-15
2.31814e-15
2.57001e-15
1.9613e-15
8.39086e-16
8.46001e-16
1.91404e-14
3.9566e-13
5.02036e-12
3.97185e-11
2.0702e-10
7.62478e-10
2.18318e-09
5.31344e-09
1.20015e-08
2.88516e-08
3.36696e-08
3.48795e-08
3.47373e-08
3.01956e-08
2.3326e-08
1.63694e-08
1.10192e-08
7.5471e-09
5.92754e-09
6.42409e-09
1.02188e-08
2.04694e-08
3.8576e-08
5.34034e-08
5.64261e-08
1.1698e-07
1.94596e-07
5.16634e-07
9.95373e-07
1.40026e-06
3.24131e-06
2.40338e-06
5.8472e-06
2.77931e-06
7.74542e-06
2.21329e-06
7.15035e-06
1.12063e-06
4.58045e-06
3.537e-07
1.85609e-06
4.43813e-07
3.61645e-08
4.68779e-07
4.00299e-07
1.12215e-09
1.92998e-08
9.40479e-12
3.76683e-10
3.79802e-15
9.6384e-15
1.0967e-14
9.84162e-15
8.00604e-15
3.30439e-15
1.50915e-15
2.81641e-14
6.78686e-13
1.03743e-11
9.7466e-11
5.82208e-10
2.39608e-09
7.51992e-09
1.94608e-08
4.36966e-08
9.38437e-08
1.85925e-07
1.75051e-07
1.73387e-07
1.43586e-07
1.05263e-07
7.00497e-08
4.4662e-08
2.9267e-08
2.32163e-08
3.00471e-08
5.98961e-08
1.27188e-07
2.49813e-07
3.93386e-07
4.77022e-07
4.32842e-07
0
1.44593e-06
1.95407e-06
5.63791e-06
1.05762e-05
1.30673e-05
2.79126e-05
1.96758e-05
4.55148e-05
2.07043e-05
5.39966e-05
1.5855e-05
4.65976e-05
8.20184e-06
2.9881e-05
2.68288e-06
1.27713e-05
3.25631e-06
2.67986e-07
3.36294e-06
2.81678e-06
8.14165e-09
1.38113e-07
6.76257e-11
2.62577e-09
2.23839e-14
5.04567e-14
5.16663e-14
4.20859e-14
3.37144e-14
1.04919e-14
4.01244e-15
3.62777e-14
1.03669e-12
1.86271e-11
2.11173e-10
1.47283e-09
6.85327e-09
2.37827e-08
6.6613e-08
1.54866e-07
3.10124e-07
5.643e-07
7.86344e-07
7.92622e-07
6.21052e-07
4.41317e-07
2.83699e-07
1.69296e-07
1.05009e-07
8.72848e-08
1.56146e-07
3.88222e-07
8.70357e-07
1.58701e-06
2.46658e-06
3.25335e-06
6.26505e-06
2.80606e-06
5.89024e-06
1.53197e-05
2.22375e-05
4.82213e-05
7.96461e-05
9.48372e-05
0.000170663
0.000126561
0.000255545
0.000123111
0.000285723
9.17776e-05
0.00023658
4.93132e-05
0.000156384
1.7483e-05
7.12983e-05
2.04935e-05
1.85318e-06
2.07274e-05
1.73128e-05
5.59952e-08
9.32545e-07
4.70524e-10
1.72097e-08
1.37296e-13
2.80834e-13
2.62047e-13
2.12887e-13
1.34251e-13
3.96589e-14
9.93656e-15
4.22149e-14
1.38401e-12
2.97529e-11
3.96704e-10
3.32273e-09
1.7656e-08
6.82501e-08
2.0884e-07
5.17581e-07
1.04191e-06
1.76874e-06
2.52321e-06
2.72069e-06
2.4612e-06
1.71995e-06
1.05204e-06
5.98507e-07
3.52546e-07
2.94714e-07
8.02414e-07
2.65639e-06
6.00463e-06
1.06175e-05
1.43632e-05
1.73654e-05
2.39717e-05
5.13968e-05
7.02244e-05
2.79533e-05
3.72954e-05
0.000113258
0.000158012
0.000265153
0.000374073
0.000428472
0.000623142
0.000532154
0.000818553
0.000530024
0.000900324
0.000405973
0.000834554
0.000234608
0.00060511
9.15775e-05
0.000311559
0.000103075
1.15217e-05
0.000101885
8.48223e-05
3.5713e-07
5.79481e-06
3.18617e-09
1.0329e-07
7.95734e-13
1.61011e-12
1.33786e-12
1.08621e-12
5.51435e-13
1.52169e-13
3.34071e-14
4.49089e-14
1.60824e-12
4.16102e-11
6.62343e-10
6.49827e-09
4.07363e-08
1.75926e-07
5.90554e-07
1.58054e-06
3.35589e-06
5.6972e-06
7.80226e-06
8.32483e-06
7.30982e-06
5.3994e-06
3.51033e-06
1.98749e-06
1.12686e-06
8.33682e-07
3.11352e-06
1.42477e-05
3.79435e-05
6.49524e-05
7.93675e-05
8.03962e-05
8.67771e-05
0.000108988
0.000157606
0.000289339
0.000343966
0.000200842
0.000249768
0.000483241
0.000593765
0.000818699
0.00100374
0.00111418
0.00139143
0.00129134
0.00167036
0.00131537
0.00179774
0.00116443
0.0017479
0.000814883
0.00148601
0.000372749
0.000989611
0.000401532
5.69507e-05
0.000387463
0.000319663
2.07838e-06
2.91884e-05
1.95121e-08
5.4845e-07
3.14671e-12
8.31414e-12
6.86958e-12
5.13062e-12
2.06333e-12
5.59273e-13
1.22791e-13
5.03944e-14
1.63374e-12
5.05255e-11
9.73252e-10
1.1282e-08
8.16294e-08
4.04623e-07
1.4912e-06
4.34043e-06
9.9421e-06
1.77144e-05
2.43416e-05
2.63823e-05
2.31354e-05
1.69958e-05
1.10485e-05
6.37016e-06
3.40526e-06
2.04563e-06
8.27204e-06
4.93656e-05
0.000154397
0.000285188
0.000328023
0.000299989
0.000272548
0.000273095
0.00033695
0.000395836
0.00049133
0.000841121
0.000904076
0.000690976
0.000774095
0.00116787
0.00131351
0.00163858
0.00185403
0.00202075
0.00232118
0.0022448
0.00264948
0.00230075
0.00280722
0.00216155
0.0027784
0.001783
0.00252885
0.00110918
0.00200976
0.00114876
0.000219453
0.00108906
0.000903376
1.07904e-05
0.000120747
8.63738e-08
2.57073e-06
5.99776e-12
2.6673e-11
3.16761e-11
2.27688e-11
7.53736e-12
2.08027e-12
4.25574e-13
7.84731e-14
1.42444e-12
5.36218e-11
1.24029e-09
1.73405e-08
1.45323e-07
8.07605e-07
3.32348e-06
1.06007e-05
2.63424e-05
5.02789e-05
7.12607e-05
8.06171e-05
7.40963e-05
5.63578e-05
3.62457e-05
1.96264e-05
9.58163e-06
4.7656e-06
1.36685e-05
9.93887e-05
0.000362698
0.000713959
0.000932446
0.000887167
0.000697404
0.000792165
0.000581742
0.000808614
0.00096183
0.00104032
0.00158478
0.00163851
0.00142988
0.00151872
0.00203457
0.00218265
0.00257634
0.00278917
0.00299511
0.00325578
0.00322875
0.00352454
0.00329829
0.00363852
0.00318889
0.00363415
0.00283468
0.00348652
0.00215347
0.00304831
0.00219313
0.000660061
0.00213258
0.00190587
4.63842e-05
0.000392925
2.06959e-07
9.68168e-06
3.66653e-11
9.80061e-11
8.79712e-11
2.67926e-11
6.68063e-12
1.40099e-12
1.93419e-13
1.0252e-12
4.93018e-11
1.38897e-09
2.323e-08
2.29577e-07
1.43688e-06
6.42799e-06
2.23815e-05
6.04761e-05
0.000120889
0.000183177
0.000222017
0.000216669
0.000172571
0.000109499
5.68611e-05
2.59211e-05
1.1021e-05
1.80876e-05
0.000141541
0.000545261
0.00115627
0.00157796
0.00172147
0.0015811
0.00130616
0.00140956
0.00162089
0.00112485
0.00126741
0.00168607
0.0017407
0.00241948
0.0024539
0.00229286
0.00236921
0.00295114
0.00306446
0.00342455
0.00352331
0.0036866
0.00376779
0.00382351
0.00391019
0.00387933
0.00399373
0.00384653
0.00402238
0.00366137
0.0039753
0.00315859
0.00376546
0.00316229
0.00150964
0.0030687
0.00283866
0.000162057
0.000961915
6.78143e-07
3.45004e-05
1.33753e-10
2.64818e-10
8.86104e-11
2.23337e-11
4.16728e-12
5.72389e-13
6.87812e-13
3.65742e-11
1.34499e-09
2.75814e-08
3.22933e-07
2.27787e-06
1.10394e-05
4.07341e-05
0.000114927
0.000233947
0.000356682
0.000426965
0.000425214
0.000363764
0.000265651
0.000154491
6.55551e-05
2.56515e-05
2.35799e-05
0.000167289
0.000687138
0.00144334
0.00200741
0.00229441
0.00240042
0.00226152
0.0018499
0.00209506
0.00203154
0.00220506
0.00180993
0.00190895
0.00247967
0.00250673
0.00318691
0.00318774
0.0031339
0.00317148
0.00357194
0.00358761
0.00378856
0.00377367
0.00391637
0.00389606
0.00401425
0.00399372
0.00408698
0.00408251
0.00411139
0.00415344
0.00405202
0.00417486
0.00381227
0.00410023
0.00380321
0.00245798
0.00372345
0.00356896
0.0030972
0.000471512
0.00184639
4.19483e-06
0.000134242
4.72191e-10
2.59398e-10
6.99255e-11
1.21899e-11
1.67298e-12
5.25399e-13
2.33431e-11
1.07011e-09
2.81456e-08
3.83032e-07
3.06262e-06
1.64166e-05
6.43259e-05
0.000184653
0.000372542
0.00055113
0.000650985
0.000657203
0.000583515
0.000456809
0.00030489
0.00015797
5.91012e-05
3.4346e-05
0.000179964
0.000769265
0.00161788
0.00208937
0.00239839
0.00265505
0.00283276
0.00296941
0.00237039
0.0027365
0.00268871
0.00279969
0.00254706
0.00260518
0.00318441
0.0031833
0.00356587
0.00355367
0.00358433
0.00357471
0.00374817
0.0037119
0.00384661
0.00376429
0.00393557
0.00381415
0.00404008
0.00392872
0.00414495
0.00409452
0.0042145
0.00421431
0.00421774
0.00427788
0.0041232
0.00423959
0.00418859
0.00396006
0.00411794
0.00342155
0.00268754
0.00328534
0.00386146
0.00407275
0.00408749
0.00379623
0.00112666
0.00305747
0.00284433
0.00213148
8.6801e-05
0.000635063
6.1037e-10
2.00229e-10
3.47472e-11
4.72676e-12
6.53983e-13
1.28072e-11
7.16225e-10
2.425e-08
3.86783e-07
3.51069e-06
2.08028e-05
8.69366e-05
0.000255009
0.000509959
0.000745391
0.000883036
0.000902003
0.000817923
0.000664098
0.000474557
0.000289589
0.00013662
5.71321e-05
0.000185741
0.000800147
0.00160131
0.00200744
0.00228556
0.00253715
0.00280643
0.00314215
0.00335287
0.00345186
0.00294758
0.00314325
0.00324201
0.00330315
0.00318883
0.00320572
0.00354803
0.00354552
0.00363354
0.00363179
0.00367709
0.00364904
0.00366671
0.00358121
0.0036523
0.00348282
0.00375257
0.00354328
0.00399178
0.00383198
0.00419015
0.00413101
0.00428575
0.00430524
0.00432602
0.00434629
0.00428283
0.00433464
0.00438108
0.00446982
0.00439361
0.00424979
0.00419987
0.0042656
0.00430582
0.00419799
0.00369487
0.00355822
0.00402733
0.00416441
0.00418534
0.00396909
0.002584
0.00162431
0.00239688
0.00339349
0.00321175
0.00140063
0.00231889
0.00228857
0.00153658
5.34838e-10
9.96714e-11
1.31397e-11
1.459e-12
6.09305e-12
4.06849e-10
1.6814e-08
3.41069e-07
3.50832e-06
2.30194e-05
0.000103388
0.000313412
0.000631305
0.000928942
0.00111574
0.00115196
0.00105307
0.000873317
0.000653938
0.000431887
0.000236522
0.000110518
0.000197499
0.000792742
0.00155112
0.00183754
0.00195879
0.00205279
0.00235243
0.00283855
0.00337649
0.00361423
0.00362648
0.0034024
0.0035236
0.00358147
0.00362638
0.00354799
0.00355807
0.00363616
0.00364809
0.00350549
0.00352691
0.00352381
0.00350103
0.00333415
0.00323382
0.00331427
0.0030914
0.00359647
0.00330905
0.00401333
0.00380771
0.00435553
0.00435202
0.00432896
0.00427928
0.00442489
0.00446663
0.00449816
0.00437174
0.00445572
0.00453912
0.00465868
0.00455484
0.0043279
0.00427004
0.00434396
0.0044107
0.00426619
0.00388734
0.00378333
0.00413056
0.00425344
0.00423157
0.00408359
0.00304311
0.00296764
0.00366195
0.00353849
0.0032576
0.000597976
0.0024709
0.00307089
0.00331704
3.19208e-10
3.81753e-11
4.03433e-12
2.82305e-12
1.95e-10
1.00245e-08
2.45961e-07
3.16975e-06
2.26582e-05
0.00011062
0.00035278
0.000727854
0.00109094
0.00133664
0.00138369
0.00126833
0.0010688
0.000821534
0.000568493
0.000339779
0.000180713
0.000227591
0.000777591
0.00147757
0.00169694
0.00160704
0.00127625
0.00117221
0.00162745
0.00241337
0.00348702
0.00304966
0.00373194
0.00367511
0.00368655
0.00373381
0.00374404
0.00378636
0.00367255
0.00370505
0.00357293
0.00362909
0.00324901
0.00333469
0.0031985
0.00320725
0.00291437
0.00282136
0.00299387
0.00269625
0.00350486
0.00311427
0.00420367
0.00408226
0.00394488
0.00375631
0.0045103
0.00449832
0.00445404
0.00437336
0.00460505
0.00465396
0.00467531
0.00451892
0.00464765
0.00474889
0.00489102
0.00478012
0.00444352
0.00434991
0.00446499
0.00457719
0.00434452
0.0040223
0.00394868
0.00420023
0.00432704
0.00429909
0.00415981
0.00345234
0.00347754
0.00386977
0.00380321
0.00338729
0.000471559
0.00205445
0.00363337
0.00375671
1.37203e-10
1.27532e-11
2.23746e-12
8.0887e-11
5.07977e-09
1.5426e-07
2.36477e-06
2.07736e-05
0.000109477
0.000368738
0.000792405
0.00122159
0.00153193
0.00158698
0.00145992
0.00123999
0.00096358
0.000683008
0.000429871
0.00026126
0.000283285
0.00077772
0.00141547
0.0015923
0.00138293
0.000808535
0.000490982
0.000570052
0.000960614
0.00165329
0.00327183
0.00265226
0.00376705
0.00361556
0.00381519
0.0038126
0.00380323
0.003839
0.00368841
0.00374835
0.0034371
0.00354287
0.00297168
0.00311589
0.00281801
0.00286123
0.0024736
0.00237453
0.00269431
0.00232647
0.00356224
0.00332125
0.00309765
0.00284368
0.00425804
0.00411055
0.00393359
0.00372185
0.00465688
0.00459711
0.00450704
0.00438928
0.00481065
0.00482298
0.00477992
0.00473653
0.00489885
0.00495571
0.00508642
0.0050299
0.00462337
0.00447194
0.00465163
0.00481503
0.0044624
0.00411243
0.00406148
0.00426191
0.00443549
0.00439306
0.00421923
0.00378671
0.00385201
0.00401627
0.00399472
0.00321938
0.000551016
0.00203042
0.00395021
0.00381177
5.61921e-11
5.98522e-12
2.85584e-11
2.20864e-09
8.34164e-08
1.54434e-06
1.59869e-05
9.93522e-05
0.000364917
0.000820041
0.00131098
0.00169077
0.00176252
0.00163054
0.00138074
0.00106961
0.000757297
0.000499718
0.000347871
0.000364123
0.000800268
0.00137142
0.00151844
0.00127041
0.000629979
0.000255586
0.000172148
0.000259122
0.00050596
0.00151436
0.000801913
0.00291795
0.00223728
0.00368083
0.00339353
0.00384011
0.00380465
0.00378174
0.00379437
0.00364222
0.00372618
0.00326702
0.00340897
0.00263641
0.00282204
0.00238707
0.00247332
0.00207902
0.00194857
0.00249573
0.00218856
0.00348838
0.00323933
0.00299771
0.00276968
0.00424207
0.00406225
0.00385177
0.0036164
0.00470209
0.00459555
0.00446206
0.00430423
0.00494571
0.00487657
0.00476664
0.00500823
0.00515925
0.00505304
0.00515692
0.00521148
0.0048746
0.00465894
0.00490995
0.00510337
0.00464261
0.0041753
0.00413529
0.00433839
0.00460059
0.00453294
0.00428033
0.00402007
0.00408404
0.00410997
0.00411314
0.00311962
0.000568127
0.0020608
0.00408101
0.00378619
3.89217e-11
1.68118e-11
7.83597e-10
3.98873e-08
8.8846e-07
1.07538e-05
7.72159e-05
0.000336071
0.00081674
0.00135322
0.00180344
0.0019126
0.00178561
0.00150694
0.00114709
0.000814679
0.000580925
0.000436296
0.000463258
0.000867045
0.00134967
0.0014659
0.0012221
0.000620532
0.000208062
7.13191e-05
5.76736e-05
0.000104965
0.000168628
0.00103151
0.000469057
0.00244104
0.00172777
0.00342626
0.00301952
0.00376868
0.00366713
0.00365179
0.00363781
0.00352959
0.00361562
0.00300494
0.0031645
0.00214995
0.0023448
0.00191055
0.00198773
0.00196375
0.0018107
0.00257092
0.00243911
0.00224345
0.00234718
0.00336953
0.00312707
0.0029054
0.00272255
0.00412142
0.00391312
0.00368523
0.00344993
0.00462269
0.00446081
0.00428521
0.00409502
0.00495089
0.00479049
0.00459682
0.0052782
0.00533112
0.00501185
0.00507453
0.00526132
0.00517566
0.00491706
0.00522074
0.00538541
0.00489076
0.00422636
0.00418374
0.0044482
0.0048282
0.00472791
0.00435988
0.00415272
0.00419221
0.004164
0.00417672
0.00308286
0.000935625
0.00213268
0.00411961
0.00375649
5.43278e-11
2.71935e-10
1.59672e-08
4.60295e-07
6.53127e-06
5.49657e-05
0.000274927
0.000777955
0.00135396
0.0018634
0.00203456
0.00192967
0.00163226
0.00124038
0.00092014
0.00069333
0.000552647
0.00059132
0.000960031
0.00134733
0.00143102
0.00120342
0.00065315
0.00021654
5.69638e-05
1.71463e-05
1.7938e-05
2.7047e-05
8.37257e-05
1.89587e-05
0.000584897
0.000228319
0.00184789
0.00115825
0.00299424
0.00249088
0.00355508
0.0033472
0.00335898
0.00329781
0.00328625
0.00335494
0.00254267
0.00270943
0.00154464
0.00167694
0.00166963
0.00157099
0.00216535
0.00205936
0.00198974
0.00268065
0.0026297
0.00254344
0.00258991
0.00322455
0.00302817
0.002874
0.00275695
0.00389065
0.00367747
0.00346732
0.00327571
0.00439371
0.00418974
0.00398742
0.00378869
0.00479279
0.00454169
0.00428595
0.00545003
0.00537499
0.00480163
0.0048442
0.00516076
0.00547474
0.00523103
0.0055394
0.00556098
0.00519746
0.0042791
0.00421822
0.00460279
0.00511387
0.00497809
0.00447027
0.00421807
0.00423251
0.00418994
0.00420005
0.00298825
0.000260447
0.00140398
0.00412041
0.003691
1.83552e-10
6.02695e-09
2.07499e-07
3.59404e-06
3.53344e-05
0.000208046
0.000678187
0.00131845
0.00186995
0.00212195
0.00205924
0.00177599
0.00138199
0.00108258
0.000854373
0.000718935
0.00078655
0.00111787
0.00135554
0.00140891
0.00119293
0.000702051
0.000248624
6.00206e-05
1.18782e-05
3.77434e-06
3.57116e-06
1.89671e-06
2.14241e-05
4.61847e-06
0.00023516
7.56835e-05
0.0011577
0.000591746
0.00237022
0.00179861
0.00312203
0.00281267
0.00283203
0.00269804
0.00282223
0.00286506
0.0018488
0.00200043
0.00125667
0.00111843
0.00170797
0.0014647
0.00247578
0.00236423
0.00276981
0.00255534
0.00296729
0.00300475
0.00303084
0.00302838
0.00312566
0.00301902
0.00296252
0.00295105
0.00359819
0.0034244
0.00328567
0.00319685
0.00404353
0.00382532
0.00363523
0.00347496
0.00449102
0.00417799
0.00389215
0.00550897
0.00527846
0.00448059
0.00453867
0.00493666
0.00567236
0.00556814
0.00577243
0.00565122
0.00553974
0.00434714
0.00425235
0.0048065
0.00544064
0.00527673
0.00461843
0.00424131
0.00423928
0.00420218
0.00419991
0.00263067
0.000103081
0.000813644
0.00409762
0.00353199
1.95287e-09
9.39368e-08
1.72024e-06
2.09169e-05
0.000143217
0.000554789
0.0012065
0.00184188
0.00216436
0.00216377
0.00193208
0.00155736
0.00128622
0.00106174
0.00095624
0.00105461
0.00125093
0.00136588
0.00139027
0.00117478
0.000719224
0.000266953
6.51181e-05
1.12045e-05
1.99477e-06
8.64403e-07
3.86549e-07
3.74719e-07
8.2103e-08
4.2132e-06
9.22762e-07
6.18998e-05
1.69741e-05
0.000498362
0.00019451
0.00154915
0.000989269
0.00243573
0.0020493
0.00202756
0.00183068
0.00208917
0.00210839
0.00107634
0.00112498
0.00127617
0.000951746
0.00232808
0.00204331
0.00177332
0.00299676
0.0029098
0.00340113
0.00316605
0.00345559
0.00357123
0.00367848
0.00365323
0.0031548
0.00316855
0.00323733
0.00333864
0.00335182
0.0032748
0.00325627
0.00328259
0.00365592
0.00347548
0.0033517
0.00328228
0.00411547
0.00378948
0.00353259
0.00544024
0.00508938
0.00413614
0.00425668
0.00467568
0.00579329
0.00585163
0.00593241
0.00564036
0.00587421
0.00444051
0.00429558
0.00505456
0.00579418
0.00560436
0.00480459
0.00423767
0.00423025
0.00420754
0.00418633
0.00212492
2.19802e-05
0.000353905
0.00404525
0.00329651
3.01999e-08
9.32289e-07
1.09613e-05
9.10985e-05
0.00041883
0.00104669
0.00173604
0.00216371
0.0022318
0.00207115
0.00173811
0.00148581
0.00128787
0.00122422
0.00126478
0.00132962
0.00138252
0.00136072
0.00113541
0.000703712
0.000263732
6.43037e-05
1.06305e-05
1.44954e-06
2.56046e-07
5.78179e-08
1.06559e-08
6.86364e-08
1.57093e-08
6.39081e-07
2.14844e-07
1.03595e-05
2.65979e-06
0.00012028
3.75594e-05
0.000675724
0.000322564
0.0015145
0.00110698
0.00103749
0.000833876
0.00116309
0.0011486
0.000730902
0.000560452
0.00192242
0.00154108
0.00119007
0.00286788
0.00251847
0.00228863
0.00272723
0.00366228
0.00356719
0.00408523
0.00381674
0.00412162
0.00428988
0.00443031
0.0044003
0.00338444
0.00353873
0.0037237
0.00392433
0.00327803
0.00331438