/*--------------------------------*- C++ -*----------------------------------*\
  =========                 |
  \\      /  F ield         | OpenFOAM: The Open Source CFD Toolbox
   \\    /   O peration     | Website:  https://openfoam.org
    \\  /    A nd           | Version:  dev
     \\/     M anipulation  |
\*---------------------------------------------------------------------------*/
FoamFile
{
    version     2.0;
    format      ascii;
    class       volScalarField;
    location    "2500";
    object      k;
}
// * * * * * * * * * * * * * * * * * * * * * * * * * * * * * * * * * * * * * //

dimensions      [0 2 -2 0 0 0 0];

internalField   nonuniform List<scalar> 
9836
(
0.000162382
0.000167843
0.000152288
0.000143065
0.000211499
0.000123326
0.000120555
0.000224997
0.000189148
0.000110652
0.000111485
0.000212353
0.00022632
0.000145916
0.000107157
0.000106093
0.000180452
0.000248365
0.000197856
0.000123487
0.000105243
0.000103359
0.000146778
0.000246641
0.000236819
0.000152265
0.000115264
0.000103927
0.000101844
0.000128426
0.000230889
0.000257918
0.000197429
0.000128086
0.000111477
0.00010296
0.000100997
0.000116381
0.00019522
0.000268592
0.000239243
0.000153305
0.000118674
0.00010882
0.000102194
0.000100489
0.000109414
0.00015722
0.000262156
0.00026404
0.000193167
0.000129906
0.000113926
0.000106848
0.000101646
0.000100103
0.000105357
0.000134879
0.000240625
0.000279938
0.000237413
0.00015277
0.00011952
0.000110708
0.000105374
0.000101213
9.96299e-05
0.000102944
0.000120433
0.000199407
0.000283173
0.000268416
0.000186658
0.000130575
0.000114153
0.000108473
0.000104137
0.000100886
9.92392e-05
0.000101506
0.00011201
0.000160489
0.000272749
0.000284342
0.000230661
0.000149653
0.00011976
0.000110945
0.000106652
0.000103151
0.000100628
9.89382e-05
0.000100533
0.000107116
0.000137301
0.000245218
0.000297599
0.000265985
0.000180766
0.00012937
0.000114019
0.000108615
0.000105186
0.000102357
0.000100409
9.87112e-05
9.97913e-05
0.000104151
0.000122347
0.000201425
0.000296214
0.000290455
0.000219956
0.000146493
0.00011911
0.000110423
0.000106773
0.000103992
0.000101681
0.000100236
9.86048e-05
9.91792e-05
0.000102202
0.000113358
0.000162404
0.000282914
0.000304307
0.000261481
0.000173331
0.000127873
0.000113306
0.000108019
0.000105229
0.000102972
0.000101121
0.000100109
9.86014e-05
9.85343e-05
0.000100788
0.000107838
0.000138911
0.000251039
0.000314804
0.000290252
0.000208606
0.00014267
0.000118088
0.00010962
0.000106157
0.000103917
0.000102101
0.000100637
0.000100015
9.85944e-05
9.77997e-05
9.9542e-05
0.000104382
0.000123542
0.000205596
0.000311221
0.000310631
0.000248847
0.000165492
0.000126003
0.000112149
0.000107164
0.000104597
0.000102856
0.000101354
0.000100197
9.98892e-05
9.85903e-05
9.71913e-05
9.84593e-05
0.000102028
0.000114142
0.000165679
0.000295022
0.0003243
0.000286551
0.00019663
0.000138491
0.000116711
0.000108407
0.000105243
0.000103324
0.000101928
0.000100652
9.98919e-05
9.97784e-05
9.8578e-05
9.66786e-05
9.75416e-05
0.000100239
0.000108316
0.000141773
0.000259416
0.000333415
0.000312546
0.000234131
0.000157649
0.000123574
0.000110822
0.000105976
0.000103693
0.000102304
0.000101081
0.000100006
9.95293e-05
9.97035e-05
9.85436e-05
9.62872e-05
9.67815e-05
9.87568e-05
0.000104531
0.000126136
0.000213032
0.000328384
0.000331163
0.000274044
0.000184719
0.000134248
0.000114748
0.000107114
0.000104091
0.000102467
0.000101384
0.000100294
9.95242e-05
9.92315e-05
9.96377e-05
9.84893e-05
9.59943e-05
9.59811e-05
9.75236e-05
0.000101851
0.000116317
0.00017235
0.000310501
0.000344924
0.000309231
0.000218016
0.000150182
0.000121044
0.000109083
0.000104665
0.000102583
0.000101512
0.000100551
9.95956e-05
9.90028e-05
9.89801e-05
9.95785e-05
9.84203e-05
9.57755e-05
9.52112e-05
9.64354e-05
9.97837e-05
0.000109967
0.000148061
0.000273761
0.000353343
0.000334024
0.000257029
0.000172827
0.000129809
0.000112871
0.000105598
0.000102784
0.000101438
0.00010067
9.97709e-05
9.89997e-05
9.85405e-05
9.87539e-05
9.95221e-05
9.83462e-05
9.55922e-05
9.45727e-05
9.54698e-05
9.81084e-05
0.000105631
0.000131813
0.000228281
0.000348113
0.000351875
0.000296153
0.000202653
0.000143149
0.000118051
0.000107453
0.000103197
0.000101298
0.000100614
9.98692e-05
9.9057e-05
9.83909e-05
9.81123e-05
9.85619e-05
9.94675e-05
9.82728e-05
9.54263e-05
9.40485e-05
9.46731e-05
9.67089e-05
0.000102531
0.000120867
0.000186405
0.000330917
0.000365394
0.000330085
0.000237061
0.000161788
0.000125751
0.000110599
0.000104042
0.000101404
0.000100142
9.98219e-05
9.91256e-05
9.83953e-05
9.78153e-05
9.77308e-05
9.83937e-05
9.94156e-05
9.82098e-05
9.52843e-05
9.36183e-05
9.4023e-05
9.5573e-05
0.000100185
0.000113571
0.000159675
0.00029856
0.000374717
0.000354081
0.000275964
0.000187044
0.000136206
0.000115337
0.000105696
0.000101767
9.9933e-05
9.93864e-05
9.90802e-05
9.84147e-05
9.77055e-05
9.72623e-05
9.7397e-05
9.82459e-05
9.93639e-05
9.81582e-05
9.51656e-05
9.32752e-05
9.34072e-05
9.4661e-05
9.83378e-05
0.000108594
0.000141773
0.000254562
0.000371302
0.000372473
0.000314156
0.000217385
0.000151738
0.000121494
0.000108612
0.000102559
0.000100041
9.87557e-05
9.87599e-05
9.83623e-05
9.76824e-05
9.70388e-05
9.67406e-05
9.71158e-05
9.81189e-05
9.9316e-05
9.81135e-05
9.5065e-05
9.30119e-05
9.28223e-05
9.38901e-05
9.68423e-05
0.000105004
0.000129582
0.0002127
0.000357933
0.000385756
0.000348201
0.000251866
0.000171926
0.000130241
0.000112608
0.000104157
0.000100418
9.87073e-05
9.80127e-05
9.81407e-05
9.76066e-05
9.69532e-05
9.64311e-05
9.62939e-05
9.68841e-05
9.80368e-05
9.92756e-05
9.80735e-05
9.49833e-05
9.28125e-05
9.23029e-05
9.31907e-05
9.56066e-05
0.00010226
0.000121223
0.000180504
0.000330783
0.00039649
0.000372354
0.000289323
0.000197787
0.000142211
0.000117829
0.000106692
0.000101249
9.88538e-05
9.77057e-05
9.75373e-05
9.74934e-05
9.6864e-05
9.6217e-05
9.58424e-05
9.59194e-05
9.66797e-05
9.79786e-05
9.92927e-05
9.80366e-05
9.4926e-05
9.26501e-05
9.18609e-05
9.25659e-05
9.45741e-05
0.000100112
0.000115271
0.000160323
0.000294698
0.000397029
0.000391572
0.000327019
0.000227701
0.000158498
0.00012479
0.000110159
0.000102765
9.93038e-05
9.77552e-05
9.70709e-05
9.71185e-05
9.68323e-05
9.61975e-05
9.55827e-05
9.53634e-05
9.56479e-05
9.6518e-05
9.78568e-05
9.93287e-05
9.80034e-05
9.48945e-05
9.25116e-05
9.14901e-05
9.20207e-05
9.37079e-05
9.84249e-05
0.000110989
0.000146446
0.000256029
0.00038991
0.000404832
0.000361807
0.000261397
0.000179264
0.000134114
0.00011455
0.000105087
0.00010027
9.80146e-05
9.70517e-05
9.66808e-05
9.6656e-05
9.61578e-05
9.55059e-05
9.49691e-05
9.49415e-05
9.54665e-05
9.65115e-05
9.78241e-05
9.93589e-05
9.79714e-05
9.48803e-05
9.23975e-05
9.11829e-05
9.15508e-05
9.29749e-05
9.70941e-05
0.000107906
0.000136739
0.000222654
0.000371742
0.000416073
0.000387356
0.000295822
0.000204653
0.000146661
0.000120108
0.000108172
0.000101799
9.86687e-05
9.71974e-05
9.66382e-05
9.64222e-05
9.61639e-05
9.55492e-05
9.49322e-05
9.45086e-05
9.46715e-05
9.55713e-05
9.67401e-05
9.79811e-05
9.94151e-05
9.7945e-05
9.48799e-05
9.23064e-05
9.09412e-05
9.11627e-05
9.23676e-05
9.60576e-05
0.000105706
0.00013008
0.000196897
0.000345022
0.000422084
0.000406695
0.000333249
0.00023295
0.000163086
0.000127393
0.000111922
0.000104071
9.98232e-05
9.76738e-05
9.6751e-05
9.64187e-05
9.6192e-05
9.56666e-05
9.50099e-05
9.45089e-05
9.43045e-05
9.47246e-05
9.59787e-05
9.72902e-05
9.85131e-05
9.96492e-05
9.79207e-05
9.48814e-05
9.22224e-05
9.07384e-05
9.08472e-05
9.18946e-05
9.53056e-05
0.000104259
0.000125748
0.000180025
0.000316899
0.000419475
0.000420837
0.000367003
0.000264183
0.000183303
0.000137076
0.000116665
0.000107061
0.000101581
9.87152e-05
9.71652e-05
9.65419e-05
9.62867e-05
9.58621e-05
9.52019e-05
9.46267e-05
9.43463e-05
9.44397e-05
9.52598e-05
9.66734e-05
9.82254e-05
9.95678e-05
0.000100083
0.000100179
9.7896e-05
9.48685e-05
9.21378e-05
9.05529e-05
9.06029e-05
9.15615e-05
9.48343e-05
0.000103481
0.000123416
0.000169833
0.000290853
0.000411558
0.000430654
0.000394978
0.000296126
0.000206898
0.000149697
0.000122436
0.0001105
0.000103978
0.000100356
9.82249e-05
9.69693e-05
9.65187e-05
9.6206e-05
9.55933e-05
9.49199e-05
9.45382e-05
9.4527e-05
9.52205e-05
9.66542e-05
9.838e-05
9.97991e-05
0.00010033
0.00010067
0.000100264
0.000100595
9.78658e-05
9.48409e-05
9.20542e-05
9.04e-05
9.0417e-05
9.13629e-05
9.467e-05
0.000103354
0.000122822
0.00016452
0.000270135
0.000397024
0.000437594
0.000414515
0.000328829
0.000232859
0.000165632
0.000129933
0.000114696
0.000107192
0.0001027
9.99472e-05
9.80414e-05
9.70422e-05
9.66557e-05
9.61386e-05
9.5371e-05
9.49522e-05
9.48269e-05
9.5411e-05
9.68943e-05
9.88467e-05
9.99966e-05
0.000100431
0.000101406
0.000101156
0.000102437
0.000100986
0.000101723
0.000100396
0.000101084
9.78311e-05
9.48093e-05
9.19628e-05
9.03107e-05
9.02924e-05
9.13065e-05
9.48406e-05
0.000103905
0.000124143
0.000163294
0.000256442
0.000381693
0.000439555
0.000428357
0.000360691
0.000260338
0.000184312
0.000139794
0.000119906
0.000110892
0.000106
0.000102261
9.99579e-05
9.82893e-05
9.73383e-05
9.67136e-05
9.59969e-05
9.55585e-05
9.55062e-05
9.5918e-05
9.76002e-05
9.98133e-05
0.00010107
0.000101909
0.000102034
0.00010285
0.000103691
0.00010405
0.000101729
0.000102664
0.000100479
0.000101358
9.77946e-05
9.47853e-05
9.18595e-05
9.02785e-05
9.02624e-05
9.142e-05
9.54283e-05
0.000105351
0.000127681
0.000164573
0.000249416
0.000368535
0.000438238
0.000436707
0.00038793
0.000289419
0.000205378
0.000152193
0.000126165
0.00011553
0.000110119
0.000105873
0.000102616
0.000100663
9.88563e-05
9.78064e-05
9.70132e-05
9.64461e-05
9.65933e-05
9.71388e-05
9.86366e-05
0.000101882
0.000102734
0.000103845
0.000103144
0.000104139
0.000104788
0.000103918
0.000105327
0.000105305
0.000102176
0.000103384
0.000100573
0.000101594
9.77633e-05
9.47561e-05
9.1738e-05
9.02551e-05
9.03238e-05
9.17584e-05
9.65429e-05
0.000107806
0.000132612
0.000169844
0.000247857
0.000359258
0.000434876
0.000441017
0.000408444
0.000317188
0.000229217
0.000167769
0.000134372
0.000121746
0.000115383
0.000110681
0.00010666
0.000103969
0.000102218
0.000100324
9.87902e-05
9.76773e-05
9.77293e-05
9.88488e-05
0.000100305
0.000103576
0.000104752
0.000106006
0.00010521
0.000106262
0.000105845
0.000106848
0.000106483
0.000104849
0.000106757
0.000106543
0.000102618
0.000104089
0.000100673
0.000101825
9.77431e-05
9.4711e-05
9.15931e-05
9.0225e-05
9.04472e-05
9.23733e-05
9.83159e-05
0.000111579
0.000139612
0.000179497
0.000249675
0.000354905
0.000431532
0.000444152
0.000422077
0.00034372
0.000256283
0.000186517
0.000144795
0.000128773
0.000122068
0.000116744
0.000112476
0.00010878
0.000105797
0.000103336
0.000101376
9.93664e-05
9.88041e-05
0.000100061
0.00010244
0.000104777
0.00010699
0.000108232
0.000107427
0.000108657
0.000107951
0.00010909
0.000107588
0.000108786
0.000108126
0.00010588
0.000108213
0.000107829
0.000103089
0.000104864
0.000100769
0.0001021
9.77347e-05
9.46445e-05
9.14608e-05
9.02449e-05
9.06399e-05
9.3322e-05
0.000100875
0.000117016
0.00014919
0.000191809
0.000256597
0.000354791
0.000430299
0.000446759
0.000431215
0.000368971
0.000283385
0.00020745
0.000158015
0.000138127
0.000129568
0.000124604
0.000120144
0.000115248
0.000110651
0.000106971
0.000104305
0.000101909
0.000100494
0.000101211
0.000103983
0.00010716
0.000109264
0.000110481
0.000110014
0.000111316
0.000110467
0.000111839
0.000110043
0.000111515
0.000109374
0.000110855
0.000109835
0.000107056
0.000109861
0.000109296
0.000103575
0.000105816
0.000100903
0.000102301
9.7733e-05
9.45443e-05
9.13631e-05
9.03702e-05
9.09923e-05
9.46713e-05
0.000104372
0.00012433
0.000161542
0.000206948
0.000269452
0.000359625
0.000431983
0.000449985
0.000438399
0.000389046
0.000308638
0.000231143
0.000175431
0.000151007
0.00014022
0.000134843
0.000131748
0.000126968
0.000120353
0.000114178
0.000109612
0.000106349
0.00010394
0.000103605
0.000105926
0.000110032
0.000111526
0.000113136
0.000112933
0.000114616
0.000113562
0.000115334
0.000113169
0.00011511
0.000112336
0.000114291
0.000111238
0.000113091
0.000111539
0.000108314
0.000111623
0.000111097
0.00010422
0.000106766
0.000100959
0.000102656
9.77207e-05
9.43979e-05
9.13081e-05
9.06238e-05
9.1592e-05
9.65597e-05
0.000108959
0.000133779
0.000176173
0.000224522
0.000286009
0.000372724
0.000439663
0.00045663
0.000445154
0.000405209
0.000336139
0.00026105
0.000201067
0.000169072
0.000154345
0.00015035
0.000149116
0.0001456
0.000138335
0.000129293
0.000120425
0.000113786
0.0001092
0.00010739
0.000107831
0.000111982
0.000114298
0.000116453
0.0001162
0.000119427
0.000118029
0.000121942
0.000117889
0.000122894
0.000116676
0.000121645
0.000114935
0.000118708
0.000113334
0.000115639
0.000113298
0.000109978
0.000112975
0.000112122
0.000104747
0.000108199
0.000101112
0.000102789
9.77039e-05
9.42153e-05
9.13225e-05
9.09481e-05
9.2495e-05
9.90733e-05
0.000114752
0.000145312
0.000192221
0.000244005
0.000306145
0.000391334
0.000455049
0.000468058
0.000455716
0.000425715
0.000371478
0.000303287
0.000238509
0.000197526
0.000173353
0.000167041
0.000166343
0.00016561
0.000160955
0.000150901
0.000137571
0.000125324
0.000116415
0.000111586
0.000110673
0.000113928
0.00011825
0.000119821
0.000122206
0.000127993
0.000128598
0.000143236
0.000133533
0.00015651
0.000133551
0.000163018
0.00012845
0.000155145
0.000121323
0.000139018
0.000116178
0.000124325
0.000116362
0.000110772
0.000115819
0.000114395
0.000105749
0.00010892
0.000101173
0.000103171
9.77082e-05
9.40427e-05
9.14144e-05
9.13239e-05
9.37201e-05
0.000102315
0.000121756
0.000158548
0.000209155
0.000264888
0.000329359
0.000415031
0.000477183
0.000486314
0.000474183
0.00045432
0.000417178
0.000360036
0.000295458
0.000240053
0.000206184
0.000186832
0.000181509
0.000180264
0.000180442
0.000173848
0.00015814
0.000141446
0.000127122
0.0001197
0.000116678
0.000118674
0.000123337
0.000115241
0.000134135
0.000141089
0.000163243
0.000204398
0.000204757
0.000303722
0.000232836
0.000382764
0.000227402
0.000405648
0.000194572
0.000345946
0.000153588
0.000252741
0.000127262
0.000170419
0.000128566
0.00011221
0.000127515
0.000123722
0.000106419
0.000109249
0.000101037
0.000103886
9.78476e-05
9.40142e-05
9.16089e-05
9.17982e-05
9.53282e-05
0.000106387
0.000130127
0.000173092
0.000226792
0.000286476
0.000354864
0.000443576
0.000506736
0.000513424
0.000501585
0.000489143
0.000468253
0.00042829
0.000373495
0.000308663
0.000262717
0.000226576
0.00020407
0.000196166
0.000195154
0.000195207
0.000183724
0.000164475
0.000149528
0.00013845
0.000132931
0.000136831
0.000175302
0.000149579
0.000182955
0.000250402
0.000315731
0.000451014
0.000688298
0.000684077
0.00117258
0.000796229
0.00151535
0.00072684
0.00154267
0.000539344
0.00120785
0.00032686
0.000794937
0.0001858
0.00040311
0.000193108
0.000117891
0.000189495
0.000173217
0.000106177
0.000111804
0.00010124
0.000103506
9.88412e-05
9.45807e-05
9.20232e-05
9.24944e-05
9.73791e-05
0.00011125
0.000140044
0.000188214
0.000244673
0.000307932
0.000381597
0.00047615
0.000544187
0.000551189
0.000541223
0.000538422
0.000537187
0.000524693
0.000476488
0.000411661
0.00034858
0.000299055
0.000248062
0.000224831
0.000214939
0.000215841
0.000220227
0.000216506
0.000211342
0.000211567
0.000208166
0.000217293
0.000286686
0.000602483
0.000842382
0.000382117
0.000477659
0.000973898
0.00135721
0.00181494
0.00259195
0.0025123
0.00364631
0.00278352
0.00419283
0.00257175
0.00419712
0.00188122
0.00366269
0.00107015
0.00259492
0.000464337
0.00130778
0.000489
0.000149565
0.000467325
0.000396124
0.000106807
0.000127055
0.000101052
0.000103002
0.000104426
9.7649e-05
9.30428e-05
9.35401e-05
9.98732e-05
0.000116694
0.000151065
0.000202881
0.0002622
0.00032846
0.000408224
0.000511501
0.000589283
0.000601128
0.000596643
0.000609961
0.000633673
0.000643135
0.000612341
0.000547778
0.000470501
0.000404746
0.000336784
0.00028312
0.000253098
0.000245555
0.000280465
0.000373497
0.000501475
0.000618235
0.00062417
0.000591808
0.000670269
0.00108205
0.00155498
0.00273509
0.00325308
0.00178835
0.00227295
0.00343113
0.00430397
0.00480811
0.00591478
0.00556514
0.00673766
0.00571137
0.00694692
0.00540595
0.00676788
0.00462739
0.00628018
0.00321542
0.00534932
0.00145876
0.00365915
0.00149364
0.000295982
0.0013887
0.00113292
0.000111652
0.000201189
0.0001005
0.000103659
0.000122889
0.000109863
9.6247e-05
9.51696e-05
0.000102874
0.000122761
0.000162568
0.000217319
0.000278349
0.000347471
0.000433218
0.000547891
0.000641109
0.000663887
0.000672017
0.000712693
0.000780862
0.000836512
0.000849337
0.00079863
0.000697931
0.000591789
0.000505635
0.000406513
0.000331611
0.000299035
0.000392533
0.000808332
0.00153617
0.00232381
0.00247409
0.00208319
0.00202929
0.00211453
0.00271186
0.00368665
0.00432463
0.00648857
0.00691665
0.00515523
0.0058778
0.00688433
0.00769441
0.00766206
0.00834353
0.00784868
0.00850235
0.00773653
0.00844228
0.00747592
0.00837193
0.00693438
0.00814903
0.00583738
0.00754803
0.00384834
0.00621445
0.00383784
0.000794968
0.00351358
0.00289134
0.000139241
0.000490322
0.000100558
0.000111227
0.000153115
0.000146666
0.000108465
9.84883e-05
0.000106414
0.000129701
0.000174696
0.00023048
0.00029305
0.000364028
0.000455285
0.00058293
0.000697594
0.00073957
0.000771238
0.000865525
0.00102923
0.00123662
0.00135316
0.00137081
0.0012473
0.00103149
0.000840299
0.000657997
0.000502965
0.0004037
0.000534983
0.00151179
0.00367947
0.00582781
0.00600477
0.00504648
0.00444486
0.00528475
0.00469826
0.00559985
0.00721138
0.0073949
0.00905858
0.00918491
0.00831408
0.00876119
0.00886046
0.00924898
0.00897328
0.00932602
0.00900764
0.00951642
0.00911292
0.00987856
0.00919127
0.0102575
0.00895152
0.0103485
0.00811438
0.00995829
0.00641496
0.00872173
0.00652715
0.00210805
0.00634816
0.00577842
0.000264662
0.00135806
0.000102797
0.000145913
0.000164663
0.000144789
0.000107749
0.000110572
0.000137711
0.000185854
0.000242665
0.000304903
0.00037778
0.000472896
0.00061418
0.000755549
0.000826476
0.000897903
0.00108913
0.00147507
0.00198408
0.00248523
0.00273234
0.00261785
0.00220063
0.00164661
0.00116162
0.000833314
0.000626188
0.000741917
0.00220204
0.0056537
0.00793093
0.00785379
0.00674722
0.00563927
0.00574883
0.007408
0.00722213
0.00751509
0.00749598
0.0091704
0.00907791
0.0097571
0.00972873
0.00953295
0.00971241
0.00961268
0.00983107
0.00996205
0.0103905
0.0106492
0.0113983
0.0112201
0.0123846
0.0117213
0.0131242
0.0116982
0.0135001
0.010929
0.0132854
0.00914607
0.0118892
0.00955518
0.00474403
0.00953178
0.00902721
0.000696264
0.00329917
0.000107575
0.000292711
0.000169148
0.000132948
0.000116669
0.000145136
0.000196786
0.000251322
0.000314222
0.000387393
0.000485419
0.000638292
0.000810675
0.000920386
0.00105137
0.00140394
0.00214511
0.00318147
0.00416339
0.0045944
0.00449812
0.00399434
0.00322778
0.0023346
0.00152648
0.0010244
0.00103075
0.00274276
0.00693827
0.00886382
0.00852751
0.00760974
0.00655539
0.00619006
0.00703972
0.00675633
0.00815719
0.00775011
0.00886571
0.00853554
0.00963141
0.0094151
0.0100522
0.00999364
0.010001
0.0100661
0.0107918
0.0111037
0.0120541
0.0127592
0.0134545
0.0143847
0.014376
0.0152128
0.0149065
0.0155676
0.0152249
0.01605
0.0146475
0.0164697
0.0127345
0.0157391
0.0132055
0.00802711
0.0132719
0.0129257
0.0105851
0.00196664
0.00647546
0.000139784
0.00118038
0.000169972
0.000134455
0.00014855
0.000204297
0.000258727
0.00031924
0.000393187
0.00049129
0.000653658
0.000857301
0.00101334
0.00122226
0.00178892
0.00300247
0.00463301
0.00593825
0.00645618
0.00635973
0.00582744
0.00498706
0.00393646
0.00282606
0.00187694
0.00153711
0.00324135
0.00768037
0.00928365
0.00863802
0.00791785
0.00767688
0.00768717
0.0078581
0.00756407
0.00771053
0.00840914
0.0082351
0.00910708
0.00875266
0.00986741
0.00966604
0.0113972
0.0113295
0.0113361
0.0114164
0.0133365
0.0137227
0.0151573
0.0156592
0.0158271
0.0162716
0.0159274
0.016209
0.0162074
0.0161634
0.0168873
0.0166693
0.0174465
0.0175647
0.0166469
0.018117
0.017459
0.0152043
0.0169305
0.0124081
0.00933012
0.0118655
0.0149472
0.0169916
0.0169658
0.0146946
0.0050513
0.0110854
0.0103666
0.00790676
0.000889219
0.00676539
0.000177697
0.000157412
0.000207691
0.000262403
0.000321591
0.000394063
0.000491613
0.000657394
0.000891122
0.00109604
0.00138452
0.00218007
0.00389657
0.00607404
0.00755991
0.00807513
0.0079387
0.0073818
0.00652462
0.00545215
0.00425242
0.00309505
0.0024194
0.00371032
0.00800458
0.00936077
0.00860466
0.00787186
0.00813846
0.00939355
0.0107251
0.00929649
0.0109986
0.00827514
0.00855297
0.00920766
0.00927828
0.00944618
0.00924912
0.0111986
0.0110165
0.0139323
0.0138022
0.0139449
0.0139845
0.015934
0.0160369
0.0165381
0.0167121
0.0164368
0.0165416
0.0159988
0.0156864
0.0160353
0.0151097
0.017151
0.0167361
0.0162042
0.0156068
0.01819
0.0179747
0.0168879
0.0168929
0.0175222
0.0184364
0.0180495
0.0187883
0.0185242
0.0183084
0.0142094
0.0135612
0.0167513
0.0183873
0.0184214
0.0164177
0.00962855
0.00778389
0.00941629
0.0128099
0.0120027
0.0125837
0.0102574
0.0127394
0.0142055
0.000197128
0.000212479
0.000264442
0.000320059
0.000388985
0.000485075
0.000651337
0.000907247
0.00116167
0.001516
0.00251001
0.00468077
0.00734857
0.00888601
0.00931994
0.00912033
0.0085406
0.00769085
0.00665637
0.00549511
0.00430734
0.00346888
0.00432772
0.00804951
0.00930913
0.00851834
0.0075926
0.00784711
0.00910853
0.0110348
0.0131059
0.011571
0.0130803
0.0095661
0.0102799
0.0109365
0.0111608
0.0108665
0.0108642
0.013603
0.0133752
0.0157039
0.0154748
0.0160076
0.0159003
0.0167055
0.0166244
0.016462
0.0161855
0.015353
0.0148916
0.0143125
0.0137271
0.0150665
0.0145555
0.0141956
0.0138621
0.0162355
0.015585
0.0149896
0.0182631
0.0176943
0.0162596
0.0163054
0.0170051
0.0188343
0.019027
0.0190962
0.0185067
0.0192466
0.0159066
0.0152329
0.0182453
0.0193766
0.0194188
0.0179304
0.0113275
0.0112194
0.0144268
0.0135358
0.0201032
0.00452963
0.0175434
0.0123626
0.0149574
0.000237068
0.00026654
0.00031517
0.000374746
0.000465131
0.000633165
0.000906691
0.00120309
0.00160779
0.00273173
0.00528558
0.0083729
0.00984844
0.0101495
0.00991008
0.00930144
0.00845849
0.00748062
0.00639255
0.00529054
0.00447265
0.00497961
0.00802015
0.00914742
0.0085129
0.00755131
0.0071233
0.00751768
0.00931291
0.0116575
0.0141061
0.0135715
0.0135732
0.0141404
0.0116753
0.0125663
0.0131645
0.0133181
0.0131826
0.0131258
0.0152212
0.0149587
0.0160101
0.015773
0.0164495
0.0162371
0.01575
0.01535
0.0141689
0.0133066
0.0131843
0.0123762
0.0136422
0.0134357
0.0132228
0.0129677
0.0145404
0.0141985
0.0139448
0.0137403
0.0156392
0.0151344
0.0147431
0.0178642
0.0171114
0.0157536
0.01594
0.016419
0.0187225
0.0193663
0.018969
0.0180214
0.0195981
0.0174333
0.0167514
0.019358
0.019782
0.0199061
0.0191283
0.0127805
0.0125556
0.0158718
0.0148623
0.0182664
0.00362473
0.0133299
0.0135644
0.0154501
0.000275166
0.000307652
0.000358879
0.000438821
0.000598303
0.00088839
0.0012198
0.0016513
0.00282703
0.00567151
0.00911513
0.0104917
0.0106792
0.0103997
0.00975997
0.00891554
0.00797705
0.00699739
0.00604129
0.00532364
0.00566504
0.00796029
0.0091378
0.00866006
0.00777032
0.00699392
0.00512707
0.00433747
0.00585834
0.00798746
0.0138323
0.0117491
0.0145321
0.0144704
0.0136845
0.0141818
0.0145163
0.0145379
0.0147297
0.0145698
0.0155223
0.0152709
0.014793
0.0146757
0.0150704
0.0149051
0.0125263
0.0120201
0.0112354
0.0100071
0.012658
0.0121889
0.0117267
0.0110728
0.0135825
0.0134071
0.013194
0.0128968
0.014452
0.0142614
0.0141507
0.0140566
0.0153637
0.0150743
0.0149036
0.017227
0.0165475
0.0156401
0.0159508
0.0161425
0.0182072
0.0192284
0.0184302
0.0173648
0.0194917
0.018697
0.0180249
0.019946
0.0197428
0.0199621
0.0198535
0.0139159
0.0135344
0.0170856
0.0159498
0.0155981
0.00359726
0.0119071
0.0143716
0.0154478
0.000304362
0.000346024
0.000406282
0.000554352
0.000842345
0.00121692
0.00164939
0.00282077
0.00578564
0.00956128
0.0108919
0.0110151
0.0106266
0.00997718
0.00922175
0.00835983
0.00752278
0.00670603
0.00609098
0.00640692
0.00801798
0.00924262
0.00910931
0.00851599
0.00727182
0.0041193
0.00191593
0.0020284
0.00287142
0.00651365
0.00378835
0.0121952
0.00943875
0.0144603
0.0137809
0.0146285
0.0146403
0.0146922
0.014557
0.0150394
0.0148452
0.0145322
0.0143664
0.0122148
0.0124091
0.0119034
0.0120071
0.00899975
0.00839996
0.0100571
0.00879166
0.0125115
0.0120226
0.0114847
0.0108877
0.0139349
0.0137361
0.0134521
0.0130795
0.0148371
0.0148216
0.0147972
0.0147051
0.0154985
0.0154886
0.0155449
0.0166924
0.0163413
0.0159611
0.0163808
0.0162575
0.0175382
0.0186815
0.0177437
0.0168478
0.0189629
0.0195609
0.0189816
0.0201088
0.0192573
0.0195714
0.0201176
0.0148942
0.0145829
0.0180477
0.0168851
0.0143594
0.00345157
0.0121901
0.0152177
0.0153412
0.000325749
0.000387244
0.000492988
0.00078869
0.00117964
0.00162289
0.00267438
0.00568686
0.00973614
0.0111259
0.0111757
0.0106407
0.0100181
0.00939479
0.00872203
0.00807309
0.00739866
0.00696288
0.00715404
0.00830055
0.00949347
0.00995953
0.00985929
0.00831734
0.00405266
0.00123424
0.000821524
0.00100672
0.00132542
0.00439027
0.00245371
0.00961433
0.00690458
0.0131964
0.0117899
0.0143688
0.0139815
0.0137865
0.013508
0.0141838
0.0139918
0.0125187
0.0125367
0.00897195
0.00948853
0.00821033
0.00847083
0.00774391
0.0070477
0.0105619
0.00998407
0.00885848
0.00945225
0.012632
0.012133
0.0116148
0.011092
0.014519
0.0142439
0.013892
0.0134917
0.0156083
0.0156282
0.0155521
0.0153717
0.0160886
0.0162487
0.0163594
0.0165396
0.0165136
0.0166144
0.0170045
0.016716
0.0170187
0.0179851
0.0172035
0.0167253
0.018264
0.0199457
0.0195192
0.0198653
0.0185732
0.0189304
0.0200345
0.0159725
0.0157993
0.0187584
0.0178041
0.0138615
0.00697114
0.0130452
0.0160329
0.0154419
0.000349296
0.000459592
0.000685503
0.00113229
0.00155623
0.00244584
0.00521678
0.00969324
0.0112411
0.0112259
0.0105032
0.00994681
0.00943281
0.00893838
0.00849146
0.00805513
0.00771733
0.00784119
0.00865084
0.00997136
0.0111168
0.0114931
0.00975765
0.0044302
0.00112812
0.00051857
0.000499382
0.000609322
0.0010935
0.000708974
0.00290401
0.00169837
0.00698319
0.00470304
0.0110003
0.009218
0.0130377
0.0122404
0.0120574
0.011631
0.0124685
0.0123136
0.00988991
0.0101252
0.00594474
0.00637593
0.00639814
0.00604342
0.00835961
0.00778417
0.00733362
0.0116192
0.01124
0.010334
0.0108158
0.013077
0.0126832
0.0123272
0.011989
0.0151053
0.0147833
0.0144509
0.0141556
0.016368
0.0162806
0.0161005
0.0158529
0.0168278
0.0168969
0.016858
0.0167251
0.016959
0.017186
0.0173786
0.0172542
0.0168919
0.0174057
0.0170435
0.0168898
0.0176331
0.0199861
0.0197083
0.0193293
0.0178988
0.0182347
0.0196778
0.0171285
0.0169785
0.0192196
0.0186429
0.0142136
0.00194228
0.0103724
0.0168074
0.016029
0.000393523
0.000624507
0.00101956
0.00150407
0.00218517
0.00455275
0.00931509
0.0112638
0.0112242
0.0102015
0.00965928
0.009371
0.00896153
0.00869993
0.00841407
0.00823736
0.00835266
0.00921168
0.0108724
0.0127128
0.0131862
0.0111191
0.00491792
0.00118503
0.000447255
0.00036302
0.000404697
0.000467821
0.000786941
0.000580812
0.00186515
0.00116881
0.00471357
0.00303882
0.00842551
0.00663988
0.010944
0.009869
0.00980907
0.00928824
0.0101899
0.0100946
0.00693732
0.00733268
0.00475192
0.00426123
0.00628873
0.00544974
0.00976355
0.00908248
0.010516
0.00949676
0.013536
0.0133589
0.0126566
0.0130741
0.0139271
0.0137889
0.0137191
0.01365
0.0155808
0.0153426
0.0151911
0.0151717
0.0167233
0.0165354
0.0163186
0.0161278
0.0172147
0.0171247
0.0169304
0.0171367
0.0173956
0.01737
0.0174007
0.0174783
0.0170148
0.017177
0.0171025
0.017244
0.0172999
0.0198103
0.0196843
0.0186429
0.0174332
0.0175922
0.0190715
0.0182192
0.0180213
0.019478
0.0192909
0.0142759
0.00104092
0.0064155
0.0177369
0.0170341
0.000499438
0.000934689
0.00139126
0.00200914
0.00378077
0.00844311
0.0111979
0.0112094
0.00987443
0.00932615
0.00910314
0.00889344
0.00872906
0.00860801
0.00864988
0.00918123
0.0104072
0.0124098
0.0148184
0.0147525
0.0124224
0.00501852
0.00126756
0.000435925
0.000316447
0.000329946
0.000370068
0.000455518
0.000400993
0.000627672
0.00051537
0.00117917
0.000816737
0.0028784
0.00182707
0.00586214
0.00430393
0.00846447
0.00730003
0.00718475
0.00660716
0.00751373
0.00747895
0.00412051
0.00429446
0.00483442
0.00370016
0.00857722
0.00751118
0.00653142
0.0120759
0.0113462
0.0128237
0.0116505
0.0160459
0.0160438
0.0154413
0.0158546
0.0152494
0.0154561
0.015711
0.0159312
0.0160118
0.0160199
0.016178
0.0164908
0.0166944
0.0164863
0.0163738
0.0163744
0.0171793
0.0168798
0.0165839
0.0174891
0.0175439
0.0171084
0.0170546
0.0174022
0.0172831
0.0171493
0.0172421
0.0175328
0.0171516
0.0194004
0.0195631
0.0179316
0.0170605
0.0169938
0.0183178
0.0191458
0.0190351
0.0196449
0.0197222
0.0132055
0.000345257
0.00355177
0.0189328
0.0176872
0.000740016
0.00130826
0.00179305
0.00316052
0.00713399
0.0109697
0.0111927
0.00957338
0.00896822
0.00874033
0.00867459
0.0086982
0.00882525
0.00944189
0.0105181
0.0122513
0.0149112
0.0163162
0.016312
0.0125121
0.00490239
0.00128172
0.000436718
0.000300244
0.000294309
0.000319137
0.000346652
0.000421697
0.000380906
0.000538136
0.00047265
0.000805859
0.000638971
0.00160411
0.00109927
0.00346212
0.0023993
0.00574079
0.00464126
0.00423507
0.00373579
0.00446188
0.00449301
0.00294769
0.00243105
0.00686868
0.00560589
0.00437512
0.0104048
0.00910005
0.00804437
0.0095121
0.0147771
0.0138874
0.0150852
0.0136927
0.0187601
0.0188332
0.0182275
0.0186917
0.0169278
0.0174475
0.0179699
0.0184358
0.0165184
0.0168331
0.0173031
0.0178931
0.0163954
0.0163528
0.0164294
0.0166794
0.0167191
0.0163616
0.0161839
0.0175914
0.0174517
0.0166093
0.0166559
0.0170952
0.0175011
0.0171393
0.017304
0.0175807
0.0169233
0.0188062
0.019292
0.0171262
0.0165528
0.0162192
0.0175651
0.0198704
0.0200467
0.0196913
0.0200727
0.0115371
0.000146365
0.0015157
0.0200668
0.0179894
0.00110148
0.00168788
0.00254114
0.00581372
0.0103883
0.0111723
0.00936432
0.00855701
0.0084147
0.00842352
0.00858996
0.00920293
0.0103415
0.0120339
0.0144364
0.0165321
0.017559
0.0168122
0.0119526
0.00438224
0.00125575
0.000438552
0.000297854
0.000277738
0.000288806
0.000309583
0.000346457
0.000324737
0.0003981
0.000366879
0.000483814
0.000434643
0.00063034
0.00054511
0.000962345
0.000758799
0.001754
0.00128226
0.00307602
0.00237517
0.00193508
0.00169182
0.0022129
0.00210432
0.00286573