/*--------------------------------*- C++ -*----------------------------------*\
  =========                 |
  \\      /  F ield         | OpenFOAM: The Open Source CFD Toolbox
   \\    /   O peration     | Website:  https://openfoam.org
    \\  /    A nd           | Version:  dev
     \\/     M anipulation  |
\*---------------------------------------------------------------------------*/
FoamFile
{
    version     2.0;
    format      ascii;
    class       volScalarField;
    location    "2500";
    object      N2;
}
// * * * * * * * * * * * * * * * * * * * * * * * * * * * * * * * * * * * * * //

dimensions      [0 0 0 0 0 0 0];

internalField   nonuniform List<scalar> 
9836
(
0.76699
0.76699
0.76699
0.76699
0.76699
0.76699
0.76699
0.76699
0.76699
0.76699
0.76699
0.76699
0.76699
0.76699
0.76699
0.76699
0.76699
0.76699
0.76699
0.76699
0.76699
0.76699
0.76699
0.76699
0.76699
0.76699
0.76699
0.76699
0.76699
0.76699
0.76699
0.76699
0.76699
0.76699
0.76699
0.76699
0.76699
0.76699
0.76699
0.76699
0.76699
0.76699
0.76699
0.76699
0.76699
0.76699
0.76699
0.76699
0.76699
0.76699
0.76699
0.76699
0.76699
0.76699
0.76699
0.76699
0.76699
0.76699
0.76699
0.76699
0.76699
0.76699
0.76699
0.76699
0.76699
0.76699
0.76699
0.76699
0.76699
0.76699
0.76699
0.76699
0.76699
0.76699
0.76699
0.76699
0.76699
0.76699
0.76699
0.76699
0.76699
0.76699
0.76699
0.76699
0.76699
0.76699
0.76699
0.76699
0.76699
0.76699
0.76699
0.76699
0.76699
0.76699
0.76699
0.76699
0.76699
0.76699
0.76699
0.76699
0.76699
0.76699
0.76699
0.76699
0.76699
0.76699
0.76699
0.76699
0.76699
0.76699
0.76699
0.76699
0.76699
0.76699
0.76699
0.76699
0.76699
0.76699
0.76699
0.76699
0.76699
0.76699
0.76699
0.76699
0.76699
0.76699
0.76699
0.76699
0.76699
0.76699
0.76699
0.76699
0.76699
0.76699
0.76699
0.76699
0.76699
0.76699
0.76699
0.76699
0.76699
0.76699
0.76699
0.76699
0.76699
0.76699
0.76699
0.76699
0.76699
0.76699
0.76699
0.76699
0.76699
0.76699
0.76699
0.76699
0.76699
0.76699
0.76699
0.76699
0.76699
0.76699
0.76699
0.76699
0.76699
0.76699
0.76699
0.76699
0.76699
0.76699
0.76699
0.76699
0.76699
0.76699
0.76699
0.76699
0.76699
0.76699
0.76699
0.76699
0.76699
0.76699
0.76699
0.76699
0.76699
0.76699
0.76699
0.76699
0.76699
0.76699
0.76699
0.76699
0.76699
0.76699
0.76699
0.76699
0.76699
0.76699
0.76699
0.76699
0.76699
0.76699
0.76699
0.76699
0.76699
0.76699
0.76699
0.76699
0.76699
0.76699
0.76699
0.76699
0.76699
0.76699
0.76699
0.76699
0.76699
0.76699
0.76699
0.76699
0.76699
0.76699
0.76699
0.76699
0.76699
0.76699
0.76699
0.76699
0.76699
0.76699
0.76699
0.76699
0.76699
0.76699
0.76699
0.76699
0.76699
0.76699
0.76699
0.76699
0.76699
0.76699
0.76699
0.76699
0.76699
0.76699
0.76699
0.76699
0.76699
0.76699
0.76699
0.76699
0.76699
0.76699
0.76699
0.76699
0.76699
0.76699
0.76699
0.76699
0.76699
0.76699
0.76699
0.76699
0.76699
0.76699
0.76699
0.76699
0.76699
0.76699
0.76699
0.76699
0.76699
0.76699
0.76699
0.76699
0.76699
0.76699
0.76699
0.76699
0.76699
0.76699
0.76699
0.76699
0.76699
0.76699
0.76699
0.76699
0.76699
0.76699
0.76699
0.76699
0.76699
0.76699
0.76699
0.76699
0.76699
0.76699
0.76699
0.76699
0.76699
0.76699
0.76699
0.76699
0.76699
0.76699
0.76699
0.76699
0.76699
0.76699
0.76699
0.76699
0.76699
0.76699
0.76699
0.76699
0.76699
0.76699
0.76699
0.76699
0.76699
0.76699
0.76699
0.76699
0.76699
0.76699
0.76699
0.76699
0.76699
0.76699
0.76699
0.76699
0.76699
0.76699
0.76699
0.76699
0.76699
0.76699
0.76699
0.76699
0.76699
0.76699
0.76699
0.76699
0.76699
0.76699
0.76699
0.76699
0.76699
0.76699
0.76699
0.76699
0.76699
0.76699
0.76699
0.76699
0.76699
0.76699
0.76699
0.76699
0.76699
0.76699
0.76699
0.76699
0.76699
0.76699
0.76699
0.76699
0.76699
0.76699
0.76699
0.76699
0.76699
0.76699
0.76699
0.76699
0.76699
0.76699
0.76699
0.76699
0.76699
0.76699
0.76699
0.76699
0.76699
0.76699
0.76699
0.76699
0.76699
0.76699
0.76699
0.76699
0.76699
0.76699
0.76699
0.76699
0.76699
0.76699
0.76699
0.76699
0.76699
0.76699
0.76699
0.76699
0.76699
0.76699
0.76699
0.76699
0.76699
0.76699
0.76699
0.76699
0.76699
0.76699
0.76699
0.76699
0.76699
0.76699
0.76699
0.76699
0.76699
0.76699
0.76699
0.76699
0.76699
0.76699
0.76699
0.76699
0.76699
0.76699
0.76699
0.76699
0.76699
0.76699
0.76699
0.76699
0.76699
0.76699
0.76699
0.76699
0.76699
0.76699
0.76699
0.76699
0.76699
0.76699
0.76699
0.76699
0.76699
0.76699
0.76699
0.76699
0.76699
0.76699
0.76699
0.76699
0.76699
0.76699
0.76699
0.76699
0.76699
0.76699
0.76699
0.76699
0.76699
0.76699
0.76699
0.76699
0.76699
0.76699
0.76699
0.76699
0.76699
0.76699
0.76699
0.76699
0.76699
0.76699
0.76699
0.76699
0.76699
0.76699
0.76699
0.76699
0.76699
0.76699
0.76699
0.76699
0.76699
0.76699
0.76699
0.76699
0.76699
0.76699
0.76699
0.76699
0.76699
0.76699
0.76699
0.76699
0.76699
0.76699
0.76699
0.76699
0.76699
0.76699
0.76699
0.76699
0.76699
0.76699
0.76699
0.76699
0.76699
0.76699
0.76699
0.76699
0.76699
0.76699
0.76699
0.76699
0.76699
0.76699
0.76699
0.76699
0.76699
0.76699
0.76699
0.76699
0.76699
0.76699
0.76699
0.76699
0.76699
0.76699
0.76699
0.76699
0.76699
0.76699
0.76699
0.76699
0.76699
0.76699
0.76699
0.76699
0.76699
0.76699
0.76699
0.76699
0.76699
0.76699
0.76699
0.76699
0.76699
0.76699
0.76699
0.76699
0.76699
0.76699
0.76699
0.76699
0.76699
0.76699
0.76699
0.76699
0.76699
0.76699
0.76699
0.76699
0.76699
0.76699
0.76699
0.76699
0.76699
0.76699
0.76699
0.76699
0.76699
0.76699
0.76699
0.76699
0.76699
0.76699
0.76699
0.76699
0.76699
0.76699
0.76699
0.76699
0.76699
0.76699
0.76699
0.76699
0.76699
0.76699
0.76699
0.76699
0.76699
0.76699
0.76699
0.76699
0.76699
0.76699
0.76699
0.76699
0.76699
0.76699
0.76699
0.76699
0.76699
0.76699
0.76699
0.76699
0.76699
0.76699
0.76699
0.76699
0.76699
0.76699
0.76699
0.76699
0.76699
0.76699
0.76699
0.76699
0.76699
0.76699
0.76699
0.76699
0.76699
0.76699
0.76699
0.76699
0.76699
0.76699
0.76699
0.76699
0.76699
0.76699
0.76699
0.76699
0.76699
0.76699
0.76699
0.76699
0.76699
0.76699
0.76699
0.76699
0.76699
0.76699
0.76699
0.76699
0.76699
0.76699
0.76699
0.76699
0.76699
0.76699
0.76699
0.76699
0.76699
0.76699
0.76699
0.76699
0.76699
0.76699
0.76699
0.76699
0.76699
0.76699
0.76699
0.76699
0.76699
0.76699
0.76699
0.76699
0.76699
0.76699
0.76699
0.76699
0.76699
0.76699
0.76699
0.76699
0.76699
0.76699
0.76699
0.76699
0.76699
0.76699
0.76699
0.76699
0.76699
0.76699
0.76699
0.76699
0.76699
0.76699
0.76699
0.76699
0.76699
0.76699
0.76699
0.76699
0.76699
0.76699
0.76699
0.76699
0.76699
0.76699
0.76699
0.76699
0.76699
0.76699
0.76699
0.76699
0.76699
0.76699
0.76699
0.76699
0.76699
0.76699
0.76699
0.76699
0.76699
0.76699
0.76699
0.76699
0.76699
0.76699
0.76699
0.76699
0.76699
0.76699
0.76699
0.76699
0.76699
0.76699
0.76699
0.76699
0.76699
0.76699
0.76699
0.76699
0.76699
0.76699
0.76699
0.76699
0.76699
0.76699
0.76699
0.76699
0.76699
0.76699
0.76699
0.76699
0.76699
0.76699
0.76699
0.76699
0.76699
0.76699
0.76699
0.76699
0.76699
0.76699
0.76699
0.76699
0.76699
0.76699
0.76699
0.76699
0.76699
0.76699
0.76699
0.76699
0.76699
0.76699
0.76699
0.76699
0.76699
0.76699
0.76699
0.76699
0.76699
0.76699
0.76699
0.76699
0.76699
0.76699
0.76699
0.76699
0.76699
0.76699
0.76699
0.76699
0.76699
0.76699
0.76699
0.76699
0.76699
0.76699
0.76699
0.76699
0.76699
0.76699
0.76699
0.76699
0.76699
0.76699
0.76699
0.76699
0.76699
0.76699
0.76699
0.76699
0.76699
0.76699
0.76699
0.76699
0.76699
0.76699
0.76699
0.76699
0.76699
0.76699
0.76699
0.76699
0.76699
0.76699
0.76699
0.76699
0.76699
0.76699
0.76699
0.76699
0.76699
0.76699
0.76699
0.76699
0.76699
0.76699
0.76699
0.76699
0.76699
0.76699
0.76699
0.76699
0.76699
0.76699
0.76699
0.76699
0.76699
0.76699
0.76699
0.76699
0.76699
0.76699
0.76699
0.76699
0.76699
0.76699
0.76699
0.76699
0.76699
0.76699
0.76699
0.76699
0.76699
0.76699
0.76699
0.76699
0.76699
0.76699
0.76699
0.76699
0.76699
0.76699
0.76699
0.76699
0.76699
0.76699
0.76699
0.76699
0.76699
0.76699
0.76699
0.76699
0.76699
0.76699
0.76699
0.76699
0.76699
0.76699
0.76699
0.76699
0.76699
0.76699
0.76699
0.76699
0.76699
0.76699
0.76699
0.76699
0.76699
0.76699
0.76699
0.76699
0.76699
0.76699
0.76699
0.76699
0.76699
0.76699
0.76699
0.76699
0.76699
0.76699
0.76699
0.76699
0.76699
0.76699
0.76699
0.76699
0.76699
0.76699
0.76699
0.76699
0.76699
0.76699
0.76699
0.76699
0.76699
0.76699
0.76699
0.76699
0.76699
0.76699
0.76699
0.76699
0.76699
0.76699
0.76699
0.76699
0.76699
0.76699
0.76699
0.76699
0.76699
0.76699
0.76699
0.76699
0.76699
0.76699
0.76699
0.76699
0.76699
0.76699
0.76699
0.76699
0.76699
0.76699
0.76699
0.76699
0.76699
0.76699
0.76699
0.76699
0.76699
0.76699
0.76699
0.76699
0.76699
0.76699
0.76699
0.76699
0.76699
0.76699
0.76699
0.76699
0.76699
0.76699
0.76699
0.76699
0.76699
0.76699
0.76699
0.76699
0.76699
0.76699
0.76699
0.76699
0.76699
0.76699
0.76699
0.76699
0.76699
0.76699
0.76699
0.76699
0.76699
0.76699
0.76699
0.76699
0.76699
0.76699
0.76699
0.76699
0.76699
0.76699
0.76699
0.76699
0.76699
0.76699
0.76699
0.76699
0.76699
0.76699
0.76699
0.76699
0.76699
0.76699
0.76699
0.76699
0.76699
0.76699
0.76699
0.76699
0.76699
0.76699
0.76699
0.76699
0.76699
0.76699
0.76699
0.76699
0.76699
0.76699
0.76699
0.76699
0.76699
0.76699
0.76699
0.76699
0.76699
0.76699
0.766989
0.766989
0.766989
0.766988
0.766989
0.766987
0.766989
0.766987
0.76699
0.766988
0.76699
0.766989
0.76699
0.76699
0.76699
0.76699
0.76699
0.76699
0.76699
0.76699
0.76699
0.76699
0.76699
0.76699
0.76699
0.76699
0.76699
0.76699
0.76699
0.76699
0.76699
0.76699
0.76699
0.76699
0.76699
0.76699
0.76699
0.76699
0.76699
0.76699
0.76699
0.76699
0.76699
0.76699
0.76699
0.76699
0.76699
0.76699
0.76699
0.76699
0.76699
0.76699
0.76699
0.766989
0.766989
0.766989
0.766988
0.766985
0.766984
0.766978
0.766982
0.766971
0.766981
0.766967
0.766983
0.76697
0.766986
0.766977
0.766989
0.766985
0.766989
0.76699
0.766989
0.766989
0.76699
0.76699
0.76699
0.76699
0.76699
0.76699
0.76699
0.76699
0.76699
0.76699
0.76699
0.76699
0.76699
0.76699
0.76699
0.76699
0.76699
0.76699
0.76699
0.76699
0.76699
0.76699
0.76699
0.76699
0.76699
0.76699
0.76699
0.76699
0.76699
0.76699
0.76699
0.76699
0.76699
0.766989
0.766989
0.766989
0.766987
0.766989
0.766987
0.766983
0.766981
0.766969
0.766956
0.76695
0.766917
0.766936
0.766881
0.766937
0.766868
0.766951
0.766889
0.766969
0.766923
0.766983
0.76696
0.766981
0.766989
0.766981
0.766983
0.76699
0.76699
0.76699
0.76699
0.76699
0.76699
0.76699
0.76699
0.76699
0.76699
0.76699
0.76699
0.76699
0.76699
0.76699
0.76699
0.76699
0.76699
0.76699
0.76699
0.76699
0.766989
0.766989
0.766989
0.766989
0.766989
0.76699
0.76699
0.76699
0.76699
0.76699
0.766989
0.766987
0.766985
0.766984
0.766983
0.766979
0.766968
0.76696
0.766978
0.766974
0.766942
0.766923
0.766877
0.76683
0.766807
0.766724
0.766763
0.766641
0.766764
0.766606
0.766817
0.766634
0.76689
0.766732
0.766951
0.766857
0.766946
0.766985
0.766947
0.766954
0.76699
0.766988
0.76699
0.76699
0.76699
0.76699
0.76699
0.76699
0.76699
0.76699
0.76699
0.76699
0.76699
0.76699
0.76699
0.76699
0.76699
0.76699
0.76699
0.766989
0.766989
0.766988
0.766987
0.766986
0.766987
0.766988
0.766989
0.766989
0.76699
0.76699
0.766989
0.766984
0.766974
0.766962
0.766956
0.766956
0.766952
0.766943
0.766922
0.766866
0.766843
0.766904
0.766883
0.766784
0.766737
0.766641
0.766562
0.766514
0.766396
0.766439
0.766277
0.766428
0.766223
0.766493
0.766244
0.766642
0.766356
0.766831
0.766568
0.766819
0.766966
0.766825
0.766854
0.766989
0.766978
0.76699
0.76699
0.76699
0.76699
0.76699
0.76699
0.76699
0.76699
0.76699
0.76699
0.76699
0.76699
0.76699
0.76699
0.76699
0.76699
0.766989
0.766988
0.766986
0.766982
0.76698
0.766979
0.76698
0.766983
0.766985
0.766987
0.766989
0.766989
0.766986
0.766969
0.766924
0.766868
0.76685
0.766862
0.766873
0.766873
0.766846
0.766821
0.76678
0.766631
0.766604
0.766695
0.76666
0.766491
0.766429
0.766291
0.766199
0.766127
0.765999
0.766032
0.765859
0.766008
0.765792
0.766067
0.765804
0.766229
0.76591
0.766517
0.766132
0.7665
0.766896
0.766525
0.766604
0.766985
0.766938
0.76699
0.766989
0.76699
0.76699
0.76699
0.76699
0.76699
0.76699
0.76699
0.76699
0.76699
0.76699
0.76699
0.76699
0.76699
0.76699
0.766989
0.766985
0.766979
0.766969
0.76696
0.766956
0.766958
0.766966
0.766975
0.766982
0.766986
0.766988
0.766984
0.766948
0.766835
0.766685
0.766592
0.766611
0.766692
0.766652
0.766742
0.766645
0.766579
0.766546
0.766313
0.766291
0.76638
0.766342
0.766121
0.766058
0.76589
0.765799
0.765711
0.7656
0.765612
0.765485
0.765582
0.765437
0.765629
0.765439
0.76578
0.765502
0.766071
0.765689
0.766054
0.766708
0.76608
0.766176
0.76697
0.766822
0.76699
0.766986
0.76699
0.76699
0.76699
0.76699
0.76699
0.76699
0.76699
0.76699
0.76699
0.76699
0.76699
0.76699
0.766989
0.766987
0.76698
0.766964
0.766938
0.766912
0.766895
0.766898
0.766916
0.766943
0.766966
0.766979
0.766985
0.766982
0.76693
0.766757
0.766496
0.766316
0.766255
0.766315
0.766432
0.766388
0.766298
0.76651
0.766449
0.76627
0.766247
0.765957
0.765942
0.766011
0.765979
0.76573
0.765682
0.765528
0.765486
0.765416
0.765382
0.765358
0.765321
0.765334
0.765285
0.765348
0.765273
0.765427
0.765293
0.765642
0.765383
0.76564
0.766346
0.76568
0.765778
0.766921
0.766579
0.76699
0.766975
0.76699
0.76699
0.76699
0.76699
0.76699
0.76699
0.76699
0.76699
0.76699
0.76699
0.76699
0.766989
0.766985
0.766973
0.766941
0.76689
0.766838
0.766808
0.766808
0.766835
0.766877
0.766924
0.766962
0.766979
0.76698
0.766919
0.766697
0.766374
0.766133
0.766011
0.765965
0.766025
0.7662
0.766096
0.766123
0.766049
0.766217
0.766175
0.765931
0.76592
0.76563
0.765629
0.765652
0.765636
0.765465
0.765459
0.765373
0.765379
0.765318
0.765327
0.765276
0.765285
0.765245
0.765247
0.765235
0.765217
0.76526
0.765208
0.765363
0.76524
0.765366
0.765941
0.765401
0.765466
0.765668
0.766789
0.766202
0.766988
0.766933
0.76699
0.76699
0.76699
0.76699
0.76699
0.76699
0.76699
0.76699
0.76699
0.76699
0.766989
0.766983
0.766963
0.766911
0.766831
0.766755
0.766712
0.766709
0.766741
0.766795
0.76686
0.766923
0.766965
0.766975
0.766913
0.766662
0.766299
0.766098
0.765966
0.765857
0.765781
0.765722
0.765978
0.765822
0.765842
0.765795
0.765903
0.765878
0.765631
0.765631
0.765468
0.765473
0.76546
0.765464
0.76539
0.765405
0.765348
0.765383
0.76531
0.765362
0.765265
0.765313
0.765221
0.765242
0.765191
0.765191
0.76519
0.765164
0.76523
0.76518
0.765202
0.7653
0.765232
0.765529
0.765843
0.765588
0.765342
0.765251
0.765245
0.765369
0.766509
0.765685
0.765776
0.76608
0.766953
0.766719
0.76699
0.76699
0.76699
0.76699
0.76699
0.76699
0.76699
0.76699
0.76699
0.766989
0.766981
0.766953
0.766881
0.766772
0.766672
0.766613
0.766605
0.766641
0.766707
0.766787
0.766866
0.766932
0.766966
0.766911
0.766648
0.766306
0.766133
0.766014
0.765907
0.765792
0.765649
0.765559
0.765516
0.765732
0.765648
0.765606
0.76558
0.765629
0.765622
0.765475
0.765476
0.765439
0.76544
0.76542
0.765432
0.765425
0.765461
0.765431
0.765503
0.765388
0.765477
0.765286
0.765354
0.765201
0.765227
0.765161
0.765152
0.765143
0.765135
0.765162
0.76514
0.76512
0.765082
0.765114
0.765176
0.765197
0.765169
0.765152
0.765198
0.765413
0.765471
0.765271
0.765212
0.765203
0.765296
0.765887
0.766297
0.765967
0.765541
0.765619
0.766392
0.766
0.766013
0.766334
0.76699
0.76699
0.76699
0.76699
0.76699
0.76699
0.76699
0.76699
0.766989
0.76698
0.766946
0.766856
0.766721
0.766593
0.766514
0.766498
0.76654
0.766617
0.766711
0.766806
0.766889
0.766943
0.766906
0.766652
0.766328
0.766206
0.766154
0.766114
0.765986
0.765778
0.765549
0.765447
0.765442
0.765538
0.765486
0.765461
0.765442
0.765475
0.765471
0.765438
0.765433
0.765494
0.765484
0.765486
0.765495
0.765567
0.76561
0.765575
0.76567
0.765455
0.765577
0.765277
0.765365
0.765131
0.765132
0.765142
0.765163
0.765101
0.765083
0.76507
0.765124
0.765088
0.765052
0.765001
0.765046
0.765143
0.765167
0.765136
0.765107
0.765169
0.765331
0.765375
0.765227
0.765174
0.765184
0.765247
0.765691
0.765723
0.765427
0.765479
0.765599
0.766735
0.765935
0.765679
0.765574
0.76699
0.76699
0.76699
0.76699
0.76699
0.76699
0.76699
0.766989
0.76698
0.766943
0.766839
0.766679
0.766524
0.766419
0.766399
0.766449
0.766534
0.766639
0.766747
0.766845
0.766913
0.766893
0.766658
0.766359
0.766266
0.766304
0.766445
0.76649
0.766295
0.76596
0.765501
0.765688
0.765397
0.765421
0.765416
0.765396
0.765392
0.765374
0.765422
0.765408
0.765465
0.765441
0.765603
0.765566
0.765625
0.765621
0.765746
0.765786
0.765712
0.765839
0.765494
0.765661
0.765196
0.765247
0.765306
0.765387
0.765065
0.76507
0.765089
0.765123
0.765024
0.765003
0.764994
0.765061
0.765006
0.764963
0.764902
0.764949
0.765093
0.765133
0.765084
0.765036
0.765135
0.765273
0.765304
0.765197
0.765143
0.765155
0.765214
0.765516
0.765506
0.765338
0.765366
0.765544
0.766789
0.766113
0.765439
0.765386
0.76699
0.76699
0.76699
0.76699
0.76699
0.76699
0.766989
0.766981
0.766943
0.766833
0.766652
0.766469
0.766336
0.766313
0.766367
0.766461
0.766579
0.766698
0.766806
0.766878
0.766869
0.766658
0.766386
0.76631
0.7664
0.766645
0.76678
0.766747
0.76658
0.766284
0.765593
0.765858
0.765382
0.765447
0.765361
0.765362
0.765366
0.765351
0.765415
0.76539
0.765523
0.765478
0.765721
0.76566
0.765787
0.765769
0.765934
0.765976
0.76584
0.765997
0.765469
0.765572
0.765668
0.765776
0.765172
0.765235
0.765311
0.765401
0.765002
0.765028
0.765066
0.765116
0.764936
0.764931
0.76495
0.764968
0.764899
0.764875
0.764819
0.764843
0.765016
0.765081
0.765004
0.764935
0.765085
0.765234
0.765256
0.765171
0.765097
0.765115
0.765189
0.765374
0.765346
0.765276
0.765285
0.765616
0.766755
0.766123
0.765304
0.765363
0.76699
0.76699
0.76699
0.76699
0.76699
0.766989
0.766983
0.766948
0.766834
0.76664
0.76643
0.766268
0.766238
0.766294
0.766401
0.766533
0.766667
0.766777
0.766842
0.766835
0.766648
0.766405
0.766342
0.766448
0.766721
0.766881
0.766917
0.766879
0.766774
0.766344
0.766648
0.765744
0.766035
0.765419
0.765541
0.765351
0.765366
0.765376
0.76537
0.765435
0.765399
0.765595
0.765535
0.765865
0.765785
0.765971
0.765934
0.766103
0.766158
0.765925
0.766056
0.765501
0.765607
0.76571
0.765808
0.765179
0.765256
0.765346
0.765446
0.764983
0.765028
0.765085
0.765153
0.764879
0.764908
0.764955
0.764852
0.764788
0.764833
0.764789
0.764765
0.764909
0.765001
0.764894
0.764811
0.765008
0.765208
0.765225
0.765138
0.765026
0.765055
0.765163
0.765274
0.765247
0.765236
0.765234
0.765658
0.766747
0.76611
0.765248
0.765374
0.76699
0.76699
0.76699
0.76699
0.76699
0.766985
0.766957
0.766847
0.766641
0.766412
0.76622
0.766174
0.766228
0.766347
0.7665
0.766642
0.766742
0.766804
0.766792
0.76662
0.766414
0.766364
0.766468
0.766725
0.766901
0.76696
0.766965
0.766945
0.766918
0.76655
0.76679
0.765948
0.766252
0.765527
0.765701
0.765381
0.765425
0.765431
0.765437
0.765483
0.765447
0.765707
0.765639
0.766072
0.765989
0.766174
0.766141
0.766152
0.766217
0.765893
0.765949
0.766032
0.765988
0.765552
0.765655
0.76575
0.765828
0.765231
0.76532
0.765417
0.765517
0.765017
0.765086
0.765161
0.765242
0.764877
0.764945
0.765028
0.764737
0.764714
0.764851
0.764824
0.764744
0.764781
0.764891
0.764761
0.764691
0.764902
0.765186
0.765204
0.765091
0.764929
0.764972
0.765129
0.765217
0.7652
0.765212
0.765207
0.765674
0.766591
0.76608
0.765231
0.765386
0.76699
0.76699
0.76699
0.76699
0.766987
0.766967
0.766873
0.766658
0.766412
0.766195
0.766121
0.766166
0.766293
0.766461
0.766597
0.766694
0.766754
0.766738
0.76658
0.766415
0.766379
0.766476
0.766711
0.766898
0.766966
0.766983
0.766982
0.766978
0.766954
0.766982
0.76674
0.766893
0.766201
0.766496
0.765712
0.765927
0.765472
0.765561
0.765556
0.765582
0.765587
0.765558
0.765905
0.765833
0.766331
0.766274
0.766277
0.766319
0.766066
0.766111
0.766141
0.765846
0.765867
0.765904
0.765884
0.765614
0.765697
0.765763
0.765813
0.765329
0.76542
0.76551
0.765592
0.765114
0.765201
0.765288
0.765373
0.764944
0.765051
0.76516
0.764664
0.764696
0.76494
0.764922
0.764787
0.764653
0.764757
0.764625
0.764616
0.764771
0.765163
0.765189
0.765025
0.764807
0.764865
0.765082
0.765189
0.765183
0.765201
0.765197
0.765714
0.766879
0.766391
0.765231
0.765414
0.76699
0.76699
0.76699
0.766988
0.766975
0.766901
0.7667
0.766427
0.766192
0.766084
0.766111
0.766232
0.7664
0.766528
0.766625
0.766683
0.766654
0.766513
0.766411
0.766389
0.766481
0.76669
0.766884
0.766964
0.766985
0.766988
0.766988
0.766989
0.766981
0.766988
0.76689
0.766958
0.766496
0.766737
0.765978
0.766222
0.765657
0.765789
0.765781
0.765838
0.765785
0.765767
0.766201
0.766136
0.766454
0.766513
0.766261
0.766365
0.765933
0.765981
0.765808
0.765899
0.765723
0.765707
0.765696
0.765697
0.765656
0.765701
0.765725
0.76573
0.765454
0.765528
0.765587
0.765625
0.765264
0.765357
0.765438
0.765507
0.765073
0.765207
0.765329
0.764638
0.764737
0.765077
0.765053
0.764883
0.764569
0.764613
0.764526
0.764578
0.764625
0.765134
0.765175
0.764938
0.764668
0.764737
0.765018
0.765179
0.76518
0.765196
0.765197
0.765867
0.766946
0.766643
0.765241
0.765482
0.76699
0.76699
0.766989
0.766981
0.766929
0.766753
0.766475
0.766204
0.766066
0.766066
0.766165
0.766325
0.766441
0.766537
0.766582
0.76654
0.766456
0.766407
0.766397
0.766489
0.766683
0.766876
0.766962
0.766985
0.766989
0.76699
0.76699
0.76699
0.76699
0.766988
0.76699
0.766964
0.766983
0.766777
0.766907
0.766329
0.766568
0.76595
0.766115
0.766124
0.766209
0.766098
0.76609
0.766531
0.76651
0.766445
0.766584
0.765996
0.766118
0.766233
0.765711
0.765748
0.765538
0.765638
0.765515
0.765466
0.76542
0.765431
0.765643
0.765637
0.765608
0.765565
0.765559
0.765592
0.7656
0.765589
0.765429
0.765506
0.765559
0.765589
0.765233
0.765372
0.765482
0.764668
0.764817
0.765224
0.765173
0.764994
0.764517
0.764492
0.764458
0.764582
0.764482
0.765094
0.765156
0.764832
0.764517
0.764598
0.764939
0.765181
0.765184
0.765194
0.765203
0.766083
0.766981
0.766839
0.765263
0.765583
0.76699
0.76699
0.766985
0.766951
0.766811
0.766543
0.766249
0.766066
0.766037
0.766106
0.766248
0.766356
0.76644
0.766467
0.76645
0.766422
0.7664
0.766409
0.766505
0.76669
0.766877
0.766963
0.766985
0.766989
0.76699
0.76699
0.76699
0.76699
0.76699
0.76699
0.76699
0.766986
0.766989
0.766939
0.766974
0.766702
0.766852
0.766343
0.766517
0.766547
0.766634
0.766493
0.7665
0.766678
0.766751
0.766169
0.766332
0.766482
0.765766
0.765915
0.766013
0.765826
0.765427
0.765467
0.765246
0.765361
0.765231
0.765159
0.765099
0.765112
0.765545
0.765479
0.7654
0.765315
0.765591
0.765575
0.765525
0.765448
0.765556
0.765597
0.765602
0.765588
0.765378
0.765496
0.765573
0.764725
0.764898
0.765333
0.765236
0.765076
0.764492
0.764406
0.764403
0.764604
0.764369
0.765045
0.765133
0.764713
0.764372
0.764454
0.764851
0.765189
0.765193
0.765193
0.765211
0.766334
0.766989
0.766942
0.76529
0.765709
0.76699
0.766988
0.766968
0.766865
0.766623
0.766327
0.766085
0.766027
0.766059
0.766178
0.766283
0.766356
0.766395
0.766405
0.766399
0.766404
0.766436
0.766542
0.766718
0.76689
0.766965
0.766986
0.76699
0.76699
0.76699
0.76699
0.76699
0.76699
0.76699
0.76699
0.76699
0.76699
0.766989
0.76699
0.766983
0.766988
0.766928
0.766967
0.766745
0.766851
0.766867
0.766909
0.766792
0.766828
0.766676
0.766796
0.766
0.766183
0.766181
0.766349
0.765501
0.765659
0.76581
0.76562
0.765111
0.765162
0.764984
0.765112
0.764907
0.764829
0.764781
0.764787
0.765349
0.765238
0.765121
0.765008
0.765537
0.765454
0.765349
0.765224
0.765601
0.765598
0.76556
0.765488
0.76546
0.765542
0.765572
0.764762
0.764927
0.765365
0.765205
0.765078
0.764474
0.764334
0.764348
0.764598
0.764268
0.764988
0.765108
0.764593
0.764242
0.764322
0.764762
0.765201
0.765202
0.765192
0.765221
0.766613
0.766989
0.766965
0.765321
0.765887
0.766989
0.766978
0.766912
0.766705
0.76642
0.766144
0.766032
0.766033
0.766123
0.766224
0.766297
0.766343
0.766374
0.7664
0.766425
0.766489
0.766615
0.766787
0.766916
0.766972
0.766987
0.76699
0.76699
0.76699
0.76699
0.76699
0.76699
0.76699
0.76699
0.76699
0.76699
0.76699
0.76699
0.76699
0.766989
0.76699
0.766982
0.766987
0.766946
0.766969
0.76695
0.766967
0.76687
0.76692
0.766468
0.766588
0.766691
0.765826
0.766011
0.766058
0.766225
0.765264
0.765435
0.765633
0.765445
0.764811
0.764881
0.764807
0.764954
0.764598
0.76453
0.764517
0.764507
0.765088
0.764949
0.764816
0.764696
0.765383
0.765255
0.765111
0.764963
0.765568
0.765523
0.765434
0.765307
0.765456
0.765504
0.765508
0.764741
0.764875
0.765305
0.765083
0.764992
0.764431
0.764248
0.764261
0.764537
0.764162
0.764937
0.765087
0.764488
0.764135
0.764216
0.764695
0.765211
0.765211
0.765189
0.765228
0.766723
0.76699
0.766976
0.765361
0.766007
0.766985
0.766943
0.766791
0.766514
0.766244
0.766057
0.76603
0.766086
0.766183
0.766261
0.766326
0.766377
0.76642
0.766478
0.766582
0.766728
0.766862
0.766943
0.766979
0.766988
0.76699
0.76699
0.76699
0.76699
0.76699
0.76699
0.76699
0.76699
0.76699
0.76699
0.76699
0.76699
0.76699
0.76699
0.766989
0.76699
0.766987
0.766989
0.766978
0.766984
0.766948
0.766969
0.766825
0.766905
0.766374
0.766506
0.766659
0.766543
0.765699
0.76588
0.76596
0.766122
0.765107
0.765269
0.765528
0.765368
0.764578
0.764678
0.764758
0.764919
0.76434
0.764297
0.764332
0.764296
0.764812
0.764666
0.764534
0.764423
0.765161
0.765007
0.764842
0.764676
0.765469
0.765375
0.765234
0.765062
0.76537
0.76538
0.765359
0.764642
0.764723
0.765141
0.764825
0.764788
0.764324
0.764137
0.76413
0.764395
0.76406
0.764901
0.765071
0.764417
0.764044
0.76414
0.764653
0.765218
0.765218
0.765187
0.765228
0.766771
0.76699
0.766982
0.765385
0.766035
0.76697
0.766854
0.766624
0.766343
0.76614
0.766042
0.766071
0.766158
0.76625
0.766331
0.766399
0.766475
0.76658
0.766714
0.766832
0.766916
0.766964
0.766984
0.766989
0.76699
0.76699
0.76699
0.76699
0.76699
0.76699
0.76699
0.76699
0.76699
0.76699
0.76699
0.76699
0.76699
0.76699
0.76699
0.76699
0.76699
0.76699
0.766988
0.766989
0.76698
0.766985
0.766938
0.766966
0.766762
0.766876
0.766278
0.766419
0.766596
0.766477
0.765649
0.765802
0.765921
0.76606
0.765071
0.765218
0.765504
0.765369
0.76444
0.764585
0.76478
0.76497
0.764104
0.764096
0.764213
0.764122
0.764518
0.764373
0.764251
0.764159
0.764883
0.764708
0.764529
0.764359
0.76527
0.765122
0.764942
0.764738
0.765155
0.765139
0.76506
0.764455
0.764491
0.764831
0.764499
0.764503
0.764146
0.764025
0.763994
0.764162
0.763971
0.76488
0.76506
0.764361
0.76398
0.76406
0.764612
0.765218
0.765217
0.765181
0.765224
0.766801
0.76699
0.766981
0.765383
0.766021
0.766923
0.766707
0.766466
0.766235
0.766103
0.766075
0.766149
0.766252
0.76635
0.766453
0.766573
0.766706
0.766812
0.766894
0.766948
0.766975
0.766986
0.766989
0.76699
0.76699
0.76699
0.76699
0.76699
0.76699
0.76699
0.76699
0.76699
0.76699
0.76699
0.76699
0.76699
0.76699
0.76699
0.76699
0.76699
0.76699
0.76699
0.766988
0.766989
0.766979
0.766985
0.766924
0.766962
0.766645
0.766752
0.766839
0.766201
0.766343
0.766536
0.766417
0.765659
0.765786
0.765932
0.76605
0.765119
0.765245
0.765545
0.765448
0.764369
0.764568
0.764857
0.7651
0.763904
0.76392
0.764141
0.763998
0.764208
0.764079
0.763981
0.76392
0.76454
0.76436
0.764185
0.764033
0.764924
0.764751
0.764545
0.764339
0.764807
0.76473
0.764597
0.764159
0.764132
0.764457
0.764055
0.7641
0.763984
0.763928
0.763912
0.763982
0.76391
0.764853
0.765046
0.764279
0.763915
0.763983
0.764555
0.765211
0.76521
0.76517
0.765211
0.766782
0.766986
0.766957
0.765363
0.765935
0.766829
0.766548
0.766357
0.766195
0.766108
0.766152
0.766259
0.76639
0.766531
0.766675
0.766781
0.766864
0.766919
0.766955
0.766976
0.766986
0.766989
0.76699
0.76699
0.76699
0.76699
0.76699
0.76699
0.76699
0.76699
0.76699
0.76699
0.76699
0.76699
0.76699
0.76699
0.76699
0.76699
0.76699
0.76699
0.76699
0.76699
0.766988
0.766989
0.766978
0.766985
0.766902
0.766955
0.766604
0.766703
0.766835
0.766753
0.766173
0.766296
0.766503
0.766398
0.765728
0.765823
0.765999
0.766088
0.765259
0.765361
0.765651
0.76559
0.764346
0.764586
0.764961
0.76525
0.763743
0.763813
0.764115
0.763936
0.763907
0.763809
0.763746
0.76373
0.764149
0.763987
0.76384
0.763727
0.764431
0.764254
0.764072
0.763906
0.764377
0.764244
0.764072
0.763971
0.763955
0.76398
0.763897
0.763937
0.763919
0.763877
0.763854
0.763911
0.763874
0.764804
0.765011
0.764167
0.763877
0.763929
0.764435
0.765199
0.765193
0.765131
0.765181
0.766624
0.766736
0.766683
0.76531
0.765636
0.766703
0.766431
0.766311
0.766198
0.766179
0.766277
0.766435
0.766601
0.766733
0.76682
0.766872
0.766915
0.766947
0.76697
0.766982
0.766988
0.76699
0.76699
0.76699
0.76699
0.76699
0.76699
0.76699
0.76699
0.76699
0.76699
0.76699
0.76699
0.76699
0.76699
0.76699
0.76699
0.76699
0.76699
0.76699
0.76699
0.76699
0.76699
0.766988
0.766989
0.766976
0.766985
0.766823
0.766875
0.766923
0.766955
0.766593
0.766679
0.766757
0.766187
0.766291
0.766504
0.766417
0.76586
0.765922
0.76613
0.766187
0.765445
0.765535
0.765812
0.765776
0.764353
0.764641
0.765077
0.765409
0.763668
0.763765
0.76411
0.763911
0.763649
0.763608
0.763601
0.763613
0.763767
0.76366
0.763585
0.763538
0.763932
0.7638
0.763691
0.763604
0.763895
0.763775
0.763718
0.763873
0.763855
0.763843
0.76384
0.763852
0.763833
0.763815
0.763758
0.763819
0.763823
0.764714
0.764908
0.764038
0.763852
0.763893
0.764262
0.765162
0.765145
0.76505
0.765092
0.765882
0.765612
0.765565
0.765188
0.765256
0.766585
0.766377
0.766313
0.766261
0.766317
0.766473
0.76665
0.766762
0.766824
0.766865
0.766897
0.766924
0.76695
0.766972
0.766985
0.766989
0.76699
0.76699
0.76699
0.76699
0.76699
0.76699
0.76699
0.76699
0.76699
0.76699
0.76699
0.76699
0.76699
0.76699
0.76699
0.76699
0.76699
0.76699
0.76699
0.76699
0.76699
0.76699
0.766988
0.766989
0.766976
0.766985
0.766828
0.766896
0.766925
0.766965
0.766617
0.766686
0.766778
0.766256
0.766333
0.766549
0.766487
0.766048
0.766084
0.766318
0.766348
0.765634
0.765727
0.766012
0.765978
0.764373
0.764711
0.765172
0.765573
0.763632
0.763739
0.764104
0.763895
0.763515
0.763514
0.763522
0.763565
0.763541
0.763499
0.763466
0.763453
0.763626
0.763544
0.763482
0.763445
0.763804
0.763762
0.763343
0.76382
0.763459
0.763425
0.763462
0.763464
0.763744
0.763724
0.763701
0.763763
0.763738
0.764499
0.764738
0.763962
0.763783
0.763872
0.764076
0.765072
0.765053
0.764886
0.764962
0.765173
0.765179
0.764978
0.765028
0.764973
0.76651
0.766372
0.766372
0.766383
0.766505
0.766675
0.766772
0.76682
0.766849
0.76687
0.766888
0.766912
0.766946
0.766973
0.766986
0.76699
0.76699
0.76699
0.76699
0.76699
0.76699
0.76699
0.76699
0.76699
0.76699