/*--------------------------------*- C++ -*----------------------------------*\
  =========                 |
  \\      /  F ield         | OpenFOAM: The Open Source CFD Toolbox
   \\    /   O peration     | Website:  https://openfoam.org
    \\  /    A nd           | Version:  dev
     \\/     M anipulation  |
\*---------------------------------------------------------------------------*/
FoamFile
{
    version     2.0;
    format      ascii;
    class       volScalarField;
    location    "2500";
    object      nut;
}
// * * * * * * * * * * * * * * * * * * * * * * * * * * * * * * * * * * * * * //

dimensions      [0 2 -1 0 0 0 0];

internalField   nonuniform List<scalar> 
9836
(
0.000130084
0.000133168
0.00012593
0.000121499
0.000157087
0.000112157
0.00011159
0.000165906
0.000147647
0.000106715
0.00010778
0.000160673
0.000167889
0.000126692
0.000104977
0.000104771
0.00014608
0.000181283
0.000155307
0.00011571
0.000103808
0.000103149
0.000129813
0.000181377
0.000176677
0.000132625
0.000111266
0.000102975
0.000102642
0.000120626
0.000174908
0.000189263
0.000157963
0.000119978
0.00010895
0.000102373
0.000102423
0.000113647
0.000157924
0.000196508
0.000181036
0.000135605
0.000114596
0.000107238
0.000101875
0.000102247
0.000109411
0.000138172
0.000193869
0.000195173
0.000158241
0.000122566
0.000111671
0.000106006
0.00010152
0.000101829
0.000106783
0.000126543
0.000183545
0.000205052
0.000182987
0.000137501
0.000116185
0.000109624
0.000105062
0.000101248
0.000101225
0.000105451
0.000117948
0.000162025
0.000207585
0.0002003
0.000157076
0.000124655
0.000112784
0.000108158
0.000104202
0.000101036
0.000100737
0.000104799
0.000112852
0.000141647
0.000202399
0.00020942
0.000181998
0.000137536
0.000117683
0.000110824
0.000106849
0.000103463
0.000100871
0.000100387
0.000104318
0.000109833
0.000129674
0.000187919
0.000217425
0.000201597
0.000155964
0.000125333
0.000113846
0.00010934
0.000105776
0.000102907
0.000100727
0.000100141
0.000103745
0.000107944
0.000120908
0.000164488
0.000216616
0.000214986
0.000178505
0.000137347
0.000118491
0.000111656
0.00010802
0.000104928
0.000102453
0.00010061
0.000100036
0.00010319
0.00010689
0.000115387
0.000144096
0.000209496
0.000222918
0.000201794
0.000153646
0.000125711
0.000114537
0.000110144
0.000106859
0.000104219
0.00010208
0.000100526
0.000100055
0.000102587
0.000106149
0.000111873
0.000132114
0.000191916
0.000228534
0.000217301
0.000174202
0.000136379
0.00011898
0.000112268
0.000108724
0.000105867
0.000103602
0.000101748
0.00010047
0.000100071
0.000101871
0.000105393
0.000109631
0.000123038
0.000167554
0.000226083
0.000227806
0.000197167
0.00015063
0.000125655
0.000114823
0.000110685
0.000107489
0.00010507
0.000103077
0.000101441
0.000100376
0.000100064
0.0001013
0.000104644
0.000108047
0.000117222
0.000146486
0.000216984
0.000235519
0.000217648
0.000169225
0.000134866
0.000119137
0.000112474
0.000109181
0.000106465
0.000104364
0.000102587
0.000101256
0.00010029
0.000100035
0.000100884
0.000103921
0.000106948
0.000113428
0.000134813
0.000196885
0.000239615
0.000231165
0.00019116
0.000147209
0.000125026
0.000114949
0.000110885
0.000107904
0.000105652
0.000103737
0.00010213
0.000100994
0.000100238
9.99903e-05
0.000100625
0.000103257
0.000106082
0.000110871
0.000125753
0.000171829
0.000236049
0.000240081
0.000213413
0.0001641
0.000133101
0.000118704
0.000112575
0.0001094
0.00010688
0.000104916
0.000103162
0.000101824
0.000100782
0.000100192
9.9931e-05
0.000100458
0.000102543
0.000105363
0.000109068
0.000119696
0.000150205
0.000225701
0.000247424
0.000231653
0.000183627
0.000143859
0.000124262
0.000114618
0.000110927
0.000108133
0.000106086
0.000104261
0.000102668
0.00010146
0.000100604
0.000100153
9.98597e-05
0.000100347
0.000101873
0.000104685
0.000107681
0.00011556
0.000139208
0.000204956
0.000250844
0.000243867
0.000206425
0.000158248
0.000131033
0.000118321
0.000112402
0.000109439
0.000107141
0.000105377
0.000103668
0.000102271
0.000101137
0.000100446
0.000100114
9.97892e-05
0.000100267
0.000101337
0.000104009
0.00010655
0.000112643
0.000130115
0.000179814
0.000246747
0.000251966
0.000227503
0.00017672
0.000140393
0.000122952
0.000114355
0.000110742
0.000108143
0.000106434
0.000104717
0.000103141
0.00010185
0.000100838
0.000100313
0.000100078
9.97287e-05
0.000100199
0.000100928
0.000103385
0.000105665
0.000110513
0.000123469
0.000157547
0.000236486
0.000258639
0.00024446
0.000196667
0.000152768
0.000129151
0.000117464
0.000112102
0.000109314
0.000107099
0.000105746
0.000104112
0.000102675
0.000101458
0.000100574
0.000100197
0.000100043
9.96839e-05
0.000100143
0.000100626
0.000102834
0.000104993
0.000108879
0.000118853
0.00014518
0.000218345
0.000262336
0.000255362
0.000219156
0.000168838
0.000136699
0.000121834
0.000113863
0.000110473
0.000108016
0.000106434
0.000105091
0.000103554
0.000102186
0.000101077
0.000100345
0.000100093
0.000100009
9.96536e-05
0.000100101
0.000100401
0.000102296
0.000104458
0.000107632
0.000115548
0.000136547
0.00019398
0.000258765
0.000263363
0.000239147
0.0001873
0.000147577
0.000126884
0.000116797
0.000111755
0.000109098
0.000106903
0.000105871
0.00010446
0.000102999
0.000101717
0.000100715
0.00010015
0.000100002
9.99725e-05
9.96339e-05
0.000100074
0.000100231
0.000101791
0.000103985
0.000106634
0.000113113
0.000129609
0.0001715
0.000250731
0.000269093
0.000255648
0.000207373
0.000160866
0.000133587
0.000120538
0.000113482
0.000110197
0.000107907
0.000106191
0.00010528
0.000103818
0.000102449
0.000101299
0.000100416
9.99986e-05
9.9952e-05
9.99448e-05
9.96238e-05
0.000100063
0.000100104
0.000101348
0.000103532
0.000105801
0.00011124
0.000124516
0.000154954
0.000235248
0.000273882
0.000265645
0.000228401
0.000177324
0.000142275
0.000124978
0.000116071
0.000111464
0.000108934
0.000106918
0.000105717
0.000104683
0.000103215
0.000101889
0.000100878
0.000100149
9.98456e-05
9.99102e-05
9.99673e-05
9.96231e-05
0.000100072
9.99995e-05
0.000100973
0.000103102
0.000105095
0.000109762
0.000120765
0.000145845
0.000215743
0.000272365
0.000273959
0.000247976
0.000195342
0.000153592
0.000130599
0.000119366
0.000113114
0.00011001
0.000107908
0.000106261
0.000105283
0.000104094
0.000102703
0.000101451
0.000100568
9.99931e-05
9.97389e-05
9.98216e-05
0.000100011
9.96303e-05
0.000100102
9.99021e-05
0.000100659
0.000102721
0.00010453
0.000108596
0.000118005
0.000139609
0.000194528
0.000267826
0.000279063
0.000264748
0.000214993
0.000167325
0.000137691
0.000123278
0.000115507
0.00011131
0.000108902
0.000107179
0.000105819
0.000104838
0.0001035
0.000102122
0.000100959
0.000100232
9.98545e-05
9.97002e-05
9.97413e-05
0.00010002
9.96439e-05
0.000100144
9.98054e-05
0.000100411
0.000102401
0.00010406
0.000107672
0.000115996
0.000134499
0.000176494
0.000257111
0.000284358
0.000275037
0.000233825
0.000183485
0.000146833
0.000127994
0.00011849
0.000112967
0.000110094
0.000108123
0.00010667
0.000105489
0.00010441
0.000103051
0.000101734
0.000100646
0.000100052
9.99462e-05
9.98604e-05
9.9795e-05
0.00010001
9.96664e-05
0.000100189
9.97069e-05
0.000100231
0.00010214
0.000103665
0.000106961
0.000114562
0.000130802
0.00016322
0.000242345
0.000286404
0.000282844
0.000253989
0.000200566
0.000158337
0.00013382
0.000121907
0.000115296
0.000111416
0.000109192
0.000107639
0.00010629
0.000105172
0.000103921
0.000102575
0.000101397
0.000100463
0.000100028
0.000100212
0.000100261
0.000100172
0.000100144
9.96951e-05
0.000100226
9.95987e-05
0.000100099
0.000101926
0.000103346
0.000106451
0.000113623
0.00012838
0.000155223
0.000227624
0.000284047
0.000288467
0.000269934
0.00021895
0.000171827
0.000141251
0.0001261
0.00011815
0.000113271
0.00011043
0.000108648
0.000107293
0.000106051
0.0001048
0.000103492
0.000102227
0.000101222
0.000100489
0.000100272
0.000100554
0.000100802
0.000100907
0.000100209
0.000100633
9.97286e-05
0.000100244
9.94821e-05
0.000100004
0.000101761
0.00010311
0.000106137
0.000113134
0.000127108
0.000150862
0.000214155
0.000279335
0.000292557
0.000282081
0.000236685
0.000186953
0.000150516
0.000130979
0.000121343
0.000115615
0.000112164
0.000109904
0.000108243
0.000107023
0.000105869
0.000104547
0.000103244
0.000102142
0.000101349
0.000100987
0.000101202
0.000101574
0.000101638
0.000101119
0.000101596
0.000100318
0.000100877
9.97639e-05
0.00010024
9.93623e-05
9.99523e-05
0.000101642
0.000102953
0.000106042
0.000113085
0.000126912
0.000148775
0.00020356
0.00027135
0.000296016
0.000289544
0.000254216
0.000202977
0.000161783
0.000136997
0.000125148
0.000118467
0.000114417
0.00011172
0.000109494
0.000107918
0.000106848
0.000105629
0.000104245
0.000103174
0.000102309
0.000101924
0.000102011
0.000102553
0.000102255
0.000102842
0.000102332
0.000102989
0.000103287
0.000101394
0.000102113
9.7427e-05
9.58645e-05
9.98001e-05
0.000100214
9.92346e-05
9.99472e-05
0.000101567
0.000102888
0.000106189
0.000113488
0.000128071
0.000148848
0.000196851
0.000263745
0.000297058
0.000295043
0.000270507
0.000219181
0.000174502
0.000144554
0.000129685
0.000121711
0.000117273
0.000113901
0.000111493
0.00010932
0.000107783
0.000106524
0.000105221
0.000104144
0.000103342
0.00010289
0.00010317
0.000103635
0.000103561
0.000104393
0.000103793
0.000100681
0.000100256
9.56735e-05
9.34401e-05
8.90265e-05
8.11905e-05
7.98477e-05
9.9839e-05
0.000100168
9.9097e-05
9.99951e-05
0.000101552
0.000102952
0.000106644
0.000114505
0.000130466
0.000149908
0.000193939
0.00025738
0.000296576
0.000298634
0.000283334
0.000236133
0.000188221
0.000153703
0.000134869
0.000125661
0.000120808
0.000116876
0.00011392
0.000111759
0.000109437
0.000107799
0.000106464
0.000105282
0.000104598
0.000104192
0.000104308
0.000105643
0.000105146
0.000102613
0.000104708
0.000103264
9.71769e-05
8.56517e-05
9.11353e-05
8.19233e-05
7.82057e-05
7.53996e-05
6.85922e-05
6.76961e-05
9.98816e-05
0.000100088
9.89549e-05
0.000100084
0.000101593
0.000103211
0.000107483
0.000116194
0.000133129
0.000153698
0.000193926
0.000252996
0.000295432
0.000300748
0.0002926
0.000251315
0.00020279
0.000164864
0.000141267
0.00013075
0.000125134
0.000120714
0.000116981
0.000114619
0.000112772
0.000110492
0.000108452
0.000106763
0.000105934
0.000105937
0.000105975
9.76792e-05
9.72057e-05
9.0903e-05
9.71849e-05
9.22274e-05
9.33063e-05
8.89083e-05
8.73149e-05
7.33615e-05
7.84051e-05
7.101e-05
6.65176e-05
6.48129e-05
5.87683e-05
5.82375e-05
9.99244e-05
9.9971e-05
9.88242e-05
0.000100215
0.000101676
0.000103693
0.000108782
0.000118704
0.000137061
0.000160195
0.000195485
0.00025108
0.000294327
0.000303045
0.000298439
0.000265081
0.000219095
0.000177723
0.000149026
0.000136196
0.000130433
0.000125429
0.000121013
0.000117831
0.000115542
0.000113356
0.000111175
0.000108641
0.000107223
0.000107199
9.91214e-05
9.07849e-05
8.7129e-05
8.23302e-05
8.74668e-05
8.36913e-05
8.49632e-05
8.20849e-05
8.34467e-05
7.98007e-05
7.59085e-05
6.36192e-05
6.82552e-05
6.18104e-05
5.73793e-05
5.63301e-05
5.09029e-05
5.05812e-05
9.99584e-05
9.98186e-05
9.87433e-05
0.000100417
0.000101808
0.00010442
0.000110622
0.000122138
0.000142543
0.000167773
0.000200035
0.000251212
0.000294186
0.000305339
0.000302425
0.000278791
0.000235438
0.000191689
0.000158598
0.000143086
0.000136085
0.000131087
0.000126474
0.000122411
0.000119002
0.000116126
0.000113763
0.000111218
0.000109043
0.000108403
9.20444e-05
8.33197e-05
8.0095e-05
7.65321e-05
7.9922e-05
7.70872e-05
7.87766e-05
7.7048e-05
7.65543e-05
7.46118e-05
7.30799e-05
7.10338e-05
6.66512e-05
5.55147e-05
5.99099e-05
5.41856e-05
5.0005e-05
4.94118e-05
4.46457e-05
4.43731e-05
9.99788e-05
9.96341e-05
9.87338e-05
0.000100696
0.000102057
0.000105442
0.000113084
0.00012651
0.000149681
0.000176599
0.000207415
0.000253817
0.000295297
0.000307933
0.00030656
0.000290015
0.000249931
0.000206322
0.000169949
0.00015221
0.000143673
0.000137959
0.000134609
0.000130616
0.000125691
0.000121159
0.000117655
0.000114943
0.000112327
0.000110766
8.57207e-05
7.41834e-05
7.50379e-05
6.94575e-05
7.32397e-05
7.14299e-05
7.4181e-05
7.18095e-05
7.25559e-05
7.12642e-05
6.88133e-05
6.76915e-05
6.46351e-05
6.36642e-05
5.89101e-05
4.87668e-05
5.29359e-05
4.78906e-05
4.40457e-05
4.37339e-05
3.94973e-05
3.94886e-05
9.99759e-05
9.94234e-05
9.88353e-05
0.000101054
0.000102505
0.000106855
0.000116229
0.000132202
0.000158197
0.000186336
0.000216291
0.00026044
0.000299222
0.000312245
0.000311088
0.000298179
0.000264413
0.000222719
0.000185307
0.000163836
0.000153061
0.000148153
0.00014586
0.000142331
0.000136464
0.000130136
0.000124137
0.000119445
0.000115902
0.000113802
8.08569e-05
6.73857e-05
6.71765e-05
6.04918e-05
6.76862e-05
6.54877e-05
6.9022e-05
6.73434e-05
6.93616e-05
6.82929e-05
6.72171e-05
6.66342e-05
6.21396e-05
6.22051e-05
5.75454e-05
5.69383e-05
5.23001e-05
4.3264e-05
4.67617e-05
4.21113e-05
3.91452e-05
3.92016e-05
3.57629e-05
3.54318e-05
9.9956e-05
9.92145e-05
9.9089e-05
0.00010144
0.000103221
0.000108722
0.000120058
0.000139124
0.00016726
0.000196652
0.000226658
0.000269269
0.0003063
0.000318377
0.000317458
0.000307206
0.000281297
0.00024487
0.000206843
0.000181384
0.000164618
0.000158526
0.00015628
0.000153381
0.000148215
0.000140649
0.000132127
0.000124495
0.000119426
0.000115892
7.71475e-05
6.09711e-05
6.13966e-05
5.36817e-05
6.18354e-05
6.19332e-05
6.70136e-05
7.27405e-05
7.00713e-05
7.98201e-05
7.02783e-05
8.24058e-05
6.60018e-05
7.61969e-05
5.76702e-05
6.53737e-05
5.14861e-05
5.36901e-05
4.69449e-05
3.81628e-05
4.21218e-05
3.76578e-05
3.558e-05
3.47396e-05
3.29297e-05
3.29192e-05
9.99415e-05
9.90597e-05
9.94986e-05
0.000101835
0.00010422
0.000111075
0.000124444
0.000146918
0.000176517
0.00020729
0.000238136
0.000279942
0.000315844
0.000326941
0.000326456
0.000319401
0.000302454
0.000273504
0.00023827
0.000206023
0.00018436
0.000170066
0.000164771
0.000159707
0.000156984
0.00015064
0.000140958
0.000131673
0.000123307
0.000118132
7.87024e-05
5.82193e-05
5.93714e-05
3.79077e-05
6.13979e-05
6.28578e-05
8.25318e-05
8.85039e-05
8.74823e-05
8.8799e-05
8.75237e-05
8.86265e-05
8.84155e-05
9.02151e-05
8.90831e-05
9.02802e-05
6.68634e-05
8.7525e-05
4.95504e-05
6.84199e-05
4.57379e-05
3.41274e-05
4.15182e-05
3.64481e-05
3.21448e-05
3.14687e-05
3.13513e-05
3.07115e-05
0.000100014
9.907e-05
0.000100067
0.000102265
0.000105475
0.00011392
0.000129487
0.00015541
0.000185965
0.00021796
0.000250283
0.000292223
0.00032808
0.000338746
0.000337541
0.000334009
0.000323541
0.000303623
0.000275765
0.000241088
0.000215691
0.000192459
0.000172331
0.000160356
0.000161401
0.000158685
0.000150539
0.000138823
0.000128556
0.000119072
0.000111754
7.85733e-05
8.64725e-05
7.50644e-05
8.87013e-05
8.72485e-05
8.41488e-05
9.38997e-05
0.000108491
0.000106331
0.000133506
0.000109046
0.00014764
0.000103299
0.000144906
9.72834e-05
0.000123247
8.85594e-05
0.000105602
6.73417e-05
9.1134e-05
6.36341e-05
3.18187e-05
5.75562e-05
4.77556e-05
2.99237e-05
2.90594e-05
3.11266e-05
2.86882e-05
0.000100653
9.95619e-05
0.000100866
0.00010283
0.000107033
0.000117239
0.000135506
0.000164159
0.000195379
0.000228316
0.000262562
0.000305649
0.000343043
0.000354343
0.000353502
0.000351995
0.000346497
0.000335309
0.000310915
0.000279519
0.000249395
0.000224434
0.000191979
0.000166783
0.000158144
0.000162816
0.000159207
0.000147676
0.000130671
0.000117118
0.000107998
0.000101655
9.02815e-05
9.5901e-05
0.000115458
8.51928e-05
8.65537e-05
0.000122647
0.000142078
0.000166031
0.000204048
0.000196949
0.000253825
0.000208388
0.000280055
0.000194724
0.000278905
0.000154966
0.000249054
0.000114219
0.000190987
9.34694e-05
0.000122403
9.34689e-05
3.75515e-05
9.04043e-05
8.39869e-05
2.9214e-05
2.93269e-05
3.424e-05
3.07089e-05
0.00010426
0.000101838
0.00010208
0.000103622
0.000108884
0.000120857
0.000142116
0.000172421
0.000204457
0.000238058
0.000274377
0.000319617
0.000360296
0.000373777
0.000373477
0.00037162
0.000365372
0.000351133
0.000327185
0.000297483
0.000267856
0.000245048
0.000219364
0.000188141
0.000161434
0.000152995
0.000168757
0.000161884
0.000156922
0.000149337
0.000136156
0.000121065
0.000108353
0.000132496
0.000162922
0.000211188
0.000240816
0.000163284
0.00018772
0.0002448
0.000287605
0.000312447
0.00036881
0.000350666
0.000412159
0.000357019
0.000421854
0.000338345
0.000408432
0.000295874
0.00037843
0.000221095
0.000327812
0.000127971
0.000241057
0.000128402
7.64465e-05
0.000123154
0.000111117
2.64549e-05
4.81614e-05
4.80281e-05
3.27084e-05
0.000113873
0.000110187
0.000104619
0.000104913
0.000111098
0.000124698
0.000148996
0.000180486
0.000212758
0.000246976
0.000285193
0.000333416
0.000379087
0.000396381
0.000396327
0.000389814
0.000374483
0.000356382
0.000328226
0.000296101
0.000266923
0.000245676
0.000234984
0.000217315
0.000191771
0.000160864
0.000189852
0.000216271
0.000236574
0.000271565
0.000272338
0.00023582
0.00021927
0.000202666
0.00023792
0.00026623
0.000308086
0.000401517
0.000428068
0.000330832
0.000368408
0.00041951
0.000462792
0.00046178
0.000499343
0.000470621
0.000507592
0.000459937
0.000499069
0.000439662
0.000485594
0.000406155
0.000464089
0.000348073
0.000427724
0.000247682
0.000361076
0.000245049
9.54583e-05
0.000226226
0.00019116
3.10893e-05
8.34693e-05
6.27591e-05
2.66972e-05
0.000127773
0.000130661
0.000111596
0.00010774
0.000113764
0.000129125
0.000156453
0.000187893
0.000220321
0.000254747
0.000294567
0.000346249
0.000398372
0.000421239
0.000420712
0.000405326
0.00038614
0.00036581
0.000342402
0.000327807
0.000303045
0.000269302
0.000246214
0.000226699
0.000212895
0.000199633
0.000212224
0.000289312
0.000406355
0.000528503
0.000529377
0.000452861
0.000400646
0.000411022
0.000334973
0.000393553
0.000448441
0.000466494
0.000542069
0.000553427
0.000496581
0.00052309
0.000530081
0.000554257
0.000536227
0.000558823
0.000530245
0.000556843
0.000521178
0.000553829
0.000508459
0.000548283
0.000484859
0.000532998
0.000441273
0.000505245
0.000364535
0.000452252
0.000361953
0.000149642
0.000346607
0.000316197
6.34197e-05
0.000116397
1.70422e-05
2.25338e-05
0.000136932
0.000131629
0.000115099
0.000117134
0.000134464
0.000163491
0.00019494
0.000226575
0.000261237
0.000302092
0.000357325
0.000416962
0.000447241
0.000445659
0.000423928
0.000414728
0.000425861
0.000467958
0.000495753
0.000481871
0.000425908
0.000346896
0.000275963
0.000231708
0.000209845
0.000228825
0.000338427
0.000535175
0.000667285
0.000655322
0.000578249
0.000489719
0.000462329
0.00051176
0.000520767
0.000484393
0.000498987
0.000560373
0.000566825
0.000598103
0.000604571
0.00057375
0.000589061
0.000578369
0.000594776
0.000579804
0.00060122
0.000583685
0.000611482
0.000580442
0.000617824
0.000575093
0.000616698
0.000555075
0.000605032
0.000518387
0.000580971
0.000455038
0.000529676
0.000456551
0.000268088
0.000446288
0.000422933
8.44378e-05
0.000197481
6.93737e-06
3.62638e-05
0.000141534
0.000130624
0.000122029
0.000139952
0.000170605
0.00020023
0.000231712
0.000266005
0.000307533
0.000365745
0.000433554
0.000472897
0.000471609
0.000452627
0.000474843
0.000551042
0.000653799
0.000704973
0.000699588
0.000645063
0.000553478
0.000435396
0.000317758
0.000241977
0.000237731
0.00036639
0.000616625
0.000727092
0.000713311
0.000654666
0.000570762
0.000517798
0.000531297
0.000532176
0.000564313
0.000559969
0.000569307
0.000567645
0.000609043
0.000608758
0.000624963
0.000630375
0.000609055
0.000618377
0.000622147
0.00064049
0.000637187
0.000665196
0.000651307
0.00068245
0.000651753
0.000673314
0.000641303
0.000653514
0.000627901
0.00064151
0.000595697
0.000633468
0.000538009
0.000602808
0.000538725
0.00038288
0.000531491
0.000516687
0.000461683
0.000133966
0.000320416
5.35687e-06
9.07935e-05
0.000150866
0.0001348
0.000143163
0.000176023
0.000205176
0.000234999
0.000269128
0.000310469
0.000371011
0.000446778
0.00049667
0.000499749
0.000492697
0.000558932
0.000696606
0.000831677
0.000892712
0.000891926
0.000842795
0.000753915
0.00063216
0.000490035
0.000354534
0.000288118
0.000398346
0.000663498
0.00076278
0.00073412
0.000687313
0.00066284
0.000633926
0.000608206
0.000570348
0.000588938
0.000592784
0.000598262
0.000604429
0.000598055
0.000633294
0.000633106
0.000673985
0.000681004
0.000656058
0.000666138
0.000691376
0.000713325
0.000713287
0.000739487
0.000697312
0.000720159
0.000666289
0.000681906
0.000642156
0.000645001
0.000633778
0.000626932
0.000632142
0.000623642
0.000608063
0.000632592
0.000625046
0.000573745
0.000603049
0.000501072
0.000418661
0.00048497
0.000559336
0.000593824
0.000598431
0.000550449
0.0002508
0.000462338
0.000440862
0.000366238
7.80514e-05
0.000204431
0.000160844
0.000150405
0.000179111
0.000208219
0.000237042
0.000270251
0.000311144
0.000372389
0.00045563
0.000517741
0.000527763
0.000537055
0.000642702
0.000831893
0.000982724
0.00104405
0.00104282
0.000997758
0.000915248
0.000800237
0.000659396
0.000508652
0.000394076
0.000436627
0.000690557
0.000775346
0.000748784
0.000691823
0.000693688
0.000731975
0.0007759
0.000671989
0.000763531
0.000609299
0.000628116
0.000639932
0.000648302
0.000631552
0.000631399
0.000685439
0.000687199
0.000756347
0.000765708
0.000730929
0.000744542
0.00076075
0.000780325
0.000740949
0.000763538
0.000701505
0.000719465
0.000649617
0.000651321
0.00061128
0.000590238
0.000617686
0.000604995
0.000589685
0.00057202
0.000628286
0.000615353
0.000592914
0.000575217
0.000598606
0.000629835
0.000620888
0.00062701
0.000623853
0.000618733
0.000537557
0.000521368
0.000586733
0.000609447
0.000614708
0.000577598
0.000416807
0.00028596
0.000404027
0.000502938
0.000483078
0.000273182
0.000318389
0.00023479
0.000206286
0.000175387
0.000183507
0.000210611
0.000238012
0.000269522
0.000309588
0.000370595
0.000459001
0.000535137
0.000553936
0.000576034
0.000711758
0.000946609
0.00109826
0.00115081
0.00114692
0.00110487
0.00103012
0.000926524
0.000797299
0.000649736
0.000515358
0.000495544
0.000699849
0.000784053
0.000759719
0.000687343
0.000677364
0.000710469
0.000779749
0.000861296
0.000773214
0.000851142
0.000665978
0.000705351
0.00070963
0.000724192
0.000689755
0.000699242
0.000771607
0.000775234
0.000822865
0.000831918
0.000796774
0.000811646
0.000780703
0.000797506
0.000725883
0.000714826
0.000653227
0.000622456
0.000574191
0.000566742
0.000557147
0.000543144
0.000535346
0.000528338
0.000571769
0.000551176
0.000532869
0.000610063
0.000587972
0.000552909
0.000534704
0.000561793
0.000619374
0.000624092
0.000615078
0.000602825
0.000620712
0.000565844
0.000551583
0.000603156
0.000616828
0.000612555
0.000595103
0.000466051
0.000458317
0.000535066
0.000517229
0.000222276
0.000115151
0.000238836
0.000376732
0.000282256
0.000199626
0.000213814
0.000237058
0.000264908
0.0003033
0.000364699
0.000457742
0.000546391
0.0005786
0.00060589
0.000763374
0.00103454
0.00117445
0.00121252
0.00120692
0.00116661
0.00109966
0.00100814
0.000891417
0.000757772
0.000625636
0.000563193
0.000709697
0.000787225
0.000768744
0.000697979
0.000649259
0.000632506
0.00069507
0.000789681
0.00089797
0.00087322
0.00085994
0.000895544
0.000754408
0.000803533
0.000800535
0.000816411
0.000778978
0.000788371
0.000838543
0.000842965
0.000838988
0.000850276
0.000812153
0.000826049
0.000707943
0.000710478
0.000590236
0.000561894
0.000552661
0.000513507
0.000526451
0.00052538
0.000525436
0.00050633
0.000519989
0.000511421
0.000506619
0.000504405
0.000530871
0.000513466
0.000500835
0.000577304
0.000547474
0.000512102
0.000495028
0.000518122
0.00059584
0.000611209
0.000590327
0.000567118
0.00060767
0.000585141
0.000573082
0.00060787
0.000604437
0.000592133
0.000598738
0.000502522
0.00049522
0.000558009
0.000540807
0.000251024
0.000101873
0.000234938
0.000504228
0.000368438
0.000219998
0.000234944
0.000259663
0.000293811
0.000354051
0.000450594
0.00055251
0.000596091
0.000624993
0.000797304
0.00109463
0.0012185
0.00124455
0.00123382
0.00119251
0.00113086
0.00104865
0.000949095
0.000835768
0.000714796
0.000635774
0.000722609
0.000802146
0.000783839
0.000717093
0.000657146
0.000509155
0.000418908
0.000485571
0.000575359
0.000882245
0.000781091
0.000902829
0.000907813
0.000843103
0.000877028
0.000862591
0.000875333
0.000846927
0.000852653
0.000859132
0.000865659
0.000797251
0.000820522
0.000730086
0.000761467
0.00054262
0.000536001
0.00049017
0.000468278
0.000522087
0.000483177
0.000505748
0.000456598
0.000504911
0.000506062
0.000487253
0.000475315
0.00049276
0.000489369
0.000490121
0.000492812
0.000495524
0.000484207
0.000478801
0.000534071
0.000502639
0.00047862
0.000463331
0.000478943
0.000558758
0.000586176
0.000552739
0.000522471
0.000583493
0.000589275
0.000585071
0.000566898
0.000578185
0.00055157
0.000554491
0.000525077
0.000516962
0.000571216
0.000554026
0.000323608
0.000104553
0.000248432
0.000523714
0.000498677
0.000235878
0.000254448
0.000282612
0.000338971
0.000435773
0.00055247
0.000611871
0.000637765
0.0008089
0.001127
0.00124072
0.00125929
0.00123425
0.00118931
0.00113654
0.00106886
0.000991745
0.000895224
0.000785388
0.000711759
0.000745996
0.000826177
0.000821471
0.000776473
0.000682456
0.000454591
0.000280629
0.00029178
0.000329725
0.000502256
0.00035016
0.000801048
0.000656353
0.000905427
0.000880839
0.000891324
0.000903128
0.000883057
0.000889617
0.000870976
0.000876515
0.000835178
0.000845434
0.00061978
0.000659227
0.000551055
0.000579521
0.000458046
0.000462545
0.000467556
0.000436189
0.00046581
0.000470884
0.000477982
0.000474003
0.000476403
0.000454075
0.000438422
0.000430972
0.00047907
0.000482946
0.000473036
0.000444198
0.000469994
0.000468659
0.000472486
0.000488799
0.000463978
0.000457568
0.000445297
0.000449148
0.000513555
0.000549026
0.000507521
0.000476913
0.000547823
0.000554618
0.000573872
0.000530716
0.000547505
0.000525566
0.000521017
0.000538049
0.000533257
0.000576423
0.000560226
0.000447773
0.000112986
0.000170819
0.000536028
0.000516878
0.000247965
0.000275435
0.000318997
0.000418533
0.000541859
0.000625363
0.000650889
0.00080486
0.00113664
0.00124957
0.00125854
0.00121576
0.00116835
0.0011244
0.00107766
0.00102319
0.000941611
0.000850662
0.000778092
0.000783618
0.000855437
0.000890137
0.000870986
0.000765663
0.000458004
0.000231428
0.0001867
0.000196975
0.000205322
0.00038144
0.000272087
0.000670802
0.000522763
0.000855319
0.000787528
0.000892892
0.000885517
0.000860972
0.000859402
0.000852639
0.000857748
0.00069653
0.00072797
0.000488133
0.000523533
0.000463358
0.000472573
0.000411036
0.000399015
0.000432378
0.000415004
0.000381629
0.000397685
0.00042825
0.000434398
0.000444427
0.000448367
0.000421693
0.000407102
0.000400539
0.000400465
0.000473798
0.000441563
0.000413795
0.000393633
0.000459672
0.000466414
0.000442312
0.000450641
0.000435192
0.000449895
0.000437912
0.000432299
0.000467819
0.000504579
0.000461662
0.000439008
0.000505051
0.000525947
0.000556111
0.000510828
0.000508662
0.0004998
0.000501818
0.000547907
0.000545934
0.000574684
0.00056347
0.000449575
0.000155845
0.000146626
0.000542134
0.00050904
0.000261055
0.000307182
0.00038768
0.000527536
0.000627727
0.000655677
0.000776951
0.00113023
0.00125116
0.00124976
0.0011867
0.00114252
0.00110162
0.00106645
0.00102907
0.00097139
0.000895709
0.00083004
0.000817576
0.000895011
0.000971408
0.000973821
0.000861284
0.00049427
0.000226628
0.000151096
0.000139963
0.000144592
0.000178497
0.000147515
0.000290993
0.000219545
0.000529727
0.000397094
0.000755162
0.00065874
0.000846689
0.000814871
0.000779243
0.000783383
0.000748817
0.00076517
0.000561197
0.000594218
0.000411698
0.000461405
0.00039062
0.000395242
0.00036903
0.00035484
0.000337028
0.000418443
0.000403609
0.000375344
0.000389204
0.000406026
0.000419187
0.000439167
0.00043327
0.000382163
0.000378194
0.000379999
0.000387766
0.000410363
0.000386504
0.000371257
0.000364567
0.000449005
0.000413508
0.000383617
0.000421766
0.000418421
0.000426317
0.000408812
0.000423644
0.000429577
0.000458854
0.000422819
0.000409063
0.000459975
0.000507356
0.000533331
0.000490087
0.000465126
0.000464331
0.000488146
0.000555448
0.000553699
0.000565997
0.000562606
0.00039093
7.17096e-05
0.00015083
0.000542683
0.000502205
0.000282727
0.000368473
0.00049331
0.000624787
0.000660198
0.000742901
0.00109376
0.00124881
0.00124025
0.00114462
0.00110088
0.00107818
0.00104131
0.00101835
0.000975288
0.000919461
0.000867569
0.000865623
0.000961967
0.00106649
0.00107154
0.000944914
0.000529377
0.000237328
0.000146859
0.000124821
0.000124339
0.000126248
0.000152519
0.000135353
0.000224206
0.000180601
0.000393133
0.000293191
0.000620376
0.000511883
0.000754346
0.000701223
0.000653894
0.000659487
0.000620305
0.000639811
0.000481047
0.000487703
0.000328428
0.000324623
0.000326772
0.000328275
0.000362886
0.000351966
0.000355049
0.000342155
0.000417484
0.000407939
0.00038801
0.000398461
0.000400819
0.000420531
0.000437671
0.000427955
0.000364502
0.000369401
0.000378716
0.000391958
0.000363769
0.000354978
0.000354272
0.000359435
0.000391776
0.000365344
0.000349963
0.000403905
0.0004074
0.000379484
0.000370526
0.000395372
0.000398154
0.000419195
0.00038989
0.000388798
0.000419382
0.000492032
0.000503086
0.00046372
0.000423563
0.000426029
0.000468682
0.000558908
0.000555843
0.000514864
0.000512215
0.000338156
4.55131e-05
0.000174642
0.000541028
0.000489403
0.000326219
0.000468775
0.000602962
0.000671473
0.000711906
0.00101445
0.00124184
0.00123444
0.00110532
0.00105934
0.00104272
0.00102232
0.00100121
0.000969323
0.000933034
0.000922088
0.000956178
0.00106366
0.00117829
0.0011564
0.0010206
0.000527991
0.000253045
0.000152967
0.000123834
0.000119593
0.000119643
0.000122622
0.000119625
0.000136858
0.000127771
0.000177351
0.000152104
0.00027725
0.000216467
0.000462513
0.000363199
0.000621878
0.000553305
0.000540284
0.000506394
0.000503653
0.000525784
0.000332482
0.000355556
0.000270459
0.000257783
0.000329424
0.000314906
0.000295663
0.000377366
0.000366208
0.000379523
0.000366396
0.000424466
0.000420112
0.000408137
0.00041487
0.000407489
0.00043056
0.000434417
0.000429974
0.000368413
0.000378858
0.000390196
0.000403466
0.000346726
0.000351668
0.000362503
0.000374696
0.000355165
0.000344076
0.000344863
0.000390371
0.000381724
0.000351531
0.000348266
0.00036225
0.000374178
0.000384585
0.000362104
0.000372537
0.000382802
0.000474276
0.000473976
0.000433185
0.000384405
0.000390395
0.00044726
0.000509874
0.000525056
0.000463562
0.000452153
0.000312588
2.45712e-05
0.000102981
0.000482437