/*--------------------------------*- C++ -*----------------------------------*\
  =========                 |
  \\      /  F ield         | OpenFOAM: The Open Source CFD Toolbox
   \\    /   O peration     | Website:  https://openfoam.org
    \\  /    A nd           | Version:  dev
     \\/     M anipulation  |
\*---------------------------------------------------------------------------*/
FoamFile
{
    version     2.0;
    format      ascii;
    class       volScalarField;
    location    "2500";
    object      O2;
}
// * * * * * * * * * * * * * * * * * * * * * * * * * * * * * * * * * * * * * //

dimensions      [0 0 0 0 0 0 0];

internalField   nonuniform List<scalar> 
9836
(
0.23301
0.23301
0.23301
0.23301
0.23301
0.23301
0.23301
0.23301
0.23301
0.23301
0.23301
0.23301
0.23301
0.23301
0.23301
0.23301
0.23301
0.23301
0.23301
0.23301
0.23301
0.23301
0.23301
0.23301
0.23301
0.23301
0.23301
0.23301
0.23301
0.23301
0.23301
0.23301
0.23301
0.23301
0.23301
0.23301
0.23301
0.23301
0.23301
0.23301
0.23301
0.23301
0.23301
0.23301
0.23301
0.23301
0.23301
0.23301
0.23301
0.23301
0.23301
0.23301
0.23301
0.23301
0.23301
0.23301
0.23301
0.23301
0.23301
0.23301
0.23301
0.23301
0.23301
0.23301
0.23301
0.23301
0.23301
0.23301
0.23301
0.23301
0.23301
0.23301
0.23301
0.23301
0.23301
0.23301
0.23301
0.23301
0.23301
0.23301
0.23301
0.23301
0.23301
0.23301
0.23301
0.23301
0.23301
0.23301
0.23301
0.23301
0.23301
0.23301
0.23301
0.23301
0.23301
0.23301
0.23301
0.23301
0.23301
0.23301
0.23301
0.23301
0.23301
0.23301
0.23301
0.23301
0.23301
0.23301
0.23301
0.23301
0.23301
0.23301
0.23301
0.23301
0.23301
0.23301
0.23301
0.23301
0.23301
0.23301
0.23301
0.23301
0.23301
0.23301
0.23301
0.23301
0.23301
0.23301
0.23301
0.23301
0.23301
0.23301
0.23301
0.23301
0.23301
0.23301
0.23301
0.23301
0.23301
0.23301
0.23301
0.23301
0.23301
0.23301
0.23301
0.23301
0.23301
0.23301
0.23301
0.23301
0.23301
0.23301
0.23301
0.23301
0.23301
0.23301
0.23301
0.23301
0.23301
0.23301
0.23301
0.23301
0.23301
0.23301
0.23301
0.23301
0.23301
0.23301
0.23301
0.23301
0.23301
0.23301
0.23301
0.23301
0.23301
0.23301
0.23301
0.23301
0.23301
0.23301
0.23301
0.23301
0.23301
0.23301
0.23301
0.23301
0.23301
0.23301
0.23301
0.23301
0.23301
0.23301
0.23301
0.23301
0.23301
0.23301
0.23301
0.23301
0.23301
0.23301
0.23301
0.23301
0.23301
0.23301
0.23301
0.23301
0.23301
0.23301
0.23301
0.23301
0.23301
0.23301
0.23301
0.23301
0.23301
0.23301
0.23301
0.23301
0.23301
0.23301
0.23301
0.23301
0.23301
0.23301
0.23301
0.23301
0.23301
0.23301
0.23301
0.23301
0.23301
0.23301
0.23301
0.23301
0.23301
0.23301
0.23301
0.23301
0.23301
0.23301
0.23301
0.23301
0.23301
0.23301
0.23301
0.23301
0.23301
0.23301
0.23301
0.23301
0.23301
0.23301
0.23301
0.23301
0.23301
0.23301
0.23301
0.23301
0.23301
0.23301
0.23301
0.23301
0.23301
0.23301
0.23301
0.23301
0.23301
0.23301
0.23301
0.23301
0.23301
0.23301
0.23301
0.23301
0.23301
0.23301
0.23301
0.23301
0.23301
0.23301
0.23301
0.23301
0.23301
0.23301
0.23301
0.23301
0.23301
0.23301
0.23301
0.23301
0.23301
0.23301
0.23301
0.23301
0.23301
0.23301
0.23301
0.23301
0.23301
0.23301
0.23301
0.23301
0.23301
0.23301
0.23301
0.23301
0.23301
0.23301
0.23301
0.23301
0.23301
0.23301
0.23301
0.23301
0.23301
0.23301
0.23301
0.23301
0.23301
0.23301
0.23301
0.23301
0.23301
0.23301
0.23301
0.23301
0.23301
0.23301
0.23301
0.23301
0.23301
0.23301
0.23301
0.23301
0.23301
0.23301
0.23301
0.23301
0.23301
0.23301
0.23301
0.23301
0.23301
0.23301
0.23301
0.23301
0.23301
0.23301
0.23301
0.23301
0.23301
0.23301
0.23301
0.23301
0.23301
0.23301
0.23301
0.23301
0.23301
0.23301
0.23301
0.23301
0.23301
0.23301
0.23301
0.23301
0.23301
0.23301
0.23301
0.23301
0.23301
0.23301
0.23301
0.23301
0.23301
0.23301
0.23301
0.23301
0.23301
0.23301
0.23301
0.23301
0.23301
0.23301
0.23301
0.23301
0.23301
0.23301
0.23301
0.23301
0.23301
0.23301
0.23301
0.23301
0.23301
0.23301
0.23301
0.23301
0.23301
0.23301
0.23301
0.23301
0.23301
0.23301
0.23301
0.23301
0.23301
0.23301
0.23301
0.23301
0.23301
0.23301
0.23301
0.23301
0.23301
0.23301
0.23301
0.23301
0.23301
0.23301
0.23301
0.23301
0.23301
0.23301
0.23301
0.23301
0.23301
0.23301
0.23301
0.23301
0.23301
0.23301
0.23301
0.23301
0.23301
0.23301
0.23301
0.23301
0.23301
0.23301
0.23301
0.23301
0.23301
0.23301
0.23301
0.23301
0.23301
0.23301
0.23301
0.23301
0.23301
0.23301
0.23301
0.23301
0.23301
0.23301
0.23301
0.23301
0.23301
0.23301
0.23301
0.23301
0.23301
0.23301
0.23301
0.23301
0.23301
0.23301
0.23301
0.23301
0.23301
0.23301
0.23301
0.23301
0.23301
0.23301
0.23301
0.23301
0.23301
0.23301
0.23301
0.23301
0.23301
0.23301
0.23301
0.23301
0.23301
0.23301
0.23301
0.23301
0.23301
0.23301
0.23301
0.23301
0.23301
0.23301
0.23301
0.23301
0.23301
0.23301
0.23301
0.23301
0.23301
0.23301
0.23301
0.23301
0.23301
0.23301
0.23301
0.23301
0.23301
0.23301
0.23301
0.23301
0.23301
0.23301
0.23301
0.23301
0.23301
0.23301
0.23301
0.23301
0.23301
0.23301
0.23301
0.23301
0.23301
0.23301
0.23301
0.23301
0.23301
0.23301
0.23301
0.23301
0.23301
0.23301
0.23301
0.23301
0.23301
0.23301
0.23301
0.23301
0.23301
0.23301
0.23301
0.23301
0.23301
0.23301
0.23301
0.23301
0.23301
0.23301
0.23301
0.23301
0.23301
0.23301
0.23301
0.23301
0.23301
0.23301
0.23301
0.23301
0.23301
0.23301
0.23301
0.23301
0.23301
0.23301
0.23301
0.23301
0.23301
0.23301
0.23301
0.23301
0.23301
0.23301
0.23301
0.23301
0.23301
0.23301
0.23301
0.23301
0.23301
0.23301
0.23301
0.23301
0.23301
0.23301
0.23301
0.23301
0.23301
0.23301
0.23301
0.23301
0.23301
0.23301
0.23301
0.23301
0.23301
0.23301
0.23301
0.23301
0.23301
0.23301
0.23301
0.23301
0.23301
0.23301
0.23301
0.23301
0.23301
0.23301
0.23301
0.23301
0.23301
0.23301
0.23301
0.23301
0.23301
0.23301
0.23301
0.23301
0.23301
0.23301
0.23301
0.23301
0.23301
0.23301
0.23301
0.23301
0.23301
0.23301
0.23301
0.23301
0.23301
0.23301
0.23301
0.23301
0.23301
0.23301
0.23301
0.23301
0.23301
0.23301
0.23301
0.23301
0.23301
0.23301
0.23301
0.23301
0.23301
0.23301
0.23301
0.23301
0.23301
0.23301
0.23301
0.23301
0.23301
0.23301
0.23301
0.23301
0.23301
0.23301
0.23301
0.23301
0.23301
0.23301
0.23301
0.23301
0.23301
0.23301
0.23301
0.23301
0.23301
0.23301
0.23301
0.23301
0.23301
0.23301
0.23301
0.23301
0.23301
0.23301
0.23301
0.23301
0.23301
0.23301
0.23301
0.23301
0.23301
0.23301
0.23301
0.23301
0.23301
0.23301
0.23301
0.23301
0.23301
0.23301
0.23301
0.23301
0.23301
0.23301
0.23301
0.23301
0.23301
0.23301
0.23301
0.23301
0.23301
0.23301
0.23301
0.23301
0.23301
0.23301
0.23301
0.23301
0.23301
0.23301
0.23301
0.23301
0.23301
0.23301
0.23301
0.23301
0.23301
0.23301
0.23301
0.23301
0.23301
0.23301
0.23301
0.23301
0.23301
0.23301
0.23301
0.23301
0.23301
0.23301
0.23301
0.23301
0.23301
0.23301
0.23301
0.23301
0.23301
0.23301
0.23301
0.23301
0.23301
0.23301
0.23301
0.23301
0.23301
0.23301
0.23301
0.23301
0.23301
0.23301
0.23301
0.23301
0.23301
0.23301
0.23301
0.23301
0.23301
0.23301
0.23301
0.23301
0.23301
0.23301
0.23301
0.23301
0.23301
0.23301
0.23301
0.23301
0.23301
0.23301
0.23301
0.23301
0.23301
0.23301
0.23301
0.23301
0.23301
0.23301
0.23301
0.23301
0.23301
0.23301
0.23301
0.23301
0.23301
0.23301
0.23301
0.23301
0.23301
0.23301
0.23301
0.23301
0.23301
0.23301
0.23301
0.23301
0.23301
0.23301
0.23301
0.23301
0.23301
0.23301
0.23301
0.23301
0.23301
0.23301
0.23301
0.23301
0.23301
0.23301
0.23301
0.23301
0.23301
0.23301
0.23301
0.23301
0.23301
0.23301
0.23301
0.23301
0.23301
0.23301
0.23301
0.23301
0.23301
0.23301
0.23301
0.23301
0.23301
0.23301
0.23301
0.23301
0.23301
0.23301
0.23301
0.23301
0.23301
0.23301
0.23301
0.23301
0.23301
0.23301
0.23301
0.23301
0.23301
0.23301
0.23301
0.23301
0.23301
0.23301
0.23301
0.23301
0.23301
0.23301
0.23301
0.23301
0.23301
0.23301
0.23301
0.23301
0.23301
0.23301
0.23301
0.23301
0.23301
0.23301
0.23301
0.23301
0.23301
0.23301
0.23301
0.23301
0.23301
0.23301
0.23301
0.23301
0.23301
0.23301
0.23301
0.23301
0.23301
0.23301
0.23301
0.23301
0.23301
0.23301
0.23301
0.23301
0.23301
0.23301
0.23301
0.23301
0.23301
0.23301
0.23301
0.23301
0.23301
0.23301
0.23301
0.23301
0.23301
0.23301
0.23301
0.23301
0.23301
0.23301
0.23301
0.23301
0.23301
0.23301
0.23301
0.23301
0.23301
0.23301
0.23301
0.23301
0.23301
0.23301
0.23301
0.23301
0.23301
0.23301
0.23301
0.23301
0.23301
0.23301
0.23301
0.23301
0.23301
0.23301
0.23301
0.23301
0.23301
0.23301
0.23301
0.23301
0.23301
0.23301
0.23301
0.23301
0.23301
0.23301
0.23301
0.23301
0.23301
0.23301
0.23301
0.23301
0.23301
0.23301
0.23301
0.23301
0.23301
0.23301
0.23301
0.23301
0.23301
0.23301
0.23301
0.23301
0.23301
0.23301
0.23301
0.23301
0.23301
0.23301
0.23301
0.23301
0.23301
0.23301
0.23301
0.23301
0.23301
0.23301
0.23301
0.23301
0.23301
0.23301
0.23301
0.23301
0.23301
0.23301
0.23301
0.233009
0.233009
0.233009
0.23301
0.233009
0.23301
0.233009
0.23301
0.23301
0.23301
0.23301
0.23301
0.23301
0.23301
0.23301
0.23301
0.23301
0.23301
0.23301
0.23301
0.23301
0.23301
0.23301
0.23301
0.23301
0.23301
0.23301
0.23301
0.23301
0.23301
0.23301
0.23301
0.23301
0.23301
0.23301
0.23301
0.23301
0.23301
0.23301
0.23301
0.23301
0.23301
0.23301
0.23301
0.23301
0.23301
0.23301
0.23301
0.23301
0.23301
0.23301
0.233009
0.233008
0.233008
0.233005
0.233006
0.233001
0.233005
0.232997
0.233006
0.232998
0.233008
0.233003
0.233009
0.233007
0.233009
0.23301
0.233009
0.233009
0.23301
0.23301
0.23301
0.23301
0.23301
0.23301
0.23301
0.23301
0.23301
0.23301
0.23301
0.23301
0.23301
0.23301
0.23301
0.23301
0.23301
0.23301
0.23301
0.23301
0.23301
0.23301
0.23301
0.23301
0.23301
0.23301
0.23301
0.23301
0.23301
0.23301
0.23301
0.23301
0.23301
0.23301
0.233009
0.233009
0.233009
0.233011
0.233008
0.233007
0.233001
0.232993
0.232989
0.232965
0.232978
0.232936
0.232976
0.232922
0.232984
0.232934
0.232997
0.232962
0.233006
0.232989
0.233005
0.23301
0.233005
0.233005
0.23301
0.23301
0.23301
0.23301
0.23301
0.23301
0.23301
0.23301
0.23301
0.23301
0.23301
0.23301
0.23301
0.23301
0.23301
0.23301
0.23301
0.23301
0.23301
0.23301
0.233009
0.233009
0.233009
0.233009
0.233009
0.233009
0.23301
0.23301
0.23301
0.23301
0.23301
0.233009
0.233009
0.233007
0.233006
0.233005
0.233
0.233005
0.233001
0.232985
0.232974
0.232932
0.232881
0.232856
0.232733
0.232805
0.232595
0.23281
0.232546
0.232861
0.232626
0.23293
0.232756
0.232982
0.232894
0.232977
0.233007
0.232976
0.232982
0.23301
0.233008
0.23301
0.23301
0.23301
0.23301
0.23301
0.23301
0.23301
0.23301
0.23301
0.23301
0.23301
0.23301
0.23301
0.23301
0.23301
0.23301
0.23301
0.233009
0.233008
0.233007
0.233006
0.233006
0.233006
0.233007
0.233008
0.233009
0.233009
0.23301
0.233009
0.233006
0.233
0.232993
0.232987
0.232982
0.232972
0.232927
0.232896
0.232965
0.232949
0.232826
0.232754
0.23258
0.232403
0.232315
0.231999
0.232147
0.231682
0.23215
0.231549
0.232351
0.231656
0.232629
0.232028
0.232861
0.232505
0.232843
0.232991
0.232845
0.232872
0.233009
0.233001
0.23301
0.23301
0.23301
0.23301
0.23301
0.23301
0.23301
0.23301
0.23301
0.23301
0.23301
0.23301
0.23301
0.23301
0.23301
0.23301
0.233009
0.233007
0.233005
0.233001
0.232997
0.232996
0.232998
0.233001
0.233004
0.233007
0.233008
0.233009
0.233005
0.232987
0.232948
0.232905
0.232881
0.23288
0.23287
0.232833
0.232755
0.232541
0.232452
0.232684
0.232605
0.232226
0.232047
0.231682
0.231382
0.231202
0.230753
0.230915
0.2303
0.230876
0.230093
0.231121
0.230174
0.231688
0.230599
0.232405
0.231405
0.232359
0.232918
0.232381
0.232491
0.233007
0.232963
0.23301
0.233009
0.23301
0.23301
0.23301
0.23301
0.23301
0.23301
0.23301
0.23301
0.23301
0.23301
0.23301
0.23301
0.23301
0.233009
0.233008
0.233003
0.232994
0.232981
0.232971
0.232967
0.232972
0.232982
0.232992
0.233
0.233004
0.233007
0.232997
0.23293
0.23276
0.232547
0.232478
0.232523
0.232568
0.232567
0.232464
0.232368
0.232213
0.231645
0.231543
0.231889
0.231754
0.231115
0.230879
0.230352
0.230002
0.229732
0.229244
0.229368
0.228712
0.229277
0.228456
0.229503
0.228502
0.230117
0.228907
0.231211
0.229749
0.231146
0.232654
0.231243
0.231544
0.232992
0.232814
0.23301
0.233006
0.23301
0.23301
0.23301
0.23301
0.23301
0.23301
0.23301
0.23301
0.23301
0.23301
0.23301
0.23301
0.23301
0.233009
0.233005
0.232993
0.232967
0.232928
0.232894
0.232879
0.23289
0.232919
0.232951
0.232978
0.232994
0.233002
0.232988
0.232849
0.232422
0.231852
0.231497
0.231571
0.231879
0.231725
0.232066
0.231698
0.23145
0.231322
0.230439
0.230352
0.23069
0.230546
0.229709
0.229469
0.22883
0.228485
0.228151
0.227728
0.227772
0.227292
0.227659
0.227107
0.227836
0.227114
0.228411
0.227354
0.229516
0.228065
0.229452
0.231939
0.22955
0.229918
0.232935
0.232373
0.23301
0.232994
0.23301
0.23301
0.23301
0.23301
0.23301
0.23301
0.23301
0.23301
0.23301
0.23301
0.23301
0.23301
0.233008
0.233
0.232974
0.232912
0.232814
0.232713
0.23265
0.232658
0.23273
0.232832
0.232918
0.232968
0.232992
0.232981
0.23278
0.232125
0.231134
0.23045
0.230217
0.230445
0.230891
0.230723
0.23038
0.231185
0.230954
0.230275
0.230186
0.229085
0.229029
0.22929
0.229166
0.228222
0.228038
0.227454
0.227294
0.227029
0.226897
0.226807
0.226666
0.226716
0.226531
0.22677
0.226484
0.22707
0.226561
0.227886
0.226901
0.22788
0.230561
0.228031
0.228405
0.232747
0.231449
0.233009
0.232954
0.23301
0.23301
0.23301
0.23301
0.23301
0.23301
0.23301
0.23301
0.23301
0.23301
0.233009
0.233006
0.232992
0.232944
0.232824
0.23263
0.232431
0.232317
0.23232
0.23242
0.232579
0.232759
0.232904
0.232968
0.232972
0.232739
0.231895
0.230668
0.229753
0.229288
0.229116
0.229341
0.230009
0.229611
0.229714
0.229433
0.230074
0.229913
0.228987
0.228943
0.22784
0.227838
0.227926
0.227865
0.227215
0.22719
0.226864
0.226888
0.226656
0.226689
0.226497
0.226531
0.226379
0.226387
0.22634
0.226272
0.226436
0.226237
0.226825
0.226358
0.22684
0.229022
0.226969
0.22722
0.227985
0.232245
0.230015
0.233003
0.232792
0.23301
0.23301
0.23301
0.23301
0.23301
0.23301
0.23301
0.23301
0.23301
0.233009
0.233005
0.232983
0.232906
0.23271
0.232406
0.232116
0.231954
0.231944
0.232063
0.232269
0.232515
0.232754
0.232914
0.232954
0.232718
0.231762
0.230385
0.22962
0.229119
0.228703
0.228414
0.228193
0.229164
0.22857
0.228648
0.228468
0.228878
0.228783
0.227844
0.227846
0.227225
0.227245
0.227195
0.227211
0.226929
0.226988
0.226769
0.226903
0.226625
0.226822
0.226456
0.226636
0.226285
0.226367
0.226173
0.226173
0.226167
0.22607
0.226321
0.226132
0.226215
0.226585
0.226329
0.227459
0.22865
0.22768
0.226745
0.226403
0.226379
0.226851
0.231182
0.22805
0.228395
0.229552
0.232869
0.23198
0.23301
0.23301
0.23301
0.23301
0.23301
0.23301
0.23301
0.23301
0.233009
0.233004
0.232976
0.232869
0.232596
0.232183
0.231801
0.231577
0.231547
0.231683
0.231933
0.23224
0.23254
0.232788
0.232917
0.232709
0.231712
0.230412
0.229753
0.229302
0.228894
0.228457
0.227912
0.22757
0.22741
0.228228
0.227911
0.22775
0.227651
0.227837
0.227809
0.227254
0.227258
0.227115
0.227118
0.227044
0.22709
0.227061
0.2272
0.227085
0.22736
0.226922
0.227262
0.226534
0.226793
0.226212
0.226308
0.226057
0.226025
0.225992
0.225959
0.226062
0.225978
0.225902
0.225758
0.225882
0.226115
0.226196
0.22609
0.226024
0.226199
0.227016
0.227237
0.226476
0.226254
0.22622
0.226571
0.228818
0.230375
0.229121
0.227505
0.227799
0.230738
0.229248
0.229297
0.230517
0.23301
0.23301
0.23301
0.23301
0.23301
0.23301
0.23301
0.233009
0.233004
0.232973
0.232842
0.232502
0.231986
0.231503
0.2312
0.231141
0.231302
0.231593
0.231949
0.232309
0.232626
0.232831
0.23269
0.231724
0.230494
0.230029
0.229832
0.22968
0.229194
0.228405
0.227532
0.227146
0.227127
0.22749
0.227293
0.2272
0.227127
0.227254
0.227238
0.227111
0.227092
0.227323
0.227288
0.227293
0.22733
0.227601
0.227764
0.227633
0.227995
0.227175
0.227642
0.226499
0.226833
0.225944
0.225949
0.225987
0.226067
0.225831
0.225764
0.225712
0.225917
0.225781
0.225646
0.225452
0.22562
0.225989
0.226082
0.225963
0.225854
0.226089
0.226703
0.226872
0.226309
0.226109
0.226145
0.226385
0.228073
0.228195
0.227069
0.227269
0.227725
0.23204
0.229001
0.228028
0.227629
0.23301
0.23301
0.23301
0.23301
0.23301
0.23301
0.23301
0.233005
0.232973
0.232831
0.232438
0.231829
0.23124
0.230841
0.230765
0.230952
0.231276
0.231677
0.232088
0.232459
0.232717
0.232641
0.231748
0.230613
0.230257
0.230403
0.230939
0.231108
0.23037
0.229095
0.227353
0.228062
0.226955
0.227048
0.227029
0.226952
0.226936
0.226867
0.227052
0.226999
0.227213
0.227122
0.227739
0.2276
0.227821
0.227807
0.228282
0.228433
0.228153
0.228636
0.227324
0.227958
0.22619
0.226387
0.22661
0.226916
0.225693
0.225712
0.225784
0.225915
0.225539
0.22546
0.225425
0.225679
0.22547
0.225306
0.225075
0.225255
0.225801
0.225953
0.225766
0.225584
0.225962
0.226484
0.226604
0.226196
0.22599
0.226035
0.226261
0.227409
0.227368
0.226732
0.22684
0.227515
0.232245
0.229677
0.227115
0.226915
0.23301
0.23301
0.23301
0.23301
0.23301
0.23301
0.233006
0.232976
0.232832
0.232412
0.231724
0.231028
0.230525
0.230435
0.230641
0.230998
0.231447
0.231902
0.232313
0.232586
0.23255
0.231748
0.230714
0.230427
0.230766
0.231698
0.232213
0.232085
0.231452
0.230328
0.227702
0.228707
0.226899
0.227144
0.22682
0.226825
0.22684
0.226782
0.227026
0.226929
0.227434
0.227262
0.228189
0.227955
0.228438
0.228368
0.228997
0.229158
0.228639
0.229236
0.227231
0.227622
0.227985
0.228397
0.226102
0.226341
0.226628
0.226972
0.225455
0.225552
0.225698
0.225889
0.225205
0.225185
0.225255
0.225326
0.225062
0.22497
0.224758
0.22485
0.225509
0.225755
0.225463
0.225198
0.22577
0.226338
0.226421
0.226096
0.225814
0.225883
0.226165
0.226867
0.226761
0.226494
0.226529
0.227787
0.232116
0.229716
0.226601
0.226826
0.23301
0.23301
0.23301
0.23301
0.23301
0.233007
0.232984
0.232849
0.232418
0.23168
0.230883
0.230267
0.230151
0.230365
0.23077
0.231275
0.231781
0.232199
0.232446
0.232419
0.231712
0.230785
0.230547
0.230949
0.231988
0.232595
0.232731
0.23259
0.232189
0.230553
0.231709
0.228276
0.22938
0.227038
0.227504
0.22678
0.226838
0.226875
0.226854
0.227101
0.226965
0.22771
0.227479
0.228733
0.228432
0.229137
0.228997
0.229637
0.229849
0.228961
0.229459
0.227351
0.227755
0.228147
0.228517
0.226128
0.22642
0.226761
0.227143
0.225382
0.225554
0.225771
0.226027
0.224986
0.225098
0.225277
0.224885
0.22464
0.224812
0.224644
0.224555
0.225102
0.225452
0.225044
0.224731
0.225478
0.226236
0.226301
0.225972
0.225546
0.225656
0.226066
0.226488
0.226384
0.226342
0.226337
0.227949
0.232088
0.229667
0.226389
0.226867
0.23301
0.23301
0.23301
0.23301
0.233009
0.232993
0.232885
0.232465
0.231685
0.230815
0.230084
0.229907
0.230113
0.230565
0.231149
0.231688
0.232068
0.232302
0.232258
0.231603
0.23082
0.230632
0.231027
0.232003
0.232672
0.232894
0.232916
0.23284
0.232736
0.231337
0.232249
0.22905
0.230207
0.227451
0.228111
0.226896
0.227061
0.227086
0.227108
0.227284
0.227144
0.228135
0.227876
0.229522
0.229206
0.22991
0.229785
0.229824
0.230072
0.228839
0.229053
0.22937
0.229202
0.227543
0.227937
0.228296
0.228593
0.226324
0.226662
0.227031
0.227413
0.22551
0.225773
0.226058
0.226366
0.224978
0.225238
0.225552
0.224447
0.224361
0.224879
0.224777
0.224474
0.224613
0.225033
0.22454
0.224273
0.225075
0.226153
0.226222
0.225793
0.225177
0.22534
0.225937
0.226273
0.226209
0.226255
0.226234
0.228009
0.231492
0.22955
0.226327
0.226916
0.23301
0.23301
0.23301
0.233009
0.232999
0.232921
0.232564
0.231748
0.230813
0.229987
0.229709
0.229879
0.230362
0.230998
0.231517
0.231885
0.232113
0.232051
0.231452
0.230824
0.230688
0.231058
0.23195
0.232659
0.232918
0.232982
0.232981
0.232966
0.232874
0.232979
0.232061
0.23264
0.230012
0.231131
0.228152
0.228969
0.227242
0.22758
0.227561
0.22766
0.227679
0.227567
0.228885
0.228614
0.230504
0.230289
0.230301
0.230461
0.229497
0.229669
0.229782
0.228661
0.228744
0.228884
0.228808
0.227779
0.228097
0.228347
0.228537
0.226698
0.227044
0.227385
0.227696
0.225882
0.226213
0.226541
0.226863
0.225234
0.225642
0.226057
0.224168
0.22429
0.22522
0.225151
0.224637
0.224128
0.224523
0.224023
0.223988
0.224578
0.226068
0.226167
0.225543
0.224713
0.224934
0.225758
0.226167
0.226143
0.226212
0.226196
0.228162
0.232587
0.230732
0.226325
0.227022
0.23301
0.23301
0.23301
0.233004
0.232953
0.232672
0.23191
0.230871
0.229976
0.229567
0.229669
0.230129
0.230768
0.231254
0.231624
0.231844
0.231734
0.231196
0.230811
0.230724
0.231075
0.231871
0.232607
0.232913
0.232991
0.233004
0.233004
0.233007
0.232975
0.233003
0.232628
0.232887
0.231132
0.23205
0.229165
0.230092
0.227945
0.228447
0.228415
0.228633
0.228431
0.228362
0.230011
0.229765
0.230971
0.231196
0.230239
0.230634
0.228993
0.229174
0.228516
0.228864
0.228196
0.228135
0.228093
0.228097
0.227939
0.228112
0.228204
0.228222
0.227172
0.227454
0.227679
0.227824
0.22645
0.226804
0.227112
0.227372
0.225724
0.226232
0.226696
0.224072
0.224446
0.225741
0.225647
0.225001
0.223807
0.223976
0.223645
0.223842
0.224023
0.225957
0.226111
0.225212
0.224183
0.224449
0.225517
0.226129
0.226132
0.226193
0.226196
0.228742
0.232843
0.23169
0.226362
0.22728
0.23301
0.23301
0.233007
0.232976
0.232778
0.23211
0.231053
0.230022
0.229499
0.2295
0.229875
0.230483
0.230923
0.231287
0.231459
0.231299
0.230981
0.230794
0.230754
0.231104
0.231843
0.232577
0.232904
0.232992
0.233007
0.233009
0.233009
0.233009
0.23301
0.233003
0.233009
0.23291
0.232982
0.232201
0.232694
0.230497
0.231405
0.229058
0.229685
0.229721
0.23004
0.229621
0.229589
0.231264
0.231185
0.23094
0.231466
0.229233
0.229695
0.230133
0.228148
0.228289
0.227492
0.227874
0.227404
0.227216
0.227042
0.227083
0.227892
0.227869
0.227758
0.227594
0.227572
0.227697
0.227727
0.227684
0.227079
0.227372
0.227572
0.227685
0.226333
0.226862
0.227279
0.224184
0.224753
0.2263
0.226104
0.225424
0.223611
0.223517
0.223386
0.223859
0.22348
0.225806
0.226041
0.22481
0.22361
0.223918
0.225215
0.226135
0.226147
0.226184
0.226218
0.229563
0.232974
0.232436
0.226447
0.227662
0.23301
0.233008
0.232992
0.232862
0.232331
0.231312
0.230194
0.2295
0.229389
0.22965
0.23019
0.230599
0.230921
0.231024
0.230958
0.230853
0.230767
0.230802
0.231168
0.231868
0.232582
0.232906
0.232993
0.233008
0.23301
0.23301
0.23301
0.23301
0.23301
0.233009
0.23301
0.232993
0.233006
0.232815
0.232949
0.231914
0.232487
0.230553
0.231214
0.231327
0.231657
0.231123
0.231147
0.231824
0.232101
0.229891
0.23051
0.231079
0.228357
0.228924
0.229297
0.228585
0.227068
0.227223
0.226382
0.226818
0.226323
0.22605
0.225822
0.225871
0.227519
0.227269
0.226969
0.226643
0.227692
0.227633
0.227441
0.227149
0.227561
0.227715
0.227735
0.227682
0.226882
0.227333
0.227625
0.2244
0.225059
0.226713
0.226344
0.225736
0.223515
0.22319
0.223178
0.223943
0.223048
0.225616
0.225953
0.224356
0.22306
0.223374
0.22488
0.226165
0.22618
0.22618
0.226249
0.230518
0.233004
0.232828
0.226549
0.228143
0.233009
0.233002
0.232926
0.232534
0.231617
0.23049
0.229571
0.229351
0.229473
0.229925
0.230325
0.2306
0.230747
0.230786
0.230764
0.230784
0.230903
0.231308
0.231975
0.232631
0.232916
0.232995
0.233008
0.23301
0.23301
0.23301
0.23301
0.23301
0.23301
0.23301
0.23301
0.23301
0.233008
0.233009
0.232983
0.233002
0.232775
0.232924
0.232078
0.232484
0.232542
0.232703
0.232258
0.232393
0.231815
0.232274
0.229246
0.229943
0.229935
0.230574
0.227351
0.227952
0.228527
0.227802
0.225867
0.226061
0.225387
0.225873
0.225095
0.224796
0.224615
0.224636
0.226775
0.22635
0.225908
0.225479
0.227486
0.227171
0.226773
0.226298
0.227731
0.227721
0.227575
0.2273
0.227194
0.227508
0.227619
0.224543
0.22517
0.226834
0.226225
0.225744
0.223447
0.222914
0.222969
0.223918
0.222666
0.225403
0.225859
0.2239
0.222566
0.222871
0.224544
0.226209
0.226216
0.226177
0.226287
0.231577
0.233008
0.232916
0.226667
0.228818
0.233006
0.232965
0.232714
0.231927
0.230844
0.229795
0.229367
0.229374
0.229714
0.230099
0.230377
0.230552
0.23067
0.230768
0.230864
0.231105
0.231587
0.232238
0.232728
0.232941
0.232999
0.233009
0.23301
0.23301
0.23301
0.23301
0.23301
0.23301
0.23301
0.23301
0.23301
0.23301
0.233009
0.23301
0.233006
0.233008
0.232978
0.232998
0.232841
0.232932
0.232857
0.232923
0.232555
0.232743
0.231028
0.23148
0.231873
0.228586
0.22929
0.229467
0.230102
0.22645
0.2271
0.227854
0.227138
0.224729
0.224996
0.224712
0.225271
0.223918
0.223659
0.223613
0.223571
0.22578
0.225252
0.224746
0.224293
0.226904
0.226415
0.225867
0.225305
0.227606
0.227436
0.227098
0.226613
0.227178
0.227361
0.22738
0.224463
0.224974
0.226607
0.225762
0.225416
0.223284
0.222588
0.222638
0.223689
0.222262
0.225207
0.225779
0.223501
0.222159
0.222468
0.224287
0.226249
0.226249
0.226165
0.226312
0.231995
0.233009
0.232957
0.226817
0.229275
0.232992
0.232833
0.232252
0.231203
0.230174
0.229463
0.229361
0.229573
0.229942
0.230241
0.230485
0.230681
0.230845
0.231063
0.23146
0.232014
0.232523
0.232832
0.232967
0.233003
0.233009
0.23301
0.23301
0.23301
0.23301
0.23301
0.23301
0.23301
0.23301
0.23301
0.23301
0.23301
0.23301
0.23301
0.233008
0.233009
0.233
0.233005
0.232965
0.232988
0.23285
0.232929
0.232382
0.232685
0.230669
0.23117
0.231752
0.231309
0.228105
0.22879
0.229095
0.229711
0.225855
0.226471
0.227453
0.226846
0.223844
0.224221
0.224528
0.225141
0.222939
0.222776
0.222909
0.222773
0.224734
0.224179
0.223677
0.223254
0.226057
0.225473
0.224845
0.224217
0.22723
0.226872
0.226336
0.225682
0.226851
0.226892
0.226813
0.224086
0.224392
0.225983
0.224783
0.224642
0.222878
0.222168
0.222142
0.223149
0.221873
0.22507
0.225717
0.22323
0.221813
0.222177
0.224129
0.226275
0.226276
0.226156
0.226313
0.232179
0.23301
0.232979
0.226909
0.229381
0.232932
0.232494
0.231619
0.23055
0.229778
0.229406
0.229518
0.229846
0.230197
0.230506
0.230765
0.231052
0.231453
0.231961
0.232411
0.232729
0.232912
0.232987
0.233006
0.233009
0.23301
0.23301
0.23301
0.23301
0.23301
0.23301
0.23301
0.23301
0.23301
0.23301
0.23301
0.23301
0.23301
0.23301
0.23301
0.233008
0.233009
0.233002
0.233006
0.23297
0.232992
0.232812
0.232919
0.232143
0.232578
0.230304
0.230841
0.231514
0.231058
0.227915
0.228494
0.228949
0.229476
0.225716
0.226274
0.227362
0.22685
0.22332
0.223869
0.224611
0.225334
0.222041
0.222011
0.222455
0.222109
0.223614
0.223064
0.2226
0.222252
0.225001
0.224336
0.223655
0.223012
0.226473
0.225912
0.225227
0.224452
0.226037
0.225977
0.225677
0.223378
0.223513
0.224806
0.223544
0.223556
0.222201
0.221743
0.221624
0.222261
0.221538
0.224989
0.225676
0.22302
0.22157
0.221876
0.223974
0.226275
0.226273
0.226134
0.226299
0.232292
0.23301
0.232975
0.226903
0.229329
0.232757
0.231933
0.231018
0.23014
0.229638
0.229531
0.229812
0.230204
0.230578
0.23097
0.231424
0.231932
0.232334
0.232644
0.23285
0.232954
0.232995
0.233007
0.23301
0.23301
0.23301
0.23301
0.23301
0.23301
0.23301
0.23301
0.23301
0.23301
0.23301
0.23301
0.23301
0.23301
0.23301
0.23301
0.23301
0.233009
0.233009
0.233002
0.233007
0.232969
0.232992
0.232759
0.232902
0.2317
0.232104
0.232437
0.230013
0.23055
0.231283
0.230832
0.22795
0.228434
0.228989
0.229438
0.225899
0.226379
0.227519
0.227149
0.223047
0.223805
0.224904
0.225829
0.221281
0.221341
0.222181
0.221639
0.222436
0.221946
0.221573
0.221341
0.2237
0.223015
0.22235
0.22177
0.225158
0.224502
0.223719
0.222937
0.224713
0.22442
0.223916
0.222251
0.222148
0.223384
0.221856
0.222026
0.221584
0.221374
0.221314
0.221579
0.221306
0.224889
0.225621
0.222707
0.221325
0.221582
0.223754
0.226251
0.226246
0.226094
0.22625
0.232218
0.232993
0.232885
0.226825
0.229002
0.232399
0.231331
0.230604
0.229987
0.229659
0.229825
0.230234
0.230731
0.231266
0.231813
0.232216
0.232532
0.232741
0.232878
0.232957
0.232994
0.233007
0.23301
0.23301
0.23301
0.23301
0.23301
0.23301
0.23301
0.23301
0.23301
0.23301
0.23301
0.23301
0.23301
0.23301
0.23301
0.23301
0.23301
0.23301
0.233009
0.23301
0.233003
0.233007
0.232966
0.232992
0.232675
0.232878
0.231545
0.23192
0.232423
0.232111
0.229905
0.230371
0.23116
0.23076
0.228216
0.228577
0.229244
0.229583
0.226431
0.226818
0.22792
0.22769
0.22296
0.223873
0.225298
0.226396
0.220668
0.220936
0.222084
0.221402
0.221293
0.22092
0.22068
0.22062
0.222214
0.221596
0.221037
0.220608
0.223284
0.222613
0.22192
0.221288
0.223078
0.222575
0.221918
0.221534
0.221475
0.22157
0.221255
0.221408
0.221339
0.22118
0.22109
0.22131
0.221168
0.224702
0.225491
0.22228
0.221179
0.221377
0.223299
0.226202
0.226179
0.225946
0.226136
0.231618
0.232045
0.231842
0.226624
0.227863
0.231921
0.230887
0.230431
0.229999
0.229928
0.230299
0.230902
0.231531
0.232035
0.232364
0.232563
0.232723
0.232847
0.232933
0.232981
0.233003
0.233009
0.23301
0.23301
0.23301
0.23301
0.23301
0.23301
0.23301
0.23301
0.23301
0.23301
0.23301
0.23301
0.23301
0.23301
0.23301
0.23301
0.23301
0.23301
0.23301
0.233009
0.23301
0.233002
0.233007
0.232958
0.23299
0.232375
0.232572
0.232755
0.232878
0.231503
0.231827
0.232124
0.229957
0.230355
0.231164
0.230832
0.228714
0.228952
0.229742
0.229959
0.22714
0.227481
0.228532
0.228397
0.222987
0.224084
0.225741
0.227003
0.220383
0.220752
0.222063
0.221307
0.220314
0.220156
0.22013
0.220176
0.220761
0.220356
0.220068
0.219891
0.221387
0.220885
0.220471
0.22014
0.221247
0.220792
0.220573
0.221163
0.221095
0.22105
0.221038
0.221084
0.221013
0.220944
0.220727
0.220958
0.220973
0.224361
0.225099
0.221792
0.221085
0.221238
0.222643
0.226061
0.225999
0.225636
0.225796
0.228798
0.227772
0.227593
0.226161
0.226421
0.231473
0.230681
0.230436
0.230239
0.23045
0.231043
0.231717
0.232145
0.232379
0.232536
0.232656
0.232761
0.232856
0.232942
0.232989
0.233006
0.23301
0.23301
0.23301
0.23301
0.23301
0.23301
0.23301
0.23301
0.23301
0.23301
0.23301
0.23301
0.23301
0.23301
0.23301
0.23301
0.23301
0.23301
0.23301
0.23301
0.233009
0.23301
0.233003
0.233007
0.232957
0.23299
0.232396
0.232653
0.232764
0.232913
0.231591
0.231857
0.232204
0.230219
0.230513
0.231335
0.231097
0.229428
0.229568
0.230455
0.230572
0.227855
0.22821
0.229294
0.229163
0.223063
0.224349
0.226102
0.227625
0.220247
0.220653
0.222043
0.221248
0.219805
0.219798
0.21983
0.219992
0.2199
0.219742
0.219619
0.219568
0.220225
0.219912
0.219676
0.219536
0.2209
0.220742
0.219149
0.220963
0.21959
0.21946
0.219601
0.219609
0.220675
0.220596
0.220509
0.220745
0.220651
0.223542
0.224452
0.221501
0.220822
0.221159
0.221934
0.225719
0.225647
0.225012
0.225302
0.226106
0.226126
0.225362
0.225553
0.225343
0.231187
0.230661
0.230662
0.230702
0.231168
0.231814
0.232182
0.232362
0.232472
0.232556
0.232623
0.232715
0.232843
0.232947
0.232996
0.233008
0.23301
0.23301
0.23301