/*--------------------------------*- C++ -*----------------------------------*\
  =========                 |
  \\      /  F ield         | OpenFOAM: The Open Source CFD Toolbox
   \\    /   O peration     | Website:  https://openfoam.org
    \\  /    A nd           | Version:  dev
     \\/     M anipulation  |
\*---------------------------------------------------------------------------*/
FoamFile
{
    version     2.0;
    format      ascii;
    class       volScalarField;
    location    "2500";
    object      omega;
}
// * * * * * * * * * * * * * * * * * * * * * * * * * * * * * * * * * * * * * //

dimensions      [0 0 -1 0 0 0 0];

internalField   nonuniform List<scalar> 
9836
(
1.24829
1.26039
1.20931
1.17749
1.34639
1.09959
1.08033
1.35617
1.28109
1.03688
1.03438
1.32165
1.34803
1.15174
1.02077
1.01261
1.2353
1.37004
1.27396
1.06721
1.01383
1.00204
1.13069
1.35983
1.34041
1.14808
1.03593
1.00925
0.992228
1.06466
1.32006
1.36275
1.24984
1.06758
1.02319
1.00573
0.986072
1.02406
1.23616
1.36683
1.32152
1.13052
1.03559
1.01475
1.00313
0.982802
1.00003
1.13786
1.35223
1.35285
1.22071
1.05989
1.02019
1.00794
1.00124
0.983045
0.986645
1.06587
1.31099
1.3652
1.29743
1.11105
1.0287
1.00988
1.00297
0.999656
0.984239
0.976227
1.02107
1.23072
1.36413
1.34007
1.18833
1.04749
1.01213
1.00291
0.999378
0.998511
0.985129
0.968582
0.992534
1.13302
1.34758
1.35776
1.26738
1.08811
1.01765
1.00109
0.998153
0.996981
0.997589
0.985566
0.963724
0.975265
1.05882
1.30491
1.36874
1.31939
1.15902
1.0322
1.00152
0.993365
0.994423
0.994651
0.996845
0.985725
0.961891
0.964861
1.0119
1.22456
1.36746
1.35104
1.23221
1.06659
1.00522
0.988958
0.988455
0.991074
0.992463
0.996288
0.985691
0.961128
0.956141
0.982418
1.12706
1.35045
1.36511
1.29578
1.12812
1.01719
0.989251
0.980711
0.984743
0.988036
0.990614
0.995857
0.985473
0.960497
0.949494
0.96393
1.05145
1.30806
1.3775
1.33571
1.19749
1.04612
0.992498
0.976416
0.976391
0.98158
0.985511
0.989084
0.995469
0.985244
0.960031
0.944482
0.952121
1.0041
1.22704
1.37658
1.36358
1.26211
1.09867
1.00277
0.97671
0.968183
0.973092
0.97893
0.98328
0.987728
0.995152
0.985277
0.959441
0.940898
0.944285
0.973719
1.13102
1.35965
1.37696
1.31658
1.16194
1.02688
0.979634
0.963846
0.963931
0.970499
0.97666
0.98114
0.986529
0.994894
0.985431
0.958315
0.938617
0.937265
0.954936
1.05163
1.3176
1.39146
1.35204
1.22479
1.07092
0.988388
0.964101
0.955726
0.960979
0.968313
0.974398
0.979196
0.985496
0.994672
0.985531
0.956895
0.937285
0.930946
0.942814
1.00305
1.2398
1.39117
1.37938
1.2841
1.12565
1.00862
0.966668
0.951492
0.951477
0.958715
0.966331
0.972198
0.97741
0.984612
0.994464
0.985573
0.955568
0.936012
0.925598
0.933825
0.971767
1.14743
1.37572
1.39406
1.33489
1.18728
1.04396
0.974103
0.951711
0.94355
0.948677
0.956888
0.96441
0.970076
0.975786
0.983854
0.994266
0.985586
0.95444
0.934611
0.921196
0.92666
0.951604
1.0636
1.33571
1.40862
1.3697
1.24515
1.09213
0.99066
0.953944
0.939465
0.939188
0.946775
0.955332
0.96241
0.968016
0.974326
0.983157
0.994085
0.98554
0.953374
0.933246
0.917902
0.920774
0.937745
1.01305
1.26954
1.41081
1.39652
1.30175
1.14675
1.01963
0.960143
0.939646
0.931869
0.936703
0.94532
0.953703
0.960401
0.966037
0.972968
0.982541
0.993904
0.985401
0.952368
0.931841
0.915738
0.915243
0.927769
0.978922
1.18317
1.3993
1.41276
1.35026
1.20539
1.05905
0.973671
0.941555
0.928108
0.927645
0.935041
0.943978
0.952104
0.958322
0.964097
0.971734
0.982007
0.993727
0.985212
0.951486
0.930359
0.914318
0.910282
0.920146
0.955558
1.09984
1.36738
1.42839
1.38658
1.25922
1.10783
0.996393
0.946669
0.928272
0.921195
0.925172
0.933785
0.942801
0.950371
0.956153
0.962263
0.970625
0.981549
0.993554
0.984994
0.950695
0.929028
0.913111
0.906214
0.913648
0.939819
1.03828
1.31231
1.4349
1.4143
1.31365
1.16063
1.02819
0.957515
0.929919
0.917709
0.916985
0.923787
0.932833
0.941628
0.948386
0.954011
0.960536
0.969699
0.981165
0.993433
0.98474
0.949952
0.927971
0.911891
0.902918
0.908173
0.928309
0.999792
1.24023
1.42756
1.43354
1.36203
1.21456
1.06875
0.974954
0.934213
0.917828
0.911258
0.914741
0.922988
0.932184
0.940172
0.946355
0.951944
0.958954
0.968855
0.980839
0.993305
0.984438
0.949239
0.927158
0.910748
0.900118
0.903648
0.919277
0.973558
1.16489
1.4061
1.44767
1.4017
1.26673
1.1154
0.999554
0.942795
0.9192
0.908352
0.907468
0.913835
0.922622
0.931325
0.938467
0.944328
0.950085
0.95777
0.968292
0.980667
0.993251
0.984075
0.948574
0.926505
0.909761
0.897808
0.899894
0.912077
0.954506
1.09927
1.36597
1.45771
1.42931
1.31875
1.16565
1.03194
0.955518
0.92287
0.908511
0.902681
0.905911
0.91351
0.92245
0.930235
0.936654
0.942154
0.948243
0.956545
0.967706
0.980317
0.993182
0.983671
0.947975
0.926023
0.908908
0.895834
0.896473
0.90634
0.940552
1.04897
1.31615
1.45583
1.45069
1.36661
1.21584
1.07135
0.974021
0.929197
0.909793
0.900819
0.900025
0.905511
0.913648
0.921957
0.929059
0.935212
0.940667
0.947217
0.956056
0.968017
0.980779
0.993387
0.983215
0.947434
0.925777
0.908098
0.894044
0.893471
0.901761
0.93025
1.01665
1.26154
1.44584
1.4632
1.40838
1.26514
1.11536
0.998828
0.938387
0.912921
0.90114
0.896226
0.89895
0.905959
0.914051
0.921026
0.927203
0.933145
0.939022
0.94622
0.956228
0.968753
0.981824
0.994057
0.982729
0.947006
0.925778
0.907314
0.892525
0.891019
0.898065
0.922696
0.99448
1.20633
1.42368
1.47374
1.43788
1.31206
1.16147
1.03
0.951969
0.918096
0.902636
0.895952
0.894516
0.898848
0.907131
0.914617
0.920569
0.926245
0.932071
0.9387
0.946978
0.957752
0.970369
0.983442
0.995059
0.982202
0.946677
0.925939
0.906488
0.891309
0.889197
0.895301
0.917586
0.979501
1.15978
1.39221
1.47678
1.45888
1.3596
1.20659
1.06679
0.970446
0.925177
0.906143
0.896798
0.893917
0.894311
0.8998
0.907928
0.914712
0.919899
0.92565
0.932076
0.939803
0.950014
0.961403
0.974442
0.986724
0.998734
0.995486
0.981624
0.946372
0.926175
0.905491
0.890346
0.888
0.893512
0.914679
0.970958
1.12575
1.35814
1.47335
1.47203
1.40023
1.25114
1.10668
0.99456
0.934779
0.910646
0.899349
0.894726
0.893731
0.895845
0.901849
0.908728
0.914361
0.919376
0.925561
0.932685
0.942899
0.955063
0.968556
0.981905
0.992201
0.990889
0.99946
0.997203
0.980974
0.946134
0.926449
0.904431
0.889565
0.887423
0.892763
0.913953
0.967779
1.10583
1.32705
1.46314
1.47828
1.43161
1.2935
1.14722
1.0238
0.948436
0.91648
0.904825
0.897596
0.894626
0.895407
0.899221
0.904608
0.910151
0.914877
0.920307
0.926867
0.9361
0.949843
0.963858
0.977911
0.976556
0.990948
0.982209
0.991774
0.995975
0.996186
1.00006
1.00012
0.98027
0.946067
0.926721
0.903584
0.888992
0.887436
0.893131
0.915558
0.969327
1.09705
1.30272
1.4472
1.47969
1.45185
1.33339
1.18778
1.05622
0.967073
0.9246
0.911109
0.903877
0.897806
0.896543
0.899098
0.903094
0.907904
0.912334
0.917564
0.924179
0.932239
0.946018
0.963128
0.975945
0.976206
0.983047
0.997536
0.994409
1.00093
1.00051
1.00216
1.00131
1.0032
0.979523
0.946265
0.926966
0.902829
0.888831
0.887987
0.89483
0.920053
0.978657
1.09782
1.28605
1.43187
1.47766
1.46235
1.36916
1.22566
1.09115
0.990173
0.935469
0.919381
0.911523
0.905855
0.900774
0.900722
0.903314
0.907304
0.911233
0.916072
0.923468
0.93231
0.945626
0.964401
0.977054
0.979106
0.985068
0.987048
0.997577
1.00688
1.0067
1.01451
1.00559
1.01085
1.00286
1.00709
0.978792
0.946728
0.927069
0.90179
0.889073
0.889038
0.898219
0.927804
0.996115
1.10506
1.2781
1.42002
1.472
1.4664
1.39591
1.26211
1.13031
1.01762
0.951194
0.931135
0.922074
0.916892
0.911773
0.907088
0.906414
0.907977
0.910912
0.914895
0.922552
0.933091
0.9465
0.967839
0.981547
0.986727
0.990862
0.994495
1.00146
1.00573
1.01208
1.02039
1.02437
1.0331
1.01196
1.02239
1.0048
1.01146
0.978171
0.947385
0.926829
0.900313
0.88956
0.890837
0.903787
0.93998
1.01861
1.12049
1.2772
1.41351
1.46616
1.46563
1.41428
1.29666
1.16973
1.04948
0.971608
0.945498
0.935869
0.930753
0.929458
0.92318
0.91566
0.911605
0.911865
0.914629
0.921481
0.933413
0.94908
0.971341
0.990829
0.997672
1.00061
1.00732
1.01195
1.01858
1.01841
1.02582
1.03319
1.03753
1.04693
1.05605
1.02038
1.03682
1.00685
1.01724
0.977753
0.948165
0.926248
0.898699
0.8903
0.893717
0.91189
0.958064
1.04663
1.14327
1.28276
1.41231
1.46268
1.46315
1.42586
1.32347
1.20365
1.08222
0.99632
0.965342
0.952106
0.950542
0.949951
0.941481
0.929826
0.92116
0.916864
0.916304
0.921595
0.933658
0.951638
0.977777
1.00288
1.01031
1.01583
1.02448
1.02803
1.03836
1.03516
1.04674
1.04269
1.05424
1.0604
1.05985
1.07566
1.08449
1.03071
1.05614
1.00975
1.02285
0.977538
0.948914
0.925348
0.897455
0.891583
0.897855
0.922964
0.982769
1.07924
1.17185
1.2991
1.41687
1.46288
1.46131
1.43006
1.34147
1.23489
1.1203
1.03225
0.992095
0.975965
0.97741
0.978742
0.972072
0.957528
0.942378
0.931637
0.925234
0.925338
0.935349
0.954457
0.987335
1.01571
1.0269
1.03679
1.05
1.05132
1.0684
1.06057
1.07998
1.06851
1.0869
1.07344
1.09161
1.09317
1.08625
1.11103
1.1213
1.04513
1.07779
1.01222
1.03136
0.977443
0.949454
0.923841
0.896785
0.893534
0.903648
0.937454
1.01193
1.11363
1.20493
1.32233
1.43113
1.46935
1.46241
1.43096
1.35894
1.27127
1.17211
1.08505
1.03195
1.00839
1.01483
1.02232
1.02297
1.01371
0.993524
0.970099
0.952619
0.94217
0.942464
0.959555
0.995699
1.03467
1.05278
1.06542
1.09846
1.09565
1.14337
1.10999
1.17552
1.11537
1.17965
1.11371
1.16224
1.1127
1.14275
1.13168
1.12197
1.1469
1.15327
1.05927
1.1099
1.01608
1.03764
0.97747
0.949612
0.921621
0.896567
0.896089
0.911254
0.955802
1.04448
1.14923
1.2408
1.35069
1.45332
1.48563
1.47014
1.43552
1.38577
1.32059
1.23856
1.15309
1.089
1.05306
1.05372
1.06439
1.07973
1.08596
1.07289
1.0412
1.00666
0.974786
0.96284
0.97281
1.01127
1.06462
1.08184
1.1355
1.21632
1.24069
1.44605
1.32619
1.66008
1.34407
1.75739
1.29484
1.6606
1.22079
1.46683
1.17201
1.28791
1.1966
1.1489
1.21057
1.20899
1.08241
1.13223
1.01837
1.04773
0.977655
0.949354
0.918751
0.89678
0.899255
0.921132
0.978403
1.07916
1.1849
1.27786
1.38307
1.48256
1.51082
1.48746
1.45252
1.42241
1.37931
1.31638
1.24001
1.16517
1.11838
1.09859
1.10158
1.12358
1.14943
1.15407
1.1219
1.07422
1.03094
1.01327
1.01734
1.06683
1.12465
1.01341
1.29674
1.43523
1.75436
2.30949
2.34055
3.42033
2.66027
4.31885
2.57196
4.49646
2.18086
3.83192
1.69286
2.88765
1.35556
1.94131
1.40323
1.18994
1.41759
1.38768
1.0994
1.1504
1.01754
1.06181
0.978335
0.948967
0.915475
0.897649
0.903798
0.933868
1.00494
1.11378
1.21954
1.31435
1.41785
1.51793
1.54455
1.51566
1.486
1.46446
1.44728
1.4106
1.3544
1.28029
1.21802
1.17726
1.15983
1.17143
1.20002
1.23016
1.22045
1.18478
1.16313
1.16274
1.18949
1.29813
1.92332
1.58078
2.0626
2.86999
3.75206
4.80314
6.34428
6.43344
8.783
7.30175
10.2638
7.0363
10.646
5.54405
9.80023
3.69085
7.52768
2.16587
4.42327
2.30142
1.31262
2.3149
2.17577
1.10218
1.21318
1.02146
1.05572
0.982001
0.949969
0.912332
0.899484
0.909807
0.948915
1.03349
1.14653
1.2523
1.34871
1.45336
1.55783
1.58635
1.55553
1.53103
1.52963
1.55034
1.56481
1.53253
1.47275
1.39771
1.33248
1.27683
1.25961
1.27024
1.31186
1.38328
1.46609
1.61736
1.80645
1.9275
2.13755
3.17547
6.28234
7.29598
4.48532
5.51865
7.94066
9.55253
10.9313
12.7026
12.7561
14.3655
13.3574
14.9714
13.2072
15.0486
12.1396
14.7064
9.3693
13.5869
4.96779
10.6842
5.23169
1.89585
5.16928
4.7165
1.11949
1.55037
1.01387
1.04941
1.00159
0.958864
0.91147
0.902702
0.917243
0.965549
1.06297
1.17666
1.28242
1.37975
1.48782
1.60035
1.63555
1.60825
1.59754
1.64136
1.73432
1.8316
1.87154
1.84138
1.75655
1.6517
1.53528
1.44452
1.40354
1.43286
1.66194
2.3072
3.19569
4.13987
4.58423
4.88835
6.186
8.16663
9.5443
12.951
13.5086
10.9524
12.1082
14.016
14.9649
15.3886
16.0375
15.8702
16.3472
15.9974
16.4676
15.9776
16.5704
15.6397
16.5954
14.5432
16.3182
11.3991
15.1796
11.6325
3.87175
11.2762
10.1958
1.25654
2.82327
1.00598
1.07464
1.07918
0.997067
0.919976
0.907132
0.925971
0.984465
1.09109
1.20407
1.30829
1.4069
1.51903
1.64327
1.69119
1.67487
1.69561
1.82829
2.08517
2.34724
2.58766
2.69716
2.61473
2.40882
2.15179
1.87061
1.67851
1.63141
2.06757
3.73759
6.49339
8.55711
9.08463
8.83382
9.25479
10.4336
11.3982
13.8476
14.0371
16.1601
16.1578
15.5826
15.9546
16.4104
16.6261
16.5925
16.709
16.6773
16.7504
16.8208
16.9161
17.0038
17.2406
17.0732
17.5592
16.7706
17.647
15.5374
17.2109
15.6616
8.32791
15.5313
15.1252
1.90977
5.87428
1.01094
1.3271
1.19833
1.1225
0.971946
0.914131
0.935391
1.00446
1.11661
1.22666
1.33011
1.42898
1.54561
1.68356
1.75111
1.7557
1.83317
2.13538
2.66544
3.3805
3.95196
4.18177
4.1159
3.83026
3.41288
2.90251
2.3625
2.02221
2.52084
5.22548
9.05481
11.027
11.3431
11.1435
11.0942
12.8576
14.0258
14.229
16.081
15.8521
16.7111
16.5964
16.7426
16.7489
16.7153
16.6872
16.7341
16.6887
16.9877
17.09
17.4852
17.8368
18.0767
18.7083
18.4621
19.4157
18.3886
19.7098
17.5976
19.2851
18.0332
14.0873
18.3152
18.2747
3.94183
11.6675
1.09866
2.36143
1.20251
1.09998
0.936136
0.94398
1.02415
1.13679
1.24482
1.34571
1.44612
1.56541
1.71883
1.81203
1.84794
2.01478
2.56914
3.55672
4.65898
5.31079
5.51149
5.43268
5.16691
4.74669
4.20932
3.59639
2.98406
3.24229
6.50668
10.5642
11.8854
11.9846
11.6684
11.5153
12.4345
14.4755
13.8683
15.5145
15.0224
16.3648
16.0154
16.3134
16.092
16.6152
16.488
16.6203
16.529
17.1818
17.2823
18.2448
18.6404
19.3303
20.0455
20.3816
21.2815
21.0749
22.3131
21.0828
22.8675
20.0995
22.4461
20.9291
17.6958
21.3579
21.3443
8.24587
16.7062
1.4745
5.06058
1.19511
1.01779
0.95607
1.03704
1.15346
1.25517
1.35609
1.45634
1.57843
1.74518
1.86984
1.94627
2.22934
3.10175
4.51753
5.77355
6.36799
6.51713
6.42968
6.19217
5.83181
5.36202
4.80392
4.23347
4.33577
7.4859
11.252
12.1908
11.9548
11.6239
11.4853
11.9546
13.2501
12.6957
14.4551
13.8403
15.5728
15.0368
15.814
15.4661
16.0845
15.8535
16.4205
16.2782
17.346
17.3363
18.9177
19.181
20.6576
21.078
22.0574
22.5939
23.2441
23.8213
24.2474
25.0191
24.5888
25.9992
23.6697
26.1096
24.5124
20.9651
24.9711
25.0165
22.9271
14.6802
20.2095
3.06983
12.6924
1.12665
0.997441
1.03763
1.16063
1.261
1.35848
1.46096
1.58241
1.76183
1.91885
2.04027
2.44575
3.63088
5.3718
6.65083
7.14009
7.2321
7.13034
6.91442
6.61488
6.22699
5.76706
5.29411
5.33503
8.13701
11.5756
12.1708
11.7665
11.52
11.5818
12.1263
12.9201
13.2622
13.0923
14.1858
13.765
15.0672
14.6352
15.5811
15.2677
16.9101
16.6365
17.2791
17.1382
19.2898
19.2377
21.2499
21.1758
22.6973
22.5944
23.9047
23.7701
25.239
25.0596
26.6455
26.5887
27.599
28.1647
27.3769
28.6392
27.9323
26.5002
28.0748
24.7631
22.2856
24.4665
26.7231
28.6138
28.3504
26.6957
20.1408
23.9768
23.5143
21.5891
11.3927
29.4841
1.10478
1.04659
1.15957
1.26023
1.35668
1.45814
1.58002
1.76534
1.9558
2.11696
2.62337
4.0593
6.06279
7.30146
7.69281
7.73441
7.61275
7.39839
7.12879
6.81316
6.44897
6.0848
6.13942
8.49768
11.5915
12.073
11.4915
11.3784
11.7322
12.8332
13.8228
13.8343
14.4049
13.5814
13.6169
14.3885
14.3117
14.9571
14.6486
16.3379
16.031
18.4206
18.0254
19.0783
18.7827
20.9451
20.5516
22.3202
21.8877
23.4307
22.9915
24.628
24.084
26.2323
25.5993
27.7665
27.6632
27.4794
27.2837
28.9518
29.2104
28.4828
29.3679
29.2716
29.2718
29.0705
29.965
29.6931
29.5902
26.4332
26.0109
28.5502
30.1704
29.9677
28.4241
23.1007
23.6569
23.3061
25.4701
24.8462
38.1074
25.5456
30.893
41.9906
1.12396
1.15787
1.25559
1.34471
1.44324
1.56684
1.75754
1.97657
2.17078
2.73677
4.3574
6.57635
7.76305
8.09099
8.09861
7.95202
7.72997
7.46594
7.18424
6.89216
6.62937
6.73101
8.73328
11.5018
11.8731
11.2125
11.0463
11.5848
12.8204
14.1518
15.2164
14.9648
15.3679
14.364
14.5741
15.4116
15.4114
15.7542
15.5372
17.6295
17.2531
19.0844
18.6014
20.0905
19.5901
21.3981
20.8455
22.481
21.8793
23.5033
22.8105
24.9264
24.2211
27.0423
26.7987
26.5167
26.2371
28.3952
28.276
28.13
29.9365
30.0938
29.4074
30.4943
30.2694
30.4086
30.4876
31.0469
30.7
31.0073
28.1112
27.6166
30.2497
31.4133
31.7012
30.1299
24.3052
24.4795
26.9626
26.1699
45.7861
39.3364
44.3977
26.4313
31.4907
1.18756
1.2466
1.32951
1.41463
1.53356
1.73613
1.98079
2.20188
2.77876
4.50862
6.92398
8.09339
8.38557
8.3706
8.21107
7.97304
7.69188
7.42024
7.17123
6.9817
7.14897
8.84174
11.3008
11.6198
11.0738
10.8188
10.9714
11.8855
13.3985
14.7623
15.7089
15.5418
15.7839
15.7897
15.4761
15.6388
16.4446
16.313
16.923
16.6492
18.1519
17.7454
19.0826
18.5504
20.2541
19.6564
21.1655
20.4134
21.9614
20.9853
23.4448
22.5124
25.9134
25.5733
25.1653
24.7077
27.9629
27.7629
27.5253
27.2407
29.4595
29.475
29.4369
30.9442
31.2551
30.7626
32.2002
31.6895
31.4221
31.6853
32.133
31.7772
32.2512
29.7933
29.2304
31.8456
32.728
33.0937
31.7738
25.4327
25.3536
28.4436
27.4817
37.6064
35.5809
37.6679
26.9014
30.0729
1.25077
1.30947
1.3821
1.49355
1.68988
1.9716
2.20775
2.77021
4.5233
7.11336
8.3271
8.61029
8.58073
8.42887
8.18436
7.88389
7.607
7.3727
7.22843
7.44778
8.91046
11.016
11.3917
11.0483
10.8359
10.6429
10.0697
10.3542
12.0648
13.8826
15.6785
15.0419
16.0962
15.9398
16.2311
16.1703
16.8287
16.6084
17.3919
17.0876
18.0674
17.6408
18.4036
17.8703
19.6822
19.0102
19.965
19.0366
21.3652
20.0414
24.1835
23.5755
22.9557
22.3122
26.9007
26.493
26.0231
25.4892
29.3287
29.1424
28.8718
28.5234
31.005
31.1319
31.1269
32.2559
32.9213
32.6776
34.4263
33.7045
32.5851
32.8031
33.3434
33.236
33.4052
31.4362
30.8081
33.3159
33.918
34.325
33.2975
26.5026
26.1806
29.9109
28.789
32.9197
34.406
34.4201
27.4418
29.5094
1.29033
1.3599
1.43759
1.6354
1.93299
2.20268
2.69565
4.4229
7.15247
8.48383
8.77868
8.74704
8.60976
8.38901
8.11386
7.82127
7.5854
7.4909
7.75537
9.00153
10.748
11.1872
11.089
10.9675
10.6554
9.06155
6.82728
6.95184
8.70852
12.9688
10.8189
15.224
14.3806
15.9706
15.6453
16.4121
16.2106
16.6378
16.3632
17.2673
16.9367
17.4002
16.9929
17.2262
16.7883
18.301
17.7391
18.7588
17.6868
21.51
20.1556
24.8999
24.2591
23.6107
22.9696
28.1045
27.6325
27.1181
26.5807
30.9707
30.6899
30.3118
29.8773
32.9759
33.0488
32.9002
34.1499
35.2199
34.8826
36.7861
36.1964
34.1506
34.0266
34.9614
35.3269
34.615
32.965
32.29
34.5873
35.0907
35.4513
34.6211
27.682
27.3469
31.3099
30.1398
31.0523
30.5486
35.2411
28.3898
29.6805
1.31369
1.40594
1.54543
1.88441
2.17702
2.59512
4.10881
7.06565
8.5657
8.90379
8.87989
8.75231
8.57458
8.35538
8.09346
7.89015
7.85745
8.18525
9.19434
10.5926
11.0978
11.1888
11.3197
10.8629
8.84852
5.33315
4.40024
5.11092
6.45533
11.5097
9.01813
14.3326
13.2078
15.4286
14.9708
16.0924
15.7891
16.0128
15.7179
16.6351
16.3123
16.3887
16.0383
15.5979
15.3923
16.7351
16.0254
18.84
17.6627
24.4275
24.0578
23.2123
23.7682
26.0461
25.5382
25.102
24.7386
29.4093
28.9309
28.4701
28.0731
32.5669
32.1442
31.6871
31.234
35.0001
34.8374
34.4263
36.7024
37.9456
36.9296
38.8309
38.6676
36.3788
35.6437
37.2643
38.098
36.1626
34.3161
33.6187
35.6742
36.5138
36.7172
35.7224
29.1518
28.9399
32.6412
31.5972
30.8326
34.0151
37.2075
29.5737
30.3353
1.33802
1.49616
1.76822
2.14637
2.47915
3.73026
6.71443
8.57637
8.98449
8.98243
8.85077
8.706
8.56269
8.38146
8.25157
8.29238
8.61589
9.44677
10.5811
11.1411
11.444
11.8021
11.3292
8.96312
4.97784
3.43205
3.56796
4.21408
6.12611
4.80612
9.97966
7.73588
13.1826
11.8436
14.5668
13.9934
15.3984
15.0213
15.145
14.8472
15.723
15.43
15.1485
14.9302
14.4396
13.8185
16.3795
15.2904
22.6529
21.9371
21.7597
27.7678
27.8486
27.532
27.7896
27.7759
27.6125
27.5948
27.6709
30.8122
30.4667
30.2626
30.2639
33.9261
33.43
32.982
32.6246
36.7234
36.2228
35.6054
39.6549
40.531
38.5659
40.4358
40.7281
39.3221
37.933
40.3093
41.289
38.3349
35.4622
34.8263
36.8017
38.4816
38.4237
36.7476
30.8373
30.6638
33.9572
33.1367
32.3491
27.0854
38.7973
30.971
31.9172
1.39188
1.69485
2.06677
2.40733
3.30987
6.12834
8.51657
9.0196
9.04996
8.91251
8.77411
8.69146
8.60598
8.54318
8.62726
8.9589
9.62765
10.6417
11.3022
11.9202
12.3059
11.7673
9.29002
4.99322
3.04547
2.90833
3.25478
3.70557
5.15961
4.29109
8.31891
6.47177
11.9898
10.3646
13.5813
12.9715
14.5079
14.074
14.2222
13.9425
14.7032
14.4706
13.6634
13.6903
14.4687
13.1267
19.245
16.6012
26.9053
25.805
29.6184
27.7557
32.4227
32.7473
32.6194
32.8115
30.4279
30.8227
31.3457
31.8958
32.4388
32.4742
32.7956
33.4001
35.0084
34.5238
34.2366
34.2251
37.9332
37.1465
36.3745
42.4276
42.699
39.6304
41.5008
42.412
42.7343
40.9761
43.865
44.3522
41.251
36.4945
35.9767
38.2003
41.1585
40.6932
37.8862
32.5978
32.4215
35.3118
34.7986
34.946
22.8709
36.7352
32.7837
34.5734
1.53099
1.9939
2.30737
2.99214
5.31077
8.32286
9.01717
9.08055
8.93356
8.80373
8.73017
8.69923
8.71855
8.88044
9.27071
9.957
10.8841
11.6671
12.5762
12.7572
12.1717
9.50494
5.00923
2.8498
2.55541
2.75891
3.09309
3.71482
3.35208
4.58629
4.03354
6.64881
5.36959
10.382
8.44039
12.6745
11.8501
13.6111
13.1935
13.2981
13.0475
13.6085
13.4814
12.3932
12.0782
17.8748
14.3538
26.037
23.8522
22.0907
32.0004
30.9828
33.7889
31.7976
37.8025
38.1894
37.8336
38.2159
34.2293
35.1929
36.1657
37.0515
34.5293
35.2223
36.2518
37.5029
35.7787
35.5887
35.6907
36.3182
38.6169
37.5975
36.8532
44.8012
44.6586
40.239
42.332
43.7197
46.1894
44.5918
47.6164
47.0633
44.8054
37.5048
37.0542
39.9732
44.3815
43.3371
39.1721
34.4653
34.3788
36.7343
36.5389
37.2732
12.0939
34.4895
35.2444
37.6337
1.80582
2.24656
2.6839
4.55276
7.83779
8.98034
9.07911
8.92498
8.80259
8.72615
8.71226
8.83304
9.13952
9.718
10.5096
11.4305
12.4474
13.0858
13.1825
12.3509
9.51432
4.93244
2.71594
2.32029
2.44119
2.69032
2.97045
3.55316
3.2714
4.26064
3.88583
5.47685
4.7637
8.10693
6.56022
11.2949
9.86341
12.6987
12.1743
11.9792
11.6432
12.0683
12.1059
12.1989
11.0883
23.3348
20.8476
18.7199
29.5973
27.2472
25.2762
27.9731
36.9209
35.5378
37.5078
35.0713
43.4464
43.7404
42.9336
43.6472
38.871
40.2475
41.5227
42.6199
37.3649
38.7756
40.3929
42.1131
36.6988
36.8832
37.7999
39.1782
38.9653
38.0078
37.8045
47.1301
46.512
40.8344
43.6071
45.1553
49.4026
48.4932
51.3076
49.8636
48.5764
38.4639
38.1287
41.9176
47.5645
45.8666
40.511
36.4281
36.6257
37.9888
38.0396
40.1017
4.67979
24.6117
38.1969
41.1809
2.0954
2.54333
3.71898
7.10344
8.86069
9.06611
8.86012
8.76766
8.70008
8.70168
8.93381
9.427
10.1526
11.0663
12.1033
12.9471
13.3842
13.401
12.2736
9.23422
4.63474
2.59645
2.15843
2.20789
2.39541
2.62345
3.03793
2.81044
3.46517
3.20498
4.07097
3.73737
4.90664
4.44751
6.33148
5.50652
8.80139
7.45412
11.0408
10.0819
9.72683
9.19617
10.5328
10.1064
14.8304
11.9722
25.0332
22.7835
22.4465
20.2645
32.6304
30.2459
27.2822
29.6172
41.6108
39.752
40.601
37.6196
48.881
49.0509
47.7039
48.7977
43.8236
45.4379
46.8956
48.0995
40.885
42.8081
44.7949
46.7663
38.0075
39.1032
40.7184
42.7113
39.6481
39.2653
39.4165
49.7567
48.9187
42.2908
46.6818
47.7198
52.8895
52.2455
54.8256
53.4065
51.7388
39.6661
39.0765
43.892
50.3395
48.3694
42.3643
38.2108
39.0727
38.9294
39.1187
42.3793
3.85525
22.0237
41.4442
45.3605
2.32146
3.25891
5.85017
8.61853
9.0252
8.80032
8.64592
8.63702
8.67074
8.98726
9.6314
10.5106
11.48
12.3644
13.0216
13.4197
13.3166
11.8748
8.48324
4.17204
2.46388
2.04426
2.04044
2.1671
2.34962
2.55256
2.95294
2.76915
3.38499
3.16528
3.93091
3.64343
4.62388
4.25848
5.5224
5.0365
6.81818
6.10327
8.48206
7.64126
8.62424
7.87404
10.3657
9.42119
18.75
16.8224
15.3242
26.3608
24.3603
23.5055
21.7398
34.748
32.0909
28.4804
30.7252
45.8912
43.4562
42.9122
39.3612
53.8662
53.9757
51.9874
53.4584
48.6609
50.4038
51.9435
53.1809
44.8284
47.0253
49.1872
51.2306
40.4427
42.2703
44.4482
46.8795
41.6876
41.7075
42.5223
53.4544
53.3222
46.0074
52.7557
52.9735
56.4619
55.1248
57.8187
57.699
54.7257
40.7836
39.8287
46.5727
53.4354
52.0029
43.9866
39.8823
41.5055
39.654
40.2335
43.3774
3.14935
21.2516
44.735
48.8377
2.6915
4.95513
7.98662
8.93963
8.76222
8.40307
8.51294
8.60432
8.99784
9.73023
10.572
11.4491
12.2437
12.8763
13.1967
12.7801
10.9245
6.95279
3.71388
2.34525
1.95547
1.92255
1.99524
2.13002
2.28885
2.49513
2.91151
2.73449
3.3214
3.09829
3.82913
3.56036
4.45371
4.12644
5.18319
4.80736
6.04562
5.58901
7.15557
6.55708
9.01928
7.8013
12.5378
10.5697
20.001
18.2625
16.4613
18.1567
27.1385
25.3047
24.4349
22.8416
36.0961
33.2301
29.0512
31.0969
49.6142
46.4902
44.4265
40.1737
58.4753
58.5272
55.9273
57.8077
53.1948
55.02
56.6044
57.867
49.2498
51.5575
53.8797
56.0932
44.1653
46.5286
49.2931
52.1836
45.9279
46.5467
48.0111
58.7434
59.7032
52.8225
61.9137
60.6997
60.4156
59.0027
63.6114
63.149
58.9691
41.8984
40.7457
48.8226
58.4887
55.3351
45.8852
41.2829
43.3818
40.5954
41.138
45.66
2.64785
19.5498
48.2607
51.9528
3.61037
7.29792
8.7233
8.7511
8.22103
8.23508
8.48237
8.93647
9.62098
10.377
11.1491
11.8557
12.3668
12.3979
11.4721
8.7532
5.44543
3.30486
2.26521
1.90722
1.82951
1.87251
1.95251
2.07042
2.24255
2.53598
2.68697
2.3674
2.87313
3.26195
3.05637
3.74893
3.4941
4.33768
4.03074
5.01887
4.66919
5.82396
5.39621
6.92513
6.32048
10.4082
8.60846
15.0615
12.5472
21.2527
19.6842
17.7391
19.3015
27.6358
26.0302
25.2651
23.8177
36.431
33.5088
29.3049
31.1068
52.9032
48.9464
45.4183
40.2612
63.2776
63.2033
59.7851
62.1151
58.1774
60.0628
61.6529
62.8353
54.8919
57.4097
59.9118
62.1937
50.3342
53.3549
56.72
60.0858
53.513
55.18
57.7535
66.1314
69.1451
63.6755
75.2595
72.0254
68.6877
65.0353
71.5588
73.9569
65.998
43.6541
42.3806
52.3191
63.6817
61.7183
49.4323
42.7391
46.6207
42.0733
42.9388
50.1963
2.98215
26.0001
51.0864
55.7612
5.40095
8.43021
8.71575
8.18415
7.83321
8.19596
8.68641
9.26131
9.87646
10.5203
11.0231
11.1509
10.5618
8.86865
6.56663
4.50515
3.04114
2.25388
1.90306
1.77513
1.7746
1.81192
1.90587
2.0313
2.17522
2.65051
2.47403
2.34586
2.82468
3.21155
3.00759
3.68278
3.43499
4.25298
3.95536
4.9233
4.57493
5.78088
5.32052
7.23115
6.34939
11.6695
9.42252
17.6593
15.9136
14.4052
22.3374
20.8328
19.133
20.5803
28.1147
26.7026
26.1465
24.7827
36.0645
33.2709
29.5387
30.9276
56.0799
51.241
46.6204
40.0829
68.5425
68.2159
63.7513
66.5202
64.2724
66.042
67.4504
68.3566
63.1294
65.7596
68.2486
70.3539
61.1918
65.0289
68.9589
72.5875
66.2018
69.9468
74.6943
79.1045
84.3584
79.3977
99.4637
90.7951
78.4201
74.4509
84.0825
86.5261
73.6836
47.0712
45.6039
59.2563
74.6908
73.7311
56.4653
46.0087
49.0694
45.4764
47.3666
57.5999
15.3259
57.3724
54.8384
61.0397
7.28534
8.62566
8.20188
7.53986
7.73913
8.26127
8.72651
9.20888
9.62839
9.73568
9.33311
8.21396
6.7719
5.42124
4.16058
3.07132
2.31032
1.92596
1.76276
1.6882
1.70688
1.77755
1.86479
1.97335
2.13236
2.6305
2.44676
2.31347
2.7863
3.16366
2.96717
3.62702
3.38382
4.19287
3.89722
4.8778
4.5193
5.83605
5.29624
7.66612
6.53498
13.4419
10.591
18.8466
17.2781
15.199
17.1458
23.4052
22.0049
20.3118
21.7155
28.819
27.5267
27.2608
25.8741
35.131
32.62
29.9855
30.9181
59.2458
53.6922
48.1273
40.6308
74.6876
73.6967
68.0803
71.3427
72.1376
73.5235
74.4961
74.8067
75.6768
78.194
80.2868
81.8066
79.9294
84.666
89.0291
92.5782
84.7741
91.8288
102.047
96.6858
111.462
111.999
157.23
129.498
96.0357
85.6338
100.9
114.193
89.1176
54.1049
53.0545
71.1992
88.9171
87.1099
67.966
48.5038
53.6987
52.4809
51.1372
77.124
77.4017
88.73
57.9352
63.4202
8.10784
8.23571
7.46996
7.21926
7.73293
8.13806
8.43487
8.59528
8.34952
7.56135
6.57688
5.7474
4.99631
4.24568
3.36376
2.52882
2.0197
1.76985
1.6374
1.62561
1.66808
1.73285
1.82111
1.93166
2.16302
2.27929
2.02142
2.58291
2.4162
2.75133
3.12477
2.92788
3.58276
3.3412
4.15283
3.85225
4.86127
4.48866
5.91955
5.30374
8.22334
6.75335
16.3092
15.3751
13.3783
11.317
20.0241
18.6291
17.8342
24.4801
23.0857
21.3721
22.753
29.8812
28.6544
28.6399
27.1959
34.3361
32.1155
30.7714
31.2843
62.6192
56.4779
50.2399
41.803
81.8915
80.2854
73.2084
76.8343
82.811
83.3185
83.4512
83.0562
95.5677
97.5333
98.6924
99.0084
110.014
116.92
121.959
125.26
127.643
153.317
188.118
148.708
188.861
189.037
223.429
197.454
124.374
108.359
145.777
157.953
110.513
64.648
61.3429
83.9747
110.708
109.177
80.0446
54.6795
56.577
58.1024
59.686
76.7496
87.1003
91.3158
58.1905
60.9721
8.1161
7.53972
6.86832
7.12695
7.53092
7.68456
7.61514
7.13013
6.33022
5.72785
5.28795
4.91237
4.47599
3.88356
3.0783
2.23194
1.80176
1.62871
1.56345
1.57463
1.62471
1.6978
1.78266
1.87678
2.25094
2.10826
2.00711
2.55689
2.37785
2.71253
3.08606
2.89151
3.54627
3.30389
4.12427
3.81931
4.85527
4.46732
6.01632
5.33084
8.73131
6.99157
16.6837
15.1551
13.6893
11.3883
20.7078
19.2945
18.1648
25.7395
24.1931
22.1694
23.7733
31.101
29.9664
30.0752
28.6209
34.2867
32.1922
31.7207
32.0793
66.5523
60.0244
53.5869
44.1754
90.9766
88.8542
79.6868
83.5861
98.2206
96.6738
95.7312
93.941
127.787
129.381
130.5
129.636
186.039
195.321
197.995
198.657
192.226
197.208
418.664
195.613
464.27
447.338
442.952
469.874
186.074
149.881
191.796
192.671
154.446
75.7448
70.9527
106.284
155.955
156.01
101.797
57.4494
57.9029
72.4947
64.9299
65.5867
81.5038
84.0479
57.1073
56.6777
7.62089
6.79577
6.56873
6.91723
7.01526
6.81667
6.26473
5.66552
5.30148
5.08305
4.91903
4.69142
4.3149
3.65088
2.63306
1.90365
1.64479
1.53175
1.50107
1.53624
1.58707
1.66295
1.7435
1.84148
2.23272
2.08548
1.9774
2.5177
2.34934
2.67785
3.04791
2.85279
3.50988
3.26496
4.09757
3.78694
4.83905
4.44717
6.03685
5.32673
8.86183
7.0842
16.7065
15.0822
13.6721
13.4369
11.8598
10.1626
21.3046
19.711
18.3541
27.1832
25.4449
23.1072
25.0881
32.0626
31.1813
31.5922
30.212
34.9759
32.7748
32.5085
32.8962
71.6034
64.8943
59.1033
48.8861
103.902
100.708
88.3361
92.8012
124.736
117.156
112.45
110.569
199.179
195.014
193.225
186.75
422.487
408.781
417.813
418.673
452.412
398.671
821.55
463.394
877.386
861.036
835.378
875.371
469.727
204.875
461.547
464.318
209.808
95.2153
99.7376
154.164
213.416
214.001
149.337
62.6375
58.651
81.4496
77.3496
62.3845
219.192
132.907
55.3072
56.7432
6.91188
6.29769
6.33007
6.4354
6.21186
5.71279
5.2946
5.08007
4.9837
4.92996
4.83786
4.61644
4.15023
3.25848
2.20234
1.71127
1.52768
1.45779
1.46345
1.4917
1.55636
1.62706
1.71274
1.79799
1.94947
2.19272
2.05591
2.48584
2.31745
2.63956
3.00662
2.81433
3.46771
3.22344
4.06053
3.74658
4.79945
4.41291
6.00361
5.28348
8.80955
7.0805
16.8158
15.0354
13.3581
11.6951
10.2516
22.2672
20.2178
18.8702
28.8559
27.0462
24.7244
27.256
33.054
32.388
33.9145
32.5888
36.5558
33.7592
33.4358
34.0569
78.4442
71.8563
67.8365
57.4557
125.035
118.654
100.837
106.411
181.436
164.374
139.595
138.168
421.315
421.544
424.335
426.954
829.707
789.204
805.164
801.599
874.149
782.841
2465.12
864.158
2527.45
2513.14
2466.81
2499.04
893.635
468.99
884.998
868.936
461.731
152.495
110.97
214.368
457.907
452.831
197.819
67.8912
60.4368
104.629
84.7511
71.275