/*--------------------------------*- C++ -*----------------------------------*\
  =========                 |
  \\      /  F ield         | OpenFOAM: The Open Source CFD Toolbox
   \\    /   O peration     | Website:  https://openfoam.org
    \\  /    A nd           | Version:  dev
     \\/     M anipulation  |
\*---------------------------------------------------------------------------*/
FoamFile
{
    version     2.0;
    format      ascii;
    class       volScalarField;
    location    "2500";
    object      p_rgh;
}
// * * * * * * * * * * * * * * * * * * * * * * * * * * * * * * * * * * * * * //

dimensions      [1 -1 -2 0 0 0 0];

internalField   nonuniform List<scalar> 
9836
(
0.00452968
0.00583275
0.00517804
0.00544994
0.00860056
0.004117
0.00566693
0.0109249
0.00907079
0.00349727
0.00465197
0.0109591
0.0118924
0.00800446
0.00291526
0.00420238
0.0110402
0.0133119
0.0114305
0.00658729
0.00221749
0.00415053
0.0103753
0.0141845
0.0136576
0.00963753
0.00543721
0.00135775
0.00397081
0.00937174
0.0135992
0.01552
0.0132759
0.00851828
0.00427317
0.00107746
0.0034438
0.00836533
0.0126371
0.0164206
0.0151449
0.0117419
0.00743786
0.00367893
0.00046628
0.00291377
0.00741045
0.011887
0.0167393
0.0171302
0.0142589
0.00977637
0.00637786
0.00282999
3.29202e-05
0.00256174
0.00695808
0.0109501
0.0160335
0.0178298
0.0164784
0.0127336
0.00885099
0.00549069
0.00240069
-0.00032571
0.0023499
0.00601172
0.00954662
0.0151697
0.0180672
0.0178768
0.0157263
0.0114366
0.00764345
0.00470457
0.00182329
-0.000853885
0.00236657
0.00574017
0.00914343
0.0146348
0.0179458
0.0188548
0.0174587
0.0138826
0.0102726
0.00687106
0.0039702
0.00134549
-0.00118224
0.00195299
0.00524142
0.00868236
0.0134805
0.0173032
0.019211
0.0186757
0.0159343
0.0122314
0.00873981
0.00607821
0.00339022
0.000815796
-0.00160621
0.00187882
0.00490875
0.00797587
0.0118658
0.0158907
0.0190315
0.0196767
0.0179251
0.0148508
0.0109295
0.00796239
0.00536323
0.00280678
0.000318066
-0.00204662
0.00147916
0.00412037
0.00747033
0.0107065
0.0146154
0.018553
0.019917
0.0192564
0.0168059
0.0134019
0.0100323
0.00733634
0.0047095
0.00230596
-0.000117626
-0.00241165
0.00122416
0.00402849
0.00682934
0.009409
0.0138692
0.0179021
0.0198696
0.0201298
0.0183933
0.0153504
0.0120741
0.00921256
0.00660158
0.0041841
0.00175629
-0.000566913
-0.00269957
0.00116565
0.00346574
0.00596232
0.00901231
0.0128605
0.0166385
0.0194347
0.0204484
0.0196099
0.0171418
0.0140148
0.0110168
0.00847182
0.00596725
0.00361251
0.00132668
-0.000873557
-0.00309223
0.000974626
0.0029564
0.00576518
0.00855228
0.0114213
0.0155027
0.0187099
0.0204756
0.0203583
0.0186672
0.0157837
0.012771
0.0102164
0.00774747
0.00548955
0.00317965
0.000925728
-0.00120765
-0.00332873
0.000607426
0.0026228
0.00532026
0.00779525
0.0100175
0.0143427
0.0177185
0.0200623
0.020753
0.0197804
0.0174311
0.014523
0.011882
0.00939793
0.00718427
0.00492253
0.00270044
0.00056365
-0.00161576
-0.00366197
0.000431525
0.00250951
0.00468803
0.00714432
0.00954745
0.0128251
0.0166463
0.0193575
0.0207383
0.0204827
0.0187601
0.016211
0.0134765
0.011125
0.00882133
0.00664486
0.0043905
0.00223503
0.000203035
-0.00190476
-0.00389023
0.000273152
0.00205413
0.00392705
0.00620207
0.00882289
0.0112206
0.0157281
0.0185003
0.0204248
0.020805
0.0197221
0.0175967
0.0149806
0.0125466
0.010392
0.0082143
0.00605861
0.00397885
0.00192223
-0.000125228
-0.00214804
-0.00413626
0.000171064
0.00158609
0.00366163
0.00570886
0.00801889
0.0104668
0.0143999
0.0176229
0.019857
0.0208749
0.0204824
0.0186951
0.0164271
0.0139641
0.0118263
0.00971366
0.00763786
0.00563501
0.00355879
0.00157457
-0.000443253
-0.00238985
-0.00436638
-0.00012026
0.00125194
0.00298153
0.00498863
0.00675835
0.00980547
0.0130243
0.016468
0.0190821
0.0205652
0.0208077
0.0197409
0.017658
0.0154208
0.0131619
0.0112284
0.00923187
0.00718374
0.00523964
0.00314794
0.00123245
-0.000699781
-0.002633
-0.0045603
-0.000161162
0.000995414
0.00257853
0.00453892
0.00622744
0.00882754
0.0116762
0.0150907
0.0180823
0.020051
0.0208312
0.0203422
0.0187153
0.0166319
0.0144162
0.0125195
0.0106424
0.00877937
0.00671167
0.00486819
0.00289401
0.00096117
-0.000916997
-0.0028653
-0.00478974
-0.000357583
0.000774968
0.00222465
0.00369098
0.00533995
0.007639
0.0106133
0.0136154
0.016913
0.0192751
0.0205808
0.0206502
0.019581
0.0176626
0.0157519
0.0137062
0.0119749
0.0101905
0.00834568
0.00644254
0.00444002
0.00254913
0.000640294
-0.001094
-0.00300964
-0.00490277
-0.000408376
0.000458527
0.00163038
0.00294697
0.00477506
0.00687266
0.00941031
0.0124252
0.0156052
0.0182952
0.0200666
0.0206883
0.0201704
0.0186064
0.0168059
0.0148803
0.0131819
0.0114121
0.00978951
0.00793875
0.00613873
0.00426595
0.00240079
0.000565252
-0.00124428
-0.00306096
-0.00497753
-0.000516834
0.000121836
0.00127833
0.0023272
0.00400274
0.0058002
0.00824381
0.0110946
0.0142701
0.0171523
0.019313
0.0204457
0.0204314
0.0193834
0.0176769
0.0159809
0.0142512
0.0126808
0.0110213
0.0093739
0.00763984
0.00580888
0.00394454
0.00215641
0.000411081
-0.00141443
-0.00314154
-0.00495818
-0.000671155
-0.000126281
0.000830638
0.00182738
0.00316916
0.0048833
0.00706061
0.00976655
0.0128435
0.0158903
0.0183346
0.0199102
0.0204371
0.0199194
0.0185139
0.0170505
0.0154338
0.0138897
0.0122618
0.0106121
0.00896811
0.00726737
0.00554383
0.00367825
0.00200635
0.000283212
-0.00146698
-0.00315093
-0.00493929
-0.000696634
-0.00026655
0.000434105
0.00121521
0.00242408
0.00397522
0.0059027
0.00841187
0.0113704
0.0144468
0.0171765
0.0191302
0.0201734
0.0202083
0.0192737
0.0179061
0.0163184
0.0148861
0.0133631
0.0119245
0.0104151
0.008729
0.00698394
0.00523233
0.00359412
0.00179499
0.000260272
-0.00159357
-0.00315104
-0.00490267
-0.000768194
-0.000432779
6.26747e-05
0.000732326
0.00172929
0.0030038
0.00473965
0.00703824
0.00990866
0.01292
0.0158719
0.0181424
0.0195749
0.0201155
0.0197764
0.0186108
0.0172391
0.0158479
0.0145146
0.0131639
0.0116496
0.0101096
0.00845073
0.00679692
0.00502071
0.00341111
0.00183634
0.000129342
-0.00149416
-0.00291653
-0.00464733
-0.000787952
-0.000652746
-0.000304817
0.000223175
0.000930248
0.00207859
0.00358106
0.00570269
0.00832381
0.0114005
0.0143662
0.0169416
0.0187669
0.0197694
0.0199013
0.0190637
0.0179115
0.016771
0.0155542
0.0142223
0.0127793
0.011229
0.00972574
0.00802889
0.00651059
0.00494496
0.00319525
0.00185977
0.000278974
-0.00122561
-0.00277512
-0.00439853
-0.000832125
-0.00076736
-0.000589156
-0.000288206
0.000290896
0.00121053
0.00251839
0.00436675
0.00681091
0.00977264
0.0127693
0.0155284
0.0177154
0.0191164
0.019709
0.0194692
0.0185496
0.01752
0.0164046
0.0151296
0.0138433
0.0124396
0.0109273
0.00944158
0.00785305
0.00623696
0.00473054
0.00321217
0.00183409
0.000287379
-0.00101125
-0.00247792
-0.00403481
-0.00075234
-0.000938776
-0.000947802
-0.000809745
-0.000376468
0.000352865
0.00147693
0.00310018
0.00527601
0.00806912
0.0110361
0.0139282
0.016411
0.0182197
0.0193053
0.0195159
0.0190684
0.018142
0.0171651
0.0160833
0.0148847
0.0135987
0.012107
0.0106912
0.00908469
0.00760599
0.00611836
0.0046646
0.00325807
0.00190378
0.000549167
-0.000713884
-0.00207742
-0.00456313
-0.00344982
-0.000730241
-0.000987081
-0.00105405
-0.00105576
-0.000890921
-0.000445283
0.000456469
0.00186014
0.00376403
0.00634362
0.00920812
0.0121643
0.014823
0.0170108
0.0185133
0.0192863
0.0192975
0.0187069
0.0179371
0.0169767
0.0158962
0.0146717
0.0133297
0.0118607
0.0103506
0.00886503
0.00739963
0.00603666
0.00467929
0.0033809
0.00214225
0.000919657
-0.000627401
-0.00251058
-0.00151631
-0.00425875
-0.00324584
-0.000709584
-0.0010759
-0.00123735
-0.00138242
-0.00133694
-0.00107831
-0.000440339
0.000685749
0.00236724
0.00463423
0.0073225
0.01025
0.01306
0.0155276
0.0174399
0.0186983
0.0191657
0.0190656
0.018557
0.0178342
0.0168939
0.0157711
0.0144805
0.0130535
0.0115616
0.010101
0.00865934
0.00731972
0.00603236
0.00480722
0.00362017
0.00244174
0.000829611
0.0015005
-0.000699606
0.000386789
0.00016154
-0.00225686
-0.00131702
-0.00394124
-0.00289584
-0.000752432
-0.00102219
-0.00139416
-0.00165274
-0.00168921
-0.00165625
-0.00125165
-0.000411568
0.000970134
0.00292027
0.0054295
0.00825221
0.0111173
0.0137827
0.0160652
0.0177943
0.0188156
0.0191822
0.019056
0.0185951
0.017852
0.0168565
0.0156338
0.0142316
0.0127478
0.0112523
0.00982446
0.00850551
0.00728172
0.00612486
0.00500765
0.0038564
0.00217491
0.00284583
0.00125766
-0.000426551
0.000967269
0.000441812
-0.00194605
-0.000996821
-0.00358662
-0.00255429
-0.000630064
-0.00103625
-0.00138253
-0.00170039
-0.00203762
-0.00210484
-0.00198199
-0.00141887
-0.000350723
0.00129833
0.00354607
0.00617778
0.00899786
0.0117911
0.0143528
0.0164994
0.0180858
0.0190012
0.0193412
0.019239
0.018763
0.017941
0.0168096
0.0154337
0.0139155
0.0124114
0.0109454
0.00961818
0.00840933
0.00734093
0.0062917
0.00517278
0.00352389
0.0042172
0.00208052
0.00284975
0.00174463
-8.58001e-05
0.00126564
0.000785078
-0.00154613
-0.000585752
-0.00323292
-0.00212144
-0.000610622
-0.000935789
-0.00138497
-0.00182376
-0.00226071
-0.00245513
-0.00256301
-0.00226539
-0.0015172
-0.000214983
0.00169011
0.00407226
0.00675451
0.0095714
0.0123248
0.0148295
0.0169381
0.0184437
0.0193459
0.0197078
0.0195927
0.0190218
0.0180293
0.0166933
0.0151348
0.013499
0.0119637
0.0105876
0.00942326
0.00842406
0.00746504
0.00640491
0.00487029
0.00549946
0.00357819
0.00427103
0.00249956
0.00322196
0.0020468
0.000332367
0.00161055
0.00120216
-0.00109824
-0.000126612
-0.0027982
-0.00166216
-0.000573083
-0.000862012
-0.00132352
-0.00173821
-0.00257042
-0.00274818
-0.00294701
-0.00296997
-0.00253981
-0.00159192
-7.05702e-05
0.0019823
0.00443486
0.00716249
0.010005
0.0127864
0.0153443
0.017446
0.0189819
0.0199243
0.0202911
0.020079
0.0193029
0.0180443
0.0164496
0.0147011
0.0130506
0.0115533
0.0103282
0.00936096
0.0085352
0.00754148
0.00612432
0.00671197
0.00494145
0.00558433
0.00391584
0.0045845
0.00279722
0.00351272
0.00238981
0.000798513
0.00202351
0.00166905
-0.000612912
0.00037886
-0.00231806
-0.00115164
-0.000516163
-0.000769362
-0.00120556
-0.00169126
-0.00248894
-0.00273307
-0.00319277
-0.00343721
-0.00333891
-0.00279226
-0.00168654
-3.51085e-05
0.00209198
0.00461623
0.00742243
0.0103662
0.0132703
0.0159438
0.0181589
0.0197969
0.0207847
0.0210655
0.0206209
0.0195158
0.017912
0.0160288
0.0141111
0.0124574
0.011134
0.010137
0.00941268
0.00859129
0.00730647
0.00781632
0.00621803
0.00682639
0.0052316
0.00586629
0.00419826
0.00486279
0.00313105
0.0038404
0.00279617
0.0013174
0.00248711
0.00219295
-7.08534e-05
0.000947676
-0.00179783
-0.000590929
-0.00048542
-0.000688412
-0.00105925
-0.00162373
-0.00236587
-0.002657
-0.00321278
-0.0036831
-0.00389925
-0.00374289
-0.00310275
-0.00191167
-0.000204958
0.00199629
0.00462741
0.00759118
0.010741
0.0139015
0.0167999
0.019216
0.0209573
0.0219002
0.0219563
0.0211339
0.019577
0.0175553
0.0153498
0.0133852
0.011828
0.0107682
0.0100651
0.00949438
0.00841445
0.00877152
0.00743524
0.00796173
0.00649314
0.00712235
0.00550668
0.00616343
0.00452133
0.0051938
0.00352465
0.00422812
0.00325238
0.00190524
0.00300905
0.00279141
0.000532884
0.00159011
-0.00123898
2.31687e-05
-0.00045367
-0.00062797
-0.000955665
-0.00142079
-0.00208273
-0.00238823
-0.00306848
-0.00370885
-0.00419434
-0.00441814
-0.00424126
-0.0035737
-0.00237318
-0.000617814
0.00169422
0.00450693
0.00774828
0.0112866
0.0148192
0.0180496
0.0206833
0.0224728
0.0232291
0.0228765
0.0214958
0.0193416
0.016846
0.014393
0.0124513
0.0111735
0.0104888
0.0100785
0.00933775
0.00969106
0.0086284
0.00903522
0.00774746
0.00838655
0.00683194
0.00757291
0.00587033
0.00664802
0.00492172
0.00567147
0.0039733
0.00469855
0.00377436
0.00257747
0.00361529
0.00348963
0.0012054
0.00231871
-0.000642659
0.000694821
-0.000452087
-0.000562439
-0.000804206
-0.00122335
-0.00188811
-0.00203881
-0.00278178
-0.00354038
-0.00423046
-0.00478569
-0.00506267
-0.00493381
-0.0043204
-0.00312858
-0.00129398
0.00120787
0.00432173
0.00807787
0.0121362
0.016182
0.0198128
0.0226188
0.0242924
0.0246416
0.0236597
0.0215389
0.0187052
0.0157008
0.0131181
0.0113542
0.01053
0.0103792
0.0100879
0.010383
0.00961775
0.0100305
0.00914486
0.00989719
0.00846173
0.00968464
0.00764392
0.00919899
0.00662745
0.008223
0.00553995
0.00687353
0.00453602
0.00551195
0.00444282
0.00335605
0.00439355
0.00436479
0.00195612
0.00315178
-1.57787e-05
0.00142328
-0.000426961
-0.00047937
-0.000648141
-0.00102116
-0.00154159
-0.00172727
-0.00234446
-0.00317173
-0.00400319
-0.00483335
-0.00551955
-0.00592765
-0.00594163
-0.00542257
-0.00422656
-0.00223849
0.000611154
0.00422537
0.00868235
0.0135044
0.0181636
0.0221227
0.0249296
0.0262669
0.025983
0.0241353
0.0210809
0.0174746
0.0140342
0.0115045
0.0102442
0.0101562
0.0106098
0.0103132
0.0104252
0.010713
0.0108165
0.0120041
0.0115274
0.0145966
0.0119776
0.0171516
0.0113896
0.0180535
0.00966313
0.0160485
0.00741474
0.0122252
0.00558714
0.00824806
0.00571089
0.00430082
0.005812
0.00581583
0.00279227
0.00412223
0.000629309
0.0022032
-0.000391443
-0.000412547
-0.000503966
-0.000799885
-0.00122718
-0.00131944
-0.00182158
-0.00261703
-0.00353349
-0.00455604
-0.00558539
-0.00648922
-0.00714245
-0.00736855
-0.00696371
-0.00571029
-0.00341289
2.54226e-05
0.00454601
0.00990224
0.0155465
0.0207676
0.0249164
0.0275335
0.0283087
0.0270897
0.0240718
0.0198741
0.0155622
0.0120609
0.0100773
0.0096795
0.0111854
0.0111722
0.0116997
0.013121
0.0143704
0.0184818
0.0240384
0.0262793
0.0396214
0.0315846
0.0546129
0.0306502
0.0603089
0.0244778
0.0516357
0.0159609
0.036818
0.00923925
0.0203935
0.0100317
0.00568346
0.0103512
0.0099564
0.00372707
0.00536877
0.00128341
0.00302382
-0.00033738
-0.000352737
-0.000391369
-0.000615299
-0.000875446
-0.000812706
-0.00132632
-0.00194685
-0.0028444
-0.00396466
-0.00525751
-0.00657622
-0.0078338
-0.00883521
-0.00933565
-0.00903862
-0.00758064
-0.00464672
-0.000225238
0.00547417
0.0119579
0.018438
0.0240985
0.0282415
0.0304033
0.0302643
0.0277471
0.0234669
0.0181943
0.0139183
0.0113097
0.010404
0.0122011
0.0186237
0.0206197
0.0153854
0.0167102
0.0297058
0.0368657
0.0556227
0.0734016
0.084365
0.116628
0.103643
0.152076
0.104731
0.169015
0.0834198
0.160287
0.0520858
0.121136
0.0247408
0.0675705
0.0275696
0.00895055
0.0279856
0.0251962
0.00479702
0.00763108
0.00188959
0.00386818
-0.000250886
-0.000291724
-0.000312851
-0.000432789
-0.00047085
-0.000351767
-0.000782206
-0.00122138
-0.00200464
-0.00311579
-0.00453885
-0.0061845
-0.00794982
-0.00970601
-0.0111525
-0.0119768
-0.0116387
-0.00951848
-0.0055173
0.000124737
0.00725908
0.0150496
0.0223009
0.0281654
0.0319801
0.0333631
0.0321666
0.0290433
0.0257655
0.0222657
0.0196609
0.0177851
0.0191243
0.0254504
0.0312895
0.0555637
0.0624947
0.043353
0.0504019
0.0905098
0.107097
0.147771
0.175979
0.200047
0.242925
0.233931
0.293823
0.242638
0.321153
0.22081
0.319303
0.161404
0.280208
0.0805093
0.195894
0.0875558
0.0198729
0.0863619
0.0743789
0.00625645
0.0139731
0.00236843
0.00473048
-0.000132757
-0.000215874
-0.000269179
-0.0003034
-0.000108485
4.18884e-05
-0.000229468
-0.000460705
-0.00108373
-0.0020741
-0.00350163
-0.00531796
-0.00747668
-0.00986671
-0.0122237
-0.014203
-0.0150782
-0.0140671
-0.0105411
-0.00511796
0.0019434
0.0104785
0.0192222
0.0269453
0.0327035
0.0359465
0.0369397
0.0385444
0.0450849
0.0541096
0.0531933
0.0462736
0.0431526
0.046782
0.0541799
0.0684927
0.0806283
0.139696
0.146476
0.120851
0.131772
0.199697
0.219473
0.279143
0.308893
0.346459
0.388816
0.39014
0.449136
0.407614
0.483999
0.392902
0.489705
0.335856
0.459005
0.220895
0.379907
0.231585
0.0550614
0.223661
0.191199
0.00928942
0.0347747
0.00270721
0.00593413
-3.07975e-05
-0.000142881
-0.000249673
-0.000227192
7.85124e-05
0.000272577
0.000243279
0.000230005
-0.000138352
-0.000924775
-0.00221945
-0.00405221
-0.0064227
-0.00928844
-0.0124392
-0.0153505
-0.0171332
-0.0167492
-0.0137734
-0.00825206
-0.00153536
0.00654464
0.0156982
0.0246431
0.0322308
0.0375545
0.0409658
0.0495602
0.076018
0.112635
0.133552
0.124165
0.0984714
0.11609
0.0915406
0.122482
0.152067
0.160415
0.249302
0.253022
0.233868
0.243489
0.332007
0.349172
0.422427
0.448205
0.496565
0.528834
0.54373
0.581945
0.566437
0.612278
0.561056
0.624571
0.515411
0.614842
0.410236
0.557318
0.422932
0.145709
0.417772
0.38193
0.0181965
0.0927297
0.0028133
0.00809873
-0.000104712
-0.000226039
-0.00013394
0.000155345
0.00040108
0.000597457
0.000804988
0.00073635
0.000242669
-0.000800583
-0.00248158
-0.00485974
-0.00797981
-0.0116756
-0.0152255
-0.0172184
-0.0160863
-0.011857
-0.00547297
0.00145251
0.00808474
0.0147707
0.0225463
0.0306403
0.0377425
0.0434495
0.0582308
0.102346
0.169615
0.216073
0.23127
0.213948
0.181797
0.204123
0.230724
0.169474
0.186817
0.255717
0.259417
0.367129
0.366645
0.359963
0.365479
0.465268
0.474639
0.546529
0.553041
0.599124
0.603
0.633542
0.639292
0.655641
0.666059
0.664263
0.68405
0.649911
0.691543
0.582986
0.67458
0.591573
0.312142
0.583382
0.550721
0.0440005
0.208392
0.00183054
0.013334
-0.000241362
-0.000134318
0.000146391
0.00046497
0.000853401
0.0012347
0.00147241
0.00133219
0.000632039
-0.0007296
-0.00291545
-0.00602965
-0.0099257
-0.0136835
-0.0150116
-0.0119729
-0.00546537
0.00185442
0.00860543
0.0143063
0.0194055
0.0239101
0.0290652
0.0365141
0.0440156
0.0630074
0.120804
0.204448
0.268171
0.302668
0.318124
0.305347
0.259483
0.290746
0.289796
0.311082
0.265337
0.275687
0.365223
0.364357
0.47091
0.464996
0.47734
0.475563
0.551504
0.54581
0.598416
0.587319
0.633213
0.621818
0.662751
0.652599
0.687287
0.680268
0.704757
0.704426
0.71167
0.722558
0.691067
0.728335
0.699176
0.488778
0.695636
0.67645
0.597984
0.108923
0.379161
-0.00202934
0.0333237
-0.000212327
1.80751e-05
0.00040158
0.000948724
0.00150645
0.0020087
0.00223828
0.00198122
0.00102829
-0.0007646
-0.00361007
-0.0073501
-0.0107922
-0.0108463
-0.00555613
0.00262345
0.0103444
0.0165034
0.0213746
0.0249527
0.0277158
0.0302267
0.0347025
0.0426719
0.063886
0.129062
0.222292
0.275913
0.314979
0.350987
0.379419
0.404093
0.33151
0.377832
0.378884
0.391765
0.36578
0.370252
0.458908
0.454092
0.519389
0.511659
0.537026
0.527953
0.574475
0.560542
0.606313
0.586005
0.637157
0.61311
0.668022
0.646773
0.69665
0.683676
0.720821
0.71382
0.738398
0.738832
0.742701
0.749106
0.74512
0.72801
0.750069
0.655082
0.531085
0.63492
0.722246
0.753846
0.751153
0.715795
0.240617
0.597332
0.56141
0.432091
0.00534952
0.134237
-9.43463e-05
0.000243272
0.000849373
0.00156759
0.00228789
0.00288864
0.00310391
0.00267486
0.00139283
-0.000936696
-0.0042274
-0.00703097
-0.00566937
0.00168018
0.0113601
0.0197121
0.0252895
0.0284292
0.0301148
0.0310075
0.0324374
0.0346245
0.039946
0.0614846
0.128943
0.215574
0.262204
0.298595
0.33638
0.378054
0.427622
0.459434
0.472628
0.409579
0.433594
0.452494
0.459192
0.45081
0.449767
0.505162
0.500482
0.526521
0.519672
0.547135
0.535568
0.563791
0.543166
0.582787
0.550579
0.616138
0.579969
0.664212
0.636924
0.704327
0.691052
0.732637
0.731956
0.731633
0.731014
0.751308
0.754413
0.747826
0.764155
0.75821
0.75723
0.759006
0.765056
0.760414
0.764604
0.702656
0.682552
0.751188
0.770466
0.768385
0.746079
0.515191
0.335256
0.481173
0.656602
0.626542
0.18718
0.466077
0.453528
0.288162
4.02572e-05
0.000594015
0.00138585
0.00230137
0.00322605
0.00390318
0.00404833
0.00340821
0.00173957
-0.000859027
-0.00288074
-0.000230407
0.00887085
0.0201565
0.029508
0.0345441
0.0354754
0.034752
0.0337776
0.0335191
0.0342191
0.0377579
0.0571151
0.122283
0.202907
0.237728
0.25759
0.279157
0.325342
0.393438
0.467146
0.497298
0.497922
0.470984
0.485825
0.497597
0.502674
0.497143
0.495919
0.514699
0.512283
0.508597
0.504928
0.526792
0.515804
0.520763
0.497753
0.539987
0.499693
0.598425
0.551284
0.670282
0.637095
0.729394
0.726096
0.720656
0.711607
0.749298
0.751165
0.75196
0.765149
0.772239
0.769329
0.790284
0.781072
0.769684
0.771565
0.778146
0.776604
0.777028
0.736279
0.721761
0.76999
0.781034
0.783197
0.766725
0.597496
0.584371
0.703358
0.683508
0.616457
0.114975
0.481385
0.601382
0.641358
0.000216534
0.000993491
0.00202436
0.00321892
0.00429809
0.00502058
0.00507893
0.00422726
0.00245048
0.00125724
0.00494014
0.0154628
0.0283773
0.0390845
0.0430051
0.0414963
0.0384658
0.0352118
0.0330727
0.0324199
0.0351134
0.0524243
0.112941
0.186647
0.214719
0.213639
0.188553
0.189309
0.25335
0.355616
0.486589
0.437122
0.515638
0.508664
0.51002
0.516111
0.519551
0.52477
0.512774
0.515335
0.505883
0.509469
0.474144
0.479461
0.483935
0.476176
0.465039
0.442215
0.498547
0.446376
0.589323
0.527094
0.699406
0.680669
0.659696
0.631112
0.750542
0.746273
0.73808
0.72521
0.773873
0.776425
0.77568
0.786825
0.799454
0.797597
0.821568
0.812125
0.787597
0.78527
0.797203
0.801213
0.790768
0.760196
0.75062
0.783257
0.794257
0.79564
0.780983
0.669277
0.673438
0.739195
0.729007
0.653865
0.0998933
0.415564
0.699797
0.722756
0.000405239
0.00146521
0.00281647
0.00425755
0.0054793
0.00625523
0.00626254
0.00547069
0.00511355
0.00945924
0.0210159
0.0354972
0.0477121
0.0504853
0.0467731
0.0410894
0.0350079
0.0307868
0.0288197
0.0320304
0.0484876
0.103673
0.170593
0.194913
0.18212
0.13147
0.106617
0.125998
0.181649
0.273083
0.466008
0.393658
0.523155
0.505633
0.528719
0.528509
0.528055
0.532995
0.514851
0.521383
0.488264
0.498776
0.436599
0.450297
0.431779
0.428789
0.403668
0.378677
0.457575
0.392925
0.6012
0.564053
0.528273
0.487759
0.707772
0.685784
0.659479
0.627737
0.770122
0.759616
0.745491
0.727924
0.801207
0.798541
0.789123
0.817778
0.834078
0.824758
0.846881
0.845596
0.814342
0.80477
0.825182
0.835157
0.809895
0.776546
0.770421
0.794861
0.81209
0.811411
0.792171
0.726539
0.737832
0.764309
0.761447
0.631701
0.118351
0.413522
0.75628
0.735829
0.000616869
0.00202307
0.00370201
0.0053892
0.006791
0.00767339
0.00786472
0.00842783
0.0132313
0.0252147
0.0409752
0.0548501
0.0571883
0.0519401
0.0428457
0.0332118
0.0259979
0.0237004
0.0289705
0.0457109
0.0957023
0.156071
0.178115
0.16184
0.105823
0.0740017
0.0735743
0.0922047
0.128987
0.258896
0.169417
0.427685
0.347045
0.515902
0.482908
0.533664
0.52995
0.52667
0.529022
0.509605
0.519484
0.466159
0.481985
0.389894
0.410343
0.370332
0.37388
0.344909
0.31447
0.428574
0.371282
0.592174
0.553379
0.514569
0.476448
0.706468
0.680372
0.649509
0.614312
0.775795
0.759237
0.739596
0.716979
0.818322
0.804785
0.786477
0.855282
0.868908
0.836504
0.85485
0.868834
0.850372
0.833038
0.862409
0.875086
0.837313
0.788086
0.783446
0.808
0.837376
0.833075
0.802908
0.766157
0.778279
0.780322
0.781521
0.615121
0.112755
0.413728
0.780409
0.731714
0.000857858
0.00262817
0.00466642
0.00664477
0.00829234
0.00947098
0.0107694
0.0159246
0.0281213
0.0445115
0.0599911
0.0631365
0.0572396
0.0453242
0.0310847
0.0211823
0.020155
0.0260746
0.043768
0.0908839
0.143718
0.163654
0.148591
0.0974922
0.0628115
0.0556125
0.0617653
0.0737169
0.0851701
0.199285
0.125875
0.373141
0.286548
0.488446
0.441404
0.526854
0.515802
0.512026
0.511537
0.496127
0.506824
0.431575
0.45077
0.320177
0.343919
0.298917
0.302427
0.325623
0.291534
0.441153
0.416028
0.374027
0.395627
0.576448
0.538058
0.501486
0.469445
0.690931
0.660926
0.627374
0.591746
0.764414
0.740745
0.715733
0.688854
0.81767
0.791739
0.762306
0.891411
0.890766
0.829221
0.841505
0.873846
0.892178
0.870415
0.90565
0.912894
0.87336
0.797103
0.791891
0.825208
0.870622
0.861681
0.81551
0.789203
0.797738
0.789622
0.792695
0.605762
0.1118
0.412542
0.787367
0.725187
0.00112151
0.00329627
0.00574477
0.00807084
0.0101221
0.0122292
0.0171087
0.0295003
0.0461755
0.062835
0.0678843
0.0625565
0.0489917
0.0318767
0.0213129
0.0196612
0.0253792
0.0440708
0.0881565
0.132969
0.151404
0.13887
0.0939453
0.0579049
0.0481174
0.0506137
0.0568047
0.0620713
0.0724455
0.0622587
0.140847
0.0930205
0.301607
0.215109
0.439078
0.379659
0.503026
0.479739
0.4773
0.471625
0.466049
0.475396
0.369155
0.391119
0.231332
0.248561
0.261114
0.239689
0.355816
0.334044
0.314036
0.456625
0.442494
0.415766
0.429617
0.556363
0.523993
0.496811
0.474144
0.659681
0.628591
0.596981
0.566915
0.732549
0.703361
0.67462
0.646189
0.794356
0.756273
0.718562
0.91326
0.8948
0.798345
0.807648
0.857799
0.932286
0.914185
0.948376
0.935226
0.916212
0.805567
0.797568
0.847944
0.910677
0.89681
0.831702
0.8011
0.805202
0.794184
0.797206
0.584937
0.0486073
0.286046
0.787197
0.712552
0.00142309
0.00405171
0.00695774
0.00976653
0.0126394
0.0173979
0.0285597
0.0460957
0.0632206
0.0709191
0.0671612
0.0541592
0.0367733
0.0261534
0.0230058
0.0285499
0.0491788
0.0898848
0.123812
0.140509
0.130487
0.0926602
0.0561612
0.043292
0.0441504
0.048993
0.0535069
0.0557144
0.0621124
0.0580936
0.0926207
0.0706126
0.213492
0.140025
0.364096
0.294272
0.452228
0.416566
0.412155
0.397937
0.406781
0.414036
0.272749
0.29506
0.188465
0.166909
0.264159
0.222728
0.399158
0.376707
0.425576
0.389133
0.496725
0.494839
0.483308
0.490669
0.541774
0.522058
0.508588
0.500951
0.618366
0.592111
0.569979
0.554189
0.68337
0.651837
0.624182
0.600362
0.751125
0.704491
0.662203
0.919154
0.879016
0.752013
0.763055
0.824493
0.957523
0.959352
0.978112
0.945242
0.962149
0.815456
0.802549
0.876489
0.954594
0.936942
0.852227
0.805625
0.806546
0.796175
0.797551
0.523786
0.0268338
0.176075
0.783261
0.686851
0.00175951
0.00489138
0.00836274
0.0119493
0.0167167
0.0264824
0.0431163
0.061756
0.0716144
0.0702044
0.0596684
0.0433189
0.0337651
0.0300945
0.0362549
0.0581814
0.0895419
0.115158
0.130363
0.121842
0.0890997
0.0538219
0.0396579
0.0391335
0.0431624
0.0474546
0.0505165
0.0533494
0.051507
0.0573534
0.0553153
0.0667102
0.0601825
0.124361
0.0843571
0.25955
0.188311
0.367695
0.321396
0.307856
0.285607
0.309411
0.315056
0.161556
0.171297
0.190198
0.142533
0.352642
0.307975
0.264421
0.471023
0.451782
0.509985
0.471785
0.563616
0.572181
0.5706
0.575473
0.544286
0.541632
0.545887
0.554057
0.581262
0.56813
0.562886
0.563415
0.627198
0.600085
0.58085
0.569108
0.69693
0.647762
0.608597
0.906907
0.850159
0.701532
0.720663
0.785567
0.971409
0.995553
0.997079
0.940142
1.0049
0.828108
0.808007
0.909583
0.99983
0.9785
0.876727
0.805287
0.805159
0.796439
0.795076
0.433246
0.011864
0.0854066
0.775094
0.646803
0.00211648
0.00582895
0.0100904
0.0150773
0.0234848
0.0383405
0.0571568
0.0698441
0.0710626
0.0635081
0.0493691
0.0406524
0.037532
0.0451306
0.062719
0.0850081
0.106967
0.119747
0.112097
0.0832724
0.0502321
0.0361795
0.0350338
0.0383906
0.0422899
0.0455117
0.0473263
0.0511692
0.0492545
0.0543076
0.0528148
0.0568893
0.055525
0.0700799
0.0601176
0.141221
0.0957007
0.247446
0.196444
0.172067
0.148478
0.180394
0.182829
0.111734
0.0894684
0.282394
0.227569
0.177412
0.425938
0.373531
0.334694
0.397655
0.560138
0.539577
0.597769
0.555979
0.651898
0.666724
0.667882
0.672973
0.573644
0.590394
0.610658
0.632098
0.566432
0.569257
0.582941
0.604537
0.581307
0.565252
0.561079
0.563466
0.646378
0.602876
0.57334
0.884791
0.820463
0.661972
0.695022
0.754815
0.975167
1.01948
1.01023
0.927951
1.0366
0.84294
0.814188
0.944824
1.03991
1.0178
0.90222
0.802023
0.801632
0.79563
0.791141
0.322485
0.00677985
0.0355907
0.764415
0.593573
0.00250978
0.00693642
0.0123702
0.0198752
0.0325342
0.0499394
0.0655771
0.0692562
0.065043
0.0536416
0.0446971
0.0420817
0.0473605
0.0602903
0.0788341
0.0963353
0.106629
0.0994752
0.0743168
0.0450793
0.0330633
0.0317307
0.0343906
0.0378779
0.0408255
0.0429476
0.0453531
0.0436103
0.0488436
0.047115
0.0515498
0.0503277
0.0528226
0.0524354
0.0530008
0.0527983
0.065101
0.055592
0.116855
0.0862416
0.064299
0.0554159
0.0794833
0.0722781
0.114041
0.0761361
0.337255
0.277068
0.279049
0.22457
0.507234
0.453606
0.398757
0.460401
0.655202
0.631267
0.672004
0.627111
0.747657
0.763451
0.759116
0.767206
0.632295
0.663386
0.694783
0.723728
0.578047
0.602323
0.633134
0.66948
0.560216
0.557713
0.567688
0.588558
0.61445
0.581555
0.566526
0.86726
0.805157
0.645552
0.697991
0.74757
0.975126
1.03756
1.02179
0.923659
1.06155
0.858529
0.82017
0.97713
1.071
1.04901
0.925657
0.796733
0.796906
0.793858
0.785622
0.19391
0.00323773
0.0218094
0.750351
0.515393
0.00298417
0.00833341
0.0155328
0.0262914
0.04151
0.0581302
0.0650564
0.0636388
0.0552591
0.0465229
0.0425822
0.0455878
0.0552033
0.0684612
0.0826773
0.0893724
0.0810155
0.058654
0.0383213
0.0297658
0.0290763
0.0311138
0.0339718
0.0367718
0.038787
0.0398062
0.0432832
0.0414593
0.0464042
0.04487
0.0488453
0.0477648
0.0497772
0.0495313
0.0483925
0.0494139
0.0454253
0.0468741
0.0484461
0.045354
0.0370724
0.0360677
0.0546437
0.0423102
0.186061
0.147362
0.115906
0.392144
0.333448
0.319907
0.266999
0.576176
0.520201
0.452568
0.511274
0.740565
0.710725
0.717394
0.667634
0.833679
0.845459
0.829355
0.842853
0.708314
0.746788
0.782107
0.811744
0.619616
0.657825
0.699979
0.742291
0.562974
0.573944
0.599291
0.636912
0.608674
0.586123
0.577938
0.867361
0.814156
0.656783
0.726564
0.76641
0.981484
1.05671
1.04012
0.934765
1.08234
0.871479
0.823841
1.00167
1.08951
1.06836
0.940806
0.790591
0.790745
0.791155
0.779286
0.138671
-0.00669827
0.00902065
0.730143
0.45754
0.00357685
0.0102036
0.0194941
0.032778
0.0479251
0.0585723
0.059265
0.053667
0.0454636
0.0400532
0.0399258
0.0452889
0.0550746
0.0648728
0.0665405
0.0572108
0.0423023
0.0317242
0.026683
0.0265853
0.028257
0.0305978
0.0331499
0.0351311
0.0362046
0.0362173
0.041061
0.0395739
0.0439216
0.0425699
0.0460068
0.0450854
0.0467172
0.0465641
0.0455457
0.0464377
0.0417986
0.0439658
0.0370953
0.0393083
0.0391029
0.036126
0.0735958
0.0499626
0.219244
0.176847
0.13058
0.168445
0.430705
0.375428
0.352111
0.302118
0.617458
0.566054
0.482438
0.53013
0.801916
0.763473
0.723046
0.669465
0.899198
0.903132
0.872868
0.89354
0.78399
0.823136
0.856695
0.882687
0.680124
0.724773
0.771716
0.817483
0.585418
0.611016
0.651515
0.701436
0.627221
0.614831
0.613612
0.88868
0.849481
0.697057
0.789851
0.815318
1.00497
1.07533
1.0591
0.96814
1.09478
0.877939
0.823804
1.01423
1.09943
1.07763
0.945958
0.784399
0.782043
0.786911
0.774254
0.108348
-0.0350139
-0.0156279
0.712702
0.435411
0.00419976
0.0124695
0.0233985
0.0374709
0.0488201
0.053039
0.0493688
0.0417144
0.0349914
0.0315548
0.0334952
0.0385059
0.0413786
0.0394562
0.0350394
0.0297655
0.0257006
0.0239278
0.024157
0.0256855
0.0277072
0.0298222
0.0317833
0.0330071
0.0331215
0.0340058
0.0374204
0.032871
0.0388659
0.0413934
0.0401785
0.0432114
0.0424345
0.043771
0.0436701
0.0426995
0.0434858
0.0395996