/*--------------------------------*- C++ -*----------------------------------*\
  =========                 |
  \\      /  F ield         | OpenFOAM: The Open Source CFD Toolbox
   \\    /   O peration     | Website:  https://openfoam.org
    \\  /    A nd           | Version:  dev
     \\/     M anipulation  |
\*---------------------------------------------------------------------------*/
FoamFile
{
    version     2.0;
    format      ascii;
    class       surfaceScalarField;
    location    "2500";
    object      phi;
}
// * * * * * * * * * * * * * * * * * * * * * * * * * * * * * * * * * * * * * //

dimensions      [1 0 -1 0 0 0 0];

internalField   nonuniform List<scalar> 
19503
(
1.68145e-07
1.18638e-07
1.45201e-07
2.97883e-07
4.71081e-07
1.08286e-07
1.20081e-07
4.1275e-07
4.68173e-07
3.00778e-07
6.84933e-07
9.16648e-08
1.00371e-07
4.98609e-07
4.3772e-07
4.43195e-07
7.0871e-07
2.7699e-07
8.57321e-07
7.86505e-08
8.45108e-08
5.676e-07
3.88071e-07
5.48247e-07
7.13696e-07
4.3821e-07
8.89851e-07
2.44427e-07
1.00931e-06
7.0187e-08
7.26197e-08
6.2582e-07
3.33938e-07
6.21712e-07
6.9294e-07
5.68984e-07
9.20552e-07
4.07491e-07
1.0357e-06
2.18027e-07
1.14856e-06
6.43132e-08
6.38969e-08
6.80015e-07
2.84144e-07
6.75592e-07
6.46545e-07
6.6809e-07
9.34361e-07
5.55168e-07
1.07518e-06
3.67984e-07
1.16799e-06
1.9859e-07
1.27761e-06
5.99347e-08
5.70295e-08
7.3254e-07
2.44528e-07
7.1958e-07
5.83068e-07
7.39049e-07
9.2275e-07
6.79694e-07
1.11314e-06
5.172e-07
1.20217e-06
3.33825e-07
1.29304e-06
1.8315e-07
1.40181e-06
5.58599e-08
5.14578e-08
7.84252e-07
2.15643e-07
7.61405e-07
5.14388e-07
7.88227e-07
8.8473e-07
7.77063e-07
1.13566e-06
6.57167e-07
1.2469e-06
4.72471e-07
1.31912e-06
3.07734e-07
1.41416e-06
1.70796e-07
1.51644e-06
5.2454e-08
4.74599e-08
8.34275e-07
1.96848e-07
8.02905e-07
4.50821e-07
8.2495e-07
8.25539e-07
8.47417e-07
1.13397e-06
7.78745e-07
1.29083e-06
6.13259e-07
1.35734e-06
4.34197e-07
1.43596e-06
2.85913e-07
1.52729e-06
1.5992e-07
1.62588e-06
4.93499e-08
4.46234e-08
8.83454e-07
1.83091e-07
8.48e-07
3.97644e-07
8.56271e-07
7.53175e-07
8.97328e-07
1.10453e-06
8.76868e-07
1.32194e-06
7.47632e-07
1.40754e-06
5.63047e-07
1.46795e-06
4.022e-07
1.54529e-06
2.67887e-07
1.63581e-06
1.50001e-07
1.7295e-06
4.64043e-08
4.23214e-08
9.31811e-07
1.7081e-07
8.95716e-07
3.60016e-07
8.85586e-07
6.79581e-07
9.29807e-07
1.0517e-06
9.50154e-07
1.33095e-06
8.6789e-07
1.45892e-06
6.96251e-07
1.50958e-06
5.21395e-07
1.57172e-06
3.75744e-07
1.65221e-06
2.51473e-07
1.73829e-06
1.41202e-07
1.8272e-06
4.37009e-08
4.00251e-08
9.78715e-07
1.60845e-07
9.41802e-07
3.36445e-07
9.19275e-07
6.12775e-07
9.52368e-07
9.81845e-07
9.99606e-07
1.31221e-06
9.68867e-07
1.49885e-06
8.27968e-07
1.56145e-06
6.44378e-07
1.60831e-06
4.8483e-07
1.67462e-06
3.53303e-07
1.75314e-06
2.36606e-07
1.83564e-06
1.32759e-07
1.92019e-06
4.12182e-08
3.81776e-08
1.02332e-06
1.52233e-07
9.87305e-07
3.196e-07
9.58643e-07
5.5772e-07
9.74289e-07
9.01258e-07
1.03296e-06
1.26767e-06
1.04415e-06
1.51832e-06
9.49373e-07
1.61706e-06
7.72351e-07
1.65424e-06
5.98445e-07
1.70413e-06
4.55286e-07
1.77396e-06
3.32459e-07
1.84959e-06
2.22641e-07
1.92815e-06
1.24792e-07
2.00818e-06
3.87459e-08
3.65712e-08
1.06692e-06
1.44103e-07
1.03145e-06
3.06783e-07
1.00012e-06
5.14741e-07
1.00167e-06
8.19204e-07
1.05649e-06
1.20395e-06
1.0967e-06
1.51188e-06
1.05061e-06
1.66511e-06
9.01334e-07
1.70988e-06
7.16712e-07
1.74372e-06
5.58829e-07
1.80099e-06
4.28238e-07
1.86944e-06
3.12566e-07
1.94126e-06
2.09516e-07
2.0158e-06
1.1717e-07
2.09152e-06
3.65328e-08
3.47931e-08
1.1092e-06
1.37934e-07
1.07305e-06
2.93185e-07
1.04502e-06
4.7984e-07
1.03505e-06
7.46656e-07
1.0741e-06
1.1274e-06
1.13297e-06
1.47947e-06
1.12914e-06
1.69655e-06
1.01917e-06
1.7704e-06
8.40805e-07
1.79325e-06
6.67181e-07
1.83489e-06
5.24852e-07
1.89473e-06
4.02945e-07
1.95961e-06
2.94201e-07
2.02866e-06
1.9663e-07
2.09873e-06
1.0993e-07
2.17048e-06
3.4401e-08
3.31901e-08
1.14917e-06
1.32164e-07
1.11494e-06
2.76864e-07
1.08937e-06
4.55194e-07
1.0697e-06
6.89272e-07
1.09238e-06
1.04383e-06
1.15773e-06
1.42479e-06
1.18767e-06
1.70433e-06
1.12134e-06
1.82654e-06
9.63033e-07
1.85217e-06
7.819e-07
1.87732e-06
6.24811e-07
1.92555e-06
4.9401e-07
1.98368e-06
3.78855e-07
2.04628e-06
2.76559e-07
2.11092e-06
1.84468e-07
2.17741e-06
1.02996e-07
2.24563e-06
3.21062e-08
3.17162e-08
1.18706e-06
1.25312e-07
1.156e-06
2.63189e-07
1.12859e-06
4.38037e-07
1.10636e-06
6.43711e-07
1.11523e-06
9.60624e-07
1.17561e-06
1.35357e-06
1.22896e-06
1.68626e-06
1.20576e-06
1.86973e-06
1.07816e-06
1.91755e-06
8.9766e-07
1.92912e-06
7.3009e-07
1.96309e-06
5.87269e-07
2.0132e-06
4.64465e-07
2.06876e-06
3.56307e-07
2.12808e-06
2.59352e-07
2.18945e-06
1.72442e-07
2.25248e-06
9.61458e-08
2.31604e-06
2.9976e-08
3.01371e-08
1.22259e-06
1.19112e-07
1.19321e-06
2.52553e-07
1.16662e-06
4.19086e-07
1.14752e-06
6.069e-07
1.14326e-06
8.8435e-07
1.19143e-06
1.27183e-06
1.25736e-06
1.64379e-06
1.27144e-06
1.89212e-06
1.18339e-06
1.98204e-06
1.01366e-06
1.99109e-06
8.35703e-07
2.00867e-06
6.84452e-07
2.04807e-06
5.5237e-07
2.09671e-06
4.36544e-07
2.15037e-06
3.34e-07
2.20651e-06
2.4226e-07
2.26426e-06
1.60644e-07
2.32295e-06
8.92137e-08
2.38252e-06
2.77044e-08
2.83297e-08
1.25554e-06
1.13852e-07
1.2278e-06
2.42143e-07
1.20358e-06
3.98435e-07
1.18725e-06
5.78988e-07
1.1756e-06
8.18696e-07
1.209e-06
1.18572e-06
1.27762e-06
1.58192e-06
1.31924e-06
1.88987e-06
1.2737e-06
2.03698e-06
1.12845e-06
2.06067e-06
9.44075e-07
2.06353e-06
7.80866e-07
2.08946e-06
6.43051e-07
2.13006e-06
5.19008e-07
2.17724e-06
4.09653e-07
2.22802e-06
3.12468e-07
2.28041e-06
2.26097e-07
2.33437e-06
1.49209e-07
2.38921e-06
8.25108e-08
2.44455e-06
2.55546e-08
2.65646e-08
1.28498e-06
1.08491e-07
1.26086e-06
2.3002e-07
1.23989e-06
3.78009e-07
1.224e-06
5.53638e-07
1.21261e-06
7.65619e-07
1.22856e-06
1.10108e-06
1.29365e-06
1.50638e-06
1.35316e-06
1.86267e-06
1.34645e-06
2.07441e-06
1.23629e-06
2.13228e-06
1.05686e-06
2.12803e-06
8.79596e-07
2.13853e-06
7.31782e-07
2.16875e-06
6.04311e-07
2.20917e-06
4.8705e-07
2.25434e-06
3.83299e-07
2.30115e-06
2.9171e-07
2.35059e-06
2.09837e-07
2.40087e-06
1.37552e-07
2.45133e-06
7.57385e-08
2.50263e-06
2.33078e-08
2.48471e-08
1.31116e-06
1.01375e-07
1.29208e-06
2.1732e-07
1.27353e-06
3.60525e-07
1.25741e-06
5.27354e-07
1.2503e-06
7.25717e-07
1.25253e-06
1.02133e-06
1.30827e-06
1.42308e-06
1.37695e-06
1.81375e-06
1.40209e-06
2.08929e-06
1.33158e-06
2.19816e-06
1.17042e-06
2.20066e-06
9.84244e-07
2.19606e-06
8.22087e-07
2.214e-06
6.86554e-07
2.24611e-06
5.67351e-07
2.28506e-06
4.56273e-07
2.32679e-06
3.57639e-07
2.37159e-06
2.70717e-07
2.41712e-06
1.93564e-07
2.46304e-06
1.25829e-07
2.50966e-06
6.8708e-08
2.55639e-06
2.09669e-08
2.28345e-08
1.33387e-06
9.40251e-08
1.31843e-06
2.06319e-07
1.303e-06
3.44352e-07
1.28968e-06
4.99268e-07
1.2853e-06
6.92384e-07
1.28366e-06
9.50358e-07
1.32343e-06
1.33628e-06
1.39507e-06
1.74824e-06
1.44247e-06
2.08009e-06
1.41131e-06
2.25092e-06
1.27884e-06
2.27831e-06
1.09277e-06
2.26326e-06
9.17044e-07
2.26694e-06
7.69161e-07
2.28894e-06
6.43715e-07
2.32058e-06
5.31785e-07
2.35721e-06
4.25801e-07
2.39688e-06
3.3232e-07
2.43781e-06
2.50019e-07
2.47916e-06
1.77421e-07
2.52125e-06
1.14241e-07
2.56358e-06
6.15284e-08
2.60551e-06
1.84819e-08
2.07988e-08
1.35203e-06
8.69117e-08
1.34092e-06
1.94714e-07
1.32996e-06
3.25709e-07
1.32165e-06
4.71766e-07
1.31717e-06
6.59076e-07
1.31873e-06
8.91901e-07
1.34205e-06
1.24913e-06
1.41057e-06
1.67207e-06
1.47125e-06
2.04839e-06
1.47419e-06
2.28426e-06
1.37798e-06
2.3544e-06
1.20278e-06
2.33937e-06
1.01667e-06
2.32779e-06
8.56162e-07
2.33802e-06
7.20092e-07
2.36181e-06
6.02523e-07
2.39214e-06
4.96838e-07
2.42658e-06
3.96037e-07
2.46301e-06
3.0708e-07
2.50013e-06
2.29022e-07
2.53808e-06
1.60579e-07
2.57583e-06
1.01988e-07
2.61314e-06
5.39128e-08
2.64984e-06
1.58268e-08
1.86569e-08
1.36536e-06
7.9978e-08
1.35889e-06
1.83031e-07
1.35258e-06
3.05933e-07
1.34972e-06
4.46433e-07
1.34697e-06
6.24881e-07
1.35141e-06
8.44482e-07
1.36615e-06
1.16569e-06
1.42551e-06
1.58933e-06
1.49331e-06
1.99774e-06
1.5219e-06
2.29557e-06
1.4629e-06
2.42178e-06
1.31062e-06
2.42211e-06
1.12007e-06
2.3976e-06
9.46876e-07
2.39444e-06
7.99726e-07
2.40856e-06
6.73341e-07
2.43212e-06
5.62529e-07
2.46097e-06
4.62436e-07
2.49252e-06
3.66488e-07
2.52563e-06
2.81508e-07
2.55916e-06
2.07917e-07
2.59275e-06
1.43645e-07
2.62571e-06
8.9411e-08
2.65799e-06
4.57898e-08
2.69875e-06
1.35433e-08
1.64859e-08
1.37327e-06
7.26164e-08
1.37267e-06
1.6968e-07
1.3722e-06
2.8442e-07
1.37401e-06
4.21597e-07
1.3746e-06
5.91151e-07
1.38069e-06
8.01894e-07
1.39396e-06
1.09073e-06
1.44109e-06
1.50365e-06
1.51117e-06
1.93341e-06
1.55765e-06
2.28433e-06
1.53313e-06
2.47371e-06
1.41098e-06
2.50676e-06
1.226e-06
2.47677e-06
1.04095e-06
2.45879e-06
8.82524e-07
2.46157e-06
7.46656e-07
2.47748e-06
6.27949e-07
2.49996e-06
5.23496e-07
2.5263e-06
4.2863e-07
2.5551e-06
3.37034e-07
2.58437e-06
2.56261e-07
2.61449e-06
1.86157e-07
2.64371e-06
1.25632e-07
2.6719e-06
7.5479e-08
2.7072e-06
3.73451e-08
2.73344e-06
1.17007e-08
1.43183e-08
1.3758e-06
6.41627e-08
1.38167e-06
1.55202e-07
1.38697e-06
2.63452e-07
1.39315e-06
3.96357e-07
1.39929e-06
5.57717e-07
1.40799e-06
7.60357e-07
1.42218e-06
1.02527e-06
1.45935e-06
1.41743e-06
1.5273e-06
1.85977e-06
1.58482e-06
2.25307e-06
1.5889e-06
2.50654e-06
1.50031e-06
2.58705e-06
1.33069e-06
2.56404e-06
1.13874e-06
2.53163e-06
9.68122e-07
2.52191e-06
8.22196e-07
2.52834e-06
6.95796e-07
2.54378e-06
5.84114e-07
2.56483e-06
4.84925e-07
2.58889e-06
3.94811e-07
2.61452e-06
3.06841e-07
2.64071e-06
2.30003e-07
2.6665e-06
1.63345e-07
2.69108e-06
1.06438e-07
2.72205e-06
6.06369e-08
2.74323e-06
2.75552e-08
2.76213e-06
1.04078e-08
1.17924e-08
1.37313e-06
5.5624e-08
1.38429e-06
1.40656e-07
1.39613e-06
2.42224e-07
1.40835e-06
3.69269e-07
1.42025e-06
5.24258e-07
1.43275e-06
7.18449e-07
1.44987e-06
9.66974e-07
1.4804e-06
1.33391e-06
1.54283e-06
1.78056e-06
1.60647e-06
2.20504e-06
1.63282e-06
2.51784e-06
1.57759e-06
2.6564e-06
1.43094e-06
2.65569e-06
1.23898e-06
2.61387e-06
1.05655e-06
2.59015e-06
8.99869e-07
2.58549e-06
7.65012e-07
2.59314e-06
6.46457e-07
2.60769e-06
5.41256e-07
2.62668e-06
4.47074e-07
2.64824e-06
3.61053e-07
2.67081e-06
2.76705e-07
2.69314e-06
2.03266e-07
2.71485e-06
1.39569e-07
2.74231e-06
8.61763e-08
2.75995e-06
4.38635e-08
2.7733e-06
1.6377e-08
2.78441e-06
7.96614e-09
9.30767e-09
1.36425e-06
4.76964e-08
1.38099e-06
1.24846e-07
1.40006e-06
2.2048e-07
1.41788e-06
3.4186e-07
1.43566e-06
4.91166e-07
1.45334e-06
6.75932e-07
1.47524e-06
9.12965e-07
1.50383e-06
1.25474e-06
1.55956e-06
1.69813e-06
1.62522e-06
2.14495e-06
1.66653e-06
2.50908e-06
1.64157e-06
2.71013e-06
1.5239e-06
2.74676e-06
1.33991e-06
2.70463e-06
1.14816e-06
2.66698e-06
9.79777e-07
2.64998e-06
8.35378e-07
2.64814e-06
7.09958e-07
2.65528e-06
5.98823e-07
2.66854e-06
4.99346e-07
2.68574e-06
4.09525e-07
2.70466e-06
3.27183e-07
2.72398e-06
2.45902e-07
2.74328e-06
1.74746e-07
2.76756e-06
1.1431e-07
2.783e-06
6.31745e-08
2.79216e-06
2.50164e-08
2.79675e-06
4.0431e-09
2.79915e-06
2.57413e-09
6.83283e-09
1.3496e-06
3.97435e-08
1.3722e-06
1.08511e-07
1.39729e-06
1.99156e-07
1.4213e-06
3.12519e-07
1.4472e-06
4.55614e-07
1.47122e-06
6.31032e-07
1.4982e-06
8.60576e-07
1.52759e-06
1.18099e-06
1.5775e-06
1.61498e-06
1.64264e-06
2.07622e-06
1.69391e-06
2.48193e-06
1.69365e-06
2.74477e-06
1.60691e-06
2.8315e-06
1.43917e-06
2.802e-06
1.24249e-06
2.75248e-06
1.06265e-06
2.72208e-06
9.07643e-07
2.70959e-06
7.73946e-07
2.70835e-06
6.56857e-07
2.71508e-06
5.5231e-07
2.72723e-06
4.57832e-07
2.74252e-06
3.71617e-07
2.75891e-06
2.92224e-07
2.77545e-06
2.13778e-07
2.79678e-06
1.45486e-07
2.81176e-06
8.55414e-08
2.81765e-06
3.76604e-08
2.81773e-06
4.04445e-09
2.81166e-06
-8.48727e-09
2.80098e-06
-3.6112e-09
5.13312e-09
1.33041e-06
3.16713e-08
1.35761e-06
9.35883e-08
1.38707e-06
1.77499e-07
1.41894e-06
2.81614e-07
1.45225e-06
4.17873e-07
1.48493e-06
5.84894e-07
1.51735e-06
8.08107e-07
1.55058e-06
1.1116e-06
1.5969e-06
1.53232e-06
1.66006e-06
2.00224e-06
1.71658e-06
2.44014e-06
1.73566e-06
2.7597e-06
1.67871e-06
2.90463e-06
1.53375e-06
2.90194e-06
1.33931e-06
2.84653e-06
1.14837e-06
2.80248e-06
9.82308e-07
2.77804e-06
8.39111e-07
2.76757e-06
7.14662e-07
2.76632e-06
6.0556e-07
2.77193e-06
5.07582e-07
2.78276e-06
4.17545e-07
2.79645e-06
3.34026e-07
2.81071e-06
2.56893e-07
2.82969e-06
1.80864e-07
2.84541e-06
1.11828e-07
2.84994e-06
5.3244e-08
2.84668e-06
8.67865e-09
2.83574e-06
-1.99547e-08
2.81784e-06
-2.53261e-08
2.79154e-06
-1.21756e-08
3.50899e-09
1.30625e-06
2.49866e-08
1.33704e-06
8.05665e-08
1.37061e-06
1.55814e-07
1.40875e-06
2.52534e-07
1.44801e-06
3.81119e-07
1.48899e-06
5.39726e-07
1.53009e-06
7.54713e-07
1.57069e-06
1.04604e-06
1.61606e-06
1.45109e-06
1.67802e-06
1.9245e-06
1.7377e-06
2.38605e-06
1.77061e-06
2.75586e-06
1.73947e-06
2.96137e-06
1.622e-06
2.99887e-06
1.43682e-06
2.9477e-06
1.23829e-06
2.89131e-06
1.05959e-06
2.85469e-06
9.05744e-07
2.83346e-06
7.73275e-07
2.82294e-06
6.58036e-07
2.82113e-06
5.56359e-07
2.82589e-06
4.64402e-07
2.83613e-06
3.77845e-07
2.8489e-06
2.95866e-07
2.86503e-06
2.21499e-07
2.88257e-06
1.43656e-07
2.88744e-06
7.42969e-08
2.88367e-06
1.62626e-08
2.87052e-06
-2.62129e-08
2.84726e-06
-4.93585e-08
2.81295e-06
-4.67269e-08
2.76933e-06
-2.31224e-08
2.38615e-09
1.27692e-06
1.96243e-08
1.31155e-06
6.72259e-08
1.35034e-06
1.33529e-07
1.39289e-06
2.23357e-07
1.43792e-06
3.4262e-07
1.4865e-06
4.94267e-07
1.53442e-06
7.0282e-07
1.58191e-06
9.84271e-07
1.63236e-06
1.37359e-06
1.69343e-06
1.84502e-06
1.75734e-06
2.32271e-06
1.80097e-06
2.73452e-06
1.79191e-06
2.99886e-06
1.70194e-06
3.08799e-06
1.53285e-06
3.05313e-06
1.33137e-06
2.9893e-06
1.14029e-06
2.93959e-06
9.74698e-07
2.90708e-06
8.32136e-07
2.88611e-06
7.10065e-07
2.87516e-06
6.03937e-07
2.87266e-06
5.09564e-07
2.87804e-06
4.22478e-07
2.88827e-06
3.38296e-07
2.90219e-06
2.58678e-07
2.92225e-06
1.81769e-07
2.92882e-06
1.02249e-07
2.92691e-06
3.10921e-08
2.91451e-06
-2.76842e-08
2.88911e-06
-6.80443e-08
2.84857e-06
-8.49573e-08
2.79662e-06
-7.40091e-08
2.72872e-06
-9.42894e-09
-2.46801e-08
1.76175e-09
1.24297e-06
1.55983e-08
1.28088e-06
5.55382e-08
1.32321e-06
1.1464e-07
1.36924e-06
1.95776e-07
1.42049e-06
3.04384e-07
1.47615e-06
4.49341e-07
1.53138e-06
6.51394e-07
1.58577e-06
9.25308e-07
1.64075e-06
1.3019e-06
1.7039e-06
1.76837e-06
1.76993e-06
2.25552e-06
1.82449e-06
2.6983e-06
1.83715e-06
3.01745e-06
1.77329e-06
3.1623e-06
1.62765e-06
3.15874e-06
1.42722e-06
3.09479e-06
1.22575e-06
3.03374e-06
1.04613e-06
2.98928e-06
8.92463e-07
2.95709e-06
7.61177e-07
2.93577e-06
6.49476e-07
2.92379e-06
5.52802e-07
2.92195e-06
4.65586e-07
2.92844e-06
3.8237e-07
2.9399e-06
3.00505e-07
2.96329e-06
2.17569e-07
2.97319e-06
1.37377e-07
2.97437e-06
5.46829e-08
2.96526e-06
-1.96667e-08
2.94107e-06
-7.9671e-08
2.89859e-06
-1.18078e-07
2.84421e-06
-1.32552e-07
2.76413e-06
-4.88e-08
-6.05803e-08
1.33579e-06
-7.9036e-09
1.34192e-06
-3.07932e-08
1.35244e-09
1.20607e-06
1.32449e-08
1.24531e-06
4.73774e-08
1.28904e-06
9.94869e-08
1.33838e-06
1.71291e-07
1.39372e-06
2.69674e-07
1.45519e-06
4.06713e-07
1.51873e-06
6.01776e-07
1.5809e-06
8.69063e-07
1.6419e-06
1.23312e-06
1.70936e-06
1.69264e-06
1.77948e-06
2.1856e-06
1.83976e-06
2.65262e-06
1.87009e-06
3.02067e-06
1.8339e-06
3.21928e-06
1.71631e-06
3.25922e-06
1.52719e-06
3.20513e-06
1.31699e-06
3.13615e-06
1.12332e-06
3.08013e-06
9.55302e-07
3.03685e-06
8.12698e-07
3.00372e-06
6.93207e-07
2.98075e-06
5.92487e-07
2.96966e-06
5.05046e-07
2.96997e-06
4.23961e-07
2.97906e-06
3.43167e-07
3.00343e-06
2.6033e-07
3.01828e-06
1.72414e-07
3.02522e-06
8.64937e-08
3.02015e-06
-2.43557e-10
3.00079e-06
-7.94103e-08
2.9597e-06
-1.40779e-07
2.89923e-06
-8.1878e-08
-9.12163e-08
1.40469e-06
-8.41899e-08
1.40458e-06
-9.35161e-08
1.34644e-06
-5.33163e-08
1.35983e-06
-7.39667e-08
1.31976e-06
-6.74765e-09
1.32357e-06
-3.4609e-08
1.01726e-09
1.16753e-06
1.16987e-08
1.2076e-06
3.99218e-08
1.25276e-06
8.58275e-08
1.30273e-06
1.48369e-07
1.3613e-06
2.38221e-07
1.42516e-06
3.67857e-07
1.49398e-06
5.56038e-07
1.56438e-06
8.18123e-07
1.6317e-06
1.16946e-06
1.70534e-06
1.61887e-06
1.78294e-06
2.11313e-06
1.85178e-06
2.59618e-06
1.89607e-06
3.00744e-06
1.88328e-06
3.26212e-06
1.79103e-06
3.34992e-06
1.62557e-06
3.31685e-06
1.41547e-06
3.24604e-06
1.20712e-06
3.18029e-06
1.02312e-06
3.12664e-06
8.65505e-07
3.08179e-06
7.34618e-07
3.04611e-06
6.2783e-07
3.02213e-06
5.39983e-07
3.01253e-06
4.6246e-07
3.01757e-06
3.85397e-07
3.03933e-06
3.07202e-07
3.06129e-06
2.17253e-07
3.07612e-06
1.2146e-07
3.0785e-06
2.8097e-08
3.06599e-06
-6.54714e-08
3.03112e-06
-1.50853e-07
2.96979e-06
-1.02322e-07
-1.09023e-07
1.42274e-06
-9.99306e-08
1.4424e-06
-1.10866e-07
1.37058e-06
-9.49415e-08
1.41989e-06
-1.15245e-07
1.38866e-06
-1.11589e-07
1.3314e-06
-6.11333e-08
1.34308e-06
-8.56493e-08
1.30128e-06
-4.65128e-09
1.30433e-06
-3.76535e-08
1.2674e-09
1.12805e-06
1.12767e-08
1.16795e-06
3.48795e-08
1.21265e-06
7.76223e-08
1.26101e-06
1.29356e-07
1.32173e-06
2.12006e-07
1.3875e-06
3.32589e-07
1.46038e-06
5.14505e-07
1.53541e-06
7.72148e-07
1.6102e-06
1.11154e-06
1.68942e-06
1.54924e-06
1.77475e-06
2.0409e-06
1.85498e-06
2.53337e-06
1.91446e-06
2.97652e-06
1.9269e-06
3.28455e-06
1.86081e-06
3.42458e-06
1.71635e-06
3.4282e-06
1.51419e-06
3.36442e-06
1.29706e-06
3.29089e-06
1.0965e-06
3.22807e-06
9.21671e-07
3.1705e-06
7.76773e-07
3.11978e-06
6.60933e-07
3.08069e-06
5.69256e-07
3.0582e-06
4.94282e-07
3.05425e-06
4.25735e-07
3.07098e-06
3.53697e-07
3.09948e-06
2.68949e-07
3.1243e-06
1.69018e-07
3.13879e-06
6.11233e-08
3.13527e-06
-4.1232e-08
3.11057e-06
-1.44951e-07
3.05475e-06
-1.16786e-07
-1.1904e-07
1.46e-06
-1.19912e-07
1.48236e-06
-1.31386e-07
1.43857e-06
-1.29547e-07
1.35717e-06
-1.0902e-07
1.40697e-06
-1.33562e-07
1.37543e-06
-1.29849e-07
1.31266e-06
-6.9458e-08
1.32488e-06
-9.78684e-08
1.27819e-06
-4.93992e-09
1.28146e-06
-4.09221e-08
1.93738e-09
1.08847e-06
1.1859e-08
1.12746e-06
3.26765e-08
1.17017e-06
7.42376e-08
1.21606e-06
1.14911e-07
1.27546e-06
1.89653e-07
1.34407e-06
3.01963e-07
1.41809e-06
4.79555e-07
1.49523e-06
7.31724e-07
1.57567e-06
1.06037e-06
1.66115e-06
1.48398e-06
1.75444e-06
1.96933e-06
1.84611e-06
2.46616e-06
1.92202e-06
2.93212e-06
1.95875e-06
3.28629e-06
1.9251e-06
3.47914e-06
1.80622e-06
3.52776e-06
1.61678e-06
3.4844e-06
1.3942e-06
3.41187e-06
1.17606e-06
3.3414e-06
9.83146e-07
3.27182e-06
8.20331e-07
3.20674e-06
6.89794e-07
3.14963e-06
5.91972e-07
3.10846e-06
5.18971e-07
3.09035e-06
4.58145e-07
3.09887e-06
3.978e-07
3.13125e-06
3.21874e-07
3.16596e-06
2.27228e-07
3.19622e-06
1.11517e-07
3.20877e-06
-1.24281e-08
3.19558e-06
-1.26286e-07
3.14908e-06
-1.20558e-07
-1.18755e-07
1.50437e-06
-1.38803e-07
1.52913e-06
-1.43802e-07
1.45901e-06
-1.40356e-07
1.48188e-06
-1.54265e-07
1.42836e-06
-1.50928e-07
1.34122e-06
-1.25358e-07
1.39602e-06
-1.5416e-07
1.36091e-06
-1.49534e-07
1.29014e-06
-7.8136e-08
1.30354e-06
-1.11261e-07
1.25255e-06
-8.03921e-09
1.25526e-06
-4.36319e-08
2.88188e-09
1.0492e-06
1.39174e-08
1.08642e-06
3.40797e-08
1.12609e-06
7.30733e-08
1.17137e-06
1.04054e-07
1.22697e-06
1.70898e-07
1.29419e-06
2.81463e-07
1.36455e-06
4.54866e-07
1.44269e-06
6.99869e-07
1.52692e-06
1.01721e-06
1.61862e-06
1.42447e-06
1.72042e-06
1.89894e-06
1.82459e-06
2.39445e-06
1.91762e-06
2.87521e-06
1.9788e-06
3.26618e-06
1.97878e-06
3.51142e-06
1.89278e-06
3.61154e-06
1.72243e-06
3.59884e-06
1.50233e-06
3.5371e-06
1.26894e-06
3.46658e-06
1.05084e-06
3.39211e-06
8.62828e-07
3.31183e-06
7.15218e-07
3.23314e-06
6.06274e-07
3.16973e-06
5.30693e-07
3.13107e-06
4.78231e-07
3.1234e-06
4.33582e-07
3.15454e-06
3.74456e-07
3.19767e-06
2.90092e-07
3.24505e-06
1.7833e-07
3.28013e-06
4.00987e-08
3.28364e-06
-1.00556e-07
3.25169e-06
-1.15203e-07
-1.13729e-07
1.55513e-06
-1.46556e-07
1.58273e-06
-1.4636e-07
1.50683e-06
-1.63747e-07
1.53359e-06
-1.70572e-07
1.45231e-06
-1.6431e-07
1.47826e-06
-1.80224e-07
1.4195e-06
-1.74399e-07
1.32166e-06
-1.43482e-07
1.38345e-06
-1.76703e-07
1.34402e-06
-1.71888e-07
1.26386e-06
-8.67279e-08
1.27828e-06
-1.25678e-07
1.21785e-06
-1.06963e-08
1.22347e-06
-4.92502e-08
4.32199e-09
1.01164e-06
1.73951e-08
1.04564e-06
4.01427e-08
1.08034e-06
7.44099e-08
1.1248e-06
1.00231e-07
1.17525e-06
1.6191e-07
1.23596e-06
2.73618e-07
1.30199e-06
4.41777e-07
1.37754e-06
6.79397e-07
1.46299e-06
9.8458e-07
1.55933e-06
1.37335e-06
1.66947e-06
1.83221e-06
1.78688e-06
2.32019e-06
1.89861e-06
2.80629e-06
1.98637e-06
3.22417e-06
2.0207e-06
3.51533e-06
1.97482e-06
3.67092e-06
1.83338e-06
3.70306e-06
1.6182e-06
3.66732e-06
1.37208e-06
3.6035e-06
1.13199e-06
3.52587e-06
9.17043e-07
3.43467e-06
7.39965e-07
3.33796e-06
6.10381e-07
3.24737e-06
5.28621e-07
3.179e-06
4.82747e-07
3.14709e-06
4.54515e-07
3.16638e-06
4.21706e-07
3.214e-06
3.58078e-07
3.27771e-06
2.57367e-07
3.33871e-06
1.19668e-07
3.37032e-06
-4.66411e-08
3.35811e-06
-1.05917e-07
-1.01124e-07
1.61212e-06
-1.44605e-07
1.6416e-06
-1.4322e-07
1.56183e-06
-1.74799e-07
1.59185e-06
-1.7639e-07
1.50612e-06
-1.91603e-07
1.5357e-06
-2.0016e-07
1.44603e-06
-1.90844e-07
1.47443e-06
-2.08624e-07
1.40952e-06
-2.00476e-07
1.29727e-06
-1.62468e-07
1.36811e-06
-2.00802e-07
1.3212e-06
-1.95828e-07
1.23346e-06
-9.67154e-08
1.24923e-06
-1.41443e-07
1.18113e-06
-1.35698e-08
1.18909e-06
-5.72086e-08
5.79075e-09
9.77194e-07
2.18271e-08
1.00719e-06
4.90652e-08
1.03686e-06
7.82133e-08
1.07663e-06
1.04245e-07
1.1208e-06
1.6432e-07
1.1728e-06
2.76876e-07
1.23265e-06
4.43176e-07
1.30049e-06
6.73436e-07
1.38334e-06
9.65404e-07
1.48195e-06
1.33334e-06
1.59908e-06
1.77196e-06
1.72943e-06
2.2459e-06
1.86091e-06
2.72802e-06
1.97667e-06
3.16243e-06
2.04799e-06
3.48986e-06
2.0461e-06
3.70135e-06
1.94436e-06
3.78678e-06
1.74964e-06
3.78524e-06
1.50026e-06
3.7413e-06
1.23424e-06
3.67553e-06
9.82293e-07
3.57719e-06
7.74481e-07
3.46081e-06
6.17088e-07
3.33841e-06
5.19328e-07
3.23507e-06
4.72546e-07
3.17114e-06
4.58685e-07
3.16701e-06
4.53869e-07
3.21261e-06
4.23046e-07
3.29091e-06
3.44809e-07
3.37795e-06
2.18048e-07
3.44694e-06
4.29705e-08
3.4646e-06
-8.23503e-08
-7.08617e-08
1.67408e-06
-1.38401e-07
1.70428e-06
-1.31342e-07
1.6234e-06
-1.76159e-07
1.65599e-06
-1.75819e-07
1.56691e-06
-2.06013e-07
1.59953e-06
-2.09011e-07
1.50528e-06
-2.22453e-07
1.53751e-06
-2.32401e-07
1.43888e-06
-2.20199e-07
1.47018e-06
-2.39932e-07
1.39695e-06
-2.29318e-07
1.26989e-06
-1.83129e-07
1.34896e-06
-2.28564e-07
1.29567e-06
-2.21607e-07
1.19982e-06
-1.07434e-07
1.21622e-06
-1.57846e-07
1.14261e-06
-1.73431e-08
1.15206e-06
-6.66511e-08
7.0221e-09
9.45739e-07
2.65257e-08
9.72517e-07
5.89752e-08
9.97398e-07
8.68719e-08
1.02821e-06
1.14916e-07
1.06598e-06
1.77805e-07
1.10733e-06
2.93686e-07
1.15595e-06
4.61721e-07
1.214e-06
6.84073e-07
1.2897e-06
9.6194e-07
1.38659e-06
1.30731e-06
1.50772e-06
1.72142e-06
1.64933e-06
2.17425e-06
1.8008e-06
2.64289e-06
1.94581e-06
3.08186e-06
2.05707e-06
3.435e-06
2.10275e-06
3.69654e-06
2.05087e-06
3.8359e-06
1.89524e-06
3.8787e-06
1.65616e-06
3.87109e-06
1.37044e-06
3.82789e-06
1.08182e-06
3.73866e-06
8.20774e-07
3.60697e-06
6.28292e-07
3.4547e-06
5.00789e-07
3.30807e-06
4.46328e-07
3.20144e-06
4.42248e-07
3.16255e-06
4.63128e-07
3.19423e-06
4.72223e-07
3.27959e-06
4.34312e-07
3.39699e-06
3.2569e-07
3.51217e-06
1.52734e-07
3.57327e-06
-3.94158e-08
-2.63522e-08
1.73823e-06
-1.16317e-07
1.76786e-06
-1.0051e-07
1.69019e-06
-1.72609e-07
1.72517e-06
-1.66339e-07
1.63384e-06
-2.10472e-07
1.66983e-06
-2.11822e-07
1.5719e-06
-2.40398e-07
1.6079e-06
-2.45022e-07
1.50396e-06
-2.56235e-07
1.53992e-06
-2.68362e-07
1.4302e-06
-2.53451e-07
1.46413e-06
-2.73857e-07
1.38084e-06
-2.61195e-07
1.23843e-06
-2.05339e-07
1.32685e-06
-2.59754e-07
1.26711e-06
-2.50291e-07
1.16223e-06
-1.17602e-07
1.17861e-06
-1.74229e-07
1.09727e-06
-1.99343e-08
1.10639e-06
-7.5764e-08
7.55255e-09
9.16807e-07
3.02442e-08
9.421e-07
6.91335e-08
9.62438e-07
1.00306e-07
9.8402e-07
1.30801e-07
1.01241e-06
2.03141e-07
1.04064e-06
3.26789e-07
1.07419e-06
4.97336e-07
1.12025e-06
7.13585e-07
1.18435e-06
9.76995e-07
1.27444e-06
1.29821e-06
1.39543e-06
1.68371e-06
1.54514e-06
2.10881e-06
1.71448e-06
2.55446e-06
1.88897e-06
2.98452e-06
2.04296e-06
3.34971e-06
2.14224e-06
3.6486e-06
2.15064e-06
3.84155e-06
2.0452e-06
3.94552e-06
1.8284e-06
3.98874e-06
1.53847e-06
3.98037e-06
1.21789e-06
3.91546e-06
9.0496e-07
3.78938e-06
6.38315e-07
3.62065e-06
4.62325e-07
3.42725e-06
3.81614e-07
3.26143e-06
3.86343e-07
3.1625e-06
4.42307e-07
3.16234e-06
4.95018e-07
3.24002e-06
5.11751e-07
3.38456e-06
4.46673e-07
3.552e-06
2.85757e-07
3.67654e-06
1.47755e-08
3.46067e-08
1.80432e-06
-7.59062e-08
1.83396e-06
-5.60203e-08
1.76143e-06
-1.52586e-07
1.79823e-06
-1.37334e-07
1.70806e-06
-2.10846e-07
1.74822e-06
-2.06519e-07
1.64589e-06
-2.48465e-07
1.68691e-06
-2.52842e-07
1.57746e-06
-2.77944e-07
1.61787e-06
-2.85431e-07
1.50163e-06
-2.93742e-07
1.54183e-06
-3.08561e-07
1.41687e-06
-2.89486e-07
1.45624e-06
-3.13236e-07
1.3623e-06
-2.96645e-07
1.2026e-06
-2.29331e-07
1.30164e-06
-2.94289e-07
1.23364e-06
-2.81338e-07
1.11894e-06
-1.3015e-07
1.136e-06
-1.91292e-07
1.04882e-06
-2.18744e-08
1.05753e-06
-8.44632e-08
6.80044e-09
8.88991e-07
3.22342e-08
9.1485e-07
7.92307e-08
9.32038e-07
1.15699e-07
9.47098e-07
1.52555e-07
9.62311e-07
2.40156e-07
9.75321e-07
3.75569e-07
9.91845e-07
5.49781e-07
1.02168e-06
7.63537e-07
1.07018e-06
1.0128e-06
1.14837e-06
1.30951e-06
1.26292e-06
1.66356e-06
1.4153e-06
2.05444e-06
1.59922e-06
2.46677e-06
1.8019e-06
2.87289e-06
2.00038e-06
3.23293e-06
2.15959e-06
3.55533e-06
2.23542e-06
3.80443e-06
2.18773e-06
3.97643e-06
2.01428e-06
4.07902e-06
1.73808e-06
4.12864e-06
1.39014e-06
4.11307e-06
1.0202e-06
4.01417e-06
6.80109e-07
3.83829e-06
4.20637e-07
3.60866e-06
2.80912e-07
3.37789e-06
2.65187e-07
3.19399e-06
3.54885e-07
3.12903e-06
4.75627e-07
3.17294e-06
5.62091e-07
3.32242e-06
5.7383e-07
3.53144e-06
4.67136e-07
3.74839e-06
8.47939e-08
1.28993e-07
1.87261e-06
-2.39051e-08
1.9017e-06
5.49158e-09
1.83818e-06
-1.15862e-07
1.87866e-06
-9.6522e-08
1.79131e-06
-1.95673e-07
1.83761e-06
-1.83631e-07
1.73243e-06
-2.56371e-07
1.78526e-06
-2.59339e-07
1.66377e-06
-2.94373e-07
1.71867e-06
-3.07733e-07
1.58568e-06
-3.21805e-07
1.63955e-06
-3.39319e-07
1.49917e-06
-3.36676e-07
1.54792e-06
-3.57319e-07
1.40241e-06
-3.29602e-07
1.44813e-06
-3.58964e-07
1.34079e-06
-3.35799e-07
1.16079e-06
-2.54123e-07
1.27223e-06
-3.32882e-07
1.19449e-06
-3.15047e-07
1.07145e-06
-1.44077e-07
1.08771e-06
-2.07547e-07
9.9675e-07
-2.30729e-08
1.00348e-06
-9.11829e-08
3.2111e-09
8.60438e-07
3.12044e-08
8.90059e-07
8.70905e-08
9.0704e-07
1.32368e-07
9.15452e-07
1.8229e-07
9.1736e-07
2.88697e-07
9.1363e-07
4.38194e-07
9.12685e-07
6.20075e-07
9.21505e-07
8.33966e-07
9.51155e-07
1.07128e-06
1.01157e-06
1.34426e-06
1.11343e-06
1.66482e-06
1.26141e-06
2.0163e-06
1.45317e-06
2.38539e-06
1.68033e-06
2.75148e-06
1.92307e-06
3.0879e-06
2.14525e-06
3.42138e-06
2.29344e-06
3.71397e-06
2.32582e-06
3.9391e-06
2.22507e-06
4.11788e-06
1.97542e-06
4.25213e-06
1.61454e-06
4.30979e-06
1.19333e-06
4.26166e-06
7.72626e-07
4.10368e-06
4.14675e-07
3.84852e-06
1.80769e-07
3.54674e-06
1.12081e-07
3.26421e-06
1.95013e-07
3.09401e-06
3.89941e-07
3.07447e-06
5.74099e-07
3.19803e-06
6.86436e-07
3.43102e-06
6.74129e-07
3.73173e-06
4.83625e-07
1.94119e-06
4.5279e-08
1.96938e-06
1.00759e-07
1.92315e-06
-6.83982e-08
1.97148e-06
-4.28703e-08
1.88911e-06
-1.6734e-07
1.94401e-06
-1.51357e-07
1.84777e-06
-2.58149e-07
1.9217e-06
-2.57449e-07
1.79034e-06
-3.28025e-07
1.88882e-06
-3.57747e-07
1.71187e-06
-3.66709e-07
1.82325e-06
-4.19144e-07
1.61323e-06
-3.87162e-07
1.71855e-06
-4.44735e-07
1.50236e-06
-3.90931e-07
1.58468e-06
-4.39727e-07
1.38674e-06
-3.75569e-07
1.44638e-06
-4.18643e-07
1.31549e-06
-3.79073e-07
1.11357e-06
-2.7999e-07
1.23397e-06
-3.72371e-07
1.14633e-06
-3.47819e-07
1.01429e-06
-1.54888e-07
1.03256e-06
-2.25816e-07
9.42604e-07
-2.42742e-08
9.45335e-07
-9.3907e-08
-5.66508e-09
8.26889e-07
2.56569e-08
8.66022e-07
9.06445e-08
8.8656e-07
1.49159e-07
8.90338e-07
2.18038e-07
8.79752e-07
3.48265e-07
8.57833e-07
5.13798e-07
8.38136e-07
7.08018e-07
8.24711e-07
9.24051e-07
8.31347e-07
1.15339e-06
8.68936e-07
1.40485e-06
9.50832e-07
1.69234e-06
1.0857e-06
2.00099e-06
1.27648e-06
2.31779e-06
1.52051e-06
2.62814e-06
1.80344e-06
2.92197e-06
2.08881e-06
3.24502e-06
2.32149e-06
3.54392e-06
2.46339e-06
3.80944e-06
2.45534e-06
4.07327e-06
2.26956e-06
4.30677e-06
1.92068e-06
4.46045e-06
1.46377e-06
4.49796e-06
9.56907e-07
4.39303e-06
4.83163e-07
4.14051e-06
1.22621e-07
3.77635e-06
-4.88428e-08
3.37825e-06
-1.89683e-09
3.05928e-06
2.29808e-07
2.94327e-06
5.2114e-07
3.03349e-06
7.38531e-07
3.30867e-06
8.08507e-07
3.69598e-06
7.09401e-07
-2.05139e-06
4.15628e-06
1.63027e-07
1.84547e-07
2.01069e-06
6.05055e-09
5.99857e-08
2.00336e-06
-1.27621e-07
2.06808e-06
-1.07371e-07
2.01166e-06
-2.57039e-07
2.11543e-06
-2.54656e-07
2.0221e-06
-3.91175e-07
2.18786e-06
-4.22657e-07
1.9903e-06
-4.95044e-07
2.21288e-06
-5.80026e-07
1.89397e-06
-5.423e-07
2.1492e-06
-6.74613e-07
1.73865e-06
-5.41366e-07
1.99127e-06
-6.97894e-07
1.55216e-06
-4.96865e-07
1.76043e-06
-6.48412e-07
1.37955e-06
-4.39688e-07
1.50878e-06
-5.48084e-07
1.29882e-06
-4.43987e-07
1.05543e-06
-3.02867e-07
1.2051e-06
-4.31192e-07
1.10152e-06
-3.93946e-07
9.54692e-07
-1.64243e-07
9.67004e-07
-2.3813e-07
8.87627e-07
-2.17703e-08
8.845e-07
-9.07725e-08
-2.17133e-08
7.78869e-07
1.29715e-08
8.39609e-07
8.80271e-08
8.68695e-07
1.64291e-07
8.71497e-07
2.60271e-07
8.48133e-07
4.17721e-07
8.10244e-07
6.00617e-07
7.71035e-07
8.10866e-07
7.35277e-07
1.03272e-06
7.15997e-07
1.25876e-06
7.25902e-07
1.49304e-06
7.80652e-07
1.75002e-06
8.93006e-07
2.01493e-06
1.07156e-06
2.27279e-06
1.32125e-06
2.51361e-06
1.63484e-06
2.74498e-06
1.98025e-06
3.01784e-06
2.31583e-06
3.28625e-06
2.57896e-06
3.5943e-06
2.67826e-06
3.93732e-06
2.59093e-06
4.27106e-06
2.30482e-06
4.54356e-06
1.83717e-06
4.70149e-06
1.25993e-06
4.69049e-06
6.59212e-07
4.48144e-06
1.42094e-07
4.0886e-06
-1.89681e-07
3.58637e-06
-2.56909e-07
3.1115e-06
-5.408e-08
2.84942e-06
3.23475e-07
2.90514e-06
6.48783e-07
3.24898e-06
7.96873e-07
3.72228e-06
7.80242e-07
4.33147e-06