/*--------------------------------*- C++ -*----------------------------------*\
  =========                 |
  \\      /  F ield         | OpenFOAM: The Open Source CFD Toolbox
   \\    /   O peration     | Website:  https://openfoam.org
    \\  /    A nd           | Version:  dev
     \\/     M anipulation  |
\*---------------------------------------------------------------------------*/
FoamFile
{
    version     2.0;
    format      ascii;
    class       volScalarField;
    location    "2500";
    object      qr;
}
// * * * * * * * * * * * * * * * * * * * * * * * * * * * * * * * * * * * * * //

dimensions      [1 0 -3 0 0 0 0];

internalField   uniform 0;

boundaryField
{
    lowerOutlet
    {
        type            calculated;
        value           nonuniform List<scalar> 
144
(
1105.72
1109.42
1113.5
1118
1122.89
1128.21
1133.94
1140.12
1146.75
1153.84
1161.43
1169.52
1178.15
1187.34
1197.13
1207.56
1218.67
1230.51
1243.14
1256.63
1271.04
1286.48
1303.05
1320.86
1340.11
1360.97
1383.62
1408.31
1435.34
1465.09
1498.02
1534.69
1575.8
1611.1
1662.5
1721.74
1790.58
1871.53
1968.1
2085.19
2229.85
2412.03
2644.98
2925.75
3688.74
4476.21
5050.16
5509.56
-10271.1
3428.7
2852.58
2508.39
2270.32
2073.35
1941.65
1836.77
1751.52
1680.8
1621.07
1569.77
1525.18
1485.91
1451.09
1412.2
1384.86
1359.99
1337.23
1316.33
1297.05
1279.17
1262.56
1247.08
1232.63
1219.11
1206.42
1194.47
1183.22
1172.61
1162.59
1153.12
1144.16
1135.69
1127.68
1120.11
1112.95
1106.18
1099.78
1093.75
1088.08
1082.74
1077.73
1073.04
1068.67
1064.6
1060.85
1057.39
2023.7
2153.54
2315.46
2521.1
2792.06
3500.63
4307.93
4910.47
5479.44
5320.19
3659.53
2965.27
2581.81
2322.82
2153.21
2003.49
1886.4
1792.05
1714.59
1649.75
1829.33
1917.6
3886.71
4628.84
5191.82
5789.36
4253.47
3245.92
2752.65
2441.3
2221.71
1594.49
1546.73
3316.56
4054.44
4771.5
5334.62
6584.11
3939.72
3094.52
2662.84
2379.65
1635.92
1691.04
1754.84
1504.94
1467.99
1435.13
)
;
    }
    top
    {
        type            calculated;
        value           nonuniform List<scalar> 
100
(
995.011
997.856
1000.67
998.082
998.278
999.996
1001.44
1002.69
1003.64
1004.45
1005.43
1006.31
1007.12
1007.84
1008.48
1009.02
1009.19
1008.06
1003.2
991.415
973.531
955.688
944.29
942.517
950.651
964.572
981.147
996.685
1007.44
1012.64
1014.35
1014.29
1012.97
1011.87
1011.31
1011.28
1011.63
1012.21
1013
1014.33
1016.81
1021.14
1028.55
1039.52
1053.26
1067.46
1074.98
1076.97
1077.4
1077.43
1077.32
1077.1
1076.77
1076.35
1075.84
1075.25
1074.54
1073.74
1072.84
1071.91
1070.9
1069.71
1068.53
1067.19
1065.78
1064.24
1062.55
1060.81
1058.94
1056.99
1054.95
1052.76
1050.49
1048.1
1045.59
1042.97
1040.24
1037.41
1034.65
1032.1
1030.03
1042.36
1039.45
1036.53
1033.58
1030.62
1027.64
1024.65
1021.65
1018.65
1015.63
1012.62
1009.59
1006.57
1003.56
997.363
993.423
990.196
987.873
986.745
)
;
    }
    sides
    {
        type            calculated;
        value           nonuniform List<scalar> 
100
(
1105.73
1108.66
1111.2
1113.37
1115.16
1116.57
1117.63
1118.32
1118.67
1118.68
1118.37
1117.75
1116.82
1115.61
1114.14
1112.4
1110.43
1108.23
1105.81
1103.2
1100.41
1097.45
1094.34
1091.09
1087.71
1084.21
1080.62
1076.93
1073.17
1069.34
1065.45
1061.52
1057.55
1053.56
1049.56
1045.57
1041.59
1037.63
1033.7
1029.81
1025.98
1022.21
1018.51
1014.88
1011.34
1007.88
1004.51
1001.24
998.066
995.028
1057.4
1060.27
1062.86
1065.16
1067.17
1068.9
1070.36
1071.54
1072.45
1073.1
1073.51
1073.66
1073.59
1073.29
1072.77
1072.06
1071.14
1070.04
1068.77
1067.34
1065.75
1064.02
1062.16
1060.17
1058.07
1055.87
1053.57
1051.18
1048.72
1046.18
1043.58
1040.92
1038.2
1035.44
1032.65
1029.81
1026.95
1024.07
1021.16
1018.24
1015.3
1012.36
1009.4
1006.45
1003.48
1000.52
997.555
994.592
991.632
988.711
)
;
    }
    front
    {
        type            empty;
    }
    back
    {
        type            empty;
    }
    roller
    {
        type            calculated;
        value           nonuniform List<scalar> 
142
(
7092.91
5723.83
4272.69
3229.72
1667.54
1368.66
1300.44
1252.24
1213.59
1220.55
8409.73
8851.53
8720.27
6611.91
6372.31
2844.52
2115.37
1703.87
1495.34
1314.75
1263.49
1224.75
1232.76
1257.8
1217.02
5482.42
5847.49
5270.42
2596.98
2010.9
2567.84
2449.33
1642.94
1404.81
1436.02
1362.15
1287.49
8040.14
7112.84
4591.7
5153.27
6277.08
4221.58
4690.09
3158.01
3981.11
2729.83
2372.29
1773.3
1742.63
2052.15
1522.15
1408.48
1383.41
1343.54
1332.44
1221.73
1229
8146.8
2276.28
2185.82
1561.34
1483.47
1422.17
1468.74
1209.34
1207.9
1210.62
9512.57
9509.3
1983.12
1582.81
1933.44
1794.66
1501.47
1752.02
1635.9
1435.98
1601.28
1379.39
1355.13
1297.87
1289.25
1265.73
1215.77
1218.41
1224.59
1210.06
1207.96
1209.49
7636.07
7657.49
3460.2
3014.81
1886.45
1819.99
2125.87
1540.44
1466.54
1558.17
1313.54
1322.77
1281.25
1273.51
1244.24
1246.03
1211.96
1208.75
1208.16
1212.12
9211.02
9407.2
9390.37
9161.35
4863.7
3802.11
3464.57
3710.24
2399.17
2241.78
2862.55
1944.27
1612.14
1885.28
1838.98
1520.42
1711.26
1672.54
1450.72
1390.11
1343.47
1327.84
1305.44
1275.25
1237.7
1229.89
1238.51
1251.8
1210.93
1208.28
1208.7
1214.03
)
;
    }
    burner
    {
        type            calculated;
        value           nonuniform List<scalar> 
16
(
-124418
-118851
-116053
-117018
-119989
-116476
-116271
-123424
-122843
-117888
-115853
-118278
-121336
-117093
-115907
-120266
)
;
    }
}


// ************************************************************************* //
