/*--------------------------------*- C++ -*----------------------------------*\
  =========                 |
  \\      /  F ield         | OpenFOAM: The Open Source CFD Toolbox
   \\    /   O peration     | Website:  https://openfoam.org
    \\  /    A nd           | Version:  dev
     \\/     M anipulation  |
\*---------------------------------------------------------------------------*/
FoamFile
{
    version     2.0;
    format      ascii;
    class       volScalarField;
    location    "2500";
    object      rAU;
}
// * * * * * * * * * * * * * * * * * * * * * * * * * * * * * * * * * * * * * //

dimensions      [-1 3 1 0 0 0 0];

internalField   nonuniform List<scalar> 
9836
(
0.00821491
0.00828129
0.0082297
0.00825857
0.00839791
0.00816252
0.00822536
0.00839264
0.0084032
0.00810508
0.00819722
0.00838755
0.00838824
0.00841524
0.00805146
0.00817631
0.00839056
0.00838025
0.00839806
0.0084241
0.00800223
0.00815944
0.0083985
0.00838064
0.00838287
0.008412
0.00842808
0.0079569
0.00814333
0.00840788
0.00838579
0.00837405
0.00839647
0.00842235
0.00842964
0.00791424
0.00812487
0.00841624
0.00839625
0.00837027
0.00838092
0.00841174
0.00842723
0.00843081
0.00787473
0.00810532
0.00841998
0.00840893
0.00837303
0.00837027
0.00839638
0.00842157
0.0084295
0.0084314
0.00783744
0.00808735
0.00842115
0.00841885
0.00838143
0.00836394
0.00838058
0.00841173
0.0084271
0.00843086
0.00843204
0.0078024
0.00807143
0.00842165
0.00842559
0.0083949
0.00836332
0.00836788
0.00839818
0.00842185
0.00842963
0.00843176
0.00843246
0.00776942
0.00805692
0.00842354
0.00843021
0.008409
0.00836847
0.00836072
0.00838188
0.00841299
0.00842743
0.00843115
0.00843249
0.00843285
0.00773826
0.00804275
0.0084255
0.00843304
0.00841921
0.00837922
0.00835663
0.00836831
0.00839977
0.00842233
0.00842992
0.00843209
0.00843317
0.00843306
0.00770891
0.00802832
0.00842763
0.00843453
0.00842599
0.00839342
0.00835761
0.00835829
0.00838477
0.00841453
0.00842764
0.00843157
0.00843286
0.00843368
0.0084332
0.0076812
0.00801288
0.00842822
0.00843553
0.00843031
0.00840752
0.00836407
0.00835202
0.00836966
0.00840324
0.00842349
0.00843067
0.00843268
0.00843353
0.00843413
0.00843333
0.00765504
0.0079993
0.00842809
0.00843603
0.00843277
0.00841841
0.00837667
0.00834895
0.00835762
0.00838892
0.0084167
0.00842853
0.00843232
0.00843347
0.00843417
0.00843444
0.00843338
0.0076304
0.00798794
0.00842864
0.00843622
0.00843499
0.00842613
0.0083922
0.00835134
0.00834868
0.008373
0.00840699
0.00842503
0.00843144
0.00843336
0.00843421
0.00843463
0.00843478
0.00843351
0.00760723
0.00797544
0.00843053
0.00843707
0.00843645
0.00843038
0.00840715
0.00835929
0.00834334
0.00835827
0.00839345
0.00841947
0.0084299
0.00843313
0.00843417
0.00843489
0.00843508
0.00843509
0.00843356
0.00758555
0.00796179
0.00843035
0.00843761
0.00843721
0.00843301
0.00841774
0.00837318
0.00834142
0.00834742
0.00837736
0.00841048
0.00842716
0.00843291
0.00843406
0.00843496
0.00843534
0.00843543
0.00843538
0.00843353
0.00756524
0.00795121
0.00842815
0.00843789
0.00843784
0.00843553
0.0084251
0.00838964
0.00834475
0.00833989
0.0083617
0.00839796
0.00842182
0.00843193
0.00843465
0.00843495
0.00843555
0.00843572
0.00843574
0.00843559
0.00843357
0.00754634
0.00794361
0.00842738
0.00843802
0.008438
0.00843704
0.00842933
0.00840518
0.00835349
0.0083351
0.00834828
0.00838322
0.00841371
0.00842871
0.00843484
0.00843566
0.00843563
0.00843592
0.00843611
0.00843608
0.00843581
0.0084336
0.00752888
0.00793632
0.00842858
0.00843871
0.00843865
0.0084381
0.00843301
0.00841551
0.00836807
0.00833375
0.00833843
0.00836713
0.00840298
0.00842387
0.00843311
0.00843657
0.00843648
0.00843611
0.00843632
0.00843645
0.00843634
0.008436
0.00843361
0.0075129
0.00792794
0.00842863
0.0084388
0.008439
0.00843831
0.00843572
0.00842319
0.00838459
0.00833751
0.00833153
0.00835207
0.00838964
0.00841717
0.00843018
0.00843595
0.00843773
0.00843727
0.00843649
0.00843669
0.00843672
0.00843658
0.00843621
0.00843357
0.00749849
0.00792052
0.00842613
0.00843916
0.00843964
0.00843923
0.00843741
0.00842836
0.00839986
0.00834591
0.00832721
0.0083395
0.00837458
0.00840814
0.00842614
0.00843408
0.00843767
0.00843866
0.00843789
0.00843676
0.00843704
0.00843707
0.00843685
0.00843641
0.00843355
0.007486
0.00791572
0.00842246
0.00843953
0.00843972
0.00843956
0.00843835
0.00843216
0.00841075
0.00835914
0.00832569
0.00833036
0.00835864
0.00839653
0.00842077
0.00843175
0.00843664
0.00843881
0.00843955
0.00843829
0.00843715
0.00843728
0.00843734
0.00843706
0.00843663
0.00843384
0.0074747
0.00791181
0.00841977
0.00843953
0.00843989
0.00844021
0.00843949
0.00843477
0.00841886
0.00837493
0.00832875
0.00832373
0.00834416
0.00838276
0.00841317
0.00842865
0.00843527
0.00843821
0.00843966
0.00844028
0.00843857
0.00843751
0.00843771
0.00843774
0.00843743
0.00843705
0.00843395
0.00746387
0.00790683
0.00841702
0.00843981
0.00844018
0.00844056
0.00844004
0.00843666
0.00842482
0.0083905
0.00833573
0.0083197
0.00833208
0.00836776
0.00840344
0.00842414
0.00843346
0.00843756
0.00843921
0.00844049
0.00844076
0.00843891
0.00843783
0.00843802
0.00843804
0.00843792
0.00843729
0.00843382
0.00733393
0.00790068
0.00841004
0.00843989
0.00844065
0.0084408
0.00844066
0.00843803
0.00842889
0.00840294
0.00834699
0.00831735
0.0083234
0.00835249
0.00839142
0.00841811
0.00843103
0.00843672
0.00843909
0.00844002
0.00844111
0.00844105
0.00843919
0.00843817
0.00843834
0.00843859
0.00843818
0.00843767
0.00823306
0.0074107
0.00789481
0.00839834
0.00844004
0.00844089
0.00844115
0.00844121
0.00843909
0.00843174
0.00841143
0.00836045
0.0083189
0.00831665
0.00833838
0.0083779
0.00841009
0.00842752
0.00843515
0.00843869
0.00843989
0.00844065
0.00844168
0.00844143
0.00843954
0.00843843
0.00843897
0.00843887
0.00843843
0.0083857
0.00836684
0.00744362
0.00788854
0.00838558
0.00844016
0.00844127
0.00844154
0.00844163
0.00843995
0.00843387
0.00841742
0.00837462
0.00832326
0.00831253
0.00832629
0.00836333
0.0084001
0.00842271
0.0084331
0.00843792
0.00843996
0.00844069
0.00844114
0.00844198
0.00844177
0.00843995
0.00843891
0.00843934
0.00843921
0.0084385
0.00841811
0.00843297
0.00744158
0.00787955
0.00837109
0.00844022
0.00844149
0.0084417
0.00844201
0.00844068
0.00843555
0.00842192
0.0083876
0.00833132
0.00830941
0.00831746
0.00834888
0.00838815
0.00841611
0.00843022
0.00843662
0.00843968
0.00844074
0.00844103
0.0084413
0.00844215
0.00844196
0.00844037
0.00843938
0.0084395
0.00843941
0.00843867
0.00843871
0.00843205
0.0074453
0.00786933
0.00834999
0.00844044
0.00844161
0.00844196
0.00844231
0.00844122
0.00843672
0.00842527
0.00839775
0.00834211
0.00830907
0.00831095
0.00833476
0.00837508
0.00840785
0.00842642
0.00843481
0.0084388
0.00844055
0.00844112
0.00844122
0.00844146
0.00844241
0.0084425
0.0084407
0.00843955
0.00843968
0.00843937
0.00843869
0.00843863
0.00843111
0.00744792
0.00787818
0.00832237
0.0084378
0.00844161
0.00844209
0.00844255
0.00844159
0.0084374
0.00842725
0.0084046
0.00835276
0.00831191
0.00830688
0.00832324
0.00836121
0.00839773
0.00842125
0.00843237
0.00843747
0.00844003
0.00844107
0.00844138
0.00844132
0.00844162
0.00844265
0.00844297
0.00844098
0.00843965
0.00843967
0.00843922
0.00843878
0.00843771
0.00841874
0.00645325
0.0081587
0.00789205
0.00831803
0.0084314
0.00844196
0.00844232
0.00844272
0.00844187
0.00843779
0.00842827
0.00840866
0.00836215
0.00831589
0.00830448
0.00831489
0.0083484
0.0083866
0.00841448
0.00842909
0.00843569
0.008439
0.0084406
0.0084413
0.00844153
0.00844146
0.0084417
0.00844311
0.00844321
0.00844104
0.00843953
0.00843934
0.00843893
0.0084249
0.0084981
0.00817695
0.00817453
0.00645178
0.00813315
0.00790677
0.00832529
0.00842834
0.00844199
0.00844247
0.00844287
0.00844198
0.00843783
0.00842852
0.00841088
0.00836975
0.00832134
0.00830243
0.00830852
0.0083363
0.00837551
0.00840682
0.00842512
0.00843337
0.00843741
0.00843955
0.00844071
0.0084414
0.00844162
0.0084415
0.00844216
0.00844341
0.00844333
0.00844092
0.0084391
0.00843863
0.00842401
0.00836507
0.00817179
0.00817148
0.00834173
0.00817541
0.00815475
0.00815565
0.00647644
0.00815285
0.00792169
0.00833557
0.00843257
0.00844194
0.00844263
0.00844289
0.00844175
0.00843726
0.00842761
0.00841116
0.0083749
0.00832735
0.00830251
0.00830367
0.00832448
0.00836336
0.00839823
0.00842079
0.00843123
0.00843571
0.00843792
0.0084395
0.00844051
0.00844126
0.00844157
0.00844184
0.00844241
0.00844349
0.0084432
0.00844046
0.00843808
0.00842261
0.00817119
0.00816982
0.00815024
0.00816205
0.00816324
0.00817675
0.00818215
0.00819143
0.00652625
0.00819723
0.00793719
0.0083401
0.00843976
0.00844218
0.00844254
0.00844288
0.00844127
0.00843621
0.00842557
0.00840994
0.00837697
0.0083319
0.00830383
0.0083014
0.00831543
0.00835053
0.00838766
0.00841444
0.00842856
0.00843433
0.00843657
0.00843804
0.00843914
0.00843987
0.00844074
0.00844147
0.00844189
0.00844238
0.00844317
0.00844258
0.00844036
0.00842417
0.00816871
0.00817615
0.00815451
0.00816228
0.00817077
0.0082019
0.00819084
0.00821632
0.00822691
0.00823376
0.00657457
0.00823557
0.00795243
0.00834024
0.00844104
0.00844202
0.00844242
0.00844268
0.00844055
0.00843477
0.00842302
0.00840705
0.00837692
0.00833438
0.00830446
0.00829985
0.00830925
0.00833979
0.00837667
0.00840599
0.00842385
0.00843148
0.00843484
0.00843689
0.00843815
0.00843856
0.00843895
0.00843995
0.00844108
0.00844165
0.00844191
0.00844322
0.00844409
0.00843232
0.00818943
0.00820553
0.00817335
0.00818649
0.00818508
0.00819891
0.00820093
0.00824078
0.00822855
0.00825075
0.00826558
0.00826878
0.00662097
0.00826493
0.0079757
0.00833976
0.00843759
0.00844216
0.00843963
0.0084421
0.00843956
0.00843265
0.0084197
0.00840256
0.00837544
0.00833538
0.00830467
0.00829766
0.00830388
0.0083297
0.00836563
0.00839748
0.00841838
0.00842734
0.00843108
0.00843416
0.00843663
0.00843785
0.00843818
0.00843824
0.0084395
0.00844075
0.00844118
0.00844272
0.00844919
0.0084419
0.00822202
0.00823573
0.00820054
0.00821389
0.00820921
0.00821798
0.00821663
0.00822978
0.00823601
0.0082725
0.00826113
0.00827909
0.00829568
0.008297
0.0066736
0.00828904
0.00800827
0.00835487
0.00843366
0.00844195
0.00843021
0.00843674
0.00843806
0.00842987
0.00841536
0.00839692
0.00837195
0.00833511
0.00830458
0.00829565
0.00829936
0.00831924
0.00835333
0.00838756
0.00841229
0.00842335
0.00842733
0.00842928
0.00843204
0.00843482
0.00843688
0.00843782
0.00843801
0.0084391
0.00844003
0.00844257
0.00845386
0.00845135
0.00824767
0.00825715
0.00822814
0.00824127
0.00822727
0.00823544
0.00823724
0.00824257
0.00824774
0.00825749
0.00826653
0.00829886
0.00828779
0.00830332
0.00831964
0.00832034
0.00672913
0.0083083
0.00803345
0.00838249
0.00843627
0.00844154
0.00842635
0.00842508
0.0084333
0.00842634
0.00840991
0.00839038
0.00836643
0.00833273
0.00830346
0.00829366
0.00829577
0.00831044
0.0083409
0.00837508
0.00840305
0.00841735
0.0084231
0.00842504
0.00842532
0.00842776
0.00843137
0.00842854
0.00812819
0.00843549
0.00843854
0.00844197
0.00845818
0.00846064
0.00826861
0.00827876
0.00825276
0.00826213
0.00824693
0.00825729
0.00824812
0.00825414
0.00826252
0.00826422
0.00827377
0.00828123
0.00829214
0.00832104
0.00831043
0.00832426
0.0083385
0.00834
0.00678683
0.00832373
0.0080497
0.00839913
0.00844053
0.00844131
0.0084248
0.00842469
0.00842937
0.00842196
0.00840363
0.00838304
0.00835964
0.00832777
0.00830039
0.00829054
0.008292
0.0083032
0.00832845
0.00836062
0.0083896
0.00840737
0.008416
0.00841923
0.00841947
0.00842016
0.0084232
0.00841796
0.0080054
0.00829753
0.00843575
0.00844206
0.00846224
0.00847008
0.0082926
0.00830422
0.00827095
0.00827553
0.00826594
0.00826852
0.0082606
0.00826118
0.00826443
0.00826327
0.00828448
0.0082784
0.00829562
0.00830023
0.00831382
0.00834046
0.00832964
0.00834248
0.00835262
0.00835624
0.00684968
0.00833671
0.00805616
0.00840386
0.00844094
0.00844092
0.00842374
0.00842238
0.00843041
0.00841677
0.00839684
0.00837517
0.00835176
0.00832106
0.00829501
0.00828577
0.00828675
0.00829518
0.00831442
0.0083423
0.00837157
0.00839249
0.00840547
0.00841094
0.00841341
0.00841453
0.00841645
0.00841733
0.00826093
0.00823643
0.00841294
0.00844247
0.00846615
0.00848291
0.00831391
0.0082988
0.00827775
0.00827806
0.00826615
0.00825261
0.00825615
0.00823969
0.00825102
0.00823038
0.00825814
0.00823963
0.00829318
0.00826031
0.00831277
0.00830109
0.00832927
0.00835769
0.00834216
0.00835561
0.00836365
0.0083695
0.00691609
0.0083471
0.0080472
0.00839399
0.00843834
0.00844043
0.00842437
0.00842018
0.00842724
0.00841098
0.00838982
0.00836704
0.00834306
0.00831286
0.00828759
0.00827902
0.00827966
0.00828541
0.00829845
0.00831996
0.0083469
0.00837159
0.00838862
0.00840049
0.00840686
0.0084108
0.00841129
0.00841489
0.00842075
0.00831151
0.00841216
0.00843817
0.00846155
0.00847761
0.00831133
0.00814528
0.00827791
0.0082798
0.00823047
0.00820905
0.00821628
0.00819632
0.00821197
0.00818859
0.00821153
0.00818082
0.00821372
0.00819162
0.00826528
0.00821294
0.0083082
0.00826364
0.00832113
0.00837103
0.00833286
0.00835132
0.0083727
0.00837873
0.00698508
0.00835562
0.0080491
0.00836593
0.00843113
0.00843998
0.00842617
0.00841922
0.00842328
0.00840483
0.0083827
0.00835893
0.00833388
0.00830341
0.00827808
0.00826968
0.0082704
0.00827367
0.00828162
0.00829689
0.00831887
0.00834476
0.00836494
0.00838286
0.00839874
0.00840815
0.00840875
0.00840926
0.00841499
0.0084235
0.00842188
0.00842963
0.00840941
0.00845158
0.00833646
0.00818317
0.00796179
0.00820505
0.008211
0.00816747
0.00812385
0.00813612
0.00806298
0.00812377
0.00803561
0.00813466
0.00803543
0.00815823
0.00807798
0.00820941
0.00813012
0.0082643
0.00817878
0.00827292
0.00837184
0.00828519
0.00830995
0.00837963
0.00838121
0.00704808
0.00836082
0.00806656
0.00834926
0.0084229
0.00843935
0.00842997
0.00841996
0.00841851
0.00839854
0.00837567
0.00835113
0.00832465
0.00829307
0.00826653
0.00825755
0.00825819
0.00826059
0.00826619
0.00827711
0.00829622
0.00832007
0.00834232
0.00836061
0.00838253
0.00840181
0.00840997
0.00840694
0.00840689
0.00840659
0.00835566
0.0081409
0.00810092
0.00808379
0.0084354
0.00814156
0.00810581
0.00820089
0.00813695
0.00808034
0.00804055
0.0079787
0.00788546
0.00792184
0.00779544
0.00790683
0.00776747
0.00793803
0.00778084
0.00800671
0.00785014
0.00808452
0.00794885
0.00816963
0.00806085
0.00816146
0.00833561
0.00817055
0.00819673
0.00838393
0.00835839
0.00709699
0.0083582
0.00810288
0.00834473
0.00841737
0.00843786
0.00843612
0.00842235
0.00841346
0.00839241
0.00836895
0.00834384
0.00831584
0.00828235
0.00825333
0.00824275
0.00824355
0.00824738
0.00825437
0.00826665
0.00828562
0.00830847
0.00833052
0.00834694
0.00836336
0.00838367
0.00840379
0.00840823
0.00839441
0.00839438
0.00821577
0.00797684
0.00783817
0.00774176
0.00826194
0.00809409
0.00790453
0.00784514
0.00777409
0.00798683
0.00792067
0.00779355
0.00771383
0.00767176
0.00755865
0.00763345
0.00751042
0.00763051
0.00744318
0.00764747
0.00742853
0.00774337
0.00750722
0.0079169
0.00764295
0.00803723
0.00787697
0.00803923
0.00822348
0.00805547
0.00807785
0.00837926
0.00828313
0.0070916
0.00832478
0.00821925
0.00834408
0.00841326
0.00843588
0.00843447
0.00842646
0.0084084
0.00838659
0.00836282
0.00833728
0.00830784
0.00827185
0.00823909
0.00822588
0.00813692
0.00822684
0.00824609
0.00826027
0.00827946
0.00826606
0.0083086
0.00834145
0.00835301
0.00836621
0.00838182
0.00839932
0.00837824
0.00835173
0.00820925
0.00806032
0.00799365
0.00785685
0.00810804
0.00782531
0.00757952
0.00770707
0.00762748
0.00746303
0.00740687
0.0076252
0.00753579
0.00746362
0.00739804
0.00736895
0.00726665
0.00730782
0.00718445
0.00726462
0.00706503
0.00724947
0.00711749
0.00734787
0.00729015
0.00758952
0.00740267
0.00785773
0.0075915
0.00787131
0.00811868
0.00788702
0.00795021
0.00834667
0.00818303
0.00698763
0.00817837
0.008207
0.00838536
0.0083974
0.00843203
0.00843195
0.00842286
0.00840314
0.00838111
0.0083574
0.00833167
0.00830103
0.00826218
0.00822465
0.00820767
0.00814718
0.00813057
0.00808715
0.00808637
0.00819159
0.00795418
0.00790377
0.0082914
0.00833217
0.00835302
0.00836727
0.00837715
0.00836185
0.00830715
0.0082629
0.00813481
0.0081958
0.00814292
0.00821413
0.00807535
0.00741615
0.00711782
0.00736324
0.00732222
0.00721584
0.00718792
0.00733046
0.00726636
0.00719794
0.0071565
0.0070262
0.00692733
0.00711003
0.00716967
0.00723953
0.00711948
0.00723631
0.00720193
0.00730278
0.0073515
0.00747724
0.00741362
0.00764355
0.00749809
0.00771118
0.00801145
0.00774672
0.0078261
0.00821957
0.00806637
0.00700841
0.00815216
0.00827478
0.00837181
0.00841546
0.00843178
0.00841886
0.00839816
0.00837605
0.00835294
0.00832717
0.0082957
0.008254
0.00821095
0.00818892
0.00818366
0.0080798
0.00810573
0.00792365
0.00796827
0.00776373
0.00759186
0.00807612
0.00825439
0.00830622
0.00834486
0.00836431
0.00834753
0.00827643
0.00820562
0.00818307
0.00819354
0.00829116
0.00836559
0.00827574
0.00734808
0.00732037
0.00729803
0.00728687
0.0071701
0.0071584
0.00703137
0.0070373
0.00711206
0.00706613
0.00690731
0.0069284
0.00706075
0.00699002
0.00720372
0.00730103
0.00739046
0.00732552
0.00740662
0.00681529
0.00680485
0.00636375
0.0075137
0.00688363
0.00756096
0.00704448
0.00761164
0.00788169
0.00763049
0.00747572
0.00812412
0.00793993
0.00695995
0.00825387
0.00824975
0.00840056
0.0084243
0.00841562
0.00839375
0.0083721
0.00834945
0.00832407
0.00829209
0.00824797
0.00819893
0.00817046
0.00817007
0.00815891
0.0080501
0.00798986
0.00793386
0.00793554
0.00779486
0.00795311
0.00813061
0.00819972
0.00827403
0.00833019
0.00833331
0.0082578
0.00817177
0.00806633
0.00801796
0.00799711
0.00824601
0.00824605
0.00725567
0.00682647
0.0071026
0.00706662
0.00715153
0.00713529
0.00704406
0.00705514
0.00705583
0.00706533
0.00709617
0.00707887
0.00698139
0.00699765
0.00724016
0.00719103
0.00724866
0.00716883
0.00673084
0.00717968
0.00681217
0.00721596
0.00673244
0.0072058
0.00683236
0.00718947
0.00729467
0.0069416
0.00720047
0.00751934
0.00721464
0.0050518
0.00546313
0.00805664
0.00763039
0.00635769
0.00779219
0.00840999
0.00840064
0.00841313
0.00839072
0.00836905
0.00834731
0.00832228
0.00829052
0.00824442
0.00818944
0.00815339
0.00814865
0.00814943
0.00809815
0.00799152
0.00794592
0.00794456
0.00794914
0.00797143
0.00801507
0.00807955
0.00816156
0.00824648
0.00829161
0.00823743
0.00810482
0.00802453
0.00776984
0.00771585
0.00774123
0.00830888
0.00788429
0.00702444
0.00677831
0.00697756
0.00706241
0.00705995
0.00703549
0.00707747
0.00709909
0.00713167
0.00711659
0.00716467
0.00715262
0.00714647
0.00709002
0.00709993
0.00704886
0.00714914
0.00707646
0.00722833
0.0071847
0.00728216
0.00727983
0.00705641
0.00709141
0.00707693
0.00705169
0.00703856
0.00449377
0.0047732
0.00496068
0.00463674
0.00521556
0.00561935
0.00518312
0.00487164
0.00476863
0.00485461
0.00482169
0.00774781
0.00533396
0.00537818
0.00585276
0.00598369
0.00755041
0.00839215
0.00835029
0.00838907
0.00836735
0.00834614
0.00832202
0.00829074
0.00824386
0.00818322
0.00813848
0.00812814
0.00812034
0.00806395
0.00797172
0.0079058
0.00788156
0.00788225
0.00789923
0.00793262
0.00798436
0.00805702
0.00814343
0.00821428
0.00820565
0.00804407
0.00789853
0.0078175
0.00794285
0.00736667
0.00799427
0.00840505
0.0070905
0.00675171
0.00704088
0.00716575
0.00654214
0.00716746
0.00599666
0.00560495
0.00711647
0.00713064
0.00697797
0.00696515
0.00703759
0.00700238
0.00699658
0.006936
0.00701774
0.00697473
0.00712126
0.00706794
0.00727002
0.00724789
0.00714043
0.00719156
0.00474829
0.0045366
0.00477397
0.00484587
0.00461429
0.00467848
0.00489658
0.00484091
0.00475616
0.00477497
0.00465886
0.00466101
0.00453258
0.00456447
0.0048595
0.00491134
0.00468499
0.00459458
0.0045833
0.00472822
0.00549682
0.00620407
0.00559577
0.00497661
0.0050467
0.00546484
0.00584275
0.0063534
0.00578188
0.00830126
0.00827038
0.0083669
0.00834666
0.00832389
0.00829333
0.0082462
0.00818136
0.0081267
0.00810949
0.00809514
0.00802465
0.00791768
0.00785813
0.00784444
0.00784891
0.00786146
0.00788507
0.00792367
0.00798058
0.00805546
0.00813135
0.00815883
0.00800583
0.00780235
0.00797759
0.0080086
0.00724963
0.00833467
0.00835794
0.0079877
0.00691208
0.00663033
0.00712221
0.00703925
0.00707651
0.00703659
0.00712908
0.0071069
0.00697078
0.00697743
0.00683534
0.00683248
0.00688751
0.00685502
0.00692496
0.00687109
0.00704439
0.00675113
0.00721973
0.00723575
0.00722068
0.00721996
0.00490802
0.0049713
0.00502593
0.00505539
0.00472852
0.00482804
0.00491238
0.00458126
0.00467816
0.00481485
0.00490538
0.00479052
0.00457388
0.00454594
0.00458223
0.00461642
0.00455805
0.00475887
0.00480258
0.00463641
0.00457523
0.00460069
0.00466739
0.00511075
0.00517723
0.00486067
0.00492242
0.00595965
0.00441389
0.00562199
0.00523916
0.00570554
0.0081845
0.00836876
0.0083494
0.00832866
0.00829958
0.0082524
0.00818398
0.00812078
0.00809431
0.00807593
0.00799617
0.00787809
0.00783168
0.00783444
0.00784307
0.00785217
0.00786753
0.00789296
0.00793435
0.00799218
0.00806009
0.0081084
0.0079624
0.00790875
0.00791116
0.00822052
0.00754156
0.00823588
0.00827778
0.00832856
0.00678055
0.00674105
0.00677543
0.00670933
0.00697129
0.00687695
0.00691446
0.00687634
0.00696902
0.00694571
0.00684247
0.00684183
0.00677958
0.00678497
0.00682875
0.00679686
0.00667225
0.00692595
0.00726744
0.00709549
0.00721163
0.00723893
0.00507221
0.00507018
0.00507076
0.0050715
0.00497087
0.00502701
0.00505993
0.00507261
0.00490683
0.00500532
0.00507465
0.00470694
0.00484178
0.00500667
0.00509315
0.00497669
0.00466362
0.00458814
0.00467717
0.00475632
0.00460272
0.00469845
0.00473282
0.00465556
0.00462808
0.00470825
0.00469887
0.00497827
0.0049083
0.00478285
0.00484386
0.0059707
0.00484179
0.00604955
0.00491371
0.00550913
0.00824462
0.00835596
0.00833504
0.008309
0.00826295
0.0081917
0.00811902
0.0080848
0.00806432
0.00797904
0.00785355
0.00782213
0.00784268
0.00785839
0.0078665
0.00787232
0.00788444
0.00790884
0.00794891
0.00800617
0.00806109
0.00791264
0.00797722
0.00803128
0.00817042
0.00790052
0.00820297
0.00827943
0.00829801
0.00807053
0.00675044
0.00680194
0.00670804
0.00669591
0.00682173
0.00675765
0.00679713
0.00677137
0.00683502
0.00682026
0.00678867
0.00678326
0.00685365
0.00684301
0.00694717
0.00689235
0.00695134
0.00709412
0.00746876
0.00744361
0.00506352
0.00511255
0.00510115
0.00544238
0.00506716
0.00507279
0.00508885
0.00512353
0.00511199
0.00514276
0.0051496
0.00515205
0.00508903
0.00516025
0.0051947
0.0048875
0.00504418
0.00518368
0.00526461
0.00517451
0.00481122
0.00468199
0.00482316
0.0049517
0.00469636
0.00471805
0.00471834
0.00479105
0.00476297
0.00486774
0.00482016
0.00490269
0.00483082
0.00474532
0.00480158
0.00569643
0.00510879
0.00610971
0.00498165
0.00512029
0.00818675
0.00834515
0.00831902
0.00827605
0.00820365
0.00812089
0.00807567
0.0080567
0.00797391
0.00784137
0.00782191
0.00785987
0.00788764
0.00789681
0.00789373
0.00788758
0.00789223
0.00791873
0.00796838
0.00796203
0.00785637
0.00792144
0.00811019
0.00810953
0.00804371
0.00815027
0.00831547
0.00834373
0.00835189
0.00745715
0.00749033
0.00690006
0.00712331
0.00671417
0.00676211
0.00674088
0.00671646
0.00675693
0.00674494
0.00677996
0.00677061
0.00682862
0.00681676
0.0071453
0.00709204
0.00721168
0.00719534
0.00745038
0.00737487
0.00730958
0.00726309
0.00513574
0.00514518
0.00509955
0.00539308
0.00516375
0.00522862
0.00528876
0.00532121
0.00519425
0.00520046
0.00521727
0.00528406
0.00523186
0.00525549
0.00524503
0.00510137
0.00524664
0.00531038
0.00538314
0.00534386
0.00500618
0.00482976
0.00501587
0.00517862
0.00484714
0.00481406
0.00475641
0.00493034
0.00490669
0.0049901
0.00495116
0.00486225
0.00488414
0.0047369
0.00478124
0.00531532
0.00470985
0.00618274
0.00484971
0.00495949
0.0081286
0.00833197
0.00829055
0.00821775
0.00812777
0.0080676
0.00804828
0.00797481
0.00783797
0.0078232
0.00787908
0.00792189
0.00793437
0.00792333
0.0079002
0.00788636
0.00790342
0.00794194
0.00786432
0.00776048
0.00786047
0.00792607
0.00804228
0.00798576
0.00808243
0.00832611
0.00838995
0.00839136
0.0081981
0.00757708
0.00762455
0.00711484
0.00734955
0.00680888
0.00692394
0.00674075
0.00675634
0.00679208
0.0067964
0.00681105
0.00680091
0.00703613
0.00699309
0.0073811
0.00732376
0.00731639
0.00733282
0.00714357
0.00710375
0.0053011
0.0053417
0.00545449
0.00540317
0.00532658
0.0053044
0.00525848
0.00521608
0.00536914
0.00544711
0.00548452
0.00548131
0.00524288
0.00530037
0.00540422
0.00550861
0.00530462
0.00529926
0.0053106
0.00531232
0.00541196
0.00537112
0.00544222
0.00545497
0.00522365
0.00502698
0.00523989
0.00539508
0.00502791
0.00492161
0.00481866
0.00502433
0.00505773
0.00509917
0.00504651
0.00483061
0.00484218
0.00475086
0.00477296
0.00521237
0.00440841
0.00604477
0.00483067
0.00497552
0.00806914
0.0083031
0.00823766
0.00813886
0.0080651
0.0080411
0.00798125
0.00783902
0.00782205
0.0078932
0.00795989
0.00797393
0.00795516
0.00792274
0.00790143
0.00789871
0.00781828
0.00772236
0.00790351
0.00780406
0.00787027
0.00797312
0.00792458
0.00801273
0.00829298
0.00841026
0.00842371
0.00842114
0.00794991
0.00784762
0.00773603
0.00787532
0.00734342
0.00755448
0.00698095
0.00713827
0.00682247
0.00687953
0.00691365
0.00692283
0.00696174
0.00693353
0.00726123
0.0072128
0.00741272
0.00736916
0.00705565
0.00725859
0.00518744
0.00548824
0.0071423
0.00529421
0.00535775
0.00549778
0.00543384
0.00545304
0.00539967
0.00531903
0.00526692
0.00558134
0.00561182
0.00560216
0.00556158
0.00540252
0.00552592
0.00562642
0.00568059
0.00535674
0.00541959
0.00552242
0.00548466
0.00552191
0.00543548
0.00551532
0.00551596
0.00544116
0.00524724
0.00545948
0.00557825
0.00524013
0.00500205
0.0049042
0.00512009
0.00523829
0.00524891
0.00511683
0.00480369
0.00481305
0.00480677
0.00482392
0.00524933
0.00492499
0.00655176
0.00484987
0.00495028
0.00799894
0.00824472
0.00816068
0.00806807
0.00803623
0.00799347
0.00785022
0.00781665
0.0078994
0.00799588
0.00801918
0.00799282
0.00795554
0.00786379
0.00775996
0.00768943
0.00754169
0.00775366
0.00798704
0.00793274
0.00789841
0.00787227
0.00794808
0.00819515
0.00841246
0.00843464
0.00843606
0.00825543
0.00802586
0.00794078
0.00785951
0.00795859
0.00755826
0.00772591
0.00691151
0.00715746
0.00697619
0.00698071
0.00710696
0.00711876
0.00716916
0.00713158
0.00735666
0.0073688
0.00759497
0.00748509
0.00707999
0.00749386
0.0055472
0.00590823
0.00566139
0.00536519
0.00533299
0.00538332
0.00549489
0.00544413
0.00550567
0.00542177
0.00531974
0.00529932
0.0056937
0.00567358
0.00562549
0.00556297
0.00563068
0.00571138
0.00573968
0.00572707
0.00550417
0.00562346
0.00571168
0.00561261
0.00559434
0.00558186
0.00565276
0.00559652
0.00562814
0.00547372
0.00566167
0.00571904
0.00546805
0.00507995
0.00501091
0.00523706
0.00545488
0.00543371
0.00520339
0.00484299
0.00484539
0.00497394
0.0049928
0.00562613
0.00584722
0.00666521
0.00490612
0.00508863
0.00790757
0.00817784
0.00808301
0.00803168
0.00800745
0.00787905
0.00780714
0.00789746
0.00802369
0.00806241
0.00804094
0.00789273
0.00775972
0.00760398
0.00739813
0.00736926
0.00764163
0.00791924
0.00786024
0.00767744
0.00783285
0.00790792
0.00808891
0.0083593
0.0084351
0.00844022
0.0084385
0.00802845
0.00790559
0.00806509
0.00809055
0.00796084
0.00802433
0.00774586
0.00786845
0.00731147
0.0074608
0.00719092
0.0073032
0.0073201
0.00736897
0.00735282
0.00732323
0.00734835
0.00739902
0.00766048
0.00772672
0.00525144
0.00609617
0.00756279
0.00553766
0.00559739
0.00559768
0.00562889
0.00535098
0.00538369
0.00545621
0.00542368
0.0054973
0.00540079
0.00530759
0.00532232
0.00569167
0.00564202
0.00558168
0.00552146
0.00574754
0.00575228
0.00571681
0.00566533
0.00568325
0.00575754
0.00576456
0.00571233
0.00569307
0.00573165
0.00578482
0.00573381
0.00578226
0.00569185
0.00584809
0.00583053
0.00570294
0.00516509
0.00515524
0.00538075
0.00568234
0.00563622
0.00530937
0.00501458
0.00499702
0.0051841
0.00522585
0.0058606
0.00551972
0.00695814
0.00512191
0.00548033
0.00781227
0.00810696
0.00803516
0.0080153
0.00791962
0.00780468
0.00788125
0.00804102
0.00809977
0.00804178
0.00785754
0.00745978
0.00733668
0.00726093
0.00753815
0.00753468
0.00784464
0.00780638
0.00763701
0.00782525
0.00791611
0.00803189
0.00829435
0.00843123
0.00843951
0.00844056
0.00826264
0.00811685
0.00800975
0.00809362
0.00810778
0.00803587
0.00807123
0.00790384
0.00798184
0.0076851
0.00780202
0.007457
0.00756552
0.00758999
0.00766173
0.00744138
0.00752754
0.00736052
0.00745087
0.0059524
0.00640589
0.00739878
0.00527198
0.00564288
0.00583893
0.0055273
0.00548604
0.00553987
0.00553452
0.00555218
0.00537841
0.00539511
0.00543323
0.00541546
0.00546207
0.00538436
0.0053384
0.00536364
0.00561777
0.00557851
0.00553815
0.00550061
0.00572543
0.00567729
0.00561916
0.00557958
0.0057823
0.00577382
0.00571038
0.00583211
0.00584725
0.00580592
0.00587298
0.00587747
0.00593103
0.00589931
0.00603303
0.00596883
0.00593681
0.00526785
0.00529482
0.0055378
0.00591677
0.0058401
0.00543765
0.00524092
0.00529131
0.0053441
0.00540222
0.00623263
0.0049646
0.00746897
0.00546096
0.00583414
0.00770917
0.00805371
0.00801941
0.00795731
0.00781756
0.00785653
0.00804198
0.00813228
0.00800763
0.00777228
0.00742423
0.00641483
0.00750063
0.00746758
0.00784922
0.00779464
0.00776235
0.00777803
0.00783734
0.00796386
0.00800578
0.00800398
0.00842488
0.00843564
0.00843925
0.00844074
0.00801975
0.00790456
0.00812722
0.00812937
0.00811534
0.00812285
0.0080865
0.00810387
0.00802127
0.0080604
0.00789325
0.00796521
0.00773539
0.00781311
0.00787661
0.00792492
0.00768279
0.00782133
0.00709949
0.00772792
0.00583623
0.00616672
0.00606671
0.00608975
0.00559858
0.00531565
0.00572189
0.00565039
0.00545296
0.00549655
0.00550262
0.00551026
0.0054437
0.00544524
0.00545437
0.00544949
0.00546201
0.00541723
0.00541406
0.00543943
0.00555809
0.005556
0.0055554
0.00554606
0.00563238
0.00558397
0.00555648
0.00556595
0.00579484
0.00572927
0.00564354
0.00600573
0.00601834
0.00583893
0.00578021
0.00600167
0.00610798
0.00611112
0.00623327
0.00616277
0.00616773
0.00539582
0.005393
0.00570521
0.00614326
0.00602914
0.00558857
0.00545825
0.0055561
0.00543821
0.00550963
0.00664931
0.00452662
0.00766805
0.00572513
0.00615882
0.00761256
0.00801538
0.0079891
0.00785008
0.00783284
0.00801542
0.00810971
0.00799098
0.00759715
0.00727851
0.00591281
0.0065837
0.00734259
0.00781918
0.00777162
0.007747
0.00776439