/*--------------------------------*- C++ -*----------------------------------*\
  =========                 |
  \\      /  F ield         | OpenFOAM: The Open Source CFD Toolbox
   \\    /   O peration     | Website:  https://openfoam.org
    \\  /    A nd           | Version:  dev
     \\/     M anipulation  |
\*---------------------------------------------------------------------------*/
FoamFile
{
    version     2.0;
    format      ascii;
    class       volScalarField;
    location    "2500";
    object      rho;
}
// * * * * * * * * * * * * * * * * * * * * * * * * * * * * * * * * * * * * * //

dimensions      [1 -3 0 0 0 0 0];

internalField   nonuniform List<scalar> 
9836
(
1.17172
1.17157
1.17164
1.17159
1.17127
1.17172
1.17155
1.171
1.1712
1.17176
1.17164
1.17096
1.17087
1.17128
1.17179
1.17168
1.17092
1.17069
1.1709
1.1714
1.17183
1.17166
1.17097
1.17056
1.17063
1.17106
1.17149
1.17188
1.17166
1.17105
1.17059
1.17039
1.17064
1.17115
1.17158
1.17188
1.1717
1.17114
1.17066
1.17024
1.1704
1.17078
1.17123
1.17161
1.1719
1.17175
1.17122
1.17071
1.17016
1.17014
1.17047
1.17096
1.17131
1.17166
1.17191
1.17177
1.17124
1.17078
1.1702
1.17001
1.17019
1.17061
1.17103
1.17137
1.17167
1.17191
1.17178
1.17133
1.17092
1.17025
1.16993
1.16998
1.17024
1.17073
1.17113
1.17142
1.1717
1.17193
1.17175
1.17133
1.17093
1.17027
1.16989
1.16981
1.17
1.17042
1.17083
1.17118
1.17147
1.17171
1.17193
1.17178
1.17136
1.17094
1.17036
1.16992
1.16972
1.16981
1.17015
1.17058
1.17096
1.17124
1.1715
1.17173
1.17194
1.17177
1.17137
1.17099
1.17052
1.17004
1.16968
1.16963
1.16987
1.17025
1.1707
1.17102
1.17128
1.17153
1.17175
1.17195
1.1718
1.17144
1.17101
1.17062
1.17014
1.16967
1.16954
1.16966
1.16998
1.17039
1.17077
1.17106
1.17132
1.17155
1.17176
1.17195
1.17181
1.17142
1.17105
1.17074
1.17018
1.16969
1.16948
1.16949
1.16974
1.17012
1.17051
1.17083
1.17111
1.17135
1.17157
1.17178
1.17195
1.17179
1.17146
1.17113
1.17073
1.17025
1.16979
1.16947
1.16938
1.16953
1.16986
1.17025
1.17061
1.17089
1.17115
1.17138
1.17159
1.17178
1.17196
1.17179
1.17149
1.1711
1.17073
1.17038
1.16987
1.16948
1.16931
1.16937
1.16962
1.17
1.17037
1.17067
1.17094
1.17117
1.1714
1.1716
1.17178
1.17196
1.17181
1.1715
1.17111
1.17078
1.17051
1.16995
1.16954
1.16928
1.16925
1.16942
1.16975
1.17013
1.17045
1.17074
1.17098
1.17121
1.17142
1.17161
1.1718
1.17196
1.17181
1.17147
1.17114
1.1708
1.1705
1.17008
1.1696
1.16929
1.16916
1.16926
1.16953
1.16988
1.17023
1.17052
1.17078
1.17101
1.17124
1.17144
1.17162
1.1718
1.17196
1.17181
1.17149
1.1712
1.17087
1.17052
1.17023
1.16963
1.16931
1.16912
1.16913
1.16934
1.16965
1.17001
1.17032
1.17058
1.17083
1.17105
1.17126
1.17145
1.17163
1.1718
1.17196
1.17179
1.17152
1.17117
1.17087
1.17056
1.17025
1.16973
1.16933
1.1691
1.16903
1.16916
1.16945
1.16978
1.17012
1.17039
1.17064
1.17087
1.17108
1.17128
1.17146
1.17164
1.1718
1.17196
1.17182
1.17153
1.17122
1.1709
1.17066
1.17024
1.16983
1.16939
1.1691
1.16897
1.16902
1.16924
1.16957
1.16989
1.1702
1.17044
1.17067
1.1709
1.1711
1.1713
1.17148
1.17165
1.17181
1.17196
1.17179
1.17152
1.17121
1.17089
1.17065
1.17029
1.16992
1.16948
1.16912
1.16893
1.16892
1.16907
1.16936
1.16969
1.17001
1.17026
1.17049
1.17071
1.17093
1.17112
1.17131
1.17149
1.17165
1.17181
1.17197
1.1718
1.1715
1.1712
1.17094
1.17069
1.17036
1.16996
1.16958
1.16917
1.16892
1.16884
1.16893
1.16917
1.16949
1.16979
1.17008
1.17031
1.17053
1.17074
1.17094
1.17114
1.17133
1.1715
1.17165
1.17181
1.17197
1.17179
1.17151
1.17123
1.17097
1.17067
1.17036
1.17001
1.16962
1.16923
1.16893
1.16878
1.16881
1.16899
1.16929
1.1696
1.1699
1.17014
1.17037
1.17056
1.17077
1.17096
1.17114
1.17132
1.17149
1.17165
1.17181
1.17197
1.17178
1.17152
1.17121
1.17098
1.17068
1.17041
1.17006
1.16968
1.16928
1.16895
1.16875
1.16872
1.16884
1.1691
1.16942
1.16971
1.16997
1.17019
1.1704
1.17059
1.17078
1.17098
1.17116
1.17133
1.17149
1.17166
1.17181
1.17196
1.1718
1.17152
1.17122
1.17097
1.1707
1.17042
1.17011
1.16974
1.16935
1.16898
1.16874
1.16865
1.16872
1.16892
1.16923
1.16951
1.16978
1.17001
1.17023
1.17044
1.17062
1.17081
1.17099
1.17118
1.17134
1.1715
1.17166
1.17181
1.17196
1.17178
1.1715
1.17121
1.17098
1.17071
1.17043
1.17014
1.16979
1.1694
1.16903
1.16874
1.1686
1.16861
1.16876
1.16902
1.16932
1.16961
1.16985
1.17007
1.17026
1.17044
1.17064
1.17083
1.17101
1.17117
1.17135
1.17149
1.17167
1.17181
1.17197
1.17179
1.17148
1.17121
1.17096
1.17071
1.17045
1.17017
1.16984
1.16945
1.16908
1.16875
1.16857
1.16853
1.16863
1.16884
1.16914
1.16943
1.16968
1.1699
1.17009
1.17029
1.17047
1.17065
1.17083
1.17102
1.17118
1.17134
1.1715
1.17166
1.17179
1.17195
1.17178
1.17149
1.17122
1.17096
1.17073
1.17047
1.1702
1.16987
1.16951
1.16911
1.16878
1.16855
1.16846
1.16851
1.16868
1.16897
1.16926
1.16951
1.16973
1.16994
1.17013
1.17033
1.1705
1.17069
1.17085
1.17101
1.1712
1.17133
1.17149
1.17164
1.17179
1.17195
1.17179
1.17148
1.17121
1.17097
1.17073
1.17047
1.1702
1.16989
1.16954
1.16915
1.1688
1.16854
1.16841
1.16842
1.16855
1.16879
1.16908
1.16935
1.16958
1.1698
1.16999
1.17017
1.17035
1.17051
1.17069
1.17087
1.17103
1.17119
1.17133
1.17149
1.17163
1.17178
1.17195
1.17176
1.1715
1.17124
1.171
1.17074
1.17048
1.17021
1.1699
1.16957
1.16918
1.16883
1.16854
1.16837
1.16834
1.16842
1.16863
1.1689
1.16919
1.16944
1.16965
1.16984
1.17001
1.1702
1.17036
1.17054
1.1707
1.17087
1.17103
1.17118
1.17133
1.17148
1.17162
1.17177
1.17203
1.17193
1.17175
1.17149
1.17121
1.17096
1.17073
1.17049
1.17021
1.16991
1.16958
1.16921
1.16885
1.16855
1.16835
1.16827
1.16832
1.16848
1.16873
1.16902
1.16927
1.1695
1.16969
1.16987
1.17004
1.17021
1.17038
1.17054
1.17071
1.17086
1.17102
1.17117
1.17131
1.17145
1.17163
1.17185
1.17175
1.17203
1.17194
1.17175
1.1715
1.17122
1.17097
1.17072
1.17047
1.1702
1.1699
1.16957
1.16922
1.16887
1.16855
1.16833
1.16822
1.16823
1.16836
1.16858
1.16885
1.16911
1.16934
1.16955
1.16973
1.16989
1.17006
1.17022
1.17038
1.17055
1.1707
1.17086
1.17101
1.17115
1.17129
1.17147
1.1714
1.17167
1.17154
1.17158
1.17184
1.17175
1.17202
1.17193
1.17178
1.17148
1.17124
1.17099
1.17071
1.17046
1.17019
1.16989
1.16957
1.16922
1.16887
1.16855
1.16831
1.16817
1.16815
1.16824
1.16843
1.16868
1.16895
1.16919
1.1694
1.16958
1.16975
1.16991
1.17007
1.17023
1.17039
1.17055
1.1707
1.17084
1.17098
1.17113
1.17133
1.17125
1.17144
1.17166
1.17149
1.17156
1.17184
1.17174
1.17202
1.17193
1.17174
1.17149
1.17122
1.17095
1.17072
1.17045
1.17018
1.16988
1.16956
1.16921
1.16886
1.16854
1.16829
1.16813
1.16808
1.16814
1.16829
1.16852
1.16879
1.16904
1.16925
1.16944
1.16961
1.16977
1.16993
1.17008
1.17023
1.17039
1.17054
1.17068
1.17082
1.17097
1.17117
1.17109
1.17135
1.17126
1.1714
1.17164
1.17147
1.17155
1.17183
1.17173
1.17202
1.17192
1.17175
1.17146
1.17122
1.17097
1.17073
1.17044
1.17017
1.16986
1.16954
1.16919
1.16884
1.16852
1.16826
1.16809
1.16802
1.16804
1.16816
1.16837
1.16863
1.16888
1.16911
1.1693
1.16948
1.16963
1.16978
1.16994
1.17009
1.17024
1.17038
1.17053
1.17067
1.17082
1.17101
1.17094
1.17117
1.17109
1.17131
1.17123
1.17138
1.17162
1.17145
1.17152
1.17181
1.17171
1.17202
1.17191
1.17175
1.17146
1.17122
1.17094
1.17081
1.17045
1.17014
1.16984
1.16951
1.16916
1.16881
1.16849
1.16823
1.16805
1.16796
1.16796
1.16805
1.16823
1.16847
1.16872
1.16896
1.16916
1.16934
1.1695
1.16965
1.1698
1.16994
1.17008
1.17023
1.17037
1.17051
1.17066
1.17086
1.17078
1.17101
1.17093
1.17114
1.17106
1.17129
1.1712
1.17135
1.1716
1.17142
1.1715
1.1718
1.17169
1.17201
1.1719
1.17174
1.17145
1.17121
1.17095
1.17079
1.17041
1.17012
1.16981
1.16947
1.16912
1.16877
1.16845
1.16819
1.168
1.1679
1.16788
1.16795
1.1681
1.16832
1.16857
1.16881
1.16902
1.16921
1.16937
1.16952
1.16966
1.1698
1.16994
1.17007
1.17022
1.17035
1.1705
1.1707
1.17063
1.17085
1.17077
1.17098
1.17089
1.17111
1.17103
1.17126
1.17117
1.17132
1.17158
1.17139
1.17146
1.17178
1.17166
1.17201
1.17189
1.17173
1.17144
1.17119
1.17098
1.17079
1.17038
1.17008
1.16976
1.16942
1.16907
1.16872
1.1684
1.16813
1.16794
1.16783
1.16781
1.16786
1.16798
1.16818
1.16842
1.16866
1.16888
1.16908
1.16925
1.1694
1.16953
1.16966
1.16979
1.16993
1.17006
1.1702
1.17034
1.17054
1.17048
1.17069
1.17061
1.17081
1.17073
1.17094
1.17086
1.17108
1.17099
1.17122
1.17113
1.17129
1.17155
1.17135
1.17143
1.17176
1.17164
1.172
1.17187
1.17173
1.17146
1.17121
1.17097
1.17075
1.17033
1.17003
1.16971
1.16937
1.16901
1.16866
1.16834
1.16807
1.16788
1.16777
1.16773
1.16777
1.16787
1.16805
1.16827
1.16851
1.16874
1.16895
1.16912
1.16928
1.16941
1.16954
1.16966
1.16979
1.16991
1.17004
1.17019
1.17039
1.17031
1.17052
1.17045
1.17065
1.17056
1.17077
1.17068
1.1709
1.17079
1.17103
1.17092
1.17118
1.17107
1.17124
1.17151
1.17131
1.17138
1.17174
1.17161
1.17199
1.17186
1.17174
1.17146
1.17121
1.17098
1.17078
1.17028
1.16999
1.16967
1.16931
1.16895
1.1686
1.16827
1.168
1.1678
1.16769
1.16765
1.16769
1.16777
1.16792
1.16813
1.16836
1.1686
1.16882
1.169
1.16916
1.1693
1.16942
1.16954
1.16965
1.16977
1.1699
1.17003
1.17022
1.17013
1.17036
1.17028
1.17046
1.17035
1.17056
1.1704
1.17067
1.17047
1.1708
1.17059
1.17095
1.17077
1.17112
1.17098
1.17118
1.17147
1.17124
1.17132
1.17171
1.17157
1.17199
1.17184
1.17173
1.17145
1.17119
1.17099
1.17076
1.17028
1.16994
1.16962
1.16925
1.16889
1.16853
1.16819
1.16792
1.16772
1.1676
1.16756
1.16758
1.16769
1.16781
1.168
1.16822
1.16846
1.16868
1.16888
1.16905
1.16919
1.16931
1.16942
1.16953
1.16963
1.16975
1.16988
1.17004
1.17
1.17019
1.1701
1.17022
1.17004
1.17016
1.16976
1.17012
1.16947
1.1702
1.16938
1.17043
1.16965
1.17073
1.17014
1.17101
1.17066
1.17105
1.17141
1.17111
1.1712
1.17168
1.17152
1.17198
1.17182
1.17172
1.17143
1.17117
1.17098
1.17077
1.17026
1.16989
1.16956
1.1692
1.16882
1.16846
1.16812
1.16784
1.16764
1.16751
1.16747
1.16749
1.16756
1.16769
1.16787
1.16808
1.16831
1.16855
1.16876
1.16894
1.16909
1.16921
1.16931
1.1694
1.16948
1.16957
1.16967
1.16972
1.16998
1.16982
1.16985
1.16963
1.16924
1.16848
1.16831
1.16658
1.16771
1.16482
1.16788
1.16425
1.16867
1.16541
1.16973
1.16727
1.1706
1.16927
1.17058
1.17132
1.17064
1.1708
1.17165
1.17145
1.17197
1.17179
1.17171
1.17141
1.17115
1.17098
1.17074
1.17019
1.16989
1.1695
1.16913
1.16876
1.16839
1.16804
1.16776
1.16755
1.16742
1.16737
1.16738
1.16744
1.16754
1.16769
1.16789
1.16814
1.16839
1.16861
1.16882
1.16898
1.16911
1.16917
1.16918
1.16917
1.16918
1.16922
1.1692
1.16875
1.16828
1.16942
1.16915
1.16767
1.16663
1.16446
1.16204
1.16101
1.15678
1.15887
1.15272
1.159
1.15108
1.16175
1.15255
1.16558
1.15751
1.16887
1.16394
1.16866
1.17103
1.16875
1.16921
1.1716
1.17129
1.17196
1.17177
1.17168
1.17138
1.17112
1.17095
1.17063
1.17012
1.16987
1.16945
1.16907
1.16869
1.16832
1.16797
1.16767
1.16746
1.16733
1.16726
1.16725
1.16727
1.16733
1.16745
1.16764
1.16788
1.16816
1.16843
1.16867
1.16887
1.16897
1.16884
1.1684
1.16788
1.16766
1.16771
1.16768
1.16737
1.16624
1.16359
1.16235
1.16563
1.16451
1.15963
1.15722
1.15258
1.14865
1.14648
1.1407
1.1429
1.13512
1.14249
1.13265
1.14569
1.13375
1.15309
1.13913
1.16265
1.14946
1.16207
1.16994
1.16244
1.16399
1.17153
1.1707
1.17196
1.17174
1.17164
1.17131
1.17109
1.17091
1.17047
1.17004
1.16982
1.16939
1.16901
1.16863
1.16826
1.1679
1.1676
1.16737
1.16722
1.16712
1.16703
1.16693
1.16689
1.16696
1.16718
1.16749
1.16783
1.16818
1.16849
1.16873
1.16876
1.16798
1.16577
1.16301
1.16217
1.16288
1.16352
1.16369
1.16224
1.16118
1.15907
1.15181
1.15044
1.15509
1.15328
1.14517
1.1421
1.13561
1.13119
1.12803
1.12203
1.12372
1.11578
1.12274
1.1129
1.12558
1.1136
1.13319
1.1185
1.14702
1.12874
1.14625
1.16629
1.14756
1.15151
1.17129
1.16861
1.17195
1.17167
1.17166
1.17125
1.17104
1.17083
1.17035
1.17003
1.16978
1.16935
1.16895
1.16856
1.16819
1.16784
1.16752
1.16728
1.1671
1.16691
1.16661
1.16616
1.16579
1.16568
1.16595
1.1665
1.16715
1.16774
1.16823
1.16856
1.16856
1.16681
1.16116
1.15368
1.14916
1.15029
1.15445
1.15245
1.15709
1.15222
1.14917
1.14747
1.13637
1.13522
1.13965
1.13778
1.12751
1.12449
1.11697
1.11276
1.10906
1.10405
1.10485
1.09923
1.10373
1.09736
1.10594
1.09766
1.11275
1.10055
1.12598
1.10882
1.12528
1.15676
1.12657
1.13114
1.17045
1.16263
1.17193
1.17149
1.17144
1.17095
1.17057
1.17021
1.17
1.16973
1.16931
1.16889
1.1685
1.16813
1.16778
1.16745
1.1672
1.16697
1.1666
1.16581
1.16455
1.16325
1.16246
1.16267
1.16379
1.16538
1.16677
1.16775
1.16831
1.16837
1.16583
1.15715
1.14423
1.13556
1.1328
1.13595
1.14179
1.13966
1.13527
1.14566
1.14264
1.13419
1.13302
1.11958
1.11882
1.12223
1.12065
1.10954
1.10725
1.10074
1.09875
1.09607
1.09446
1.09384
1.0921
1.09308
1.09088
1.09393
1.09065
1.09749
1.09176
1.10687
1.09574
1.1069
1.1392
1.10878
1.11322
1.16785
1.15058
1.17193
1.17095
1.17121
1.17026
1.17
1.16989
1.16962
1.16926
1.16884
1.16844
1.16808
1.16772
1.16739
1.16712
1.16681
1.16615
1.16458
1.16202
1.15936
1.15786
1.15796
1.15943
1.16176
1.16446
1.16674
1.16787
1.16816
1.1652
1.15406
1.13816
1.12664
1.12096
1.11905
1.12215
1.13054
1.12563
1.12697
1.12343
1.13156
1.1295
1.11824
1.11763
1.10458
1.10443
1.10581
1.10498
1.09771
1.09719
1.09383
1.09395
1.09174
1.09195
1.09027
1.09045
1.08929
1.08918
1.0892
1.08826
1.09053
1.08823
1.09503
1.08983
1.09533
1.12061
1.09691
1.09981
1.10848
1.16117
1.13273
1.17188
1.16878
1.17029
1.16984
1.16975
1.16948
1.16917
1.16878
1.16839
1.16802
1.16767
1.16734
1.16704
1.16664
1.16559
1.16301
1.15893
1.15504
1.15288
1.1528
1.15449
1.15741
1.16098
1.16452
1.167
1.16783
1.16487
1.15225
1.13447
1.12488
1.11872
1.11371
1.11037
1.108
1.12009
1.11277
1.11384
1.1116
1.11677
1.11555
1.1044
1.10432
1.09717
1.09722
1.09712
1.09714
1.09424
1.09468
1.09261
1.09381
1.09123
1.09303
1.08969
1.09128
1.08822
1.08885
1.08736
1.08719
1.08764
1.08648
1.08958
1.0874
1.08834
1.09261
1.08979
1.10259
1.11635
1.10516
1.09452
1.09074
1.09041
1.09577
1.14749
1.10948
1.11355
1.12726
1.17006
1.15793
1.16952
1.16957
1.16932
1.16905
1.16872
1.16833
1.16796
1.16762
1.1673
1.16699
1.1665
1.16505
1.16143
1.15588
1.15076
1.1478
1.14742
1.14931
1.15278
1.15712
1.16144
1.16514
1.16723
1.16467
1.15153
1.13476
1.12649
1.12092
1.11593
1.11069
1.10422
1.10053
1.09838
1.10864
1.10476
1.10295
1.1017
1.10413
1.10373
1.09722
1.09713
1.09544
1.09535
1.0951
1.09538
1.09524
1.09649
1.09555
1.09827
1.09401
1.09737
1.09031
1.09273
1.08738
1.0881
1.08623
1.08582
1.0854
1.08495
1.08662
1.0857
1.0847
1.08338
1.08468
1.08732
1.08831
1.08714
1.08633
1.08843
1.09767
1.10023
1.09162
1.08918
1.08873
1.09273
1.11859
1.13744
1.12223
1.10331
1.10674
1.14228
1.12378
1.12445
1.13936
1.16926
1.16915
1.16893
1.16865
1.16826
1.1679
1.16757
1.16727
1.16696
1.16641
1.16465
1.16011
1.15321
1.14677
1.14278
1.14204
1.14421
1.14817
1.15309
1.15819
1.1628
1.16594
1.16434
1.15165
1.13575
1.12987
1.12739
1.12549
1.11947
1.10988
1.09945
1.09529
1.09494
1.09971
1.09725
1.09623
1.0953
1.09702
1.09675
1.09518
1.09485
1.09721
1.09672
1.09725
1.09741
1.10068
1.10223
1.10117
1.10496
1.0965
1.1013
1.08978
1.09299
1.08469
1.0846
1.08484
1.08549
1.0839
1.08313
1.08251
1.0852
1.0838
1.0822
1.08044
1.08215
1.08607
1.08716
1.0859
1.08468
1.08731
1.09427
1.09621
1.08985
1.08761
1.08806
1.09075
1.10993
1.11137
1.09847
1.10077
1.10572
1.15919
1.12086
1.10944
1.10483
1.16895
1.16879
1.16855
1.16817
1.16783
1.16753
1.16723
1.16693
1.16638
1.16446
1.15922
1.15109
1.14329
1.13809
1.13714
1.13963
1.14395
1.1494
1.15512
1.16043
1.16429
1.16361
1.15191
1.13721
1.13267
1.13447
1.14129
1.14347
1.13403
1.11797
1.09718
1.10534
1.09288
1.09382
1.09404
1.09296
1.09282
1.09194
1.0943
1.09361
1.09578
1.09469
1.10145
1.09974
1.10263
1.10234
1.10799
1.1095
1.10676
1.1121
1.09798
1.10472
1.08659
1.08845
1.09062
1.09371
1.08218
1.08222
1.08276
1.0839
1.08106
1.08017
1.0797
1.0829
1.08082
1.07894
1.07689
1.07869
1.08426
1.0859
1.08402
1.0821
1.08608
1.09191
1.09329
1.08868
1.08645
1.087
1.08946
1.10239
1.10193
1.09477
1.09602
1.10339
1.16186
1.12914
1.09907
1.09676
1.16862
1.1684
1.16807
1.16774
1.16747
1.1672
1.16692
1.16639
1.16445
1.15885
1.14968
1.1405
1.13401
1.13293
1.13564
1.14035
1.14636
1.1526
1.15842
1.16245
1.16232
1.15186
1.13844
1.13476
1.13899
1.15103
1.15789
1.15628
1.14788
1.13307
1.10099
1.11286
1.09198
1.09466
1.09127
1.09124
1.09132
1.09057
1.09354
1.09238
1.09777
1.09577
1.1063
1.10348
1.10944
1.10852
1.1162
1.118
1.11231
1.11926
1.09698
1.10114
1.10509
1.1097
1.08563
1.08792
1.09076
1.09427
1.07984
1.08061
1.08187
1.0836
1.07788
1.07756
1.07809
1.07956
1.077
1.07582
1.07402
1.07493
1.08149
1.08401
1.08117
1.07848
1.08426
1.09036
1.09133
1.08769
1.08479
1.08555
1.08849
1.09635
1.09518
1.09219
1.09263
1.10668
1.16016
1.12966
1.09339
1.09586
1.16823
1.16795
1.16765
1.16741
1.16717
1.16691
1.16646
1.16463
1.1589
1.14906
1.13861
1.13074
1.12936
1.13216
1.13749
1.14419
1.15107
1.1569
1.1605
1.1605
1.15133
1.13929
1.13622
1.14126
1.15473
1.16293
1.16494
1.16313
1.15766
1.13576
1.15104
1.10754
1.12093
1.09327
1.09854
1.09049
1.09107
1.09129
1.09103
1.09391
1.09235
1.10058
1.09789
1.11262
1.10894
1.11767
1.1159
1.12408
1.12666
1.11621
1.12215
1.09825
1.1026
1.10694
1.11113
1.08584
1.08867
1.0921
1.09606
1.07913
1.08063
1.08257
1.08494
1.07587
1.0768
1.07835
1.07547
1.07315
1.07446
1.07312
1.07234
1.07769
1.08117
1.07728
1.07418
1.08153
1.08931
1.09007
1.08652
1.08229
1.08344
1.08754
1.09222
1.09109
1.09058
1.09058
1.10867
1.15979
1.12909
1.09113
1.09644
1.16784
1.16759
1.16735
1.16714
1.1669
1.16654
1.16507
1.1595
1.14912
1.13771
1.12844
1.12634
1.12905
1.13501
1.14272
1.14996
1.1552
1.15856
1.15829
1.14985
1.13967
1.13724
1.1422
1.15487
1.16392
1.16712
1.16758
1.16663
1.16527
1.14597
1.15844
1.11669
1.13119
1.09773
1.10541
1.09147
1.0933
1.09337
1.09362
1.09564
1.09404
1.10538
1.1023
1.12236
1.11838
1.12738
1.12573
1.12661
1.1297
1.11499
1.11753
1.12139
1.11936
1.10034
1.10465
1.1087
1.11211
1.08778
1.09114
1.09493
1.09896
1.08043
1.0828
1.08543
1.08836
1.07591
1.07827
1.08113
1.07154
1.07076
1.07527
1.07465
1.07182
1.07324
1.0773
1.07272
1.07012
1.07783
1.0885
1.08929
1.08486
1.0789
1.08054
1.08635
1.08992
1.08925
1.08968
1.08952
1.10946
1.15202
1.12771
1.09056
1.09711
1.16754
1.1673
1.1671
1.16689
1.1666
1.16551
1.16078
1.14994
1.13769
1.12722
1.12391
1.12619
1.13258
1.14096
1.14785
1.15281
1.15603
1.15551
1.14781
1.13968
1.1379
1.14253
1.15413
1.16369
1.16737
1.16842
1.16856
1.16851
1.1673
1.1688
1.15582
1.16395
1.12858
1.14318
1.10572
1.11555
1.09515
1.09902
1.09861
1.09977
1.09998
1.09869
1.11439
1.11106
1.13505
1.13219
1.13258
1.13457
1.12297
1.12506
1.12655
1.11309
1.11413
1.11588
1.11495
1.10295
1.10651
1.10936
1.11159
1.09162
1.09514
1.09872
1.1021
1.08416
1.08723
1.09035
1.0935
1.07857
1.08236
1.08623
1.06921
1.07039
1.07881
1.07853
1.07368
1.06898
1.07272
1.06821
1.06779
1.07336
1.08772
1.08878
1.08257
1.07473
1.07689
1.08472
1.08884
1.08863
1.0893
1.08917
1.11136
1.16637
1.14242
1.09066
1.09845
1.16726
1.16706
1.16688
1.16664
1.1659
1.1622
1.15207
1.13843
1.12708
1.12217
1.12362
1.12975
1.13816
1.14452
1.14944
1.15252
1.15132
1.14445
1.13945
1.1383
1.14269
1.15302
1.16291
1.16724
1.16848
1.16881
1.16898
1.16918
1.1688
1.16919
1.16382
1.16754
1.14316
1.15568
1.11784
1.12953
1.10312
1.10909
1.10862
1.11125
1.10883
1.10798
1.12856
1.12538
1.14136
1.14424
1.13212
1.13704
1.11721
1.11935
1.11177
1.11581
1.10798
1.10737
1.10695
1.10697
1.10482
1.10679
1.10791
1.10821
1.09662
1.09958
1.10202
1.10364
1.08992
1.0933
1.0963
1.09892
1.08354
1.08834
1.09275
1.06866
1.07224
1.08411
1.0836
1.07749
1.06637
1.06796
1.06513
1.06682
1.06852
1.08674
1.08831
1.07959
1.07009
1.07262
1.08257
1.08851
1.08861
1.08917
1.08924
1.11832
1.16975
1.15462
1.09119
1.10152
1.16702
1.16684
1.16666
1.16617
1.16356
1.15471
1.14078
1.12764
1.12132
1.12155
1.12662
1.13461
1.14033
1.14512
1.14755
1.14566
1.14158
1.13918
1.13863
1.14302
1.15261
1.16244
1.16702
1.1684
1.16879
1.16898
1.16916
1.16931
1.16928
1.16926
1.16932
1.1679
1.16896
1.15782
1.1648
1.13475
1.14685
1.11646
1.1243
1.12476
1.12884
1.12353
1.12312
1.14509
1.14399
1.14123
1.14805
1.12016
1.12573
1.13114
1.10758
1.10917
1.1001
1.10435
1.09936
1.09731
1.09534
1.09582
1.10447
1.1043
1.10316
1.10142
1.10101
1.10237
1.10275
1.10235
1.09643
1.09928
1.10128
1.10244
1.08974
1.09482
1.09884
1.07015
1.07555
1.08982
1.08833
1.08189
1.065
1.06416
1.0632
1.06752
1.06398
1.08542
1.08776
1.07604
1.06525
1.06811
1.07993
1.08864
1.08886
1.08918
1.08956
1.12825
1.17153
1.16433
1.09228
1.10604
1.16681
1.16666
1.16636
1.16465
1.15762
1.14415
1.12979
1.12132
1.12018
1.12381
1.13094
1.13623
1.14043
1.14197
1.1412
1.13988
1.13875
1.13918
1.14379
1.15291
1.16247
1.16697
1.16831
1.16869
1.1689
1.16907
1.16923
1.16936
1.16933
1.16939
1.16938
1.16918
1.16935
1.16658
1.16853
1.15385
1.16188
1.1355
1.14429
1.14586
1.15036
1.14315
1.14344
1.15283
1.1566
1.12824
1.13599
1.14331
1.10987
1.11652
1.12096
1.11246
1.09558
1.09719
1.08783
1.09245
1.08789
1.08492
1.08231
1.08292
1.10066
1.09802
1.09483
1.09134
1.10254
1.10195
1.09998
1.09693
1.10159
1.10309
1.10327
1.10271
1.09542
1.09978
1.10261
1.07271
1.0789
1.09415
1.09102
1.08527
1.06471
1.06167
1.06185
1.06897
1.06059
1.0838
1.08707
1.07219
1.06085
1.06376
1.0771
1.08905
1.08936
1.08927
1.08998
1.14002
1.17195
1.16952
1.0936
1.11177
1.16663
1.16644
1.16546
1.1603
1.14815
1.13354
1.12217
1.1197
1.12155
1.12761
1.13278
1.13636
1.13837
1.13894
1.13864
1.13891
1.1404
1.14555
1.15427
1.16306
1.16703
1.16825
1.16858
1.16878
1.16897
1.16914
1.16932
1.16928
1.1694
1.16937
1.16945
1.16943
1.16945
1.16946
1.1691
1.16937
1.16606
1.16823
1.15618
1.16189
1.16278
1.16508
1.15877
1.16066
1.15296
1.15916
1.12035
1.12893
1.12883
1.13687
1.0983
1.10509
1.11172
1.10326
1.08266
1.08454
1.07715
1.08209
1.0753
1.07209
1.06992
1.07029
1.093
1.08853
1.08388
1.07936
1.10068
1.09741
1.09327
1.08834
1.10362
1.10347
1.10191
1.09905
1.09878
1.1018
1.10283
1.07468
1.08051
1.09566
1.09027
1.08583
1.06476
1.05973
1.06055
1.06941
1.05781
1.08204
1.08636
1.06857
1.05734
1.06019
1.07442
1.08964
1.08992
1.0894
1.09051
1.15334
1.17201
1.17069
1.09514
1.11984
1.16647
1.16592
1.16265
1.15225
1.13806
1.12492
1.11988
1.12023
1.12492
1.12993
1.13351
1.13583
1.13735
1.13863
1.13987
1.14291
1.14911
1.15768
1.16427
1.16725
1.16817
1.16847
1.16865
1.16884
1.16904
1.16923
1.16937
1.16935
1.16945
1.16942
1.16951
1.16948
1.16954
1.16953
1.16952
1.16954
1.16911
1.16941
1.16709
1.16841
1.16738
1.16837
1.16308
1.16574
1.14272
1.14864
1.1539
1.11237
1.12086
1.12302
1.13093
1.08819
1.09531
1.10377
1.09559
1.07086
1.07333
1.07014
1.07565
1.06377
1.061
1.06013
1.05993
1.08297
1.07752
1.07232
1.06765
1.09494
1.0899
1.0843
1.07857
1.10263
1.10081
1.0973
1.09232
1.09892
1.1006
1.10071
1.07452
1.0792
1.09379
1.08635
1.08323
1.06397
1.05749
1.05829
1.06796
1.05538
1.08049
1.08583
1.0657
1.05508
1.05784
1.07256
1.09025
1.09053
1.08954
1.09102
1.15872
1.17204
1.17127
1.0971
1.12542
1.1662
1.1642
1.15652
1.14271
1.1296
1.12104
1.12002
1.12306
1.12791
1.13176
1.1349
1.13743
1.13955
1.14233
1.14741
1.15462
1.16137
1.16556
1.16751
1.16811
1.16836
1.16853
1.1687
1.16889
1.16911
1.16933
1.16943
1.16937
1.16951
1.16947
1.16958
1.16954
1.16964
1.16961
1.16963
1.16964
1.16952
1.1696
1.169
1.16935
1.16746
1.16859
1.16086
1.16511
1.13814
1.14462
1.15237
1.1465
1.10663
1.11479
1.11846
1.12605
1.08163
1.08821
1.09906
1.09222
1.06207
1.0655
1.06834
1.07428
1.0547
1.0529
1.0537
1.05266
1.07279
1.06721
1.06218
1.05793
1.08666
1.08077
1.0745
1.06828
1.0991
1.0954
1.08995
1.08339
1.096
1.0963
1.09543
1.07175
1.07466
1.08828
1.0781
1.07692
1.06103
1.05523
1.05589
1.06381
1.0537
1.07957
1.08558
1.06404
1.05368
1.05646
1.07169
1.09074
1.09116
1.08971
1.09125
1.16112
1.17206
1.17159
1.09842
1.12682
1.16542
1.15975
1.14814
1.13433
1.12485
1.12053
1.12227
1.12665
1.13114
1.13512
1.13844
1.14209
1.14723
1.15379
1.15974
1.16401
1.16654
1.16762
1.16804
1.16824
1.16841
1.16858
1.16874
1.16895
1.16921
1.16942
1.16943
1.16934
1.16947
1.16956
1.16952
1.16964
1.1696
1.16971
1.16968
1.16973
1.16973
1.16966
1.16973
1.16921
1.16952
1.167
1.16854
1.15767
1.16369
1.1335
1.14039
1.14925
1.14325
1.10436
1.1112
1.11666
1.12312
1.0801
1.08597
1.09797
1.0922
1.05719
1.06218
1.06933
1.07637
1.04688
1.04641
1.04989
1.04707
1.06237
1.057
1.05249
1.04907
1.07665
1.07015
1.06357
1.05743
1.09193
1.08628
1.07954
1.07203
1.08865
1.08795
1.0849
1.06602
1.06704
1.07822
1.06699
1.06726
1.05766
1.05373
1.05472
1.05957
1.05276
1.07929
1.08559
1.06317
1.05304
1.05558
1.07112
1.09108
1.0914
1.08981
1.09137
1.16262
1.17206
1.17153
1.09853
1.1263
1.16314
1.15233
1.14028
1.12928
1.12333
1.12236
1.12613
1.13119
1.13596
1.14094
1.14673
1.15326
1.15855
1.16268
1.16547
1.16695
1.16762
1.16792
1.1681
1.16828
1.16845
1.16863
1.16878
1.16903
1.16928
1.16946
1.16943
1.16938
1.16951
1.16961
1.16956
1.1697
1.16965
1.16978
1.16975
1.16983
1.16981
1.16978
1.16983
1.16928
1.16962
1.16637
1.16841
1.15179
1.15725
1.16187
1.12983
1.13667
1.14623
1.14032
1.10473
1.11045
1.11713
1.12264
1.08205
1.08708
1.09974
1.09555
1.05499
1.06182
1.07258
1.08174
1.04086
1.04121
1.04794
1.04349
1.05198
1.04737
1.04384
1.04156
1.06488
1.05845
1.0523
1.04698
1.07978
1.07349
1.0661
1.05889
1.07716
1.07423
1.06942
1.06011
1.06064
1.06529
1.05968
1.06047
1.05582
1.05302
1.0541
1.05712
1.0524
1.07905
1.08553
1.06198
1.05307
1.05529
1.07035
1.09111
1.09137
1.08974
1.09124
1.16167
1.17178
1.1702
1.09789
1.12256
1.15843
1.14438
1.13506
1.12756
1.12385
1.12623
1.1315
1.1378
1.14458
1.15158
1.15682
1.16095
1.16376
1.16569
1.16689
1.16751
1.16782
1.168
1.16818
1.16835
1.16853
1.16869
1.16884
1.16913
1.16933
1.1695
1.16948
1.16941
1.16955
1.16965
1.1696
1.16975
1.1697
1.16983
1.16979
1.1699
1.16987
1.16984
1.16989
1.1693
1.16968
1.16529
1.16816
1.14975
1.15481
1.16174
1.15744
1.12846
1.13437
1.14463
1.1394
1.10783
1.11214
1.12022
1.12442
1.08787
1.09194
1.10439
1.10175
1.05462
1.0628
1.077
1.08806
1.03661
1.03852
1.04762
1.04207
1.04264
1.03926
1.03705
1.03637
1.05236
1.04686
1.04194
1.03815
1.0636
1.05754
1.05139
1.04591
1.0625
1.05839
1.05339
1.05859
1.05949
1.05799
1.05947
1.05982
1.05567
1.05291
1.0546
1.05815
1.05272
1.07835
1.08491
1.06048
1.05363
1.05569
1.06841
1.09089
1.09104
1.08907
1.09056
1.15394
1.15985
1.15683
1.09609
1.11004
1.1521
1.13863
1.13301
1.12798
1.12744
1.13223
1.13987
1.14786
1.1543
1.15855
1.16118
1.16339
1.16515
1.16643
1.16721
1.16762
1.16786
1.16804
1.16821
1.16839
1.16857
1.16874
1.1689
1.16921
1.16942
1.16945
1.16933
1.16953
1.16951
1.16959
1.1697
1.16965
1.1698
1.16975
1.16988
1.16984
1.16995
1.16992
1.1699
1.16995
1.1693
1.16975
1.16111
1.16389
1.16646
1.16821
1.14919
1.15357
1.15763
1.12911
1.13417
1.14469
1.14033
1.11378
1.11666
1.12641
1.12914
1.09582
1.09947
1.11165
1.11006
1.05539
1.06535
1.08204
1.09497
1.03516
1.03774
1.04798
1.04188
1.03551
1.034
1.03364
1.03383
1.04144
1.03798
1.03544
1.0337
1.04917
1.04498
1.04158
1.03875
1.0558
1.05281
1.05124
1.06025
1.06217
1.05902
1.06179
1.0618
1.05751
1.05426
1.05751
1.05941
1.05387
1.07648
1.08297
1.05967
1.05474
1.05736
1.06563
1.09023
1.08995
1.08722
1.08906
1.12118
1.1112
1.1089
1.09218
1.0956
1.14621
1.13607
1.13333
1.13122
1.13404
1.14157
1.15014
1.15562
1.15859
1.16069
1.16232
1.16375
1.16511
1.16647
1.16726
1.16767
1.16788
1.16807
1.16825
1.16843
1.16861
1.16877
1.16897
1.16926
1.16947
1.16943
1.16936
1.16957
1.16954
1.16963
1.16974
1.16969
1.16984
1.1698
1.16993
1.16989
1.17
1.16997
1.16996
1.17
1.16933
1.16979
1.16143
1.16507
1.16664
1.16881
1.1504
1.15399
1.15878
1.13242
1.1362
1.14698
1.14383
1.1225
1.12427
1.13548
1.13702
1.10406
1.10801
1.12098
1.11932
1.0567
1.06862
1.08621
1.10223
1.03502
1.03779
1.04875
1.04216
1.03271
1.03242
1.03251
1.03334
1.03667
1.03512
1.03396
1.03309
1.04825
1.04438
1.04234
1.04012
1.05796
1.05586
1.07212
1.06103
1.08163
1.07735
1.07808
1.07882
1.06126
1.05665
1.06006
1.06079
1.05628
1.07312
1.07987
1.06029
1.05808
1.05908
1.06508
1.08847
1.08788
1.08471
1.0866
1.09346
1.09319
1.0871
1.08764
1.08638
1.14253
1.13602
1.13644
1.13713
1.14308
1.15131
1.15597
1.15828
1.15968
1.16071
1.16153
1.16288
1.16485
1.16649
1.16736
1.16771
1.16792
1.1681
1.16828
1.16847
1.16865
1.16879
1.16904
1.16931
1.16951
1.16946
1.16938
1.1696
1.16957
1.16967
1.16978
1.16973
1.16988
1.16983
1.16997
1.16993
1.17006
1.17002
1.17005
1.17007
1.16959
1.16992
1.1632
1.16632
1.16747
1.16831
1.16936
1.1698
1.15372
1.15617
1.16139
1.13888
1.1411
1.15151
1.14979
1.13245
1.13402
1.14529
1.14657
1.11253
1.11689
1.13094
1.12898
1.05783
1.0706
1.08779
1.10744
1.036
1.03856
1.04942
1.04282
1.03277
1.03257
1.03278
1.03404
1.03879
1.0375
1.03712
1.03668
1.06971
1.06718
1.06642
1.06561
1.07605
1.07121
1.09459
1.08201
1.10254
1.09888
1.10008
1.10147
1.08208
1.0597
1.08188
1.07998
1.05994
1.07075
1.07732
1.06243
1.06025
1.06354
1.06689
1.08646
1.08546
1.08185
1.08446
1.08241
0.875501
1.07324
1.084
1.0812
1.14146
1.13903
1.14114
1.14493
1.15187
1.15592
1.15763
1.15854
1.15886
1.15919
1.16046
1.16258
1.16484
1.16676
1.16748
1.16775
1.16795
1.16814
1.16832
1.16851
1.16868
1.16882
1.16913
1.16933
1.16941
1.16953
1.16948
1.16964
1.1696
1.1697
1.16982
1.16976
1.16992
1.16987
1.17003
1.16997
1.17012
1.17008
1.17016
1.17016
1.17001
1.17013
1.1653
1.16776
1.16898
1.16957
1.16986
1.15843
1.15983
1.1643
1.14772
1.14862
1.15714
1.15592
1.14239
1.14395
1.1512
1.15246
1.12126
1.12612
1.14088
1.13866
1.05836
1.0715
1.0876
1.10867
1.03738
1.03985
1.04974
1.04338
1.03651
1.03591
1.03455
1.03592
1.06547
1.06518
1.06541
1.06542
1.09349
1.09192
1.09151
1.09118
1.09778
1.09536
1.12509
1.10324
1.12956
1.12745
1.1281
1.12889
1.10404
1.08178
1.10409
1.10348
1.08116
1.07157
1.07576
1.067
1.08078
1.08128
1.07035
1.08446
1.08318
1.08033
1.08271
1.07692
0.498449
1.03726
1.08086
1.07826
1.14303
1.14386
1.1472
1.15242
1.15584
1.15705
1.15745
1.1571
1.15705
1.15804
1.16006
1.16254
1.16542
1.16706
1.16755
1.16779
1.16799
1.16817
1.16836
1.16854
1.1687
1.16886
1.16917
1.16936
1.16943
1.16946
1.16956
1.16951
1.16967
1.16963
1.16973
1.16986
1.1698
1.16997
1.16991
1.17008
1.17002
1.1702
1.17013
1.17027
1.17025
1.17015
1.17025
1.1668
1.16819
1.16903
1.16952
1.16991
1.16092
1.1629
1.16534
1.15364
1.15474
1.15887
1.15693
1.14878
1.14999
1.15129
1.15256
1.12748
1.13532
1.14751
1.14472
1.05783
1.07136
1.08335
1.10643
1.03987
1.04233
1.04967
1.04347
1.06503
1.04223
1.03826
1.03943
1.09117