/*--------------------------------*- C++ -*----------------------------------*\
  =========                 |
  \\      /  F ield         | OpenFOAM: The Open Source CFD Toolbox
   \\    /   O peration     | Website:  https://openfoam.org
    \\  /    A nd           | Version:  dev
     \\/     M anipulation  |
\*---------------------------------------------------------------------------*/
FoamFile
{
    version     2.0;
    format      ascii;
    class       volScalarField;
    location    "2500";
    object      T;
}
// * * * * * * * * * * * * * * * * * * * * * * * * * * * * * * * * * * * * * //

dimensions      [0 0 0 1 0 0 0];

internalField   nonuniform List<scalar> 
9836
(
300.097
300.135
300.119
300.129
300.213
300.097
300.139
300.282
300.232
300.088
300.115
300.29
300.314
300.21
300.081
300.106
300.299
300.36
300.307
300.179
300.071
300.109
300.288
300.393
300.376
300.265
300.156
300.057
300.108
300.266
300.385
300.437
300.372
300.242
300.134
300.058
300.096
300.243
300.366
300.473
300.433
300.337
300.221
300.126
300.051
300.084
300.221
300.352
300.494
300.5
300.415
300.289
300.201
300.113
300.049
300.078
300.214
300.333
300.484
300.532
300.488
300.379
300.272
300.185
300.11
300.048
300.076
300.191
300.298
300.469
300.551
300.54
300.473
300.349
300.246
300.172
300.103
300.044
300.082
300.19
300.295
300.464
300.561
300.582
300.534
300.427
300.324
300.233
300.161
300.1
300.044
300.073
300.181
300.29
300.44
300.554
300.607
300.583
300.496
300.386
300.289
300.22
300.154
300.094
300.042
300.077
300.178
300.277
300.399
300.523
300.616
300.628
300.567
300.471
300.356
300.275
300.208
300.146
300.089
300.039
300.068
300.159
300.27
300.373
300.495
300.616
300.65
300.621
300.54
300.436
300.338
300.265
300.198
300.141
300.086
300.038
300.065
300.165
300.259
300.341
300.485
300.611
300.665
300.664
300.601
300.503
300.403
300.322
300.252
300.191
300.134
300.082
300.039
300.069
300.154
300.24
300.341
300.467
300.586
300.669
300.691
300.654
300.569
300.469
300.379
300.308
300.242
300.183
300.13
300.082
300.036
300.069
300.145
300.246
300.34
300.432
300.565
300.663
300.71
300.694
300.63
300.533
300.438
300.363
300.294
300.236
300.179
300.127
300.081
300.038
300.061
300.142
300.244
300.329
300.398
300.543
300.649
300.716
300.726
300.681
300.597
300.5
300.418
300.345
300.285
300.227
300.173
300.124
300.077
300.036
300.06
300.15
300.233
300.321
300.4
300.508
300.633
300.713
300.746
300.722
300.654
300.564
300.474
300.401
300.335
300.276
300.218
300.167
300.122
300.076
300.037
300.061
300.143
300.218
300.302
300.393
300.47
300.623
300.706
300.757
300.753
300.702
300.621
300.53
300.451
300.385
300.323
300.266
300.213
300.165
300.119
300.076
300.036
300.064
300.135
300.224
300.303
300.384
300.464
300.598
300.7
300.762
300.779
300.747
300.672
300.588
300.503
300.434
300.37
300.312
300.26
300.208
300.162
300.117
300.076
300.036
300.057
300.133
300.212
300.294
300.356
300.464
300.572
300.684
300.761
300.793
300.781
300.726
300.642
300.559
300.482
300.42
300.361
300.305
300.254
300.202
300.158
300.115
300.074
300.036
300.063
300.134
300.213
300.298
300.359
300.453
300.548
300.661
300.753
300.803
300.808
300.768
300.694
300.611
300.531
300.466
300.407
300.353
300.296
300.249
300.201
300.156
300.115
300.073
300.034
300.059
300.137
300.216
300.283
300.348
300.433
300.537
300.635
300.741
300.805
300.827
300.804
300.744
300.661
300.585
300.511
300.453
300.398
300.345
300.294
300.242
300.196
300.152
300.114
300.073
300.034
300.063
300.135
300.208
300.274
300.353
300.433
300.522
300.623
300.725
300.803
300.841
300.834
300.789
300.712
300.634
300.559
300.497
300.439
300.39
300.338
300.29
300.242
300.197
300.154
300.114
300.075
300.034
300.063
300.131
300.211
300.271
300.349
300.42
300.509
300.606
300.71
300.796
300.848
300.858
300.826
300.761
300.679
300.607
300.54
300.484
300.43
300.382
300.333
300.285
300.237
300.194
300.154
300.112
300.074
300.036
300.059
300.131
300.209
300.274
300.342
300.415
300.497
300.592
300.694
300.788
300.85
300.875
300.858
300.806
300.728
300.657
300.588
300.529
300.473
300.421
300.373
300.327
300.281
300.234
300.193
300.153
300.113
300.075
300.036
300.062
300.136
300.209
300.27
300.34
300.412
300.487
300.578
300.678
300.775
300.849
300.886
300.885
300.848
300.78
300.704
300.63
300.57
300.513
300.465
300.419
300.37
300.322
300.276
300.235
300.19
300.154
300.11
300.074
300.035
300.061
300.138
300.209
300.273
300.34
300.405
300.479
300.566
300.666
300.761
300.846
300.894
300.905
300.88
300.827
300.751
300.677
300.612
300.557
300.508
300.459
300.413
300.366
300.321
300.274
300.233
300.194
300.152
300.112
300.079
300.038
300.062
300.135
300.207
300.273
300.333
300.401
300.471
300.557
300.65
300.753
300.839
300.899
300.921
300.909
300.866
300.793
300.718
300.655
300.599
300.547
300.497
300.449
300.405
300.357
300.317
300.275
300.229
300.195
300.155
300.118
300.079
300.038
300.059
300.138
300.208
300.27
300.333
300.4
300.469
300.549
300.641
300.743
300.832
300.9
300.934
300.932
300.899
300.839
300.764
300.696
300.637
300.582
300.534
300.488
300.443
300.401
300.357
300.312
300.271
300.231
300.195
300.154
300.12
300.081
300.039
300.065
300.133
300.2
300.263
300.33
300.397
300.468
300.546
300.634
300.733
300.825
300.899
300.944
300.953
300.931
300.879
300.811
300.737
300.674
300.62
300.571
300.527
300.481
300.44
300.395
300.353
300.312
300.272
300.233
300.196
300.158
300.123
300.083
300.019
300.043
300.066
300.135
300.207
300.271
300.332
300.394
300.465
300.544
300.629
300.726
300.818
300.897
300.948
300.969
300.956
300.916
300.854
300.78
300.715
300.658
300.608
300.563
300.521
300.478
300.435
300.393
300.351
300.312
300.273
300.236
300.2
300.165
300.118
300.065
300.09
300.02
300.042
300.066
300.131
300.204
300.268
300.333
300.397
300.467
300.545
300.63
300.723
300.813
300.895
300.953
300.982
300.979
300.948
300.891
300.823
300.755
300.697
300.645
300.6
300.558
300.516
300.474
300.433
300.392
300.353
300.314
300.277
300.241
300.206
300.159
300.177
300.11
300.143
300.133
300.066
300.089
300.02
300.044
300.059
300.136
300.199
300.264
300.336
300.399
300.47
300.547
300.631
300.72
300.812
300.895
300.957
300.993
301
300.978
300.929
300.865
300.797
300.735
300.682
300.636
300.594
300.553
300.513
300.472
300.432
300.393
300.355
300.318
300.282
300.246
300.196
300.215
300.167
300.113
300.155
300.136
300.067
300.092
300.021
300.045
300.067
300.133
300.203
300.271
300.332
300.402
300.471
300.548
300.632
300.722
300.814
300.897
300.962
301.003
301.017
301.004
300.965
300.905
300.838
300.775
300.719
300.671
300.629
300.589
300.549
300.511
300.472
300.433
300.394
300.358
300.323
300.286
300.235
300.255
300.19
300.213
300.178
300.116
300.16
300.141
300.07
300.096
300.021
300.048
300.065
300.138
300.201
300.266
300.328
300.404
300.473
300.553
300.638
300.727
300.818
300.901
300.968
301.013
301.033
301.027
300.996
300.943
300.879
300.814
300.756
300.706
300.663
300.623
300.585
300.546
300.508
300.47
300.433
300.398
300.363
300.325
300.275
300.295
300.235
300.256
300.2
300.222
300.183
300.121
300.165
300.147
300.074
300.1
300.022
300.05
300.064
300.139
300.201
300.273
300.308
300.4
300.48
300.557
300.644
300.735
300.825
300.908
300.976
301.023
301.048
301.048
301.025
300.979
300.918
300.854
300.794
300.742
300.696
300.656
300.619
300.582
300.547
300.51
300.473
300.437
300.403
300.364
300.315
300.334
300.277
300.297
300.243
300.264
300.206
300.228
300.189
300.127
300.172
300.154
300.077
300.105
300.023
300.052
300.067
300.141
300.203
300.27
300.312
300.411
300.485
300.566
300.653
300.744
300.835
300.918
300.986
301.035
301.063
301.068
301.05
301.011
300.956
300.893
300.831
300.777
300.73
300.689
300.652
300.616
300.581
300.547
300.512
300.476
300.442
300.404
300.354
300.373
300.317
300.337
300.285
300.305
300.25
300.272
300.213
300.237
300.197
300.134
300.181
300.162
300.082
300.111
300.024
300.055
300.066
300.141
300.206
300.262
300.312
300.416
300.495
300.577
300.665
300.756
300.847
300.931
300.999
301.049
301.078
301.086
301.073
301.042
300.991
300.931
300.869
300.812
300.763
300.72
300.683
300.648
300.615
300.582
300.549
300.516
300.481
300.445
300.395
300.41
300.358
300.376
300.326
300.346
300.293
300.315
300.26
300.282
300.222
300.247
300.207
300.141
300.19
300.171
300.087
300.118
300.026
300.059
300.068
300.138
300.201
300.263
300.32
300.429
300.506
300.589
300.678
300.77
300.862
300.946
301.015
301.065
301.095
301.105
301.095
301.069
301.025
300.968
300.907
300.848
300.796
300.751
300.713
300.679
300.647
300.615
300.585
300.553
300.52
300.484
300.433
300.452
300.4
300.416
300.367
300.389
300.337
300.361
300.305
300.331
300.272
300.298
300.233
300.261
300.219
300.15
300.202
300.183
300.092
300.126
300.028
300.063
300.064
300.136
300.202
300.261
300.311
300.442
300.516
300.6
300.692
300.785
300.878
300.963
301.033
301.083
301.114
301.125
301.116
301.095
301.056
301.004
300.944
300.884
300.829
300.782
300.742
300.707
300.677
300.647
300.618
300.588
300.557
300.523
300.475
300.497
300.44
300.46
300.415
300.442
300.389
300.429
300.363
300.412
300.33
300.381
300.291
300.336
300.248
300.285
300.235
300.161
300.218
300.199
300.099
300.136
300.03
300.068
300.065
300.139
300.204
300.258
300.316
300.44
300.529
300.612
300.706
300.801
300.895
300.981
301.052
301.104
301.135
301.147
301.142
301.116
301.084
301.038
300.981
300.921
300.863
300.812
300.769
300.734
300.704
300.677
300.65
300.623
300.594
300.561
300.521
300.53
300.483
300.504
300.476
300.522
300.489
300.591
300.5
300.664
300.48
300.686
300.424
300.62
300.349
300.497
300.278
300.365
300.267
300.176
300.252
300.229
300.107
300.148
300.032
300.073
300.066
300.141
300.209
300.258
300.314
300.445
300.541
300.627
300.721
300.817
300.912
301
301.073
301.125
301.157
301.17
301.166
301.148
301.115
301.07
301.017
300.957
300.897
300.843
300.797
300.76
300.729
300.705
300.683
300.661
300.64
300.613
300.602
300.537
300.575
300.568
300.623
300.723
300.915
300.957
301.395
301.109
301.841
301.067
301.986
300.867
301.69
300.599
301.221
300.381
300.714
300.385
300.2
300.37
300.331
300.116
300.165
300.034
300.079
300.069
300.146
300.214
300.257
300.32
300.463
300.541
300.64
300.736
300.833
300.928
301.019
301.093
301.148
301.181
301.195
301.193
301.179
301.153
301.116
301.063
301.001
300.938
300.88
300.829
300.786
300.755
300.74
300.737
300.74
300.738
300.726
300.733
300.845
300.964
300.676
300.746
301.118
301.382
301.932
302.547
302.81
303.893
303.359
304.941
303.326
305.367
302.621
304.985
301.648
303.708
300.818
302.065
300.869
300.272
300.846
300.731
300.127
300.207
300.036
300.085
300.076
300.154
300.221
300.265
300.348
300.48
300.546
300.652
300.751
300.85
300.946
301.036
301.114
301.17
301.205
301.222
301.227
301.222
301.207
301.175
301.127
301.065
300.995
300.926
300.865
300.816
300.789
300.822
300.933
301.064
301.121
301.108
301.117
301.194
301.479
302.152
302.467
301.634
301.919
303.161
303.782
304.977
306
306.567
308.086
307.506
309.568
307.613
310.229
306.773
309.934
304.847
308.502
302.394
305.789
302.541
300.547
302.446
302.053
300.147
300.354
300.037
300.092
300.087
300.171
300.229
300.275
300.388
300.498
300.556
300.667
300.765
300.866
300.962
301.054
301.133
301.192
301.231
301.257
301.281
301.306
301.318
301.299
301.244
301.165
301.077
300.989
300.91
300.849
300.841
301.038
301.598
302.3
302.513
302.331
302.17
302.126
302.496
302.766
303.305
305.176
305.534
304.328
304.796
306.909
307.716
309.439
310.619
311.472
313.1
312.639
314.814
312.906
315.611
312.135
315.418
310.084
314.066
306.427
311.279
306.628
301.469
306.284
305.255
300.206
300.881
300.039
300.11
300.08
300.186
300.24
300.293
300.417
300.502
300.566
300.678
300.781
300.881
300.978
301.07
301.151
301.214
301.261
301.309
301.387
301.501
301.596
301.623
301.556
301.416
301.251
301.099
300.977
300.892
300.892
301.333
302.77
304.692
305.865
305.571
304.493
305.01
303.813
305.072
305.863
306.306
309.235
309.542
308.363
308.861
311.612
312.43
314.487
315.652
316.68
318.085
317.859
319.445
318.173
319.977
317.551
319.891
315.653
319.07
312.026
316.745
312.216
303.901
311.867
310.633
300.418
302.398
300.044
300.156
300.136
300.261
300.36
300.453
300.509
300.578
300.687
300.795
300.896
300.992
301.085
301.169
301.235
301.295
301.389
301.588
301.907
302.24
302.441
302.387
302.103
301.699
301.345
301.098
300.956
300.939
301.582
303.796
307.156
309.451
310.19
309.346
307.798
308.362
309.529
306.78
307.573
309.816
310.129
313.77
313.978
313.045
313.478
316.545
317.186
319.02
319.586
320.347
320.807
320.984
321.484
321.2
321.833
320.956
321.899
319.939
321.58
317.29
320.437
317.28
308.484
316.756
315.52
301.073
305.497
300.043
300.291
300.194
300.44
300.506
300.537
300.605
300.699
300.808
300.911
301.005
301.099
301.185
301.256
301.335
301.503
301.901
302.553
303.233
303.619
303.592
303.217
302.621
301.931
301.352
301.067
300.993
301.741
304.594
308.759
311.848
313.394
313.918
313.068
310.793
312.122
311.757
312.72
310.52
311.075
314.139
314.306
317.939
317.981
317.59
317.825
319.881
320.029
320.989
320.956
321.59
321.529
322.012
321.961
322.293
322.325
322.316
322.591
321.931
322.597
320.639
322.134
320.553
313.486
320.102
319.277
316.836
302.769
310.205
300.058
300.838
300.432
300.548
300.571
300.642
300.722
300.823
300.925
301.02
301.11
301.198
301.273
301.377
301.644
302.3
303.342
304.344
304.901
304.925
304.486
303.734
302.818
301.917
301.285
301.076
301.826
305.062
309.741
312.327
314.008
315.392
316.319
316.979
313.632
315.649
315.352
315.975
314.545
314.879
317.989
318.012
320.037
320.026
320.051
320.047
320.872
320.748
321.342
320.999
321.736
321.223
322.181
321.723
322.603
322.42
322.851
322.899
322.766
323.103
322.205
322.835
322.563
321.331
322.144
318.491
314.654
317.767
320.784
321.869
321.965
320.425
306.3
316.557
315.426
311.677
300.514
303.598
300.63
300.617
300.681
300.751
300.837
300.939
301.035
301.122
301.205
301.286
301.412
301.779
302.702
304.125
305.45
306.224
306.322
305.83
304.93
303.808
302.7
301.758
301.227
301.876
305.247
309.663
311.887
313.406
314.777
316.231
318.043
319.084
319.696
316.799
317.887
318.398
318.752
318.064
318.178
320.025
320.05
320.535
320.561
320.628
320.551
320.591
320.235
320.502
319.729
320.943
319.984
322.002
321.309
322.845
322.639
323.176
323.295
323.42
323.549
323.062
323.329
323.621
324.003
323.624
322.857
322.57
322.909
323.145
322.535
319.883
319.158
321.614
322.32
322.448
321.295
314.037
308.948
313.04
318.286
317.323
307.666
312.62
312.438
308.438
300.696
300.724
300.781
300.855
300.956
301.05
301.135
301.214
301.293
301.434
301.88
303.037
304.815
306.491
307.54
307.736
307.165
306.127
304.847
303.533
302.353
301.552
301.958
305.217
309.399
310.975
311.645
312.161
313.803
316.456
319.393
320.576
320.679
319.317
320.017
320.307
320.575
320.083
320.158
320.61
320.705
320.033
320.175
320.02
319.976
319.047
318.611
318.908
317.842
320.233
318.872
322.156
321.234
323.626
323.652
323.583
323.395
323.853
324.078
324.261
323.472
323.882
324.349
324.861
324.36
323.221
322.903
323.269
323.624
322.859
320.855
320.301
322.126
322.772
322.64
321.865
316.43
316.029
319.656
319.003
317.61
303.272
313.417
316.567
317.858
300.775
300.817
300.88
300.978
301.067
301.146
301.223
301.3
301.441
301.929
303.265
305.364
307.406
308.78
309.033
308.374
307.233
305.805
304.322
302.956
301.971
302.143
305.149
309.009
310.222
309.742
307.933
307.357
309.863
314.218
320.041
317.73
321.269
321
320.936
321.246
321.288
321.54
320.863
321.06
320.443
320.754
318.833
319.317
318.5
318.581
316.993
316.572
317.336
315.848
319.813
317.908
323.079
322.541
321.915
321.029
324.358
324.348
324.189
323.859
324.683
324.943
325.082
324.141
324.75
325.302
325.903
325.375
323.746
323.269
323.814
324.375
323.216
321.532
321.135
322.462
323.107
322.949
322.238
318.546
318.674
320.711
320.354
318.265
302.59
311.167
319.485
320.142
300.861
300.918
301.003
301.089
301.159
301.229
301.303
301.438
301.93
303.361
305.731
308.14
309.866
310.156
309.434
308.183
306.6
304.973
303.472
302.439
302.471
305.16
308.683
309.664
308.538
305.381
303.608
304.023
306.201
310.121
318.959
315.633
321.531
320.762
321.733
321.745
321.723
321.939
321.084
321.416
319.879
320.449
317.469
318.262
316.59
316.848
314.716
314.22
315.789
313.874
320.098
318.918
317.803
316.515
323.359
322.695
321.876
320.871
325.043
324.816
324.449
323.948
325.615
325.708
325.555
325.117
325.871
326.221
326.751
326.48
324.551
323.816
324.646
325.435
323.742
321.978
321.698
322.747
323.59
323.366
322.517
320.259
320.594
321.448
321.322
317.338
303.025
311.026
321.106
320.4
300.96
301.034
301.111
301.174
301.236
301.305
301.421
301.884
303.345
305.89
308.641
310.744
311.116
310.363
308.939
307.168
305.37
303.861
302.937
302.937
305.299
308.458
309.274
307.938
304.423
302.319
301.81
302.27
303.668
309.405
305.381
317.118
313.412
321.162
319.656
321.963
321.794
321.732
321.809
320.98
321.428
319.083
319.846
315.708
316.73
314.31
314.8
312.558
311.856
314.71
313.082
319.737
318.504
317.285
316.117
323.298
322.478
321.491
320.358
325.249
324.811
324.245
323.556
326.205
325.932
325.478
326.319
327.007
326.621
327.014
327.246
325.664
324.645
325.784
326.7
324.538
322.279
322.059
323.087
324.316
323.979
322.791
321.441
321.765
321.913
321.912
316.783
303.117
311.182
321.753
320.231
301.063
301.127
301.188
301.244
301.306
301.4
301.773
303.193
305.874
308.878
311.363
311.93
311.197
309.599
307.552
305.655
304.299
303.434
303.501
305.682
308.356
309.002
307.689
304.385
302.069
301.257
301.14
301.38
301.724
306.706
303.468
314.577
310.63
319.887
317.716
321.681
321.155
321.138
321.065
320.489
320.946
317.73
318.596
313.026
314.116
311.661
312.109
311.869
311.033
315.047
314.345
313.288
313.844
319.144
317.928
316.794
315.845
322.734
321.768
320.682
319.533
324.869
324.176
323.413
322.565
326.192
325.499
324.66
327.483
327.713
326.378
326.558
327.399
326.976
325.777
327.129
327.903
325.621
322.512
322.285
323.565
325.306
324.824
323.135
322.101
322.296
322.171
322.219
316.562
305.119
311.554
321.918
320.04
301.138
301.202
301.253
301.308
301.383
301.661
302.864
305.661
308.883
311.692
312.59
311.969
310.247
308.016
306.205
304.916
304.083
304.216
306.213
308.353
308.827
307.603
304.576
302.126
301.191
300.927
300.893
300.904
301.211
300.83
304.143
302.061
311.332
307.439
317.631
314.893
320.628
319.524
319.641
319.311
319.253
319.621
315.217
316.14
309.6
310.365
310.259
309.727
312.856
312.287
311.883
315.57
315.282
314.797
315.055
318.407
317.406
316.608
315.989
321.628
320.621
319.601
318.646
323.78
322.89
321.993
321.09
325.407
324.301
323.177
328.174
327.822
325.336
325.415
326.844
328.241
327.13
328.47
328.597
326.939
322.738
322.432
324.232
326.531
325.896
323.606
322.415
322.475
322.281
322.317
316.03
301.444
307.629
321.887
319.66
301.21
301.264
301.311
301.372
301.562
302.503
305.108
308.686
311.729
313.063
312.666
311.007
308.756
307.077
305.789
304.989
305.299
307.094
308.412
308.721
307.559
304.863
302.324
301.225
300.913
300.829
300.785
300.734
300.83
300.733
302.093
301.151
307.444
304.179
314.262
311.078
318.364
316.688
316.819
316.086
316.762
316.998
311.343
312.202
307.922
307.164
310.382
309.067
314.432
313.843
315.935
314.815
316.991
317.162
317.279
317.273
317.88
317.325
317.012
316.928
320.198
319.358
318.667
318.209
322.111
321.144
320.287
319.544
323.953
322.563
321.296
328.335
327.268
323.786
323.931
325.718
329.02
328.544
329.392
328.883
328.376
323.02
322.565
325.102
327.906
327.154
324.23
322.51
322.48
322.318
322.298
314.109
300.591
304.447
321.735
318.788
301.273
301.319
301.366
301.491
302.154
304.424
308.063
311.576
313.296
313.232
311.851
309.699
308.179
306.919
306.281
306.775
307.85
308.484
308.633
307.473
304.97
302.443
301.28
300.932
300.833
300.784
300.74
300.701
300.709
300.716
300.7
301.058
300.79
303.629
301.844
309.678
306.477
314.642
312.495
312.37
311.266
312.705
312.819
306.938
307.228
307.954
306.162
313.619
312.102
310.643
317.101
316.656
319.206
318.008
319.415
319.999
320.56
320.422
317.976
318.022
318.342
318.834
318.953
318.567
318.46
318.572
320.247
319.438
318.874
318.546
322.155
320.703
319.559
327.888
326.285
322.131
322.556
324.425
329.428
329.681
329.969
328.67
329.733
323.402
322.725
326.141
329.353
328.495
325
322.47
322.406
322.313
322.206
311.404
300.145
301.962
321.42
317.513
301.328
301.367
301.445
301.878
303.673
307.173
310.996
313.295
313.604
312.613
310.682
309.265
308.151
307.744
307.949
308.299
308.599
308.486
307.268
304.891
302.436
301.292
300.953
300.858
300.805
300.763
300.721
300.69
300.696
300.682
300.683
300.736
300.691
301.393
300.899
304.655
302.589
309.478
307.148
306.736
305.561
307.45
307.372
304.92
303.945
311.423
309.342
307.403
316.462
314.621
313.401
315.743
320.493
320.034
322.724
321.39
322.701
323.564
324.326
324.148
319.049
319.795
320.705
321.705
318.519
318.685
319.241
320.106
318.785
318.361
318.311
318.469
320.529
319.292
318.493
327.122
325.295
320.888
321.779
323.438
329.511
330.429
330.373
328.231
330.754
323.871
322.92
327.277
330.675
329.793
325.828
322.352
322.262
322.287
322.082
308.261
300.038
300.649
321.041
315.914
301.374
301.422
301.673
302.984
306.125
309.99
313.062
313.737
313.228
311.579
310.189
309.231
308.697
308.546
308.626
308.554
308.162
306.807
304.539
302.285
301.278
300.97
300.886
300.836
300.787
300.743
300.698
300.709
300.679
300.686
300.665
300.671
300.667
300.664
300.757
300.686
301.526
300.975
304.052
302.587
302.362
301.774
303.388
302.902
304.885
303.286
313.568
311.237
311.264
309.107
319.719
317.799
315.948
318.315
324.224
323.677
325.845
324.393
326.385
327.337
327.986
327.875
321.227
322.514
323.864
325.185
319.042
319.968
321.149
322.568
318.211
318.252
318.692
319.501
319.572
318.718
318.429
326.533
324.819
320.455
321.993
323.273
329.488
331.013
330.76
328.092
331.594
324.382
323.125
328.353
331.735
330.865
326.613
322.18
322.098
322.248
321.928
304.775
300.024
300.356
320.598
313.686
301.416
301.554
302.385
305.059
308.784
312.313
313.687
313.59
312.309
310.953
309.991
309.373
308.967
308.63
308.301
307.499
305.877
303.66
301.976
301.221
300.988
300.913
300.867
300.821
300.769
300.721
300.685
300.691
300.665
300.673
300.652
300.658
300.643
300.646
300.651
300.643
300.755
300.678
301.265
300.93
301.191
300.94
302.283
301.607
307.559
306.005
304.639
315.767
313.427
312.837
310.696
322.619
320.573
318.173
320.494
327.708
326.974
327.927
326.291
329.83
330.67
330.935
330.995
324.126
325.724
327.265
328.66
320.67
322.114
323.737
325.412
318.486
319
319.996
321.416
319.531
319.057
319.026
326.577
325.199
320.985
323.119
324.022
329.722
331.687
331.442
328.52
332.326
324.829
323.278
329.205
332.411
331.57
327.159
322.004
321.921
322.206
321.779
303.391
300.015
300.209
320.037
312.165
301.482
301.989
303.954
307.551
311.046
313.37
313.648
312.814
311.498
310.459
309.621
308.945
308.383
307.652
306.318
304.448
302.714
301.648
301.156
301.004
300.942
300.897
300.854
300.807
300.75
300.695
300.671
300.684
300.651
300.661
300.634
300.642
300.619
300.625
300.622
300.619
300.65
300.629
300.782
300.694
301.171
300.884
302.85
301.767
308.77
307.059
305.036
306.566
317.369
315.097
314.086
312.014
324.53
322.617
319.505
321.46
330.349
329.317
328.464
326.696
332.588
333.142
332.902
333.218
327.119
328.786
330.304
331.597
323.046
324.762
326.608
328.46
319.482
320.532
322.094
323.994
320.355
320.272
320.521
327.389
326.526
322.563
325.514
325.861
330.602
332.363
332.155
329.76
332.825
325.098
323.347
329.696
332.826
331.978
327.413
321.862
321.737
322.154
321.712
302.777
300.01
300.13
319.658
311.786
301.681
303.125
306.127
309.775
312.329
313.506
313.03
311.839
310.626
309.562
308.677
307.712
306.364
304.66
303.131
302.042
301.4
301.128
301.022
300.972
300.929
300.886
300.844
300.792
300.725
300.672
300.671
300.693
300.66
300.638
300.648
300.618
300.628
300.599
300.608
300.594
300.595
300.612
300.596
300.729
300.649
301.287
300.896
303.666
302.127
310.006
308.174
305.847
307.418
318.008
316.094
314.582
312.809
324.98
323.265
319.817
321.465
331.834
330.319
328.168
326.077
335.001
335.15
334.072
334.944
330.241
331.874
333.259
334.32
325.97
327.896
329.871
331.737
321.521
323.149
325.114
327.33
322.457
322.658
323.543
329.093
328.79
325.48
328.807
328.724
331.604
332.803
332.481
331.009
333.096
325.175
323.339
329.95
333.01
332.23
327.576
321.76
321.666
322.125
321.677
302.396
300.012
300.145
319.625
311.926
302.26
305.036
308.192
311.13
312.742
313.006
311.978
310.612
309.335
308.015
306.495
304.798
303.435
302.38
301.671
301.296
301.127
301.053
301.006
300.962
300.917
300.873
300.833
300.77
300.706
300.663
300.668
300.682
300.648
300.625
300.637
300.602
300.614
300.582
300.591
300.57
300.574
300.584
300.571
300.709
300.624
301.446
300.93
305.185
303.775
302.59
310.992
309.161
306.634
308.192
317.903
316.301
314.452
312.941
324.408
322.944
319.312
320.506
332.503
330.426
327.194
324.497
336.878
336.769
334.672
336.056
333.409
334.837
335.938
336.655
329.47
331.416
333.301
334.949
325.037
326.891
329.095
331.273
325.792
326.658
328.087
330.842
330.665
329.321
330.942
330.709
332.131
332.999
332.652
331.722
333.19
325.238
323.354
330.296
332.98
332.299
327.795
321.749
321.673
322.141
321.71
302.636
300.082
300.478
319.806
312.94
303.464
307.11
309.581
311.594
312.599
311.951
310.529
308.846
307.058
305.231
303.879
302.822
302.106
301.616
301.313
301.155
301.078
301.031
300.987
300.943
300.898
300.856
300.819
300.744
300.694
300.651
300.657
300.673
300.639
300.613
300.625
300.589
300.601
300.568
300.578
300.552
300.559
300.569
300.554
300.704
300.608
301.72
300.992
305.716
304.404
302.623
303.724
311.361
309.773
307.056
308.436
317.032
315.833
313.604
312.458
322.713
321.541
317.999
318.742
332.614
330.127
325.882
322.656
338.208
337.609
334.768
336.494
336.305
337.367
338.068
338.284
333.273
334.974
336.511
337.703
329.833
331.672
333.555
335.253
330.161
331.402
332.923
331.26
330.974
331.448
330.961
330.863
332.16
333.018
332.478
331.379
333.079
325.436
323.529
330.729
332.792
332.159
328.355
321.811
321.764
322.328
321.903
304.62
303.098
303.875
320.315
316.385
305.095
308.629
310.127
311.479
311.624
310.334
308.297
306.199
304.526
303.436
302.764
302.2
301.753
301.429
301.231
301.127
301.068
301.021
300.977
300.932
300.887
300.845
300.803
300.724
300.672
300.665
300.695
300.644
300.65
300.628
300.601
300.615
300.577
300.588
300.556
300.566
300.54
300.546
300.551
300.54
300.705
300.589
302.784
302.073
301.421
300.98
305.86
304.725
303.675
311.186
309.828
307.038
308.189
315.377
314.581
311.917
311.179
320.427
319.39
315.967
316.411
332.375
329.35
324.399
320.664
338.659
337.846
334.649
336.55
338.539
339.022
339.138
339.081
336.65
337.74
338.543
339.098
334.22
335.52
336.582
337.473
332.109
333.016
333.497
330.71
330.109
331.087
330.22
330.221
331.558
332.575
331.535
330.957
332.698
325.974
324.079
330.944
332.435
331.622
329.159
321.995
322.072
322.853
322.321
313.309
316.045
316.689
321.427
320.444
306.629
309.31
310.039
310.603
309.849
307.849
305.604
304.187
303.424
302.887
302.473
302.109
301.763
301.418
301.22
301.116
301.061
301.014
300.969
300.922
300.876
300.837
300.784
300.713
300.658
300.669
300.685
300.633
300.64
300.619
300.59
300.604
300.565
300.577
300.545
300.555
300.526
300.535
300.537
300.527
300.696
300.58
302.701
301.775
301.376
300.826
305.546
304.614
303.381
310.295
309.287
306.439
307.266
312.979
312.497
309.477
309.067
318.088
316.983
313.395
313.85
331.966
328.363
323.181
318.6
338.696
337.822
334.403
336.453
339.419
339.512
339.486
339.226
338.13
338.623
338.992
339.273
334.42
335.636
336.274
336.979
331.406
332.052
326.891
330.452
324.053
325.328
325.12
324.899
330.359
331.795
330.719
330.509
331.915
326.93
324.957
330.726
331.363
331.077
329.275
322.489
322.659
323.551
323.012
321.046
321.128
322.869
322.721
323.08
307.598
309.321
309.207
309.025
307.451
305.301
304.096
303.503
303.147
302.883
302.677
302.331
301.831
301.414
301.194
301.106
301.052
301.006
300.959
300.913
300.867
300.832
300.766
300.699
300.65
300.66
300.681
300.625
300.633
300.609
300.58
300.594
300.556
300.568
300.532
300.544
300.51
300.521
300.515
300.508
300.63
300.546
302.25
301.458
301.166
300.953
300.687
300.577
304.684
304.05
302.712
308.573
307.984
305.256
305.706
310.289
309.868
306.881
306.546
315.722
314.518
310.693
311.223
331.616
327.769
322.723
317.135
338.359
337.559
334.183
336.232
339.377
339.447
339.382
338.982
337.398
337.813
337.931
338.074
327.62
328.392
328.619
328.863
325.72
327.189
320.135
323.942
317.849
318.897
318.555
318.156
323.923
330.824
323.982
324.561
330.753
327.587
325.666
330.058
330.683
329.685
328.706
323.053
323.34
324.356
323.604
324.228
399.214
326.926
323.763
324.576
307.878
308.521
307.962
306.963
305.155
304.109
303.671
303.44
303.359
303.275
302.949
302.409
301.834
301.347
301.164
301.095
301.044
300.996
300.949
300.903
300.859
300.824
300.745
300.693
300.672
300.643
300.655
300.616
300.625
300.6
300.572
300.586
300.545
300.558
300.519
300.532
300.494
300.506
300.486
300.485
300.524
300.494
301.717
301.092
300.783
300.634
300.561
303.469
303.111
301.97
306.245
306.011
303.803
304.117
307.646
307.234
305.339
305.01
313.317
311.994
308.041
308.633
331.447
327.495
322.777
316.788
337.904
337.128
334.066
336.033
338.132
338.332
338.788
338.356
328.904
328.99
328.92
328.92
320.454
320.913
321.029
321.126
319.211
319.915
311.425
317.653
310.21
310.781
310.606
310.392
317.428
324.015
317.417
317.588
324.204
327.306
326.081
328.654
324.326
324.188
327.651
323.606
323.979
324.755
324.082
325.827
689.334
338.028
324.657
325.416
307.464
307.243
306.368
305.013
304.13
303.819
303.72
303.81
303.825
303.57
303.052
302.42
301.686
301.27
301.147
301.085
301.035
300.987
300.94
300.894
300.853
300.812
300.734
300.685
300.667
300.66
300.636
300.648
300.608
300.618
300.592
300.561
300.576
300.533
300.547
300.506
300.52
300.475
300.491
300.457
300.463
300.488
300.461
301.336
300.982
300.771
300.647
300.548
302.832
302.325
301.707
304.706
304.421
303.357
303.855
305.968
305.651
305.314
304.984
311.628
309.518
306.297
307.033
331.6
327.53
324.004
317.411
337.089
336.319
334.059
335.993
329.048
336.275
337.587
337.213
321.127
321.184
321.14
321.146
311.57