/*--------------------------------*- C++ -*----------------------------------*\
  =========                 |
  \\      /  F ield         | OpenFOAM: The Open Source CFD Toolbox
   \\    /   O peration     | Website:  https://openfoam.org
    \\  /    A nd           | Version:  dev
     \\/     M anipulation  |
\*---------------------------------------------------------------------------*/
FoamFile
{
    version     2.0;
    format      ascii;
    class       volVectorField;
    location    "2500";
    object      U;
}
// * * * * * * * * * * * * * * * * * * * * * * * * * * * * * * * * * * * * * //

dimensions      [0 1 -1 0 0 0 0];

internalField   nonuniform List<vector> 
9836
(
(0.00486551 0.00744523 0)
(0.0117599 0.0066625 8.61197e-28)
(0.00486047 0.0197598 4.53282e-28)
(0.0165594 0.00553964 -9.58537e-34)
(0.0129555 0.0200868 9.83295e-28)
(0.00421858 0.02865 -2.57847e-28)
(0.0204481 0.00465399 -1.95261e-27)
(0.0184197 0.0195698 0)
(0.0124516 0.0297353 -9.28109e-28)
(0.00354969 0.03618 0)
(0.0235544 0.00392234 -1.8659e-27)
(0.0222204 0.0177661 0)
(0.019077 0.0305941 0)
(0.0110475 0.0372148 0)
(0.00314094 0.0428797 -1.03807e-28)
(0.0262041 0.00332424 -9.1822e-28)
(0.0250335 0.0153721 0)
(0.0241101 0.0303279 1.57325e-27)
(0.0181922 0.0387659 1.14183e-27)
(0.00968473 0.0436353 5.15119e-28)
(0.00285284 0.0489508 -4.58723e-29)
(0.0286473 0.00287989 0)
(0.0273706 0.0130676 0)
(0.0276928 0.0288323 3.58463e-27)
(0.0242915 0.0399057 -7.982e-29)
(0.0164694 0.0450783 1.80546e-27)
(0.00876699 0.0495117 -4.66051e-28)
(0.0026455 0.0545391 -7.22951e-29)
(0.030967 0.00255261 0)
(0.0295327 0.0111659 0)
(0.0301733 0.0264215 1.84185e-27)
(0.0291305 0.0400412 -3.73916e-27)
(0.0230351 0.0468976 -7.24511e-33)
(0.0148242 0.0506301 -1.04225e-28)
(0.00808591 0.0549835 -1.13176e-28)
(0.00246585 0.0598674 -2.24053e-28)
(0.033226 0.00231154 0)
(0.0316275 0.00975734 -9.70155e-30)
(0.0319609 0.0235081 -9.22948e-28)
(0.0326699 0.0389371 -2.0649e-27)
(0.0288481 0.0483663 -1.77937e-27)
(0.02105 0.0523571 0)
(0.0135883 0.0558569 5.79712e-28)
(0.00750933 0.0602702 1.03155e-28)
(0.00230668 0.0648053 2.94465e-28)
(0.0354264 0.00213015 0)
(0.0337212 0.00880397 7.40218e-28)
(0.0335507 0.020579 -1.02537e-27)
(0.0350646 0.0367868 0)
(0.0335991 0.0488948 0)
(0.0272362 0.0544067 -1.59021e-27)
(0.0192238 0.057226 9.60279e-28)
(0.0125985 0.0609847 2.21865e-28)
(0.00701757 0.0651607 1.78286e-29)
(0.00216862 0.0695029 3.6916e-28)
(0.0375726 0.0019909 0)
(0.035827 0.0081302 -4.1153e-33)
(0.0351449 0.0180237 0)
(0.036683 0.0339147 4.34508e-29)
(0.0371766 0.0482379 0)
(0.032882 0.0561669 -1.91477e-27)
(0.0250424 0.0591661 2.71171e-27)
(0.0177423 0.0621108 -1.55837e-27)
(0.0117743 0.0657774 2.23954e-28)
(0.00657754 0.0698347 1.14171e-28)
(0.00203729 0.0739496 9.00248e-28)
(0.0396586 0.00188006 0)
(0.0379137 0.00758994 -7.32103e-28)
(0.0368192 0.0161108 0)
(0.0378652 0.0307069 1.43322e-28)
(0.0396507 0.0464126 1.50357e-28)
(0.0376059 0.0571279 -1.40992e-27)
(0.0309117 0.061447 1.73817e-27)
(0.0230194 0.0637069 -1.13132e-27)
(0.0165442 0.0667082 -6.00337e-28)
(0.0110411 0.0703954 1.63719e-28)
(0.00617988 0.0742596 2.18044e-28)
(0.00191735 0.0781399 4.45739e-28)
(0.0416578 0.00178256 4.83559e-28)
(0.0399452 0.00712965 0)
(0.0386549 0.0148615 -6.83183e-30)
(0.038954 0.0275958 -1.16837e-27)
(0.0412572 0.0437391 1.56492e-28)
(0.0412823 0.0569565 -1.06002e-27)
(0.0364354 0.0635553 -3.37388e-28)
(0.0285292 0.0657587 0)
(0.0213844 0.0680477 -8.27263e-28)
(0.0155179 0.0712108 4.40921e-28)
(0.0103783 0.0747701 -4.47322e-28)
(0.0058117 0.0784355 0)
(0.00180517 0.0821312 6.20151e-28)
(0.04358 0.00169459 9.82693e-28)
(0.041929 0.00671552 4.90294e-30)
(0.0405533 0.0140394 9.42388e-28)
(0.0401914 0.02493 -1.19856e-27)
(0.0423124 0.0404698 0)
(0.0439165 0.055597 1.62654e-28)
(0.0412112 0.0649551 -3.12763e-28)
(0.0341694 0.0681421 3.56543e-28)
(0.026403 0.069835 0)
(0.0200158 0.0723452 8.34047e-28)
(0.0145897 0.0755026 -3.02951e-28)
(0.00976737 0.0789292 -1.37407e-38)
(0.00546141 0.082413 8.78825e-28)
(0.00169668 0.0859036 0)
(0.0454494 0.00162184 9.9525e-28)
(0.0438277 0.00634677 0)
(0.0424347 0.0134367 9.6088e-28)
(0.0416646 0.0228645 0)
(0.0431327 0.0369161 0)
(0.0456945 0.0532087 0)
(0.0450448 0.0653026 2.93143e-28)
(0.039601 0.0705072 4.67198e-28)
(0.0316461 0.0720571 -4.41153e-28)
(0.0246136 0.0738332 8.4667e-28)
(0.0188147 0.0765458 -1.16791e-27)
(0.0137297 0.0796099 0)
(0.00918631 0.0828869 2.45027e-28)
(0.00512836 0.0861758 -5.25096e-28)
(0.00159419 0.0894755 -7.98977e-28)
(0.0472464 0.00155371 1.00222e-27)
(0.0456665 0.00606009 0)
(0.0442973 0.0128811 9.84217e-28)
(0.0433289 0.0212947 1.16392e-27)
(0.0440346 0.0334998 0)
(0.0468496 0.050127 0)
(0.047928 0.0644625 0)
(0.0444499 0.0723444 1.40662e-27)
(0.0370556 0.0746272 -9.88892e-28)
(0.0293841 0.0757335 0)
(0.0230824 0.0778765 -8.60228e-28)
(0.0177015 0.0805922 0)
(0.0129207 0.0835185 -8.29281e-33)
(0.00862912 0.0866428 -3.02853e-28)
(0.00480952 0.0897314 -1.06815e-27)
(0.00149683 0.0928655 8.40333e-29)
(0.0489582 0.00148285 4.88738e-28)
(0.0474729 0.00581176 0)
(0.0461008 0.0122393 1.00426e-27)
(0.0451081 0.0200727 2.33199e-27)
(0.0451747 0.0306226 0)
(0.0475957 0.0466269 0)
(0.049926 0.0625402 1.49389e-27)
(0.0484696 0.0732593 1.09726e-27)
(0.0423806 0.0772526 -6.19682e-28)
(0.034387 0.0780929 -6.84723e-28)
(0.0274599 0.0795115 -5.82088e-28)
(0.0217035 0.0818346 1.86905e-28)
(0.0166537 0.0844358 -7.83175e-33)
(0.0121489 0.0872436 4.03796e-28)
(0.00809729 0.0901905 4.15525e-28)
(0.00450637 0.0931083 2.94666e-43)
(0.00139856 0.0960765 -7.79696e-28)
(0.0505784 0.00141467 5.08993e-28)
(0.0491983 0.00553657 7.63428e-28)
(0.0478453 0.0115849 1.03912e-27)
(0.0468811 0.0191569 2.42347e-27)
(0.0464854 0.0284066 -5.17723e-29)
(0.0482326 0.0429911 1.49889e-27)
(0.0512124 0.0597723 -5.692e-29)
(0.0515755 0.0730614 -1.50712e-27)
(0.0472802 0.0795129 1.03327e-27)
(0.039573 0.0808439 -6.31525e-28)
(0.0320116 0.0815404 -1.42454e-27)
(0.0257706 0.0833151 0)
(0.0204151 0.0856169 5.51602e-28)
(0.0156633 0.0881121 -3.43316e-28)
(0.0114045 0.0907635 3.92287e-28)
(0.00758211 0.0935672 -1.04888e-27)
(0.00420763 0.0963163 0)
(0.00130103 0.0990935 0)
(0.0520898 0.0013496 5.07055e-28)
(0.0508112 0.00525645 1.62789e-27)
(0.0495502 0.0110517 2.12446e-27)
(0.04858 0.0183665 1.26292e-27)
(0.0479476 0.0267594 1.40601e-27)
(0.048994 0.0394975 3.12161e-27)
(0.0520435 0.0564387 1.65298e-42)
(0.0538325 0.0717359 -1.68375e-27)
(0.0514696 0.0810055 1.53989e-27)
(0.0447622 0.0837477 2.89024e-28)
(0.036769 0.0840154 -2.28876e-32)
(0.0299523 0.085105 -1.27666e-34)
(0.024223 0.0870185 0)
(0.0191974 0.0892337 -3.91302e-28)
(0.0147069 0.0916065 -3.68035e-28)
(0.0106772 0.0941293 5.07995e-29)
(0.00707272 0.0967817 -7.72741e-28)
(0.00390645 0.0993245 -9.20318e-28)
(0.00120349 0.101941 -1.16644e-27)
(0.0534854 0.0012814 -5.81875e-29)
(0.0523196 0.00501714 1.61621e-27)
(0.0511447 0.0106109 1.10821e-27)
(0.0502079 0.0175253 1.32966e-27)
(0.0495721 0.0254633 1.45009e-27)
(0.0499771 0.0364049 1.72812e-27)
(0.0526535 0.0527943 3.36331e-27)
(0.0553787 0.0694295 5.60368e-29)
(0.0548416 0.0814724 0)
(0.0496698 0.0864209 -1.33526e-27)
(0.0417256 0.0869042 1.38801e-27)
(0.034288 0.0872735 3.01461e-28)
(0.0281074 0.0886656 7.00126e-28)
(0.0227682 0.0905669 3.1795e-28)
(0.0180294 0.0927092 3.4313e-28)
(0.0137709 0.0949454 -2.84191e-28)
(0.00996435 0.0973243 3.63661e-28)
(0.00657034 0.0997987 -1.09831e-27)
(0.00361168 0.102163 -1.01642e-27)
(0.00110467 0.104597 -1.25687e-27)
(0.0547417 0.00120702 4.85864e-28)
(0.0537383 0.00478849 1.57202e-27)
(0.0526499 0.010144 -9.52039e-29)
(0.0517654 0.0166593 2.8138e-27)
(0.0512409 0.0243219 1.54459e-27)
(0.0511445 0.0338507 1.70266e-27)
(0.0532481 0.0490565 1.91685e-27)
(0.0564117 0.0664142 1.78558e-27)
(0.0574135 0.0808292 1.76392e-27)
(0.0540476 0.0884891 -1.69364e-27)
(0.0467528 0.0900167 1.2767e-28)
(0.0388146 0.0898588 0)
(0.0321002 0.0906266 6.60003e-28)
(0.0263965 0.0921205 4.4578e-28)
(0.021382 0.093999 0)
(0.0168877 0.0960186 4.38778e-28)
(0.0128671 0.0980994 0)
(0.00926744 0.100339 5.59982e-28)
(0.00607218 0.102642 -7.01048e-28)
(0.00332225 0.104814 -2.2086e-27)
(0.00100419 0.107081 0)
(0.0558596 0.00113013 3.78634e-28)
(0.055022 0.00451468 8.58153e-28)
(0.0540697 0.00961503 -6.40125e-29)
(0.0532678 0.0158559 2.72164e-27)
(0.0528239 0.0231775 1.69555e-27)
(0.0525327 0.0319135 1.75335e-27)
(0.0539378 0.0454517 2.00872e-27)
(0.0571409 0.0629542 4.09385e-27)
(0.059277 0.0791474 3.80988e-27)
(0.0577113 0.0896577 1.74611e-27)
(0.0516515 0.0930733 -3.03109e-27)
(0.0435365 0.0928388 1.82766e-28)
(0.0362278 0.0929351 -2.57244e-28)
(0.0301034 0.0939496 5.42536e-28)
(0.024777 0.095481 0)
(0.0200413 0.0972763 0)
(0.0157849 0.0991377 0)
(0.011978 0.101103 -3.24324e-28)
(0.00857176 0.103188 0)
(0.00557528 0.105307 -3.14254e-27)
(0.00302267 0.107296 0)
(0.000899126 0.109375 0)
(0.0568157 0.00104934 0)
(0.0561496 0.00421027 6.46596e-28)
(0.0553673 0.00909766 1.1025e-27)
(0.0546903 0.0151201 1.46182e-27)
(0.0542624 0.0220022 5.13367e-29)
(0.0540748 0.0304091 1.75332e-27)
(0.0547854 0.0421902 2.02175e-27)
(0.0577002 0.0592704 4.22033e-27)
(0.0605633 0.0766268 4.18774e-27)
(0.0606065 0.0897911 1.91692e-27)
(0.0561621 0.0957063 -1.88151e-27)
(0.0483828 0.0961371 -1.31472e-27)
(0.040525 0.095621 5.67826e-29)
(0.0339007 0.0960737 2.39489e-28)
(0.0282275 0.0972151 -2.58994e-29)
(0.0232305 0.098706 0)
(0.0187336 0.100374 -7.81063e-29)
(0.014701 0.10214 -1.58989e-28)
(0.0110867 0.103942 -3.07606e-28)
(0.00787372 0.105859 -1.52084e-27)
(0.00507425 0.107807 -6.09068e-28)
(0.00270977 0.10959 -5.85602e-28)
(0.000788553 0.111473 0)
(0.0575885 0.000963468 -2.85437e-28)
(0.0571276 0.00390353 -1.27387e-28)
(0.0564955 0.00861365 1.10018e-27)
(0.0559955 0.0143741 -8.46439e-29)
(0.0556223 0.0208424 1.99119e-27)
(0.0555949 0.0290093 2.04432e-27)
(0.0558795 0.0394247 8.77725e-29)
(0.0582337 0.0554793 4.56974e-27)
(0.0614598 0.0735347 2.18548e-27)
(0.0627854 0.0888874 2.17779e-27)
(0.0600841 0.097615 1.9703e-27)
(0.0531974 0.0995189 4.82563e-42)
(0.0450038 0.0987163 1.13326e-27)
(0.0378159 0.0985242 0)
(0.0317397 0.0992109 1.06518e-27)
(0.026447 0.100369 -4.81155e-28)
(0.0217247 0.101786 -1.55556e-28)
(0.0174479 0.103369 0)
(0.0136185 0.104972 2.86241e-28)
(0.0101954 0.106607 -1.14674e-27)
(0.00716921 0.108375 0)
(0.00455691 0.110124 0)
(0.00238415 0.111693 -3.34659e-32)
(0.00067057 0.113365 0)
(0.0581521 0.000874879 3.902e-42)
(0.0579111 0.00360103 -8.36749e-28)
(0.0574554 0.00811929 -1.28322e-28)
(0.0571627 0.0135692 1.54878e-27)
(0.0569416 0.0197151 3.59415e-27)
(0.0569706 0.0275457 2.61282e-28)
(0.0572137 0.0371696 2.22623e-27)
(0.0588994 0.0517624 2.7238e-27)
(0.0621549 0.0700818 2.52942e-27)
(0.0643676 0.0870681 4.53402e-27)
(0.0632887 0.0986007 4.46965e-27)
(0.0577674 0.102687 1.87701e-27)
(0.0496337 0.102177 3.04944e-27)
(0.0418821 0.101337 1.51409e-42)
(0.0353321 0.10149 -7.71398e-28)
(0.0296989 0.10228 0)
(0.0247281 0.103415 4.9273e-28)
(0.0202411 0.104751 1.23655e-29)
(0.0161793 0.106198 0)
(0.0125364 0.107639 -1.18018e-28)
(0.0092951 0.109123 0)
(0.00644619 0.110728 -9.22799e-28)
(0.00401592 0.112248 0)
(0.00203693 0.113594 8.95215e-28)
(0.00054459 0.115037 0)
(0.0584867 0.000781936 -2.02829e-28)
(0.0584853 0.00329161 -6.3305e-28)
(0.0582506 0.00758365 -1.06966e-27)
(0.0581643 0.0126891 -2.63585e-35)
(0.0581475 0.0186179 1.86377e-27)
(0.0582397 0.026072 3.2969e-28)
(0.0585713 0.0352763 4.68229e-27)
(0.0597527 0.0483253 0)
(0.0627391 0.0664217 5.40812e-27)
(0.065524 0.0845421 2.61968e-27)
(0.0657996 0.0985991 4.6031e-27)
(0.061861 0.105322 1.0634e-28)
(0.054304 0.105844 3.47868e-27)
(0.0461107 0.104556 1.2924e-27)
(0.0390409 0.104086 -8.6906e-28)
(0.0330086 0.104444 -6.42375e-28)
(0.0277434 0.105267 0)
(0.023049 0.106341 4.55746e-28)
(0.0187851 0.107568 -9.45114e-28)
(0.014922 0.108881 1.13661e-28)
(0.0114484 0.110153 0)
(0.00838099 0.111491 -1.4865e-27)
(0.00569658 0.11289 0)
(0.00344083 0.114186 1.17916e-27)
(0.00166082 0.115278 3.60224e-28)
(0.000409517 0.116478 1.02962e-27)
(0.058596 0.000687002 -5.63912e-28)
(0.0588339 0.0029534 -1.78482e-27)
(0.0588559 0.00699708 -1.88117e-27)
(0.0589906 0.0117705 -2.53894e-27)
(0.0592007 0.0175436 -2.62859e-28)
(0.0594117 0.0246345 0)
(0.0598315 0.033507 5.23271e-27)
(0.0607636 0.045312 2.49218e-28)
(0.0633106 0.0626987 5.57708e-27)
(0.0664038 0.0815258 3.47405e-28)
(0.0677147 0.097652 5.16825e-27)
(0.065354 0.107184 0)
(0.05883 0.109472 3.86387e-27)
(0.0505018 0.108158 3.18982e-27)
(0.0428747 0.107038 0)
(0.0363996 0.106883 -7.86688e-28)
(0.0307972 0.107347 5.16468e-28)
(0.0258485 0.108145 6.38367e-29)
(0.0214035 0.109129 1.3564e-29)
(0.0173462 0.110253 -1.78287e-27)
(0.013653 0.111411 4.75454e-28)
(0.010348 0.112531 -3.12326e-28)
(0.00743307 0.113693 2.2293e-28)
(0.00490134 0.11489 2.04895e-27)
(0.00281743 0.115915 6.74704e-28)
(0.00123511 0.116747 0)
(0.00024829 0.117649 6.00615e-28)
(0.0584662 0.000590123 0)
(0.0589462 0.00260487 -2.47141e-27)
(0.0592388 0.00637407 -1.19046e-27)
(0.0596248 0.0108574 -2.05442e-27)
(0.0600683 0.0164383 -1.65025e-27)
(0.0604554 0.0232049 2.57989e-28)
(0.0610086 0.0317335 4.0048e-28)
(0.0618501 0.0426787 0)
(0.0639707 0.0590167 5.73939e-27)
(0.0671128 0.0782081 1.92764e-28)
(0.0691709 0.0958958 5.76189e-27)
(0.0682259 0.108144 0)
(0.0630212 0.112757 2.20393e-27)
(0.0549643 0.11206 1.78223e-27)
(0.046856 0.110378 5.95211e-29)
(0.039885 0.10965 9.62058e-28)
(0.0339001 0.109682 4.60207e-29)
(0.0286653 0.110164 -5.2399e-28)
(0.0240096 0.110901 3.42759e-28)
(0.0197831 0.111798 4.05401e-28)
(0.0159123 0.112803 -8.95236e-28)
(0.0123649 0.113811 4.47399e-28)
(0.00922053 0.114763 2.13719e-28)
(0.00643413 0.115748 1.87552e-27)
(0.00404243 0.116698 0)
(0.00211475 0.117447 4.89364e-28)
(0.000759729 0.117951 7.81656e-28)
(0.000101276 0.118585 0)
(0.0580899 0.000491849 5.73935e-28)
(0.0588213 0.00226558 -2.1958e-27)
(0.0593579 0.00572286 -2.29551e-27)
(0.0600296 0.00994539 6.93234e-28)
(0.0607213 0.0152733 -1.99157e-27)
(0.0613425 0.0217799 0)
(0.0620725 0.029918 -2.173e-27)
(0.0629775 0.0402919 -2.162e-27)
(0.0647593 0.0554926 6.44356e-27)
(0.0677511 0.074707 -4.48956e-28)
(0.0703065 0.0935291 3.02058e-27)
(0.0705074 0.108181 4.16123e-29)
(0.0667729 0.115448 2.50389e-27)
(0.0593798 0.116054 2.06854e-27)
(0.0509802 0.11412 0)
(0.0434825 0.112768 2.32092e-27)
(0.0370681 0.1123 1.6073e-36)
(0.0315089 0.112416 3.9085e-29)
(0.0266056 0.112865 1.39623e-28)
(0.0222076 0.113533 0)
(0.0181872 0.114341 3.63759e-28)
(0.0144654 0.115225 -1.68588e-29)
(0.0110688 0.116072 -4.1786e-28)
(0.00804651 0.116866 6.31092e-28)
(0.00536578 0.11765 0)
(0.00309519 0.118321 0)
(0.00132617 0.118737 8.93932e-28)
(0.000198045 0.118907 5.34279e-29)
(-0.000178458 0.119132 0)
(0.0574642 0.000397671 -6.2334e-28)
(0.0584366 0.0019371 -6.48731e-28)
(0.0592103 0.00505837 -1.62021e-27)
(0.0601669 0.00904503 3.06755e-27)
(0.061131 0.0140721 5.25077e-27)
(0.0620339 0.0203459 -1.03673e-26)
(0.0629708 0.028049 0)
(0.0640612 0.038032 -8.73099e-27)
(0.0656563 0.0521917 3.65606e-28)
(0.0684021 0.071125 5.46243e-28)
(0.0712084 0.0907179 -1.56979e-28)
(0.0722887 0.107369 0)
(0.0699895 0.117384 5.65284e-27)
(0.0636177 0.119896 2.39799e-27)
(0.0552136 0.118197 0)
(0.0472085 0.116265 2.7978e-27)
(0.0403207 0.115242 1.9089e-27)
(0.0343937 0.114921 0)
(0.0292105 0.115041 3.42875e-28)
(0.0246053 0.115452 -1.31381e-28)
(0.0204405 0.116051 3.72563e-28)
(0.0165975 0.116773 -4.13987e-28)
(0.0130036 0.117521 -1.97061e-29)
(0.00972685 0.11824 -3.80229e-28)
(0.00678753 0.118853 3.16636e-28)
(0.0041954 0.119378 -4.98051e-28)
(0.00202475 0.119755 -1.65088e-28)
(0.000442682 0.119741 1.71439e-28)
(-0.000392046 0.119509 -2.13266e-27)
(-0.000399208 0.119109 -1.55959e-26)
(0.0566101 0.00030983 0)
(0.0577996 0.00161407 -2.45166e-28)
(0.0588038 0.00441301 0)
(0.0600264 0.00814489 5.88249e-27)
(0.0612796 0.0128213 1.35139e-26)
(0.0625119 0.0188331 -1.8319e-27)
(0.0636977 0.02613 1.13373e-26)
(0.0650158 0.0358158 -1.79959e-26)
(0.0665807 0.0491341 -3.01398e-27)
(0.0690875 0.0675443 -6.81026e-28)
(0.071979 0.087613 7.38581e-27)
(0.0737312 0.105853 -3.45403e-27)
(0.0726407 0.11844 3.03982e-27)
(0.0675447 0.123352 -3.01527e-28)
(0.0594861 0.122486 2.23135e-27)
(0.0510668 0.120141 3.33893e-27)
(0.0436853 0.118521 1.15629e-27)
(0.0373322 0.117729 7.40659e-28)
(0.0318265 0.117462 -5.83956e-30)
(0.0269908 0.117574 2.07882e-28)
(0.0226552 0.117933 -1.44907e-28)
(0.0187049 0.118465 7.09069e-28)
(0.0149985 0.119089 -4.20066e-28)
(0.0115214 0.119744 -2.04396e-29)
(0.00831875 0.120315 8.95255e-28)
(0.00542856 0.120698 5.25056e-28)
(0.00287134 0.120937 -2.23593e-28)
(0.000840474 0.120902 1.90209e-28)
(-0.000489857 0.120373 -1.21755e-27)
(-0.00114366 0.119598 -1.26818e-26)
(-0.000689398 0.118685 0)
(0.0555486 0.000231609 0)
(0.0569198 0.00130721 -1.87063e-27)
(0.0581418 0.00382373 1.82501e-31)
(0.0596025 0.00723126 5.51339e-27)
(0.0611324 0.0115511 7.50763e-27)
(0.0627087 0.0172456 -6.41936e-27)
(0.0642342 0.0241888 1.14851e-26)
(0.0657952 0.0335835 -1.32374e-26)
(0.067459 0.0462808 -1.34688e-26)
(0.0697909 0.0640451 0)
(0.0726899 0.0843537 7.26119e-27)
(0.074896 0.103761 -3.80315e-27)
(0.0747926 0.118663 -6.96998e-27)
(0.0710592 0.126185 2.77066e-27)
(0.0636947 0.126775 1.58938e-27)
(0.0550955 0.12436 1.99797e-27)
(0.0471688 0.12217 0)
(0.0403558 0.120844 8.99671e-28)
(0.0344716 0.120165 5.2143e-28)
(0.0293561 0.1199 2.30264e-28)
(0.0248478 0.119976 1.00195e-28)
(0.0207929 0.120288 1.15885e-28)
(0.0170156 0.120773 4.10922e-28)
(0.0134073 0.121327 -1.20556e-28)
(0.00998192 0.12189 0)
(0.00679754 0.122296 5.88487e-28)
(0.0039137 0.122428 6.99294e-29)
(0.00137637 0.122276 9.64374e-29)
(-0.000476175 0.121768 -3.19066e-28)
(-0.00172423 0.120767 -1.15981e-27)
(-0.00204587 0.119278 6.00108e-27)
(-0.00105516 0.117681 7.61082e-27)
(0.0543027 0.000167277 -1.15194e-26)
(0.0558213 0.00104062 1.3257e-26)
(0.0572337 0.00327488 0)
(0.058899 0.0063231 7.22444e-27)
(0.0606907 0.0103109 -5.32557e-27)
(0.0625622 0.0156244 -4.3429e-27)
(0.0644751 0.0222556 1.14581e-26)
(0.0663177 0.0313548 -1.72381e-26)
(0.068197 0.0435829 -3.34929e-26)
(0.0704708 0.0606689 0)
(0.0733465 0.0810247 -1.4548e-27)
(0.0758205 0.10123 -6.15973e-28)
(0.0765801 0.118125 -7.92985e-27)
(0.0740745 0.128238 4.45622e-27)
(0.0677435 0.130845 0)
(0.0592202 0.128857 4.04806e-27)
(0.0508224 0.126175 0)
(0.0434852 0.124336 0)
(0.0371682 0.123157 1.26914e-27)
(0.0317313 0.122483 0)
(0.0270016 0.122201 7.08072e-29)
(0.0228079 0.122238 1.37049e-28)
(0.0189756 0.122556 3.94675e-28)
(0.0153256 0.123018 -1.54926e-28)
(0.0117896 0.123551 0)
(0.00836942 0.123996 -1.33185e-27)
(0.00514599 0.124152 3.73909e-29)
(0.00218929 0.123985 -1.99637e-28)
(-0.000320283 0.123453 -1.86144e-28)
(-0.00212871 0.122351 -1.51141e-27)
(-0.00323123 0.120628 4.7917e-30)
(-0.00301068 0.11837 -5.46183e-27)
(-0.00144099 0.115975 0)
(0.0528867 0.000116799 -1.18064e-26)
(0.0545315 0.000819095 -1.10348e-26)
(0.0560909 0.00274523 1.82116e-26)
(0.0579455 0.00545278 5.79182e-27)
(0.059959 0.00911887 0)
(0.0620953 0.0140066 -5.58084e-27)
(0.0643527 0.0203414 2.14736e-26)
(0.0665174 0.0291596 -9.11099e-27)
(0.0686606 0.0410187 -1.94022e-26)
(0.0710303 0.0574591 -2.83041e-27)
(0.0739206 0.0776706 -3.62893e-26)
(0.0765907 0.0984227 -9.81594e-28)
(0.0780678 0.116929 3.52831e-26)
(0.0766135 0.12947 1.62728e-26)
(0.0715221 0.13446 7.67029e-28)
(0.0633792 0.133418 -5.7165e-27)
(0.0546591 0.1306 0)
(0.0467438 0.128174 -8.71654e-28)
(0.0399323 0.126526 1.58601e-27)
(0.0340798 0.125377 0)
(0.0290761 0.124684 5.90104e-29)
(0.0247442 0.124375 2.60398e-28)
(0.0208862 0.124439 -3.00159e-28)
(0.0172558 0.124747 1.50109e-28)
(0.0136804 0.12521 0)
(0.010114 0.125761 5.05454e-29)
(0.00661993 0.126077 -1.13427e-27)
(0.00326731 0.125963 0)
(0.000184455 0.125466 0)
(-0.0023722 0.124382 -2.76668e-28)
(-0.00412754 0.122528 -2.77415e-27)
(-0.00498501 0.119964 -6.58638e-27)
(-0.00415462 0.116777 1.00659e-26)
(-0.000881043 0.114076 -1.09766e-27)
(-0.00268513 0.114067 0)
(0.0513403 8.51784e-05 1.141e-29)
(0.0530662 0.000663382 -1.23424e-26)
(0.0547161 0.00228907 2.03996e-27)
(0.0567193 0.0046803 2.78142e-31)
(0.0589242 0.00799781 -1.26591e-34)
(0.0613048 0.0124429 0)
(0.0638462 0.0184732 9.76632e-27)
(0.0663555 0.0270136 1.58859e-26)
(0.0687809 0.0385915 0)
(0.071339 0.0544225 -3.61241e-26)
(0.0743299 0.0743559 -8.25815e-26)
(0.0772191 0.0954377 0)
(0.07924 0.115131 -7.6818e-31)
(0.0787927 0.129939 1.83742e-26)
(0.0748833 0.13738 3.27941e-26)
(0.0675329 0.137977 -3.8625e-26)
(0.0586426 0.135273 -2.50187e-27)
(0.0501939 0.132441 6.94886e-27)
(0.0427888 0.130257 3.54776e-30)
(0.0364792 0.128636 6.82581e-28)
(0.0311433 0.12745 -2.73773e-28)
(0.0266148 0.126682 -1.13685e-28)
(0.0226759 0.126389 -7.0161e-29)
(0.0190713 0.126553 -3.45031e-43)
(0.0155814 0.126984 -2.24877e-28)
(0.0119775 0.127516 2.43741e-28)
(0.00830854 0.128027 4.58679e-29)
(0.0046188 0.128163 0)
(0.00107875 0.127762 8.21689e-30)
(-0.00216457 0.126776 4.22777e-33)
(-0.00481106 0.124955 5.15791e-28)
(-0.00648084 0.122292 -9.24462e-28)
(-0.00699747 0.118682 8.20808e-27)
(-0.0043793 0.114619 1.20297e-28)
(-0.00609245 0.115483 2.16845e-27)
(-0.001036 0.112489 -1.21835e-27)
(-0.00302055 0.112602 0)
(0.049714 6.53148e-05 5.18069e-29)
(0.0514759 0.000572344 0)
(0.0531638 0.0019326 1.42549e-27)
(0.0552394 0.00404641 1.61492e-26)
(0.0575867 0.00695122 -1.86417e-27)
(0.0601525 0.0110036 3.38207e-27)
(0.0629438 0.0167088 1.99975e-26)
(0.0657615 0.0249551 1.3619e-26)
(0.0685166 0.0363059 6.89206e-33)
(0.0713015 0.0515889 -1.7906e-30)
(0.074468 0.0711234 -4.07224e-26)
(0.0776391 0.0923523 -4.31877e-27)
(0.0801236 0.112859 -8.5882e-26)
(0.0806644 0.129716 -9.53172e-28)
(0.0778213 0.139504 7.86502e-26)
(0.0715278 0.142182 3.02885e-30)
(0.0628405 0.140174 3.05997e-27)
(0.0538919 0.137031 -1.19401e-26)
(0.045893 0.134377 -1.04434e-26)
(0.0389884 0.13225 0)
(0.0331489 0.130567 6.73995e-28)
(0.028294 0.129333 -4.26047e-28)
(0.0242601 0.128621 -1.08141e-28)
(0.0207321 0.128404 0)
(0.0173703 0.128641 4.09809e-28)
(0.0139409 0.129284 -9.09646e-28)
(0.0102164 0.129956 2.77649e-28)
(0.00632607 0.130381 4.16727e-29)
(0.00230479 0.130263 -3.07819e-29)
(-0.00144947 0.129503 -1.80041e-29)
(-0.00493156 0.127778 0)
(-0.00767604 0.125111 -3.335e-28)
(-0.00814739 0.120618 -9.38331e-28)
(-0.00913043 0.122247 1.01143e-27)
(-0.00777669 0.116476 0)
(-0.00916855 0.120417 0)
(-0.00938857 0.117774 6.7876e-27)
(-0.00508105 0.113245 -1.35792e-27)
(-0.00700421 0.11413 1.11514e-27)
(-0.00111862 0.110735 -1.61213e-27)
(-0.00342184 0.110907 -1.12976e-27)
(0.0480589 6.33014e-05 3.71604e-29)
(0.0498063 0.000526992 1.17695e-29)
(0.0514965 0.0016511 -1.23848e-26)
(0.0535859 0.00358158 2.0777e-27)
(0.0559596 0.00600853 2.18497e-26)
(0.0586772 0.00975214 -3.61698e-27)
(0.0616371 0.01509 -1.80793e-27)
(0.0646994 0.0230495 2.42485e-26)
(0.0677721 0.0341881 0)
(0.0708383 0.0489679 3.70638e-26)
(0.0742296 0.0680237 -8.6e-27)
(0.0777537 0.0892303 0)
(0.0807074 0.110259 -4.67023e-26)
(0.0821442 0.128723 -4.59519e-26)
(0.0804652 0.140865 -2.96654e-27)
(0.0752468 0.145739 4.8753e-26)
(0.067185 0.145017 -7.14498e-27)
(0.0579144 0.141953 -2.2318e-26)
(0.0491869 0.138938 2.75834e-29)
(0.0415668 0.136413 0)
(0.0351331 0.134255 6.53905e-28)
(0.029879 0.132388 -1.42161e-27)
(0.0256392 0.130964 0)
(0.0221849 0.130286 -1.36025e-27)
(0.0190762 0.130374 0)
(0.0158606 0.130862 0)
(0.012299 0.131764 -1.17475e-27)
(0.00832273 0.132548 4.38353e-28)
(0.00401255 0.13287 -3.70065e-29)
(-0.000360554 0.132434 0)
(-0.0044904 0.131076 -3.25721e-28)
(-0.00828095 0.128446 1.08599e-28)
(-0.00985145 0.123786 -8.8257e-30)
(-0.0105907 0.125732 -4.90057e-28)
(-0.0103982 0.121946 2.3062e-27)
(-0.00899766 0.115244 -1.38231e-29)
(-0.0109543 0.119324 1.50857e-27)
(-0.0108125 0.116638 3.82482e-27)
(-0.00577112 0.111631 -1.40436e-27)
(-0.00801221 0.112556 -1.31162e-27)
(-0.00126128 0.108682 0)
(-0.00388753 0.108897 0)
(0.0463922 8.30179e-05 -4.39235e-29)
(0.0480917 0.000525286 -1.37348e-28)
(0.0497512 0.00147422 -6.28177e-31)
(0.0517866 0.00331585 -3.04775e-31)
(0.0540815 0.00527635 5.50629e-27)
(0.0568931 0.00869707 0)
(0.0599359 0.0136839 -3.89555e-27)
(0.0631681 0.0213825 -9.65771e-28)
(0.0664753 0.0322951 0)
(0.0698566 0.0465991 0)
(0.0735141 0.0650851 5.36908e-27)
(0.0774337 0.0861044 -5.54329e-26)
(0.0809188 0.107422 0)
(0.0832091 0.127059 -5.31994e-26)
(0.0828053 0.141382 5.27363e-30)
(0.0787645 0.148494 4.42075e-26)
(0.0714605 0.149546 7.89938e-27)
(0.0622094 0.147125 1.88349e-26)
(0.0528254 0.143973 1.83743e-26)
(0.0444506 0.141074 1.75519e-26)
(0.0372945 0.138294 -4.90488e-27)
(0.0314461 0.135763 -1.80255e-27)
(0.026879 0.133792 6.44562e-27)
(0.0233508 0.132458 -4.37715e-27)
(0.0204116 0.131911 -2.30206e-27)
(0.0176553 0.132322 -9.26955e-28)
(0.0144517 0.133315 5.33596e-29)
(0.0106582 0.134549 -7.33843e-28)
(0.00611547 0.135474 4.68497e-28)
(0.0011834 0.135579 -1.00608e-28)
(-0.00358537 0.134663 3.85424e-29)
(-0.0082478 0.132328 -5.5477e-28)
(-0.0110181 0.127512 3.29737e-29)
(-0.011401 0.129701 7.10383e-29)
(-0.0114345 0.123691 -1.89373e-27)
(-0.0123188 0.125637 0)
(-0.0123249 0.121065 1.2213e-27)
(-0.0102842 0.113774 -2.41388e-27)
(-0.0125654 0.11832 1.65074e-27)
(-0.0123801 0.115287 4.57699e-27)
(-0.00656463 0.109706 0)
(-0.00913633 0.110676 3.02117e-29)
(-0.00141275 0.106295 2.65595e-27)
(-0.00438243 0.106544 9.23427e-27)
(0.0447345 0.000118854 -9.90347e-27)
(0.046367 0.000576162 -1.10781e-26)
(0.0479586 0.00144931 -1.18496e-26)
(0.0499042 0.00320022 1.29765e-26)
(0.0520866 0.00476191 3.18767e-26)
(0.0548048 0.00780874 0)
(0.0578819 0.012605 0)
(0.0611529 0.0200643 2.09657e-27)
(0.0646003 0.0307197 1.02507e-27)
(0.06826 0.0445558 -3.79027e-27)
(0.072216 0.0623807 2.44028e-26)
(0.0765598 0.0830132 -5.37736e-26)
(0.0806427 0.104391 0)
(0.0838154 0.124822 3.15247e-27)
(0.084675 0.140935 5.62385e-26)
(0.082125 0.150412 -9.19027e-31)
(0.0757381 0.153505 8.92743e-26)
(0.0668342 0.152206 3.53479e-26)
(0.0570539 0.149186 0)
(0.0477861 0.146064 1.32088e-26)
(0.0396515 0.143031 1.49989e-26)
(0.0329689 0.140006 3.99002e-27)
(0.0278049 0.137067 1.0755e-26)
(0.0240519 0.13476 -1.3515e-26)
(0.0213812 0.133642 -8.39583e-27)
(0.0191195 0.1336 -2.22762e-27)
(0.0164873 0.134641 -2.27503e-27)
(0.0130419 0.136267 -6.49573e-28)
(0.00870892 0.137862 0)
(0.00334526 0.138814 4.84769e-28)
(-0.00223164 0.138516 3.56913e-35)
(-0.00757582 0.136715 -3.90784e-28)
(-0.0115267 0.131732 2.48294e-28)
(-0.0115404 0.134195 -7.71753e-29)
(-0.0129563 0.127682 0)
(-0.0134832 0.129936 0)
(-0.0135017 0.123036 -1.95617e-27)
(-0.0145133 0.125196 5.99061e-28)
(-0.0141715 0.120229 -1.67159e-28)
(-0.0117378 0.112001 -2.5312e-27)
(-0.0144344 0.117143 4.21758e-28)
(-0.0141179 0.113646 5.48058e-27)
(-0.00740978 0.107426 0)
(-0.0103503 0.10847 1.66222e-27)
(-0.00157452 0.103588 1.12164e-27)
(-0.00490649 0.103871 8.84326e-27)
(0.0431597 0.000169989 4.55058e-29)
(0.0446563 0.000681889 -1.02393e-26)
(0.0461323 0.00160837 -1.12329e-26)
(0.0479596 0.0031804 -1.25973e-26)
(0.0500367 0.00445552 2.84312e-26)
(0.0525272 0.00718413 2.90824e-26)
(0.05552 0.0119477 0)
(0.0586508 0.0192263 -3.11876e-27)
(0.0621242 0.0295832 2.24293e-27)
(0.0659722 0.0429272 1.57872e-26)
(0.0702247 0.0599953 3.66309e-26)
(0.0750141 0.0800435 2.7511e-26)
(0.0797571 0.101222 -2.98342e-26)
(0.083864 0.122072 0)
(0.0859879 0.139552 -2.95105e-26)
(0.0850801 0.151161 -1.12665e-25)
(0.0801165 0.1566 8.94546e-26)
(0.0717956 0.156855 0)
(0.0617488 0.154616 -9.20702e-26)
(0.0515879 0.15181 -2.8158e-26)
(0.0422999 0.148589 -1.31748e-26)
(0.0344018 0.144814 1.2849e-26)
(0.0284203 0.14106 1.04436e-26)
(0.0243233 0.1379 -1.23866e-26)
(0.021692 0.135626 -1.0964e-26)
(0.0198418 0.134884 2.5801e-27)
(0.0181001 0.135529 -1.84871e-28)
(0.0154609 0.137403 2.48598e-28)
(0.0116702 0.139686 4.39318e-32)
(0.00638876 0.141753 1.65319e-28)
(1.00785e-06 0.142329 -3.33363e-29)
(-0.00625534 0.141309 1.26246e-28)
(-0.011312 0.136537 -1.05167e-28)
(-0.0109758 0.13921 0)
(-0.0137543 0.132291 1.0598e-28)
(-0.0139419 0.134828 -2.26027e-28)
(-0.0153206 0.127523 1.31439e-28)
(-0.0159441 0.130002 -7.92278e-29)
(-0.0155759 0.122394 1.01377e-28)
(-0.0168078 0.124768 7.91739e-28)
(-0.0162848 0.11924 0)
(-0.013295 0.109923 2.49298e-28)
(-0.0165142 0.115707 4.87877e-27)
(-0.0160213 0.111721 -2.05472e-27)
(-0.00830937 0.104822 1.13442e-28)
(-0.0116678 0.105956 -3.77258e-27)
(-0.00175229 0.100551 -3.53587e-27)
(-0.00546124 0.100859 5.41529e-29)
(0.0416968 0.000233351 -7.74336e-27)
(0.0430185 0.000847527 0)
(0.0443411 0.00193792 9.67225e-27)
(0.0459504 0.00328588 -5.88394e-31)
(0.0478833 0.00445254 1.33722e-26)
(0.0501346 0.00699942 -5.87863e-28)
(0.0528399 0.011789 2.28167e-26)
(0.055718 0.0189788 -5.41773e-27)
(0.0590369 0.029008 3.78292e-28)
(0.0629542 0.0418107 1.42938e-26)
(0.0674526 0.058032 3.73162e-26)
(0.072675 0.0773037 2.34911e-26)
(0.0781233 0.0980028 -2.7691e-26)
(0.0832161 0.118881 -4.23278e-27)
(0.0866916 0.137296 1.14187e-30)
(0.0875133 0.150657 -6.36549e-26)
(0.0843217 0.158553 7.03218e-27)
(0.0769951 0.161003 -1.20306e-26)
(0.0670021 0.160141 -1.05968e-26)
(0.0560685 0.157735 -6.1241e-26)
(0.0454999 0.154446 -7.7088e-26)
(0.0363142 0.150598 0)
(0.0290627 0.146186 -1.13399e-26)
(0.0240637 0.141651 6.76298e-27)
(0.0211973 0.138053 1.6448e-27)
(0.0199471 0.135972 0)
(0.0193022 0.135893 7.42267e-27)
(0.0179093 0.137812 2.35956e-27)
(0.0150386 0.140785 1.34126e-27)
(0.0102182 0.143883 1.30756e-31)
(0.00359854 0.14598 -5.80208e-28)
(-0.00407914 0.145911 -6.53102e-27)
(-0.0102694 0.141772 0)
(-0.0095634 0.14457 0)
(-0.0138085 0.137479 -8.84235e-29)
(-0.013603 0.140242 8.01845e-29)
(-0.0163753 0.132621 0)
(-0.0166125 0.135394 4.18795e-29)
(-0.0178025 0.127332 1.21505e-28)
(-0.0185571 0.130064 -1.89911e-29)
(-0.0179383 0.121636 1.23021e-27)
(-0.0193603 0.124267 1.05013e-27)
(-0.0186273 0.118016 -1.58465e-27)
(-0.0149905 0.107529 3.38669e-27)
(-0.0187858 0.114006 3.72358e-27)
(-0.0181374 0.109517 -2.36941e-27)
(-0.00928357 0.101879 8.84892e-27)
(-0.0130833 0.1031 -4.03509e-27)
(-0.00193036 0.0971703 -4.32035e-27)
(-0.00603103 0.0974809 -1.02377e-26)
(0.0403486 0.000292201 6.70123e-27)
(0.0415197 0.00105165 -8.11501e-27)