/*--------------------------------*- C++ -*----------------------------------*\
  =========                 |
  \\      /  F ield         | OpenFOAM: The Open Source CFD Toolbox
   \\    /   O peration     | Website:  https://openfoam.org
    \\  /    A nd           | Version:  dev
     \\/     M anipulation  |
\*---------------------------------------------------------------------------*/
FoamFile
{
    version     2.0;
    format      ascii;
    class       volScalarField;
    location    "2500";
    object      a;
}
// * * * * * * * * * * * * * * * * * * * * * * * * * * * * * * * * * * * * * //

dimensions      [0 -1 0 0 0 0 0];

internalField   nonuniform List<scalar> 
9851
(
0.100011
0.100011
0.100011
0.100011
0.100011
0.100011
0.100011
0.100011
0.100011
0.100011
0.10001
0.100011
0.100011
0.100011
0.100011
0.10001
0.10001
0.100011
0.100011
0.100011
0.100011
0.10001
0.10001
0.10001
0.100011
0.100011
0.100011
0.100011
0.10001
0.10001
0.10001
0.10001
0.100011
0.100011
0.100011
0.100011
0.100009
0.10001
0.10001
0.10001
0.10001
0.100011
0.100011
0.100011
0.100011
0.100009
0.100009
0.10001
0.10001
0.10001
0.10001
0.100011
0.100011
0.100011
0.100011
0.100009
0.100009
0.100009
0.10001
0.10001
0.10001
0.10001
0.100011
0.100011
0.100011
0.100011
0.100009
0.100009
0.100009
0.100009
0.10001
0.10001
0.10001
0.10001
0.100011
0.100011
0.100011
0.100011
0.100009
0.100009
0.100009
0.100009
0.100009
0.10001
0.10001
0.10001
0.10001
0.100011
0.100011
0.100011
0.100011
0.100008
0.100009
0.100009
0.100009
0.100009
0.100009
0.10001
0.10001
0.10001
0.10001
0.100011
0.100011
0.100011
0.100011
0.100008
0.100008
0.100008
0.100009
0.100009
0.100009
0.100009
0.10001
0.10001
0.10001
0.10001
0.100011
0.100011
0.100011
0.100011
0.100008
0.100008
0.100008
0.100008
0.100009
0.100009
0.100009
0.100009
0.10001
0.10001
0.10001
0.10001
0.100011
0.100011
0.100011
0.100011
0.100008
0.100008
0.100008
0.100008
0.100008
0.100009
0.100009
0.100009
0.100009
0.10001
0.10001
0.10001
0.10001
0.100011
0.100011
0.100011
0.100011
0.100007
0.100008
0.100008
0.100008
0.100008
0.100008
0.100009
0.100009
0.100009
0.100009
0.10001
0.10001
0.10001
0.10001
0.100011
0.100011
0.100011
0.100011
0.100007
0.100007
0.100008
0.100008
0.100008
0.100008
0.100008
0.100009
0.100009
0.100009
0.100009
0.10001
0.10001
0.10001
0.10001
0.100011
0.100011
0.100011
0.100011
0.100007
0.100007
0.100007
0.100008
0.100008
0.100008
0.100008
0.100008
0.100009
0.100009
0.100009
0.100009
0.10001
0.10001
0.10001
0.10001
0.100011
0.100011
0.100011
0.100011
0.100007
0.100007
0.100007
0.100007
0.100008
0.100008
0.100008
0.100008
0.100008
0.100009
0.100009
0.100009
0.100009
0.10001
0.10001
0.10001
0.10001
0.100011
0.100011
0.100011
0.100011
0.100006
0.100007
0.100007
0.100007
0.100007
0.100008
0.100008
0.100008
0.100008
0.100008
0.100009
0.100009
0.100009
0.100009
0.10001
0.10001
0.10001
0.10001
0.100011
0.100011
0.100011
0.100011
0.100006
0.100006
0.100007
0.100007
0.100007
0.100007
0.100008
0.100008
0.100008
0.100008
0.100008
0.100009
0.100009
0.100009
0.100009
0.10001
0.10001
0.10001
0.10001
0.100011
0.100011
0.100011
0.100011
0.100006
0.100006
0.100006
0.100007
0.100007
0.100007
0.100007
0.100008
0.100008
0.100008
0.100008
0.100008
0.100009
0.100009
0.100009
0.100009
0.10001
0.10001
0.10001
0.10001
0.100011
0.100011
0.100011
0.100011
0.100006
0.100006
0.100006
0.100006
0.100007
0.100007
0.100007
0.100007
0.100008
0.100008
0.100008
0.100008
0.100008
0.100009
0.100009
0.100009
0.100009
0.10001
0.10001
0.10001
0.10001
0.100011
0.100011
0.100011
0.100011
0.100006
0.100006
0.100006
0.100006
0.100006
0.100007
0.100007
0.100007
0.100007
0.100008
0.100008
0.100008
0.100008
0.100008
0.100009
0.100009
0.100009
0.100009
0.10001
0.10001
0.10001
0.10001
0.100011
0.100011
0.100011
0.100011
0.100005
0.100006
0.100006
0.100006
0.100006
0.100006
0.100007
0.100007
0.100007
0.100007
0.100008
0.100008
0.100008
0.100008
0.100008
0.100009
0.100009
0.100009
0.100009
0.10001
0.10001
0.10001
0.10001
0.100011
0.100011
0.100011
0.100011
0.100005
0.100005
0.100006
0.100006
0.100006
0.100006
0.100006
0.100007
0.100007
0.100007
0.100007
0.100008
0.100008
0.100008
0.100008
0.100008
0.100009
0.100009
0.100009
0.100009
0.10001
0.10001
0.10001
0.10001
0.100011
0.100011
0.100011
0.100011
0.100005
0.100005
0.100005
0.100006
0.100006
0.100006
0.100006
0.100006
0.100007
0.100007
0.100007
0.100007
0.100008
0.100008
0.100008
0.100008
0.100008
0.100009
0.100009
0.100009
0.100009
0.10001
0.10001
0.10001
0.10001
0.100011
0.100011
0.100011
0.100011
0.100005
0.100005
0.100005
0.100005
0.100006
0.100006
0.100006
0.100006
0.100006
0.100007
0.100007
0.100007
0.100007
0.100008
0.100008
0.100008
0.100008
0.100008
0.100009
0.100009
0.100009
0.100009
0.10001
0.10001
0.10001
0.10001
0.100011
0.100011
0.100011
0.100011
0.100004
0.100005
0.100005
0.100005
0.100005
0.100006
0.100006
0.100006
0.100006
0.100006
0.100007
0.100007
0.100007
0.100007
0.100008
0.100008
0.100008
0.100008
0.100008
0.100009
0.100009
0.100009
0.100009
0.10001
0.10001
0.10001
0.10001
0.100011
0.100011
0.100011
0.100011
0.100004
0.100004
0.100005
0.100005
0.100005
0.100005
0.100006
0.100006
0.100006
0.100006
0.100006
0.100007
0.100007
0.100007
0.100007
0.100008
0.100008
0.100008
0.100008
0.100008
0.100009
0.100009
0.100009
0.100009
0.10001
0.10001
0.10001
0.10001
0.100011
0.100011
0.100011
0.100011
0.100004
0.100004
0.100004
0.100005
0.100005
0.100005
0.100005
0.100006
0.100006
0.100006
0.100006
0.100006
0.100007
0.100007
0.100007
0.100007
0.100008
0.100008
0.100008
0.100008
0.100008
0.100009
0.100009
0.100009
0.100009
0.10001
0.10001
0.10001
0.10001
0.100011
0.100011
0.100011
0.100011
0.100004
0.100004
0.100004
0.100004
0.100005
0.100005
0.100005
0.100005
0.100006
0.100006
0.100006
0.100006
0.100006
0.100007
0.100007
0.100007
0.100007
0.100008
0.100008
0.100008
0.100008
0.100008
0.100009
0.100009
0.100009
0.100009
0.10001
0.10001
0.10001
0.10001
0.100011
0.100011
0.100011
0.100011
0.100011
0.100004
0.100004
0.100004
0.100004
0.100004
0.100005
0.100005
0.100005
0.100005
0.100006
0.100006
0.100006
0.100006
0.100006
0.100007
0.100007
0.100007
0.100007
0.100008
0.100008
0.100008
0.100008
0.100008
0.100009
0.100009
0.100009
0.100009
0.10001
0.10001
0.10001
0.10001
0.100011
0.100011
0.100011
0.100011
0.100011
0.100011
0.100003
0.100004
0.100004
0.100004
0.100004
0.100004
0.100005
0.100005
0.100005
0.100005
0.100006
0.100006
0.100006
0.100006
0.100006
0.100007
0.100007
0.100007
0.100007
0.100008
0.100008
0.100008
0.100008
0.100008
0.100009
0.100009
0.100009
0.100009
0.10001
0.10001
0.10001
0.10001
0.100011
0.10001
0.100011
0.100011
0.100011
0.100011
0.100011
0.100011
0.100011
0.100003
0.100003
0.100004
0.100004
0.100004
0.100004
0.100004
0.100005
0.100005
0.100005
0.100005
0.100006
0.100006
0.100006
0.100006
0.100006
0.100007
0.100007
0.100007
0.100007
0.100008
0.100008
0.100008
0.100008
0.100008
0.100009
0.100009
0.100009
0.100009
0.10001
0.10001
0.10001
0.10001
0.10001
0.10001
0.100011
0.100011
0.100011
0.100011
0.100011
0.100011
0.100011
0.100003
0.100003
0.100003
0.100004
0.100004
0.100004
0.100004
0.100004
0.100005
0.100005
0.100005
0.100005
0.100006
0.100006
0.100006
0.100006
0.100006
0.100007
0.100007
0.100007
0.100007
0.100008
0.100008
0.100008
0.100008
0.100008
0.100009
0.100009
0.100009
0.100009
0.10001
0.10001
0.10001
0.10001
0.10001
0.10001
0.100011
0.100011
0.100011
0.100011
0.100011
0.100011
0.100011
0.100011
0.100003
0.100003
0.100003
0.100003
0.100004
0.100004
0.100004
0.100004
0.100004
0.100005
0.100005
0.100005
0.100005
0.100006
0.100006
0.100006
0.100006
0.100006
0.100007
0.100007
0.100007
0.100007
0.100008
0.100008
0.100008
0.100008
0.100008
0.100009
0.100009
0.100009
0.10001
0.10001
0.10001
0.100011
0.10001
0.100011
0.10001
0.100011
0.100011
0.100011
0.100011
0.100011
0.100011
0.100011
0.100011
0.100011
0.100002
0.100003
0.100003
0.100003
0.100003
0.100004
0.100004
0.100004
0.100004
0.100004
0.100005
0.100005
0.100005
0.100005
0.100006
0.100006
0.100006
0.100006
0.100006
0.100007
0.100007
0.100007
0.100007
0.100008
0.100008
0.100008
0.100008
0.100008
0.100009
0.100009
0.10001
0.100015
0.100014
0.100023
0.100013
0.100023
0.100012
0.100018
0.100011
0.100013
0.100011
0.100011
0.100011
0.100011
0.100011
0.100011
0.100011
0.100011
0.100002
0.100002
0.100003
0.100003
0.100003
0.100003
0.100004
0.100004
0.100004
0.100004
0.100004
0.100005
0.100005
0.100005
0.100005
0.100006
0.100006
0.100006
0.100006
0.100006
0.100007
0.100007
0.100007
0.100007
0.100008
0.100008
0.100008
0.100008
0.100009
0.100009
0.100013
0.100037
0.100047
0.100112
0.100052
0.100138
0.100041
0.100123
0.100025
0.100076
0.100014
0.100033
0.100015
0.100011
0.100015
0.100014
0.100011
0.100011
0.100011
0.100011
0.100002
0.100002
0.100002
0.100003
0.100003
0.100003
0.100003
0.100004
0.100004
0.100004
0.100004
0.100004
0.100005
0.100005
0.100005
0.100005
0.100006
0.100006
0.100006
0.100006
0.100006
0.100007
0.100007
0.100007
0.100007
0.100008
0.100008
0.100008
0.100008
0.10001
0.100021
0.100109
0.100253
0.100609
0.100362
0.100892
0.100372
0.101038
0.100272
0.100884
0.100129
0.100527
0.100042
0.100194
0.100047
0.100013
0.100044
0.100036
0.100011
0.100012
0.100011
0.100011
0.100002
0.100002
0.100002
0.100002
0.100003
0.100003
0.100003
0.100003
0.100004
0.100004
0.100004
0.100004
0.100005
0.100005
0.100005
0.100006
0.100006
0.100006
0.100006
0.100006
0.100006
0.100006
0.100007
0.100007
0.100007
0.100007
0.100008
0.100008
0.100008
0.100012
0.100042
0.100327
0.101137
0.102251
0.102001
0.104445
0.10261
0.105965
0.102541
0.106484
0.101839
0.105361
0.100886
0.103285
0.100256
0.101286
0.100283
0.100025
0.100261
0.100196
0.100011
0.100017
0.100011
0.100011
0.100001
0.100002
0.100002
0.100002
0.100002
0.100003
0.100003
0.100003
0.100003
0.100004
0.100004
0.100004
0.100005
0.100006
0.100007
0.100009
0.10001
0.10001
0.100009
0.100008
0.100007
0.100007
0.100007
0.100007
0.100007
0.100007
0.100007
0.100008
0.100009
0.100018
0.100098
0.100761
0.104211
0.106729
0.107748
0.114377
0.11233
0.122258
0.114635
0.128675
0.113579
0.13018
0.10989
0.124731
0.105108
0.115954
0.101636
0.106946
0.101769
0.100114
0.101612
0.101202
0.100013
0.100053
0.100011
0.100012
0.100001
0.100001
0.100002
0.100002
0.100002
0.100002
0.100003
0.100003
0.100003
0.100003
0.100004
0.100005
0.100006
0.10001
0.100015
0.100023
0.100032
0.100036
0.100027
0.100019
0.100013
0.100009
0.100007
0.100007
0.100007
0.100007
0.100007
0.100007
0.100009
0.100033
0.100241
0.102287
0.112229
0.109096
0.120619
0.130501
0.13407
0.147005
0.145853
0.164244
0.152861
0.17761
0.151635
0.183135
0.139705
0.177227
0.122655
0.156728
0.10837
0.128589
0.108777
0.100681
0.107907
0.105935
0.100024
0.10028
0.100011
0.100014
0.100001
0.100001
0.100001
0.100002
0.100002
0.100002
0.100002
0.100003
0.100003
0.100003
0.100004
0.100007
0.100013
0.100025
0.100047
0.100079
0.100118
0.100139
0.100131
0.100099
0.100052
0.100026
0.100014
0.100009
0.100007
0.100007
0.100007
0.100007
0.100009
0.100045
0.100528
0.105624
0.140699
0.136837
0.152254
0.159236
0.171735
0.181805
0.198105
0.201348
0.222952
0.213435
0.242073
0.215108
0.250798
0.202374
0.247154
0.172571
0.22754
0.132435
0.184285
0.132872
0.103463
0.12929
0.122341
0.100087
0.101509
0.100012
0.100027
0.100001
0.100001
0.100001
0.100001
0.100002
0.100002
0.100002
0.100002
0.100003
0.100004
0.100006
0.100015
0.100035
0.10008
0.100165
0.100297
0.100452
0.100538
0.100496
0.100364
0.100226
0.100126
0.100052
0.100023
0.100012
0.100008
0.100007
0.100007
0.100009
0.100046
0.100762
0.109151
0.152078
0.200142
0.208255
0.182091
0.192262
0.212433
0.225565
0.241716
0.258187
0.265844
0.284816
0.279136
0.297826
0.281374
0.300502
0.273005
0.297739
0.246678
0.287595
0.190152
0.258341
0.188806
0.114118
0.179313
0.163053
0.100459
0.106854
0.100014
0.100103
0.100001
0.100001
0.100001
0.100001
0.100001
0.100002
0.100002
0.100002
0.100002
0.100004
0.100011
0.100035
0.100099
0.100244
0.10054
0.101034
0.101654
0.102076
0.102026
0.101561
0.100975
0.100511
0.100237
0.100094
0.100035
0.100016
0.100009
0.100008
0.100009
0.10005
0.100841
0.111379
0.158992
0.214223
0.220029
0.253312
0.260104
0.23647
0.24582
0.271838
0.28351
0.299366
0.30993
0.309594
0.317461
0.310942
0.316184
0.308722
0.313918
0.305381
0.311655
0.295771
0.307806
0.263082
0.299951
0.261219
0.143834
0.2507
0.228941
0.102274
0.124166
0.100043
0.100785
0.1
0.100001
0.100001
0.100001
0.100001
0.100001
0.100002
0.100002
0.100002
0.100004
0.100017
0.10007
0.100243
0.100677
0.101569
0.103153
0.105286
0.107042
0.107518
0.106426
0.104366
0.102396
0.101087
0.100422
0.100152
0.100054
0.10002
0.10001
0.100009
0.100051
0.100838
0.11177
0.162367
0.224126
0.220094
0.265297
0.269976
0.306562
0.311939
0.292871
0.300497
0.318036
0.324859
0.322991
0.327532
0.319954
0.321993
0.314632
0.312296
0.310573
0.304772
0.310042
0.303104
0.309901
0.306629
0.301869
0.310835
0.301484
0.198648
0.296918
0.283319
0.110783
0.165178
0.101219
0.109361
0.1
0.1
0.100001
0.100001
0.100001
0.100001
0.100001
0.100002
0.100002
0.100004
0.100022
0.100114
0.100461
0.101464
0.10377
0.107921
0.11342
0.118259
0.120736
0.120054
0.116222
0.110331
0.105103
0.102079
0.100721
0.10024
0.100072
0.100024
0.100012
0.100049
0.100819
0.111497
0.162053
0.254034
0.272471
0.281753
0.315916
0.319319
0.340315
0.344641
0.330642
0.335745
0.331805
0.335916
0.32318
0.324004
0.307639
0.302012
0.292886
0.279052
0.286981
0.26563
0.292168
0.26625
0.303191
0.28072
0.311944
0.30122
0.313391
0.259698
0.313826
0.311569
0.146891
0.232991
0.119975
0.15565
0.1
0.1
0.100001
0.100001
0.100001
0.100001
0.100001
0.100002
0.100004
0.100026
0.100159
0.100712
0.102488
0.106784
0.114395
0.123625
0.131127
0.135187
0.135684
0.132742
0.126541
0.11741
0.108228
0.103115
0.101038
0.1003
0.100083
0.100026
0.100044
0.10073
0.11083
0.160504
0.252784
0.323824
0.323627
0.32087
0.323413
0.348448
0.351877
0.348023
0.352168
0.339933
0.343973
0.32518
0.32687
0.297686
0.295351
0.267267
0.258919
0.245116
0.228039
0.238715
0.21407
0.248864
0.220752
0.272706
0.240172
0.302251
0.270138
0.307088
0.303695
0.313577
0.318858
0.216588
0.290256
0.112185
0.165921
0.1
0.1
0.100001
0.100001
0.100001
0.100001
0.100002
0.100004
0.100028
0.100188
0.100943
0.103549
0.1101
0.121333
0.133868
0.143171
0.148235
0.14987
0.148439
0.143605
0.135099
0.123379
0.11089
0.103918
0.101184
0.100326
0.100085
0.100049
0.10048
0.109079
0.156553
0.249803
0.322651
0.315653
0.358523
0.359126
0.354559
0.356974
0.356298
0.360348
0.336355
0.340721
0.329303
0.332549
0.29531
0.29644
0.254276
0.253089
0.216175
0.209501
0.193238
0.177069
0.198685
0.177838
0.218036
0.200708
0.239781
0.223061
0.273243
0.241905
0.28232
0.322512
0.295175
0.304301
0.317899
0.249086
0.313283
0.106053
0.155885
0.1
0.1
0.100001
0.100001
0.100001
0.100001
0.100003
0.100027
0.100199
0.101101
0.104438
0.113142
0.127826
0.143104
0.153821
0.159466
0.161935
0.162273
0.160059
0.153896
0.142952
0.128082
0.11257
0.10432
0.101226
0.100322
0.100097
0.100297
0.106358
0.149489
0.24374
0.338176
0.359377
0.363736
0.37119
0.374097
0.364216
0.367879
0.345452
0.350366
0.308444
0.31402
0.299292
0.303525
0.254001
0.256867
0.207077
0.207761
0.167221
0.163003
0.15731
0.139459
0.183917
0.164219
0.21153
0.200652
0.231483
0.234857
0.248403
0.240828
0.240276
0.271537
0.254058
0.311984
0.324018
0.319706
0.286239
0.265294
0.258362
0.294794
0.25719
0.323565
0.321971
0.307558
0.103873
0.146584
0.1
0.1
0.100001
0.100001
0.100001
0.100002
0.100022
0.100197
0.101155
0.104988
0.115465
0.13321
0.151133
0.162808
0.168341
0.17123
0.172888
0.17381
0.17205
0.164853
0.150835
0.131903
0.113314
0.104294
0.101181
0.100307
0.100292
0.103844
0.140437
0.233536
0.333078
0.378189
0.376195
0.375999
0.37845
0.364948
0.369419
0.355331
0.360229
0.320028
0.326278
0.273424
0.280314
0.261551
0.267148
0.210281
0.214817
0.162177
0.163879
0.130213
0.126741
0.141515
0.122105
0.186064
0.163095
0.243014
0.230095
0.223674
0.247777
0.25999
0.276151
0.269766
0.245552
0.247172
0.249472
0.255203
0.2498
0.305229
0.315217
0.273993
0.258605
0.253523
0.284558
0.30933
0.233077
0.279521
0.322007
0.321252
0.100849
0.230171
0.159517
0.118114
0.1
0.1
0.100001
0.100001
0.100002
0.100015
0.10017
0.101136
0.105138
0.116761
0.13709
0.157493
0.169141
0.173601
0.175761
0.178411
0.181805
0.185132
0.184815
0.176461
0.158623
0.134563
0.11311
0.104053
0.101068
0.100417
0.102128
0.129782
0.22033
0.323109
0.379638
0.379958
0.381896
0.373417
0.377099
0.345136
0.351177
0.332632
0.338942
0.287615
0.295224
0.234633
0.242736
0.22059
0.227237
0.167304
0.172002
0.12586
0.126552
0.113807
0.111076
0.137101
0.116691
0.212896
0.197637
0.182299
0.163562
0.276704
0.27228
0.2502
0.237911
0.27099
0.286514
0.298313
0.296032
0.261467
0.251394
0.265812
0.280918
0.253556
0.296713
0.30895
0.265322
0.255851
0.258891
0.274759
0.309797
0.279343
0.31834
0.319452
0.113513
0.100029
0.100647
0.224193
0.153568
0.1
0.1
0.100001
0.100001
0.100009
0.100123
0.101007
0.105029
0.117032
0.1392
0.161984
0.173329
0.176274
0.177084
0.178226
0.182074
0.188678
0.195848
0.197534
0.187465
0.164941
0.135109
0.112243
0.103546
0.100972
0.101637
0.119833
0.201337
0.310225
0.377875
0.374228
0.377441
0.36732
0.372067
0.356913
0.362381
0.318425
0.326077
0.302981
0.310718
0.251417
0.260543
0.193528
0.202587
0.178107
0.185393
0.128983
0.132971
0.110211
0.109845
0.109163
0.107299
0.147945
0.131564
0.121131
0.113305
0.223195
0.205256
0.185883
0.166323
0.294637
0.284356
0.262086
0.246419
0.300463
0.313982
0.315829
0.317937
0.288481
0.267572
0.292876
0.312116
0.267282
0.287289
0.301417
0.263028
0.265964
0.264961
0.268836
0.309007
0.277741
0.313179
0.316863
0.108844
0.100014
0.10017
0.217884
0.144964
0.1
0.1
0.100001
0.100005
0.100079
0.100762
0.104528
0.116697
0.139643
0.164667
0.176279
0.178095
0.177005
0.175583
0.177301
0.184983
0.196415
0.207185
0.209685
0.196273
0.16789
0.133247
0.110544
0.102811
0.101763
0.112384
0.178072
0.292739
0.372377
0.374506
0.359091
0.362614
0.347196
0.353369
0.333506
0.340595
0.288951
0.298347
0.269936
0.279439
0.212567
0.223195
0.153592
0.162781
0.138559
0.145495
0.110085
0.111243
0.106722
0.105642
0.110496
0.109252
0.109021
0.108995
0.148752
0.133936
0.123401
0.117382
0.227452
0.206806
0.185853
0.165983
0.305709
0.268367
0.289333
0.24858
0.32977
0.336297
0.326351
0.335386
0.320833
0.293732
0.325684
0.343068
0.291049
0.278385
0.292617
0.265476
0.285758
0.279244
0.268337
0.307581
0.275397
0.307048
0.313875
0.104117
0.100012
0.100051
0.210504
0.131604
0.1
0.1
0.100003
0.100047
0.100521
0.103559
0.115318
0.139149
0.165566
0.178445
0.179778
0.176477
0.169578
0.163287
0.168052
0.187492
0.206584
0.220406
0.220581
0.200239
0.165875
0.129122
0.108177
0.102764
0.108081
0.157012
0.270682
0.360956
0.375297
0.351847
0.35826
0.339693
0.346018
0.324512
0.332344
0.307469
0.31623
0.257351
0.268785
0.234301
0.245762
0.173018
0.184344
0.120876
0.127297
0.113355
0.116452
0.104466
0.10399
0.110138
0.107191
0.115327
0.114904
0.114845
0.11413
0.148929
0.136031
0.128087
0.125358
0.226724
0.204306
0.182889
0.164131
0.310033
0.268766
0.288719
0.245746
0.35313
0.35399
0.330806
0.346454
0.353256
0.326329
0.359441
0.368158
0.322115
0.273383
0.284208
0.273162
0.313754
0.302075
0.271044
0.306099
0.273191
0.300162
0.310418
0.101878
0.100011
0.100021
0.199281
0.121948
0.1
0.100001
0.100024
0.10033
0.102562
0.112627
0.137168
0.165313
0.17995
0.181398
0.176144
0.163873
0.148252
0.146575
0.16451
0.194367
0.221223
0.235333
0.225708
0.197906
0.159653
0.122774
0.106004
0.107275
0.141246
0.245717
0.34489
0.374125
0.357254
0.334878
0.340105
0.319485
0.327573
0.3009
0.310527
0.279907
0.290654
0.222533
0.235927
0.196497
0.209267
0.135715
0.145998
0.106434
0.108626
0.104127
0.104934
0.103971
0.102439
0.127401
0.124468
0.114239
0.120054
0.125368
0.126868
0.128249
0.128489
0.149666
0.140638
0.138009
0.138814
0.221912
0.199184
0.17922
0.163787
0.309244
0.26453
0.284126
0.239475
0.371281
0.366307
0.330941
0.352045
0.380824
0.36086
0.390073
0.38723
0.356568
0.272654
0.278641
0.289058
0.34642
0.330776
0.277812
0.304596
0.270677
0.29295
0.30662
0.100668
0.100011
0.100015
0.187659
0.112488
0.1
0.100011
0.100183
0.101724
0.109601
0.132735
0.163891
0.180763
0.182965
0.176408
0.15993
0.137599
0.130454
0.143641
0.172352
0.214158
0.24257
0.244586
0.224022
0.188949
0.148685
0.115309
0.108326
0.130665
0.220619
0.325774
0.369746
0.362768
0.330475
0.337931
0.315954
0.323552
0.297121
0.307037
0.274522
0.286244
0.249127
0.262041
0.184382
0.198803
0.157948
0.170646
0.111809
0.116388
0.101755
0.102261
0.101719
0.10154
0.10922
0.105595
0.10345
0.148014
0.143489
0.127276
0.136238
0.142214
0.146354
0.148963
0.14944
0.154387
0.15238
0.154279
0.160716
0.215479
0.194544
0.178527
0.169628
0.305621
0.25797
0.278713
0.232976
0.385401
0.373634
0.329327
0.353974
0.402012
0.393933
0.414165
0.403159
0.390683
0.274147
0.276313
0.311443
0.380596
0.3624
0.291494
0.302809
0.267331
0.286475
0.302528
0.100335
0.100011
0.100016
0.171292
0.108057
0.100004
0.100097
0.101033
0.106845
0.12678
0.160182
0.180786
0.184355
0.177504
0.158501
0.131155
0.119779
0.127776
0.152254
0.199795
0.244277
0.259062
0.244769
0.21337
0.173059
0.135065
0.112387
0.126682
0.198114
0.30542
0.360733
0.363637
0.337543
0.310684
0.316842
0.292597
0.302321
0.269454
0.28157
0.242463
0.256349
0.213344
0.227999
0.144885
0.158817
0.123008
0.132821
0.103153
0.104599
0.100638
0.100623
0.101318
0.100838
0.117555
0.108896
0.109418
0.104121
0.175057
0.168185
0.14563
0.158008
0.167966
0.174335
0.177373
0.177719
0.168545
0.171646
0.181248
0.192017
0.211241
0.194932
0.186626
0.185979
0.302598
0.252968
0.276629
0.230819
0.394926
0.377941
0.329566
0.355129
0.418919
0.42235
0.433526
0.416239
0.422526
0.278115
0.275389
0.337944
0.413137
0.394425
0.309715
0.300866
0.26269
0.281123
0.297418
0.100225
0.100015
0.100062
0.159435
0.105697
0.100038
0.1006
0.104378
0.120592
0.153258
0.179928
0.185411
0.179146
0.158651
0.128685
0.113429
0.116854
0.134527
0.180821
0.240585
0.267902
0.261966
0.234725
0.192925
0.15115
0.122164
0.127387
0.183029
0.2851
0.349558
0.36256
0.345555
0.30127
0.310276
0.284666
0.293166
0.261881
0.273905
0.234666
0.248786
0.204291
0.219708
0.173354
0.188633
0.115308
0.12276
0.106842
0.11025
0.100737
0.10104
0.100441
0.100345
0.102139
0.101286
0.100811
0.132632
0.120095
0.117819
0.107481
0.207121
0.197051
0.166538
0.183148
0.202185
0.209725
0.212325
0.211997
0.191842
0.203301
0.217608
0.23161
0.214304
0.206348
0.206183
0.213377
0.304118
0.254085
0.281482
0.237042
0.402475
0.382484
0.335138
0.359095
0.434454
0.444925
0.450874
0.427251
0.449795
0.285823
0.275419
0.366355
0.442542
0.424369
0.330664
0.298589
0.258756
0.27688
0.291742
0.100351
0.100065
0.100391
0.151957
0.105706
0.100259
0.102746
0.114236
0.1449
0.177071
0.185793
0.1812
0.15976
0.128781
0.110257
0.109971
0.120657
0.157732
0.22459
0.268531
0.274224
0.255617
0.213479
0.166769
0.134881
0.1314
0.179933
0.266676
0.336912
0.359411
0.350037
0.308065
0.271487
0.279758
0.250484
0.261914
0.223737
0.237603
0.193917
0.209203
0.163121
0.178386
0.133988
0.147733
0.104012
0.106482
0.10159
0.102503
0.100251
0.100242
0.100623
0.100456
0.100365
0.103218
0.101551
0.100805
0.101311
0.149089
0.132305
0.127354
0.113157
0.241252
0.227509
0.188373
0.209399
0.24291
0.249829
0.251418
0.249702
0.227024
0.24411
0.261359
0.276233
0.229128
0.229248
0.237448
0.252482
0.313555
0.26426
0.29695
0.256388
0.411056
0.39101
0.350791
0.37001
0.449601
0.464922
0.468186
0.43985
0.473084
0.29586
0.275655
0.393257
0.467505
0.449068
0.350148
0.295804
0.255868
0.273005
0.285544
0.101284
0.100467
0.102326
0.15064
0.107541
0.101297
0.109674
0.134348
0.171246
0.185526
0.183252
0.162472
0.129737
0.109527
0.106006
0.111288
0.135963
0.194322
0.261626
0.278329
0.273293
0.239724
0.192787
0.154211
0.141328
0.182474
0.257884
0.323717
0.353977
0.350938
0.318693
0.255139
0.265056
0.234936
0.244921
0.209906
0.223166
0.181245
0.195808
0.15119
0.166498
0.124732
0.136975
0.110373
0.116215
0.100828
0.101419
0.10032
0.100494
0.100205
0.100135
0.100818
0.100679
0.100707
0.100614
0.105662
0.102603
0.101118
0.101968
0.166504
0.145561
0.135782
0.118969
0.275784
0.257535
0.208681
0.234541
0.287277
0.292158
0.29259
0.287668
0.271573
0.29138
0.309012
0.323257
0.256524
0.264977
0.280551
0.300595
0.335999
0.289123
0.327863
0.289008
0.424728
0.408263
0.381552
0.393297
0.466466
0.484605
0.487548
0.457927
0.493167
0.305507
0.275971
0.414996
0.487413
0.469013
0.366375
0.29262
0.255404
0.269384
0.278816
0.106069
0.103895
0.110205
0.155234
0.118151
0.104951
0.125949
0.160232
0.184196
0.184904
0.166008
0.132069
0.109726
0.104207
0.105988
0.119549
0.161189
0.233734
0.275085
0.280942
0.26645
0.229761
0.186149
0.161417
0.191253
0.258147
0.315025
0.347405
0.350068
0.324921
0.259528
0.214511
0.223888
0.191572
0.203396
0.164894
0.178803
0.13764
0.150919
0.11712
0.125745
0.106787
0.110969
0.102423
0.104086
0.100145
0.100251
0.100107
0.100099
0.100443
0.100316
0.100221
0.101133
0.10088
0.101346
0.100945
0.108333
0.103914
0.101768
0.102924
0.182197
0.157303
0.142541
0.124158
0.309688
0.286828
0.22691
0.258356
0.332602
0.335132
0.334033
0.325782
0.321976
0.341875
0.358354
0.370486
0.296848
0.31214
0.332372
0.354444
0.37369
0.327112
0.3723
0.333089
0.447616
0.437615
0.423889
0.429155
0.487224
0.50402
0.508654
0.483605
0.510786
0.313617
0.275052
0.434045
0.506314
0.488234
0.381055
0.289269
0.25938
0.264296
0.270834
0.117575
0.174454
0.168916
0.179879
0.156245
0.114643
0.150929
0.179644
0.185557
0.170068
0.135898
0.110608
0.103854
0.103454
0.109478
0.134058
0.189316
0.257262
0.279771
0.281012
0.263434
0.228161
0.199875
0.210489
0.262984
0.313625
0.342342
0.347347
0.327115
0.268157
0.16462
0.167809
0.175954
0.143716
0.155726
0.123004
0.13233
0.110553
0.115904
0.10409
0.106708
0.101397
0.102416
0.100447
0.100793
0.100038
0.100044
0.100107
0.100053
0.100697
0.10052
0.100339
0.100532
0.102307
0.101769
0.103255
0.102343
0.111502
0.105583
0.103049
0.104518
0.195451
0.166757
0.14709
0.127841
0.344714
0.317043
0.244734
0.282837
0.377481
0.378631
0.376106
0.364202
0.375494
0.393728
0.408323
0.419351
0.346832
0.366582
0.389326
0.411509
0.423163
0.375023
0.425286
0.386889
0.478738
0.475178
0.474823
0.474205
0.510352
0.524104
0.532326
0.510712
0.531132
0.3217
0.276626
0.451158
0.526241
0.504847
0.395577
0.285152
0.268818
0.26001
0.261603
0.198768
0.276332
0.263004
0.236393
0.238783
0.132777
0.173257
0.185067
0.174429
0.140609
0.112776
0.104098
0.102619
0.104406
0.116395
0.150489
0.20977
0.266028
0.281511
0.281444
0.266133
0.246798
0.249601
0.277643
0.315145
0.339688
0.344195
0.326399
0.271604
0.170371
0.112131
0.134558
0.113823
0.125134
0.112474
0.117967
0.105426
0.108364
0.102109
0.103426
0.100734
0.101266
0.100229
0.100413
0.100071
0.100126
0.100031
0.100019
0.100277
0.100096
0.101548
0.100847
0.100591
0.101237
0.104642
0.103948
0.107359
0.105739
0.114817
0.107723
0.10555
0.107284
0.207071
0.173973
0.151357
0.131093
0.381129
0.349298
0.265614
0.309827
0.424423
0.424763
0.418999
0.40448
0.430474
0.447232
0.460976
0.470311
0.40423
0.42602
0.449174
0.470821
0.479972
0.434914
0.488765
0.450032
0.510995
0.51332
0.526414
0.518475
0.539124
0.547306
0.560254
0.546208
0.552604
0.331239
0.279349
0.467272
0.544836
0.523646
0.410033
0.27769
0.275721
0.255747
0.255196
0.269962
0.322081
0.301827
0.267882
0.278
0.155722
0.182613
0.178322
0.146904
0.116033
0.105242
0.102641
0.102627
0.107054
0.12424
0.162406
0.219722
0.269572
0.282682
0.284644
0.281556
0.285545
0.299874
0.320529
0.337432
0.340244
0.322602
0.27
0.17282
0.109885
0.108831
0.102316
0.103341
0.105944
0.102449
0.103859
0.100925
0.101522
0.100322
0.10055
0.100106
0.100186
0.100035
0.10006
0.100016
0.100022
0.100074
0.100021
0.100652
0.100362
0.100252
0.104009
0.102369
0.101398
0.103227
0.109309
0.108376
0.115238
0.112717
0.118169
0.110762
0.11039
0.112231
0.220772
0.181692
0.159452
0.136613
0.419425
0.383758
0.290084
0.339731
0.47325
0.472395
0.463825
0.445778
0.488807
0.503878
0.515935
0.522587
0.470096
0.492311
0.513963
0.533131
0.537418
0.501969
0.549508
0.519728
0.553848
0.563239
0.584826
0.574216
0.57097
0.571706
0.580763
0.579745
0.570721
0.341646
0.282952
0.483416
0.562881
0.541758
0.424437
0.268344
0.276767
0.255667
0.252538
0.30069
0.326639
0.327675
0.281522
0.293035
0.172394
0.179896
0.155207
0.120161
0.107973
0.103415
0.102465
0.103283
0.110087
0.129504
0.167614
0.223582
0.270716
0.284633
0.29206
0.300363
0.309998
0.321429
0.333713
0.333685
0.313153
0.260713
0.168508
0.11007
0.100535
0.101559
0.100328
0.100491
0.100988
0.10036
0.100603
0.100124
0.100212
0.100043
0.100073
0.100018
0.100027
0.10001
0.100013
0.100011
0.100009
0.100182
0.100048
0.101623
0.100674
0.100305
0.100576
0.109577
0.10619
0.103732
0.108341
0.117966
0.116655
0.129152
0.12545
0.12321
0.116088
0.119205
0.121299
0.23929
0.194571
0.172357
0.146741
0.459992
0.421729
0.319689
0.374
0.523837
0.521699
0.509552
0.489044
0.548694
0.561029
0.570384
0.574078
0.539612
0.558475
0.573986
0.586351
0.593945
0.563934
0.602228
0.580746
0.586107
0.593373
0.608092
0.600428
0.586041
0.581047
0.586526
0.589893
0.578722
0.352499
0.290668
0.503631
0.57133
0.557285
0.440875
0.260349
0.273262
0.257157
0.25297
0.308573
0.291334
0.338549
0.283889
0.300159
0.17745
0.163425
0.126961
0.110955
0.105929
0.103041
0.102506
0.103931
0.111799
0.131669
0.169366
0.223976
0.26856
0.286575
0.298245
0.308376
0.318336
0.325556
0.320738
0.295612
0.238554
0.15669
0.108452
0.100567
0.100029
0.100081
0.100035
0.100202
0.10004
0.100124
0.100045
0.100074
0.100018
0.100028
0.10001
0.100013
0.100008
0.100009
0.100008
0.100008
0.100014
0.100009
0.100522
0.100388
0.100221
0.100127
0.103904
0.101534
0.101327
0.120375
0.11451
0.109485
0.119192
0.133235
0.131273
0.151501
0.146206
0.132744
0.125364
0.134657
0.136964
0.262914
0.212109
0.191789
0.162161
0.504569
0.464988
0.357943
0.41548
0.57458
0.570267
0.557053
0.533987
0.595272
0.60154
0.605395
0.606631
0.596857
0.603276
0.612147
0.615712
0.615152
0.611063
0.618294
0.619855
0.600163
0.606611
0.615345
0.614043
0.597163
0.585996
0.601542
0.606355
0.583331
0.368154
0.300148
0.523531
0.579784
0.565303
0.467453
0.259127
0.271876
0.263255
0.255656
0.317238
0.221371
0.350521
0.285871
0.307247
0.168851
0.135324
0.115295
0.108918