/*--------------------------------*- C++ -*----------------------------------*\
  =========                 |
  \\      /  F ield         | OpenFOAM: The Open Source CFD Toolbox
   \\    /   O peration     | Website:  https://openfoam.org
    \\  /    A nd           | Version:  dev
     \\/     M anipulation  |
\*---------------------------------------------------------------------------*/
FoamFile
{
    version     2.0;
    format      ascii;
    class       volScalarField;
    location    "2500";
    object      alphat;
}
// * * * * * * * * * * * * * * * * * * * * * * * * * * * * * * * * * * * * * //

dimensions      [1 -1 -1 0 0 0 0];

internalField   nonuniform List<scalar> 
9851
(
0.000156835
0.000160072
0.000152199
0.000144029
0.000191545
0.00013407
0.00013111
0.000201731
0.000179494
0.000126827
0.000126586
0.000193952
0.00020302
0.000152551
0.000124494
0.000122842
0.000174819
0.000218625
0.000186038
0.000138848
0.00012269
0.000120922
0.000153073
0.000219236
0.000211805
0.000158007
0.000133147
0.00012131
0.000120002
0.000142956
0.000212088
0.000224272
0.000186124
0.000142927
0.00012975
0.000120377
0.000119798
0.000134823
0.000193568
0.000234317
0.000212684
0.000159162
0.000136444
0.000127116
0.000119758
0.000119637
0.000129491
0.000169434
0.000233294
0.000230402
0.000182398
0.000144051
0.000132762
0.000125229
0.000119311
0.000119318
0.000126002
0.000154411
0.00022504
0.000239541
0.00021037
0.000157527
0.000137224
0.000129973
0.000123904
0.000118965
0.0001183
0.000123494
0.000143218
0.000204701
0.000246547
0.000230724
0.000178658
0.000143434
0.00013358
0.000127826
0.000122897
0.000118704
0.00011743
0.000122494
0.0001355
0.000179827
0.000244332
0.000244226
0.000203388
0.000155283
0.000136897
0.000130644
0.00012613
0.000122077
0.0001185
0.000116797
0.000121898
0.000131017
0.000161909
0.000235181
0.000251478
0.00022869
0.000173846
0.00014237
0.000133637
0.000128348
0.000124769
0.00012134
0.000118311
0.000116494
0.000121458
0.000128062
0.000150249
0.000214595
0.000257028
0.000244492
0.000196123
0.000152487
0.000136674
0.00013078
0.000126607
0.000123612
0.000120739
0.000118161
0.000116608
0.000120762
0.000126026
0.000141747
0.000190442
0.00025457
0.00025561
0.000219869
0.000168836
0.000141133
0.000133614
0.000128567
0.000125233
0.000122745
0.000120271
0.000118024
0.000116748
0.00011951
0.000124715
0.000136068
0.000168919
0.000245835
0.000261627
0.000242672
0.000188363
0.000149412
0.000136148
0.000130906
0.000126962
0.000124226
0.00012205
0.000119864
0.000117905
0.000116862
0.000118364
0.000123668
0.000132029
0.000157453
0.000227323
0.000266849
0.000255657
0.000209798
0.000163561
0.000139612
0.000133205
0.000128745
0.000125759
0.000123433
0.000121445
0.000119517
0.000117797
0.000116947
0.000117439
0.000122786
0.000129212
0.000148051
0.000202741
0.000265188
0.000265516
0.00023255
0.00017969
0.000146206
0.000135271
0.00013054
0.000127342
0.000124816
0.000122707
0.000120932
0.000119202
0.000117701
0.00011698
0.000116744
0.00012198
0.000127095
0.000141102
0.000179962
0.000257777
0.000270724
0.000252975
0.000199791
0.000157862
0.000137858
0.000132391
0.000128388
0.000126315
0.000123991
0.000122085
0.000120476
0.000118913
0.000117629
0.000116985
0.00011638
0.000121188
0.000125519
0.000136144
0.000165412
0.000242623
0.000276149
0.000264888
0.000219668
0.000172259
0.0001432
0.000134071
0.00012974
0.000127133
0.000125424
0.000123283
0.000121553
0.000120058
0.000118623
0.000117547
0.000116988
0.000116222
0.000120313
0.000124424
0.000132438
0.000155859
0.000220086
0.000276046
0.000274065
0.000241845
0.00018851
0.000153019
0.000136127
0.000131373
0.000127693
0.000126245
0.000124653
0.00012268
0.000121074
0.000119665
0.00011837
0.00011744
0.000116993
0.000116122
0.000119402
0.000123438
0.000129681
0.000148083
0.000197455
0.000271055
0.000279062
0.000259781
0.000208011
0.000164622
0.000140626
0.000132867
0.000128913
0.000126402
0.000125521
0.000123973
0.000122143
0.000120624
0.000119275
0.000118136
0.000117361
0.000117008
0.000116072
0.000118686
0.000122588
0.000127613
0.000142064
0.000178766
0.000259412
0.000284468
0.00027279
0.000226521
0.000178853
0.000148576
0.000134613
0.000130388
0.000127036
0.000125531
0.00012489
0.000123349
0.000121641
0.000120195
0.000118952
0.000117913
0.000117288
0.000117018
0.000116036
0.000118143
0.000121862
0.000126024
0.000137704
0.000166676
0.000242996
0.000286287
0.000281196
0.000247214
0.000194838
0.000158195
0.00013833
0.000131695
0.000128179
0.000125811
0.000124992
0.000124245
0.000122758
0.000121161
0.000119792
0.000118591
0.000117707
0.000117221
0.000117036
0.000116047
0.000117781
0.000121264
0.000124786
0.000134585
0.000159087
0.000223363
0.000283916
0.000287164
0.000264146
0.000212272
0.000169439
0.000144807
0.000133302
0.000129537
0.000126522
0.000125149
0.000124477
0.000123587
0.000122179
0.00012068
0.000119368
0.000118248
0.000117508
0.000117168
0.000117047
0.000116082
0.000117592
0.000120809
0.000123848
0.0001324
0.000153237
0.000204632
0.00027712
0.000290318
0.000278537
0.000230414
0.000182699
0.000152244
0.000136427
0.000130666
0.000127638
0.000125542
0.000124691
0.000123976
0.000122929
0.00012157
0.00012017
0.00011891
0.000117935
0.000117325
0.000117112
0.000117066
0.000116149
0.000117572
0.000120483
0.000123184
0.00013096
0.000148989
0.000190057
0.000265265
0.000293711
0.000286105
0.000247272
0.000197945
0.000161046
0.00014125
0.00013215
0.000128819
0.00012628
0.000125018
0.000124325
0.000123477
0.000122271
0.000120954
0.000119614
0.000118476
0.000117681
0.000117229
0.000117123
0.000117068
0.00011624
0.000117687
0.000120307
0.000122798
0.000130148
0.000146291
0.000179759
0.000251428
0.000293192
0.000291982
0.000264968
0.000213631
0.000171924
0.000147024
0.000134695
0.000129896
0.00012732
0.000125568
0.000124712
0.000124014
0.000122933
0.000121716
0.000120415
0.000119073
0.000118029
0.000117416
0.000117079
0.000117148
0.000117052
0.000116358
0.000117909
0.000120288
0.000122679
0.000129885
0.00014555
0.000173234
0.000237082
0.000290516
0.000294911
0.000278703
0.00023011
0.000184443
0.000154056
0.000138349
0.00013115
0.000128438
0.000126364
0.000125225
0.000124509
0.000123694
0.000122405
0.000121137
0.000119882
0.000118674
0.000117791
0.000117351
0.000117123
0.000117284
0.000117041
0.000116524
0.000118236
0.000120382
0.00012281
0.000130054
0.000146263
0.000169265
0.000223934
0.000284483
0.000297084
0.000288692
0.000246112
0.000198274
0.00016251
0.000142792
0.000133305
0.0001294
0.000127366
0.000125995
0.000124984
0.000124463
0.000123435
0.000121989
0.000120552
0.000119264
0.000118156
0.000117554
0.00011736
0.00011744
0.000117581
0.00011704
0.000116734
0.00011864
0.000120586
0.000123199
0.000130652
0.000146813
0.000167066
0.000212796
0.000274889
0.000297779
0.000294117
0.00026095
0.000213048
0.00017261
0.000148129
0.000136218
0.000130571
0.000128323
0.000127077
0.000125751
0.000125017
0.000124339
0.000123078
0.000121604
0.000120158
0.000118851
0.0001178
0.000117335
0.000117309
0.000117699
0.000117995
0.000117071
0.000116997
0.000119098
0.000120909
0.000123891
0.000131889
0.000147987
0.000166782
0.000204304
0.000264467
0.000297609
0.000296856
0.000275211
0.000227553
0.0001845
0.000154765
0.000139449
0.000132443
0.00012926
0.0001281
0.000126886
0.000125912
0.000125281
0.000124292
0.000122823
0.000121314
0.000119897
0.000118801
0.000118128
0.000117843
0.000118136
0.00011877
9.20598e-05
0.000117139
0.000117326
0.000119627
0.000121351
0.000124838
0.000133625
0.000149752
0.00016761
0.000198468
0.000254392
0.000295083
0.000298683
0.000285586
0.000241913
0.000197329
0.000163069
0.000143412
0.000134739
0.000130383
0.000129068
0.000127967
0.000127059
0.000126438
0.000125564
0.000124193
0.000122646
0.000121163
0.000119906
0.000119256
0.000119126
0.000119375
0.000105134
8.5224e-05
6.99708e-05
6.88344e-05
0.000117286
0.000117749
0.000120213
0.00012195
0.000126095
0.000135926
0.00015196
0.000168869
0.000194931
0.000245387
0.000290386
0.000298675
0.000293015
0.000255296
0.00021058
0.00017281
0.00014883
0.000137322
0.000132063
0.000130106
0.000129043
0.000128172
0.00012761
0.000126921
0.000125804
0.000124371
0.000122863
0.000121566
0.00012061
0.000120306
0.000111677
9.30315e-05
7.72165e-05
6.83132e-05
6.7054e-05
5.95574e-05
6.04216e-05
0.000117521
0.000118242
0.000120833
0.000122735
0.000127694
0.000138629
0.000154488
0.000170563
0.000193475
0.000238302
0.000284947
0.000298473
0.000296458
0.000267156
0.000224278
0.000183932
0.000155768
0.000140342
0.000133993
0.000131562
0.000130162
0.000129382
0.000128849
0.000128351
0.000127563
0.000126113
0.000124659
0.000123306
0.000122471
0.00010962
9.53445e-05
8.26136e-05
8.21842e-05
7.5426e-05
6.27033e-05
7.02697e-05
5.94148e-05
5.98894e-05
5.75064e-05
5.26489e-05
5.18404e-05
0.000117854
0.000118806
0.000121458
0.000123694
0.000129623
0.000141735
0.000157524
0.000173018
0.000193864
0.000233664
0.000279698
0.000297898
0.000297958
0.000277984
0.000237423
0.000196252
0.000163896
0.000144573
0.000136039
0.000133351
0.000131633
0.000130805
0.000130416
0.000129868
0.000129434
0.000128605
0.000127012
0.000125577
0.000116273
0.000100017
8.62853e-05
7.4344e-05
6.9816e-05
6.67847e-05
6.58481e-05
5.5221e-05
5.39859e-05
5.22479e-05
5.12431e-05
5.02214e-05
4.60308e-05
4.51699e-05
0.000118289
0.0001194
0.000122069
0.000124791
0.00013182
0.00014518
0.000161066
0.000176073
0.000195369
0.00023115
0.000275374
0.000297135
0.00029843
0.000286523
0.00025033
0.000209866
0.000173661
0.000150422
0.000138514
0.000135184
0.000133461
0.000132341
0.000132096
0.000131765
0.000131328
0.000130841
0.000129857
0.000126579
0.000110544
9.47331e-05
8.03178e-05
6.8978e-05
6.24465e-05
6.10385e-05
6.2239e-05
5.89021e-05
5.39775e-05
4.84452e-05
5.0362e-05
4.63769e-05
4.46178e-05
4.42169e-05
4.07878e-05
3.9905e-05
0.000118818
0.000120026
0.000122716
0.000126027
0.0001342
0.000148874
0.00016505
0.000179782
0.000197799
0.000231095
0.000272647
0.000296495
0.00029912
0.000292419
0.000261747
0.000222937
0.000185223
0.000158584
0.000142429
0.000137414
0.000135271
0.000134298
0.000134179
0.00013405
0.000133417
0.000133003
0.000132666
0.000125298
0.000108946
9.276e-05
7.80318e-05
6.66127e-05
5.87382e-05
5.80959e-05
5.59709e-05
5.47344e-05
5.29889e-05
5.1464e-05
4.88208e-05
4.28511e-05
4.45798e-05
4.12069e-05
3.95204e-05
3.92807e-05
3.61984e-05
3.57194e-05
0.000119454
0.000120764
0.000123451
0.000127341
0.000136686
0.000152692
0.000169366
0.000184205
0.000201939
0.000232291
0.000272223
0.000296553
0.000299869
0.000297394
0.000273122
0.000237238
0.000199117
0.00016807
0.000148311
0.000140216
0.000137507
0.000136144
0.000136029
0.000136337
0.000136341
0.000135532
0.000135442
0.000128312
0.000110554
9.28866e-05
7.64321e-05
6.44883e-05
5.79659e-05
5.69548e-05
5.28938e-05
5.36343e-05
5.00292e-05
4.94999e-05
4.73526e-05
4.64532e-05
4.3402e-05
3.82939e-05
3.98997e-05
3.70331e-05
3.53109e-05
3.51313e-05
3.2708e-05
3.22486e-05
0.000120169
0.00012165
0.000124335
0.000128707
0.000139196
0.000156507
0.000173907
0.000189245
0.000207016
0.000235476
0.000273162
0.000297625
0.000301567
0.000301695
0.000282884
0.000252399
0.000215801
0.000181432
0.000156409
0.000145117
0.000140372
0.000138387
0.000138388
0.000138785
0.000139208
0.000139177
0.000138774
0.000131651
0.000114169
9.54085e-05
7.87488e-05
6.54423e-05
5.72324e-05
6.03072e-05
5.2046e-05
5.79998e-05
4.86171e-05
5.16347e-05
4.54852e-05
4.56965e-05
4.23225e-05
4.20107e-05
3.88964e-05
3.45071e-05
3.59804e-05
3.35503e-05
3.19724e-05
3.17358e-05
2.98298e-05
2.97042e-05
0.00012083
0.000122644
0.000125396
0.00013017
0.000141627
0.00016022
0.000178613
0.000194771
0.000213251
0.000241532
0.000276829
0.000301002
0.000304899
0.000305392
0.000291211
0.000266373
0.000232847
0.000196547
0.000167779
0.000152865
0.00014549
0.000142024
0.00014192
0.000141835
0.00014221
0.000143066
0.000142784
0.000134692
0.00011986
0.000103442
8.14738e-05
7.36891e-05
7.48304e-05
0.000105031
6.90092e-05
0.000108016
6.27796e-05
9.90617e-05
5.23094e-05
7.93969e-05
4.33809e-05
5.66534e-05
3.85812e-05
4.16537e-05
3.54979e-05
3.13516e-05
3.27923e-05
3.03992e-05
2.92389e-05
2.88921e-05
2.80835e-05
2.77053e-05
0.000121373
0.000123662
0.000126568
0.000131757
0.000143997
0.000163783
0.000183406
0.000200691
0.000220427
0.000249375
0.00028447
0.00030791
0.000311397
0.000312308
0.000303774
0.000284771
0.000255077
0.000216431
0.000182487
0.000163589
0.000153397
0.000147657
0.000146473
0.000145672
0.000146404
0.000147613
0.000147191
0.000139594
0.000127702
0.000115661
9.30719e-05
0.000109046
0.000113734
0.000108925
0.00011259
0.000127254
0.000116511
0.000130376
0.000118034
0.000131254
0.000106312
0.000126905
6.36556e-05
0.000117412
3.97111e-05
7.00623e-05
3.73183e-05
2.82262e-05
3.43715e-05
3.05367e-05
2.70202e-05
2.6439e-05
2.67662e-05
2.60504e-05
0.000121657
0.000124527
0.000127752
0.000133409
0.000146326
0.000167165
0.000188192
0.000206911
0.000228359
0.000258952
0.000294422
0.00031697
0.000320318
0.000320994
0.000317522
0.000306262
0.000282589
0.000246976
0.000207506
0.000179422
0.000164047
0.000155005
0.000151876
0.000150991
0.000150977
0.000151955
0.000151857
0.000146463
0.000135335
0.000129572
0.000109943
0.000103502
0.000129348
0.000136913
0.0001414
0.000188314
0.0001664
0.000220075
0.000168854
0.000237061
0.000155309
0.000227493
0.000140442
0.00019093
0.000121664
0.000153019
7.27715e-05
0.000125566
6.98178e-05
2.6965e-05
6.13729e-05
4.82912e-05
2.53545e-05
2.47006e-05
2.67752e-05
2.51072e-05
0.000121557
0.000125174
0.000128844
0.000135025
0.000148494
0.000170357
0.000192906
0.000213287
0.000236858
0.000269875
0.000306913
0.000329533
0.000332488
0.000334244
0.000335544
0.000331402
0.000319195
0.000288099
0.000246502
0.000208281
0.000181237
0.000166655
0.000159913
0.000158092
0.000157107
0.000155771
0.000150461
0.0001491
0.000140572
0.00014289
0.000123075
0.000107129
0.000197466
0.000145795
0.000224659
0.00028896
0.000285431
0.000352666
0.000318192
0.000401086
0.000323925
0.000419431
0.000297772
0.000406904
0.000236391
0.000362656
0.000165523
0.000279732
0.000127016
0.000175024
0.000124133
3.47721e-05
0.00011653
0.000105297
2.40064e-05
2.58427e-05
2.99448e-05
2.53674e-05
0.000120954
0.000125521
0.000129763
0.000136533
0.000150355
0.00017326
0.00019755
0.00021968
0.000245695
0.000281808
0.000321823
0.000346045
0.00034975
0.000352398
0.000357505
0.000363587
0.000364765
0.000341334
0.000302183
0.000255796
0.000217214
0.000188879
0.000173485
0.000161424
0.000155971
0.000153685
0.000148293
0.000146709
0.000143471
0.000145212
0.000117122
0.000141271
0.000381926
0.000331074
0.00042119
0.000419262
0.0004791
0.000475749
0.00053921
0.000501057
0.000566799
0.000497845
0.000569063
0.000468952
0.000552104
0.000411955
0.000515576
0.000311584
0.000447303
0.000178879
0.000327512
0.000174837
8.33406e-05
0.000162179
0.000141472
2.33689e-05
4.60527e-05
3.78622e-05
2.55256e-05
0.000120238
0.000125577
0.000130467
0.000137892
0.000151866
0.000175746
0.000202038
0.000226021
0.000254478
0.000294576
0.00033889
0.000366466
0.000371141
0.000373912
0.000379536
0.000383446
0.000378834
0.000361541
0.000330669
0.000292043
0.000254365
0.00022239
0.000172638
0.000151546
0.000144945
0.000145791
0.000146831
0.000147063
0.000146358
0.000147844
0.000118342
0.000177548
0.000447975
0.000614868
0.000657112
0.000533943
0.00058246
0.00059205
0.000635684
0.000617077
0.000657209
0.000623374
0.000665404
0.000616644
0.000668102
0.000594609
0.000658717
0.000550841
0.000632003
0.000470652
0.000579193
0.000329247
0.000481708
0.000313972
0.000121678
0.000279885
0.000230912
2.62264e-05
9.80999e-05
4.16565e-05
2.29939e-05
0.000120661
0.000125618
0.000131117
0.000139248
0.000153032
0.000177718
0.000206185
0.000232083
0.000262894
0.00030737
0.000357437
0.000390232
0.000396364
0.000396514
0.000394899
0.000389485
0.000381626
0.00036697
0.000342854
0.000311028
0.000276864
0.000247356
0.000221212
0.00016177
0.000138755
0.000135236
0.000141879
0.00014699
0.000148558
0.000151253
0.000122515
0.000211362
0.000501307
0.000677167
0.000708002
0.000718407
0.000737408
0.000670925
0.000697955
0.000687849
0.000711591
0.000698658
0.000725414
0.000710307
0.000746549
0.000713381
0.000760218
0.000696969
0.000757878
0.000662366
0.000733611
0.000595638
0.000689031
0.000480077
0.000604906
0.000465756
0.000187256
0.000437692
0.000388303
6.0065e-05
0.000142186
1.39514e-05
2.84656e-05
0.000122674
0.000128758
0.000132663
0.000140868
0.000154215
0.00017907
0.000209739
0.000237693
0.000270531
0.000319443
0.000376606
0.000416642
0.000425059
0.00042192
0.000414139
0.000408351
0.00040865
0.000405932
0.000384243
0.000342309
0.000293982
0.000260013
0.00023743
0.000220486
0.000163941
0.000133613
0.000130865
0.00014037
0.000147552
0.000153355
0.000128732
0.00022986
0.000549664
0.000724203
0.000737105
0.000751848
0.000766694
0.000756915
0.000765358
0.00073062
0.000745707
0.000747305
0.000765704
0.000778404
0.000805965
0.000805099
0.000846177
0.000812541
0.000858265
0.000792783
0.000831667
0.000755634
0.000793728
0.000700343
0.000750995
0.000603424
0.000703077
0.000589879
0.00031742
0.000562633
0.000520036
0.000108572
0.000242574
5.2155e-05
0.000117307
0.00012786
0.000140645
0.000138532
0.000143375
0.000155796
0.000179948
0.000212548
0.000242604
0.000277339
0.000330129
0.000395386
0.000444469
0.000457535
0.000455519
0.000462112
0.000497727
0.000560645
0.000621013
0.000644097
0.000604065
0.000494511
0.000358408
0.000272421
0.000240114
0.000219586
0.000169044
0.000131293
0.000128823
0.000139108
0.000154194
0.000135426
0.000232508
0.00057014
0.000790401
0.000779053
0.000796918
0.000772257
0.000777531
0.000803346
0.000809503
0.000780803
0.000793463
0.000830722
0.000854308
0.000884347
0.000920253
0.00089492
0.000929667
0.000863778
0.000893018
0.000820643
0.000848254
0.00077823
0.000800515
0.000739392
0.000760184
0.000696796
0.000725621
0.000680501
0.000462002
0.000653897
0.000617859
0.000213398
0.00039897
0.00017699
0.000231566
0.0001463
0.000153869
0.000148625
0.00015814
0.00018096
0.000214511
0.000246755
0.00028309
0.000339118
0.000412675
0.000472648
0.000492385
0.000497955
0.000533604
0.000629209
0.000764769
0.000893942
0.000964681
0.000960982
0.00088329
0.00072279
0.000492476
0.000309882
0.000243837
0.000219547
0.000170232
0.000130176
0.000128161
0.000150187
0.000143407
0.000233575
0.00057532
0.000817294
0.000794678
0.000798477
0.000783538
0.000790168
0.000814982
0.000818076
0.000909416
0.000918769
0.000876042
0.000894423
0.000954418
0.000985594
0.00096258
0.000994538
0.000923061
0.000949563
0.000862106
0.000860432
0.000793085
0.000750385
0.000749911
0.000700389
0.00073346
0.000685256
0.000711529
0.000708707
0.000700613
0.00057174
0.000687049
0.000668169
0.000380193
0.000513165
0.000123308
0.000306002
0.000159276
0.00016365
0.000162157
0.00018252
0.00021581
0.000249963
0.000287674
0.000345753
0.000427374
0.00049979
0.000528582
0.000543646
0.000612229
0.000762886
0.000963328
0.00112996
0.00121297
0.00122184
0.00116978
0.00106181
0.000886172
0.000619127
0.000351863
0.000246684
0.000221922
0.000168459
0.000130462
0.000137338
0.000156215
0.000232369
0.000573989
0.000833091
0.000804438
0.000808446
0.000816301
0.000812683
0.000818888
0.000818137
0.000925748
0.000931208
0.00106037
0.00107662
0.0010147
0.00103879
0.00102663
0.00105762
0.000975084
0.00100106
0.000839394
0.000824047
0.000685972
0.000634866
0.000617383
0.000533034
0.000593981
0.000494106
0.000633615
0.000516148
0.000688241
0.000601567
0.000676447
0.000635176
0.000670057
0.000664339
0.000666626
0.000442608
0.000577495
8.54079e-05
0.000264388
0.000174547
0.000171666
0.000183972
0.000216679
0.000251828
0.000290989
0.0003497
0.000438142
0.000524039
0.000564489
0.000588211
0.000685196
0.000882239
0.00113418
0.00129686
0.00135187
0.00134873
0.00131804
0.00124917
0.00113982
0.000969092
0.000704805
0.000390334
0.000248799
0.000221897
0.000167797
0.00013507
0.000171859
0.000222667
0.000554014
0.000847154
0.000802696
0.00080997
0.00080802
0.000921597
0.000911732
0.000931883
0.000928308
0.0010873
0.00109606
0.00114399
0.00116864
0.00108774
0.00111661
0.00102915
0.00105839
0.000822391
0.000834669
0.000597925
0.000579595
0.000454267
0.000389793
0.000418253
0.000359691
0.000427877
0.000374673
0.000479174
0.000411149
0.00058632
0.000471389
0.000527734
0.00063328
0.000580603
0.000662336
0.000640024
0.000658738
0.000643784
0.000595288
0.000584871
0.000649122
0.000480851
0.000650907
0.000633245
0.000583507
8.19216e-05
0.000244108
0.000193436
0.000187842
0.000215148
0.000252526
0.000292498
0.000351017
0.00044397
0.000544093
0.000597592
0.000628991
0.000744129
0.000986979
0.00126427
0.00138026
0.00141122
0.00139836
0.00135134
0.00128563
0.00121297
0.00112484
0.000980807
0.000739424
0.000417394
0.000248264
0.000221102
0.000164149
0.000173648
0.000208313
0.000490606
0.000857918
0.000797592
0.000873993
0.000847652
0.000899351
0.000883282
0.0010925
0.00108265
0.00109983
0.00109844
0.00119013
0.0012083
0.00115101
0.00118141
0.00108858
0.00111979
0.000847887
0.000863604
0.000578734
0.000589757
0.000350326
0.00033326
0.000302533
0.000249208
0.000334292
0.000290418
0.000368086
0.000350611
0.000335318
0.00042994
0.000402648
0.000377448
0.000385796
0.000464095
0.000522182
0.000463934
0.000424716
0.000523486
0.000652724
0.000654671
0.000611173
0.000549063
0.000533304
0.000625473
0.000602373
0.000450701
0.000547564
0.000654796
0.000645896
5.54931e-05
0.000454326
0.000291756
0.000149528
0.000202884
0.000211844
0.00025027
0.000292197
0.000350146
0.00044483
0.000558025
0.000628286
0.000661715
0.000787668
0.00106723
0.0013317
0.00142138
0.00142603
0.00138315
0.00130986
0.001232
0.00117168
0.00111754
0.00105439
0.000948203
0.000734505
0.000419846
0.000245449
0.000218589
0.000186462
0.00020088
0.000416451
0.000860617
0.000803743
0.000900414
0.0010274
0.00102319
0.00106912
0.00105337
0.0012417
0.00124237
0.00122349
0.00123561
0.00121072
0.00123843
0.000962004
0.00100276
0.000888603
0.000929005
0.000606609
0.000626674
0.000329303
0.000332086
0.000222941
0.000209542
0.000236417
0.000189296
0.00031761
0.000300262
0.000277233
0.000251994
0.00037061
0.000365654
0.00034733
0.000335695
0.000401238
0.000388289
0.000382861
0.000383625
0.000424352
0.000465233
0.000426533
0.000402607
0.000471189
0.000637671
0.000645964
0.000569898
0.000483079
0.000500905
0.000593045
0.000617198
0.000558088
0.000650866
0.000649636
0.000132516
7.08027e-06
4.71271e-05
0.000450438
0.000275922
0.000214277
0.000241579
0.000288584
0.000347219
0.00044164
0.00056506
0.000653743
0.000691647
0.000813405
0.00111269
0.00137041
0.00143216
0.00141642
0.00132765
0.00119051
0.00106596
0.00100131
0.0010137
0.00101738
0.000973811
0.000885754
0.000697859
0.000411093
0.00023885
0.000214443
0.000210488
0.000366083
0.000852372
0.000822232
0.000871286
0.00117677
0.0011338
0.00121253
0.00119786
0.00123696
0.00122703
0.00130765
0.00132525
0.00126425
0.00128757
0.0010585
0.00110922
0.000732748
0.00077791
0.000654366
0.000694855
0.000346939
0.000373379
0.000202771
0.000202951
0.000172587
0.00016334
0.000226437
0.000201646
0.000182562
0.000168803
0.000321157
0.000302548
0.000279404
0.000253589
0.000381263
0.000377587
0.000357277
0.000346432
0.000390809
0.000390892
0.000394631
0.000392798
0.000404067
0.000430818
0.00040684
0.000393452
0.000438019
0.00061506
0.000633305
0.000524419
0.000448559
0.000462253
0.000552872
0.000626644
0.000563423
0.000643688
0.000646918
0.000111256
3.43851e-06
1.18167e-05
0.000442806
0.00025433
0.000233152
0.000279776
0.000336041
0.000434932
0.000563672
0.000674686
0.00071295
0.000820472
0.00113191
0.00137894
0.00143451
0.00138666
0.00123143
0.00102855
0.00082194
0.000728222
0.00076981
0.000858614
0.000925317
0.00089577
0.000815062
0.000641332
0.00037881
0.000234286
0.000224036
0.000333158
0.00082708
0.000841283
0.000853771
0.00119619
0.00133476
0.00135074
0.00134898
0.0013481
0.00133815
0.00134606
0.00129889
0.00133784
0.00116517
0.00122897
0.000833414
0.000887434
0.000510266
0.000559094
0.000418053
0.000472687
0.000209943
0.000225842
0.000157492
0.000145253
0.000161594
0.00015684
0.000153857
0.000149136
0.000227499
0.000204168
0.000186659
0.000175278
0.000330633
0.000310055
0.000285661
0.000259757
0.000393645
0.000369263
0.00038832
0.000356269
0.000395683
0.000401279
0.000405834
0.000404069
0.000395409
0.000411666
0.000397092
0.00039784
0.000418737
0.000558776
0.000573364
0.000481306
0.000428332
0.000439557
0.000506199
0.00063079
0.000564794
0.000594519
0.000608305
8.142e-05
2.57602e-06
4.23487e-06
0.000431107
0.000214127
0.000260503
0.000326313
0.000416813
0.000558918
0.00068568
0.000737761
0.000828359
0.00113159
0.00137909
0.00142606
0.00133824
0.00113375
0.000868953
0.000624846
0.000562048
0.000593739
0.000678462
0.000777238
0.000851651
0.000822323
0.000742043
0.000573612
0.000334676
0.000240412
0.000313697
0.000747711
0.000853984
0.000853028
0.00113948
0.00145638
0.00143475
0.00144761
0.00145578
0.00141739
0.0014358
0.00136826
0.00139423
0.0010895
0.00116955
0.000947461
0.00101488
0.000614656
0.00067046
0.000297905
0.00033843
0.000244317
0.000266449
0.000139967
0.000145466
0.000143498
0.000127545
0.000169642
0.000166623
0.000164064
0.000158993
0.000235636
0.000216029
0.000203679
0.00019671
0.000337968
0.00031537
0.000290575
0.000266329
0.000403048
0.000377663
0.000394919
0.000361826
0.000406281
0.000410764
0.000413589
0.000413992
0.000398453
0.000399114
0.00039805
0.000407631
0.000402466
0.000500546
0.000510002
0.000454205
0.00040979
0.000421044
0.000473095
0.000601086
0.00053619
0.000527208
0.000535513
4.44861e-05
1.97537e-06
2.55381e-06
0.000382822
0.000171565
0.000303411
0.000402277
0.000539271
0.000687862
0.000762508
0.000830468
0.00111361
0.00136747
0.00140689
0.00128961
0.00104936
0.000754697
0.000502664
0.000448909
0.000478586
0.000556453
0.0006498
0.000736771
0.000793088
0.000753481
0.000666273
0.000500723
0.000286989
0.000311808
0.000644394
0.000860106
0.000859999
0.00108309
0.00150792
0.00154513
0.00157295
0.00149367
0.00152033
0.00140369
0.00146078
0.00125148
0.00132186
0.000883511
0.000965107
0.000734856
0.000806935
0.000398125
0.000472038
0.000192835
0.000217769
0.000156518
0.000171143
0.000119672
0.000119644
0.000170597
0.00015704
0.000123735
0.000141963
0.000192816
0.000190735
0.000186558
0.000179997
0.000247683
0.000235846
0.000229115
0.000227253
0.000340505
0.000314681
0.000294011
0.000276747
0.000407976
0.000381356
0.000396953
0.000354127
0.000414788
0.000418088
0.000416906
0.000419948
0.000405931
0.000396811
0.000403244
0.000415325
0.000396035
0.000455918
0.000461258
0.000435982
0.000397694
0.000403655
0.000450715
0.000522243
0.000452151
0.000475812
0.000481752
1.53559e-05
1.31076e-06
1.66462e-06
0.000313241
0.000124859
0.000367623
0.000522894
0.000681978
0.000778827
0.000825335
0.00106137
0.00134196
0.00138495
0.00124728
0.000984598
0.000688115
0.000436606
0.000376533
0.000402322
0.000470801
0.000562512
0.000652725
0.000716076
0.000733718
0.000689434
0.00058579
0.00040278
0.000326019
0.000554407
0.000858916
0.000863457
0.00104177
0.00149426
0.0016336
0.00165278
0.00156959
0.0016078
0.00138463
0.00148137
0.00120602
0.00129537
0.00103781
0.00111916
0.00069055
0.000762844
0.000537632
0.000612924
0.000248427
0.000280124
0.000133091
0.00014551
0.000120609
0.000124458
0.000109595
0.000105314
0.000104009
0.000202593
0.000186348
0.000143013
0.000166153
0.000226886
0.000226087
0.000222793
0.000214821
0.000265876
0.000261139
0.000261545
0.000264771
0.000329265
0.000313084
0.000304067
0.000292699
0.000408626
0.000372241
0.000394846
0.000350729
0.000419648
0.000422418
0.000416313
0.000421708
0.00041251
0.000399396
0.000407793
0.000418608
0.000395312
0.000418672
0.000414881
0.000416901
0.000392514
0.000393154
0.000429424
0.000460693
0.000392741
0.00043045
0.000436709
8.60708e-06
1.09309e-06
1.30641e-06
0.000240592
8.9769e-05
0.00047727
0.000670111
0.00078667
0.000828256
0.000996769
0.00130524
0.00136175
0.00121323
0.000938761
0.000655533
0.000411739
0.000334267
0.000348472
0.000415453
0.000519589
0.000616978
0.000691116
0.000716062
0.000685876
0.000611852
0.000479442
0.000373517
0.000495313
0.000829955
0.000867436
0.00101463
0.00146189
0.00171856
0.00163259
0.00151881
0.00139298
0.00150193
0.00119964
0.00129787
0.00101412
0.00110523
0.000843337
0.000927761
0.000479959
0.000585515
0.000322808
0.000383782
0.000163218
0.000187076
0.000113427
0.000117324
0.000108416
0.000107264
0.000118388
0.000101397
9.01924e-05
9.1867e-05
0.00023993
0.000221019
0.00017006
0.000197272
0.000266549
0.000266148
0.0002627
0.000254044
0.000289672
0.000293288
0.000298813
0.00030452
0.000336565
0.000328457
0.000317333
0.00031636
0.000406499
0.000376568
0.000392185
0.000362739
0.000421371
0.000422595
0.000413256
0.000419735
0.000414539
0.000401861
0.000408431
0.000417828
0.00039521
0.000386232
0.00037029
0.000399605
0.000389357
0.000385484
0.000393513
0.000415378
0.000336493
0.000386523
0.000401051
5.73951e-06
9.21286e-07
2.0707e-06
0.000199835
6.28083e-05
0.000622991
0.000788398
0.000833849
0.000938603
0.00124944
0.00133862
0.00119261
0.000908535
0.000640432
0.000424221
0.000312506
0.000310834
0.000373996
0.000492243
0.000605018
0.000680953
0.000704429
0.000679882
0.000618796
0.000526613
0.000435539
0.000490988
0.000786872
0.000861481
0.000998488
0.00142982
0.00175811
0.00155215
0.00171266
0.00141067
0.00156645
0.00120909
0.00130841
0.00102616
0.0011227
0.00083623
0.000930918
0.000663472
0.000747444
0.000283859
0.000332834
0.000215105
0.000248166
0.000124404
0.000136732
8.76922e-05
0.000107748
9.67649e-05
8.92421e-05
7.76431e-05
0.000141238
0.000112559
0.000101225
8.56513e-05
0.000277246
0.000256577
0.000199689
0.000230329
0.000306769
0.00030635
0.00030191
0.00029247
0.000320206
0.000327451
0.00033507
0.000340878
0.000350025
0.000341183
0.000339187
0.000343102
0.000402621
0.000380071
0.000393977
0.000368814
0.000419477
0.000418855
0.000408289
0.000415219
0.000411235
0.000400343
0.000402895
0.000412512
0.000391991
0.000357545
0.000334362
0.000385017
0.000383378
0.000375888
0.000363333
0.000374847
0.00030172
0.000348081
0.000362805
6.97417e-06
8.40209e-07
7.53281e-06
0.000164814
5.94583e-05
0.000765374
0.00085008
0.000895938
0.00118206
0.00130507
0.0011867
0.000897841
0.000646392
0.000457851
0.00030765
0.00028631
0.000336059