/*--------------------------------*- C++ -*----------------------------------*\
  =========                 |
  \\      /  F ield         | OpenFOAM: The Open Source CFD Toolbox
   \\    /   O peration     | Website:  https://openfoam.org
    \\  /    A nd           | Version:  dev
     \\/     M anipulation  |
\*---------------------------------------------------------------------------*/
FoamFile
{
    version     2.0;
    format      ascii;
    class       volScalarField;
    location    "2500";
    object      CO2;
}
// * * * * * * * * * * * * * * * * * * * * * * * * * * * * * * * * * * * * * //

dimensions      [0 0 0 0 0 0 0];

internalField   nonuniform List<scalar> 
9851
(
5.06061e-34
1.76185e-33
1.03244e-33
3.53571e-33
3.34032e-33
1.11079e-33
3.50192e-33
9.60658e-33
4.83624e-33
6.82944e-34
9.18971e-33
2.33764e-32
1.22941e-32
3.36742e-33
3.3049e-34
1.08832e-32
3.42538e-32
3.31814e-32
1.41788e-32
1.55391e-33
1.34166e-34
6.53756e-33
4.69546e-32
5.38158e-32
3.34542e-32
8.91131e-33
1.08743e-33
3.06519e-35
1.68698e-32
7.40898e-32
9.24248e-32
6.52626e-32
2.75967e-32
3.82431e-33
5.43282e-34
3.22191e-35
1.33922e-32
9.64659e-32
1.31058e-31
1.16989e-31
6.07596e-32
1.93287e-32
2.42898e-33
3.00206e-34
4.40283e-36
6.00831e-32
1.70865e-31
2.21682e-31
1.91935e-31
1.2348e-31
4.99066e-32
8.95083e-33
1.51318e-33
8.96808e-35
3.69111e-36
9.13049e-32
2.62881e-31
3.84525e-31
3.21482e-31
2.03489e-31
1.06623e-31
3.55775e-32
5.71353e-33
5.29218e-34
4.13255e-35
2.7858e-36
3.86279e-31
6.08219e-31
7.79014e-31
5.66082e-31
3.34965e-31
1.95473e-31
7.91673e-32
1.88972e-32
2.95825e-33
2.1696e-34
3.92691e-35
2.02763e-35
8.6606e-31
1.68634e-30
1.93598e-30
1.20831e-30
6.95927e-31
3.31852e-31
1.6746e-31
5.05795e-32
9.83744e-33
1.02256e-33
1.95555e-34
1.82551e-34
1.01505e-34
8.54435e-31
5.43859e-30
4.65961e-30
2.86233e-30
1.50818e-30
6.29836e-31
3.06162e-31
1.10408e-31
2.92897e-32
4.0119e-33
1.74552e-33
1.97297e-33
2.73428e-33
1.34794e-33
3.90933e-30
1.42901e-29
1.34981e-29
7.9553e-30
3.64731e-30
1.29423e-30
5.90103e-31
2.08025e-31
7.62738e-32
1.96124e-32
8.09301e-33
1.79748e-32
2.58434e-32
2.0835e-32
2.51516e-32
5.15542e-30
3.40788e-29
3.28676e-29
2.36149e-29
8.97218e-30
3.97444e-30
1.11239e-30
5.27344e-31
1.87734e-31
7.70723e-32
5.75808e-32
7.59953e-32
2.10878e-31
2.07769e-31
4.19339e-31
4.26074e-31
1.88892e-29
8.17652e-29
7.79462e-29
6.66408e-29
3.29212e-29
1.04225e-29
3.56294e-30
1.29998e-30
5.99997e-31
2.63786e-31
5.23144e-31
7.37945e-31
1.29145e-30
2.31695e-30
3.49043e-30
5.02904e-30
4.29786e-30
7.87537e-29
3.6432e-28
2.62838e-28
2.04524e-28
1.08537e-28
3.15462e-29
1.13722e-29
5.01214e-30
2.966e-30
2.24953e-30
3.04846e-30
5.57156e-30
9.69045e-30
1.34705e-29
2.445e-29
3.47275e-29
5.31759e-29
3.94239e-29
3.86345e-28
1.21679e-27
7.14577e-28
7.21529e-28
3.01958e-28
1.29261e-28
4.43596e-29
2.68097e-29
1.69787e-29
2.64735e-29
2.43453e-29
3.20091e-29
9.68435e-29
1.40045e-28
1.62937e-28
2.48128e-28
3.58107e-28
4.59178e-28
2.64919e-28
1.0597e-27
2.41903e-27
2.42184e-27
2.25977e-27
1.01517e-27
4.57508e-28
2.989e-28
1.57943e-28
1.50557e-28
1.62585e-28
2.1669e-28
2.22227e-28
6.86683e-28
1.09328e-27
1.08632e-27
1.57998e-27
3.21208e-27
5.32526e-27
4.5166e-27
3.79241e-27
1.92822e-27
5.4806e-27
8.73704e-27
5.23152e-27
3.46131e-27
2.06789e-27
1.93289e-27
1.09608e-27
1.51557e-27
1.37871e-27
1.75585e-27
2.38573e-27
3.75925e-27
7.0922e-27
1.09328e-26
1.56477e-26
2.23498e-26
4.30271e-26
7.0404e-26
5.15336e-26
8.76952e-27
3.12998e-27
1.4095e-26
1.90389e-26
1.82553e-26
1.41561e-26
9.71015e-27
1.3455e-26
1.06125e-26
1.1663e-26
1.58723e-26
1.43297e-26
1.27027e-26
3.01871e-26
3.37163e-26
5.71346e-26
1.04829e-25
1.38309e-25
2.66782e-25
3.83018e-25
5.87082e-25
3.68718e-25
1.41096e-25
1.106e-26
4.13606e-26
6.50998e-26
7.50781e-26
5.16089e-26
5.94147e-26
8.01441e-26
1.07241e-25
8.43767e-26
1.1587e-25
9.95929e-26
1.50026e-25
1.61478e-25
3.74714e-25
4.20127e-25
9.63428e-25
1.06128e-24
1.96882e-24
2.06015e-24
2.82473e-24
4.58761e-24
2.5105e-24
9.24083e-25
1.70522e-26
6.52247e-26
1.05616e-25
2.07864e-25
2.57818e-25
2.93418e-25
5.40912e-25
9.39654e-25
6.37941e-25
6.93965e-25
7.27222e-25
1.08203e-24
1.30634e-24
1.54932e-24
5.38564e-24
5.18676e-24
7.05549e-24
7.80449e-24
2.13398e-23
1.62149e-23
2.81863e-23
2.98066e-23
2.16756e-23
8.43151e-24
1.02366e-25
2.83878e-25
2.88167e-25
5.58277e-25
1.10065e-24
2.08323e-24
3.50115e-24
6.37352e-24
4.49792e-24
5.17094e-24
6.35973e-24
6.12774e-24
1.10998e-23
1.15712e-23
1.7367e-23
4.83786e-23
4.87955e-23
5.68124e-23
7.97394e-23
1.46763e-22
1.09383e-22
1.87484e-22
2.22059e-22
1.92655e-22
1.10996e-22
2.10667e-25
4.10919e-25
9.97965e-25
1.9e-24
4.16453e-24
1.25074e-23
1.89003e-23
2.6032e-23
4.40141e-23
4.11615e-23
4.9448e-23
3.34644e-23
5.56614e-23
1.11519e-22
1.36104e-22
2.01141e-22
5.95782e-22
5.7811e-22
6.63684e-22
6.81201e-22
1.02539e-21
1.3066e-21
9.1788e-22
1.46236e-21
1.27244e-21
3.31546e-22
7.43505e-25
1.42386e-24
2.53945e-24
5.25604e-24
1.62293e-23
4.99066e-23
1.77508e-22
2.68628e-22
2.37868e-22
2.20797e-22
3.3015e-22
2.1549e-22
3.30973e-22
4.98716e-22
1.10977e-21
1.22962e-21
2.81763e-21
4.77524e-21
4.47095e-21
2.83762e-21
4.60679e-21
1.12852e-20
8.50448e-21
6.85311e-21
7.46491e-21
6.69035e-21
3.703e-21
8.95123e-25
4.66934e-24
5.36737e-24
1.61513e-23
5.90932e-23
2.09024e-22
9.06941e-22
1.79734e-21
2.45306e-21
2.01087e-21
1.41845e-21
1.94067e-21
2.29208e-21
3.19585e-21
5.65307e-21
7.03208e-21
9.96046e-21
2.03085e-20
2.38651e-20
1.5852e-20
3.68658e-20
4.61414e-20
6.90617e-20
7.74428e-20
3.09425e-20
3.77619e-20
3.74256e-20
1.72624e-20
3.43321e-24
1.08716e-23
1.71623e-23
6.53981e-23
2.0933e-22
8.2125e-22
3.95666e-21
8.92372e-21
1.34325e-20
1.30165e-20
1.40789e-20
9.59872e-21
9.6161e-21
1.8083e-20
2.82042e-20
3.53633e-20
4.45057e-20
6.61459e-20
7.85742e-20
8.83535e-20
1.97099e-19
1.29581e-19
1.92452e-19
4.55039e-19
1.71135e-19
1.50854e-19
1.68048e-19
2.62904e-19
4.79534e-20
2.22707e-23
4.34193e-23
6.55053e-23
1.89442e-22
1.0342e-21
4.36659e-21
1.40151e-20
4.53276e-20
7.95056e-20
1.04958e-19
8.57673e-20
8.33753e-20
6.96011e-20
5.68422e-20
1.16752e-19
2.11738e-19
3.20603e-19
4.33542e-19
4.93799e-19
4.03504e-19
8.05091e-19
9.47549e-19
1.23355e-18
1.83414e-18
1.78191e-18
7.26366e-19
9.11232e-19
1.48975e-18
2.40758e-18
4.56016e-19
7.0947e-23
1.14881e-22
2.11852e-22
6.33263e-22
4.19389e-21
1.87822e-20
5.58008e-20
1.39559e-19
4.21347e-19
5.79247e-19
6.804e-19
3.8053e-19
4.63319e-19
3.54452e-19
4.37108e-19
7.52623e-19
1.7437e-18
2.11192e-18
3.4142e-18
3.43694e-18
2.82094e-18
3.99585e-18
2.71114e-18
5.88401e-18
5.87979e-18
4.8076e-18
1.08321e-17
1.19533e-17
2.40142e-17
2.04841e-17
8.45675e-18
2.78107e-22
3.23418e-22
6.10053e-22
2.67457e-21
1.1768e-20
7.14564e-20
3.05171e-19
7.17354e-19
2.03544e-18
2.68992e-18
4.42311e-18
2.78267e-18
1.84013e-18
2.7528e-18
1.74785e-18
4.14725e-18
6.61878e-18
9.96272e-18
1.18808e-17
1.39359e-17
1.27129e-17
1.27486e-17
1.26765e-17
1.90463e-17
2.07914e-17
3.53328e-17
4.12286e-17
1.37803e-16
2.21166e-16
2.06853e-16
1.58825e-16
2.79898e-17
8.19887e-22
1.52821e-21
2.2708e-21
1.05167e-20
5.3346e-20
2.68262e-19
9.90396e-19
3.68276e-18
7.57299e-18
1.2577e-17
2.18508e-17
2.23228e-17
1.55981e-17
1.14493e-17
1.1331e-17
1.66203e-17
2.83279e-17
3.62812e-17
4.43117e-17
3.40175e-17
4.50659e-17
3.24698e-17
5.302e-17
4.57534e-17
6.53134e-17
1.19607e-16
2.86262e-16
7.01074e-16
1.58597e-15
2.41974e-15
3.14006e-15
4.63453e-16
4.95244e-18
5.67152e-21
7.31885e-21
6.08688e-21
3.77902e-20
2.7094e-19
1.22726e-18
5.6817e-18
1.42274e-17
4.89015e-17
6.36513e-17
9.60682e-17
9.87614e-17
1.06581e-16
9.44521e-17
6.94917e-17
6.67036e-17
1.54473e-16
1.06375e-16
1.26974e-16
1.53574e-16
1.503e-16
1.53035e-16
1.46692e-16
2.11765e-16
1.74837e-16
4.26381e-16
1.27242e-15
4.72459e-15
1.59479e-14
3.13587e-14
3.24237e-14
1.49347e-14
3.57619e-16
1.22896e-17
1.20692e-16
2.12248e-20
2.66592e-20
2.51072e-20
1.0799e-19
9.86231e-19
5.99226e-18
2.63581e-17
6.25077e-17
1.61354e-16
3.39076e-16
3.84485e-16
4.79796e-16
5.32392e-16
5.41865e-16
3.58544e-16
2.97285e-16
4.12929e-16
4.44762e-16
4.73456e-16
5.23755e-16
4.91677e-16
4.58982e-16
4.11619e-16
4.69769e-16
5.25444e-16
1.36325e-15
5.98043e-15
2.80799e-14
1.27578e-13
3.71849e-13
4.91961e-13
2.06555e-13
0
1.32998e-15
1.21475e-14
3.80453e-17
4.26045e-16
1.23151e-19
1.28339e-19
1.15205e-19
3.58076e-19
3.30542e-18
2.24934e-17
1.03645e-16
3.37457e-16
6.61114e-16
1.41642e-15
2.15762e-15
2.49301e-15
2.7797e-15
3.1811e-15
2.24183e-15
1.58189e-15
1.74434e-15
2.20762e-15
1.8321e-15
1.77373e-15
1.85266e-15
1.64542e-15
1.26978e-15
1.29074e-15
1.55998e-15
4.99637e-15
2.69311e-14
1.49222e-13
7.34955e-13
3.25026e-12
6.77562e-12
3.81438e-12
4.0148e-13
1.81652e-12
1.10068e-13
1.35072e-12
1.10287e-12
5.8423e-15
7.08247e-14
1.24413e-16
2.23114e-15
5.37665e-19
5.02847e-19
4.6261e-19
9.95098e-19
9.96056e-18
7.97034e-17
4.07178e-16
1.38859e-15
3.53743e-15
7.93971e-15
1.37189e-14
1.83084e-14
2.18679e-14
2.35426e-14
2.46284e-14
1.3583e-14
1.24541e-14
1.25315e-14
1.16781e-14
1.05022e-14
8.75756e-15
7.2514e-15
5.67902e-15
4.87614e-15
5.70493e-15
1.52906e-14
1.02482e-13
6.7424e-13
3.63466e-12
1.96658e-11
6.90118e-11
6.39778e-11
9.7494e-12
5.66746e-11
9.12207e-12
8.02583e-13
9.46318e-12
8.3818e-12
3.57193e-14
4.86139e-13
4.28229e-16
1.34747e-14
1.90852e-18
2.45675e-18
1.87196e-18
2.69398e-18
2.73302e-17
2.54511e-16
1.5056e-15
5.60114e-15
1.77591e-14
4.47666e-14
8.49448e-14
1.28358e-13
1.66928e-13
1.96195e-13
2.32053e-13
1.21852e-13
1.08181e-13
9.83982e-14
8.68744e-14
7.22729e-14
5.6538e-14
4.26083e-14
3.16536e-14
2.31548e-14
2.15735e-14
5.04396e-14
3.45458e-13
2.65709e-12
1.60188e-11
9.68957e-11
4.82194e-10
7.78813e-10
2.81079e-10
1.03469e-09
5.70278e-11
3.38575e-10
7.58024e-11
5.98941e-12
7.93011e-11
6.68439e-11
2.35233e-13
3.46734e-12
2.11306e-15
8.33716e-14
9.24903e-18
1.16554e-17
6.74896e-18
8.20804e-18
7.32734e-17
8.14553e-16
5.0537e-15
2.42679e-14
8.61032e-14
2.35794e-13
4.9683e-13
8.37581e-13
1.20965e-12
1.54119e-12
1.75447e-12
1.19074e-12
9.79822e-13
8.45097e-13
6.97947e-13
5.41141e-13
3.90881e-13
2.692e-13
1.82221e-13
1.2369e-13
9.27723e-14
1.57287e-13
1.06285e-12
9.01321e-12
6.00939e-11
3.96361e-10
2.49114e-09
7.30413e-09
3.88376e-09
1.43191e-08
1.78248e-09
8.60223e-09
5.24795e-10
3.22026e-09
6.6009e-10
4.59116e-11
6.62547e-10
5.41462e-10
1.60193e-12
2.53289e-11
1.32209e-14
5.43709e-13
3.09207e-17
4.1104e-17
2.91856e-17
2.42867e-17
1.8757e-16
2.1927e-15
1.77611e-14
9.76495e-14
3.86909e-13
1.16204e-12
2.68979e-12
5.01516e-12
8.07551e-12
1.14595e-11
1.40824e-11
1.38874e-11
8.97119e-12
7.47763e-12
5.82863e-12
4.2235e-12
2.82142e-12
1.77262e-12
1.08575e-12
6.72587e-13
4.39418e-13
5.00486e-13
2.99756e-12
2.82361e-11
2.17612e-10
1.37939e-09
1.11475e-08
5.44585e-08
4.6682e-08
1.44938e-07
3.60097e-08
1.33777e-07
1.71844e-08
8.01764e-08
4.67362e-09
2.87004e-08
5.68125e-09
3.56602e-10
5.55112e-09
4.39735e-09
1.10588e-11
1.86004e-10
8.57857e-14
3.6057e-12
1.11018e-16
1.52988e-16
1.08464e-16
7.5973e-17
4.04338e-16
5.94085e-15
5.58905e-14
3.60588e-13
1.6097e-12
5.32071e-12
1.34627e-11
2.74224e-11
4.88608e-11
7.82906e-11
1.0929e-10
1.33333e-10
7.99184e-11
6.6572e-11
4.96572e-11
3.38235e-11
2.09766e-11
1.20934e-11
6.70083e-12
3.71279e-12
2.15748e-12
1.70591e-12
6.97277e-12
8.5653e-11
7.0605e-10
4.81677e-09
3.69332e-08
2.85549e-07
3.97386e-07
1.0746e-06
4.43415e-07
1.35598e-06
3.30577e-07
1.19454e-06
1.52596e-07
7.00545e-07
4.08258e-08
2.45938e-07
4.79972e-08
2.76071e-09
4.58414e-08
3.52343e-08
7.66337e-11
1.35644e-09
5.66379e-13
2.38469e-11
3.60098e-16
5.25595e-16
3.69856e-16
2.25656e-16
8.19288e-16
1.38739e-14
1.64321e-13
1.20598e-12
6.13534e-12
2.25175e-11
6.2297e-11
1.37873e-10
2.65477e-10
4.7428e-10
7.66943e-10
1.10494e-09
6.96227e-10
5.83389e-10
4.24062e-10
2.73606e-10
1.58421e-10
8.42899e-11
4.26237e-11
2.11699e-11
1.08625e-11
6.50918e-12
1.52614e-11
1.74943e-10
2.1003e-09
1.63323e-08
1.19209e-07
1.04031e-06
2.54676e-06
6.26589e-06
3.70742e-06
9.26564e-06
3.83652e-06
1.08603e-05
2.78986e-06
9.28906e-06
1.27439e-06
5.5279e-06
3.41583e-07
1.97417e-06
3.90524e-07
2.10801e-08
3.65783e-07
2.74512e-07
5.24473e-10
9.72361e-09
3.77158e-12
1.56003e-10
1.62572e-15
2.15199e-15
1.27375e-15
7.70812e-16
1.54301e-15
2.81307e-14
4.32421e-13
3.70121e-12
2.14351e-11
8.76032e-11
2.65671e-10
6.38122e-10
1.32128e-09
2.50342e-09
4.50255e-09
7.55665e-09
5.68924e-09
4.94281e-09
3.56292e-09
2.19757e-09
1.19687e-09
5.91838e-10
2.75373e-10
1.24275e-10
5.67542e-11
2.80484e-11
3.24976e-11
3.60528e-10
4.66115e-09
4.1996e-08
3.28285e-07
3.25947e-06
1.16875e-05
2.31157e-05
2.08255e-05
4.62865e-05
2.73771e-05
6.2592e-05
2.67998e-05
6.83559e-05
1.94752e-05
5.68447e-05
9.38902e-06
3.49864e-05
2.65135e-06
1.37177e-05
2.95674e-06
1.57551e-07
2.72697e-06
2.02049e-06
3.51639e-09
6.83455e-08
2.45475e-11
9.83207e-10
8.87183e-15
9.76401e-15
5.06081e-15
2.35523e-15
2.85544e-15
5.10018e-14
9.11291e-13
1.05679e-11
6.94014e-11
3.1384e-10
1.04125e-09
2.71191e-09
6.04316e-09
1.21231e-08
2.22732e-08
3.91594e-08
4.53539e-08
3.94778e-08
2.85739e-08
1.71264e-08
8.89255e-09
4.1272e-09
1.78568e-09
7.42476e-10
3.09452e-10
1.33245e-10
8.19724e-11
5.67824e-10
9.94069e-09
1.01433e-07
8.95464e-07
7.53764e-06
4.28215e-05
6.85367e-05
8.01652e-05
0.000148474
0.000128788
0.000232323
0.000154178
0.000301875
0.000143643
0.000319717
0.00010515
0.000263307
5.45862e-05
0.000170321
1.75425e-05
7.44779e-05
1.90474e-05
1.13129e-06
1.74141e-05
1.301e-05
2.27177e-08
4.63273e-07
1.55091e-10
5.86784e-09
5.13885e-14
5.54017e-14
2.71449e-14
1.15485e-14
5.68748e-15
8.17645e-14
1.73122e-12
2.57565e-11
2.09595e-10
1.03631e-09
3.74529e-09
1.05532e-08
2.52427e-08
5.39647e-08
1.02172e-07
1.75448e-07
2.53051e-07
2.79526e-07
2.03566e-07
1.24687e-07
6.36688e-08
2.8102e-08
1.13985e-08
4.57244e-09
1.71001e-09
6.60466e-10
2.78897e-10
7.61181e-10
1.64064e-08
2.5941e-07
2.33371e-06
2.29175e-05
0.000124988
9.17821e-05
0.000212971
0.000316426
0.000356574
0.000493917
0.000484434
0.000682171
0.000561567
0.000830538
0.000550509
0.00089298
0.000424269
0.000829893
0.000242516
0.000610785
8.99941e-05
0.000306894
9.46781e-05
7.37315e-06
8.56596e-05
6.46082e-05
1.40466e-07
2.9851e-06
9.39167e-10
3.30421e-08
2.86917e-13
3.35932e-13
1.5942e-13
6.14482e-14
1.96554e-14
1.09406e-13
2.87879e-12
4.66325e-11
5.51304e-10
3.1851e-09
1.23268e-08
3.74758e-08
9.5593e-08
2.17034e-07
4.3171e-07
7.39139e-07
1.09351e-06
1.28987e-06
1.21363e-06
8.79533e-07
4.18773e-07
1.80916e-07
7.15018e-08
2.72108e-08
9.13709e-09
3.2927e-09
1.1826e-09
1.15308e-09
2.02328e-08
4.02728e-07
5.30337e-06
5.6827e-05
0.000423553
0.00038309
0.000547116
0.000624867
0.000759802
0.000873278
0.00105261
0.00109175
0.00133189
0.00122669
0.00155148
0.00125118
0.0016504
0.00110954
0.00161015
0.000783575
0.00139259
0.00034905
0.000913281
0.000354824
3.80689e-05
0.000317546
0.000243355
8.49078e-07
1.67005e-05
5.29798e-09
1.79925e-07
1.39752e-12
1.97197e-12
9.78295e-13
3.4717e-13
9.77865e-14
1.26998e-13
3.78354e-12
7.45167e-11
9.46412e-10
8.30362e-09
3.66498e-08
1.21379e-07
3.26559e-07
7.79565e-07
1.6352e-06
2.91505e-06
4.3702e-06
5.14773e-06
4.68951e-06
3.39773e-06
2.08389e-06
1.09794e-06
4.2149e-07
1.52311e-07
4.84533e-08
1.66292e-08
5.61142e-09
2.53102e-09
2.01895e-08
4.15692e-07
7.86056e-06
9.36769e-05
0.000543988
0.00107038
0.00116031
0.000872417
0.000983698
0.00121161
0.0013585
0.00154582
0.00173369
0.00182149
0.00203906
0.00197342
0.00218083
0.00199292
0.00220846
0.00190081
0.00217646
0.00160607
0.00205943
0.000979501
0.00173654
0.000967078
0.000155185
0.000866227
0.000689087
5.05266e-06
7.63856e-05
3.06181e-08
1.04303e-06
5.77334e-12
9.60631e-12
6.14133e-12
1.96313e-12
5.58884e-13
1.77594e-13
3.98027e-12
9.82249e-11
1.4389e-09
1.44681e-08
8.7608e-08
3.40871e-07
1.00543e-06
2.49237e-06
5.48823e-06
1.03668e-05
1.63164e-05
2.01653e-05
1.93661e-05
1.47102e-05
9.07604e-06
4.6975e-06
2.18897e-06
8.05348e-07
2.59761e-07
8.50998e-08
2.67957e-08
8.42401e-09
2.12208e-08
4.64157e-07
8.78279e-06
0.000118136
0.000618612
0.00122671
0.00129152
0.00167273
0.00175059
0.00148131
0.00158733
0.00189019
0.00202486
0.00220426
0.00232452
0.00231375
0.00240315
0.00232364
0.00238417
0.00229588
0.00235543
0.00225746
0.00232801
0.00215173
0.00228515
0.00179024
0.00219827
0.00177115
0.000481648
0.00165794
0.00141699
2.57965e-05
0.00026949
3.796e-07
9.03498e-06
1.95453e-11
3.787e-11
2.50858e-11
1.02981e-11
3.18098e-12
5.2702e-13
3.45897e-12
1.0501e-10
1.88699e-09
2.06162e-08
1.60697e-07
7.35933e-07
2.5722e-06
7.06707e-06
1.61588e-05
3.21239e-05
5.30955e-05
6.96852e-05
7.32021e-05
6.14753e-05
4.10729e-05
2.21662e-05
9.95741e-06
3.81291e-06
1.33503e-06
4.35874e-07
1.27788e-07
3.54789e-08
2.69388e-08
4.75412e-07
8.77175e-06
0.000123197
0.000658346
0.00133786
0.00129214
0.00181038
0.00186457
0.00229455
0.00235853
0.00213364
0.00222297
0.00241848
0.00249869
0.00246548
0.0025202
0.00242504
0.00244571
0.00235626
0.00232369
0.00230893
0.00223291
0.00230357
0.00221532
0.00230763
0.00226206
0.00222013
0.00231681
0.00221707
0.00108808
0.00216836
0.00202297
0.000122917
0.000726792
1.39774e-05
0.000107568
3.85305e-11
1.25428e-10
1.03744e-10
5.13441e-11
1.60819e-11
2.50779e-12
2.44354e-12
9.54701e-11
2.04998e-09
2.65856e-08
2.2201e-07
1.24554e-06
4.99449e-06
1.56246e-05
3.96122e-05
8.21524e-05
0.000137722
0.000185824
0.000209171
0.000199718
0.000158259
9.78123e-05
4.76392e-05
1.90997e-05
6.51148e-06
2.12633e-06
6.02154e-07
1.5969e-07
5.47057e-08
4.55841e-07
8.615e-06
0.000120581
0.000655957
0.00168142
0.00189372
0.00200244
0.00240622
0.00244767
0.00268545
0.00273921
0.00256767
0.00262941
0.00257102
0.00262015
0.00245694
0.0024632
0.00226018
0.00218949
0.00208324
0.00191637
0.00201735
0.00176554
0.00208459
0.00177919
0.00221991
0.00195135
0.0023292
0.00219615
0.00234694
0.00176582
0.00235263
0.00233345
0.000530575
0.00147965
0.000220991
0.000618855
2.09602e-10
3.57332e-10
1.90805e-10
6.84722e-11
1.29387e-11
2.61599e-12
6.54652e-11
1.93932e-09
2.92869e-08
2.73483e-07
1.76929e-06
7.84304e-06
2.69455e-05
7.23267e-05
0.000151601
0.000246664
0.000323261
0.000363888
0.00036693
0.000333467
0.0002659
0.000168869
7.74123e-05
2.8777e-05
9.49955e-06
2.68126e-06
7.01894e-07
1.7951e-07
3.99747e-07
7.78203e-06
0.000114262
0.000640922
0.00166809
0.00250493
0.00250337
0.00246678
0.00249808
0.00278731
0.00283152
0.00276857
0.00282073
0.00266874
0.00271827
0.00247545
0.002495
0.00213608
0.00210786
0.00177669
0.00167933
0.00152789
0.0013323
0.0014672
0.00119076
0.00159378
0.0012867
0.00186513
0.00151667
0.00220777
0.00184081
0.00226338
0.00225565
0.00234224
0.00240787
0.00129644
0.00211378
0.000151694
0.000743551
5.93051e-10
7.70536e-10
2.78603e-10
7.00462e-11
8.1104e-12
3.62279e-11
1.43735e-09
2.84258e-08
3.02636e-07
2.13485e-06
1.05289e-05
3.88772e-05
0.000108751
0.000226659
0.000356874
0.000453077
0.000505165
0.000520853
0.000503174
0.000448568
0.000355235
0.000229605
0.000102823
3.63609e-05
1.07901e-05
2.91371e-06
7.17393e-07
4.40634e-07
5.3212e-06
9.76093e-05
0.000601853
0.00163588
0.00249279
0.00241038
0.00292197
0.00293315
0.00286684
0.00289914
0.00287337
0.00292568
0.00261269
0.00266799
0.00252457
0.00256487
0.00210759
0.00212158
0.00162603
0.00161308
0.00119798
0.00112351
0.000957877
0.000777093
0.00104147
0.000805655
0.0012784
0.00108407
0.00152968
0.00135057
0.00187955
0.00156588
0.00198265
0.00245691
0.00212719
0.00223082
0.0023912
0.0016619
0.00236357
7.66621e-05
0.00063944
1.34818e-09
1.35001e-09
2.85736e-10
4.04519e-11
1.95185e-11
8.55254e-10
2.26868e-08
2.98819e-07
2.28912e-06
1.24338e-05
4.91002e-05
0.000142633
0.000297665
0.0004571
0.000568578
0.00062775
0.00065337
0.000655322
0.000628012
0.000557074
0.000435951
0.000276568
0.0001188
3.99332e-05
1.11509e-05
2.86559e-06
8.5935e-07
3.1751e-06
6.96088e-05
0.000529881
0.00157086
0.00268489
0.0029389
0.00299691
0.0030694
0.00311007
0.00297618
0.00302473
0.00272843
0.00279175
0.00226959
0.00233882
0.00215666
0.00220877
0.00162428
0.00165849
0.00109695
0.00110494
0.000668234
0.00062227
0.000575035
0.000382851
0.000887292
0.00065797
0.00122128
0.00108799
0.0014678
0.00151337
0.00164773
0.00159267
0.00157097
0.00187375
0.00170857
0.00231849
0.00247136
0.0024096
0.00203208
0.0018231
0.00175335
0.00212426
0.00175397
0.00246045
0.00244873
0.00230074
5.34212e-05
0.000547302
2.53126e-09
9.21851e-10
2.01291e-10
2.2161e-11
4.26158e-10
1.45887e-08
2.53942e-07
2.28031e-06
1.31767e-05
5.56796e-05
0.000169081
0.000357246
0.000545155
0.000667043
0.000725699
0.00075647
0.000774192
0.000781842
0.000757171
0.000671831
0.00051532
0.000312491
0.000125371
3.94593e-05
1.06995e-05
2.74103e-06
2.97119e-06
4.296e-05
0.000437203
0.00145969
0.00262984
0.00317403
0.0031535
0.00313738
0.00317489
0.00298303
0.00304319
0.00285626
0.00292052
0.00241382
0.00249243
0.00185532
0.00193803
0.00171391
0.00178038
0.00113387
0.0011851
0.000613352
0.000631689
0.000289983
0.000255723
0.000404065
0.000208452
0.000906004
0.000637246
0.00157694
0.00140765
0.0013156
0.00168241
0.00181629
0.00195483
0.00191055
0.0016565
0.00165545
0.00170954
0.0017797
0.00168612
0.00223987
0.00235448
0.00190917
0.00177826
0.00172869
0.00201661
0.00231598
0.00148971
0.00199892
0.00243764
0.0024368
1.39617e-05
0.00146112
0.000709821
0.000234625
2.86117e-09
5.59916e-10
7.10707e-11
1.83744e-10
8.04215e-09
1.75557e-07
2.02265e-06
1.30439e-05
5.77706e-05
0.000184553
0.000401033
0.000615337
0.00073639
0.000783805
0.000808176
0.000837755
0.000874964
0.000907822
0.000895728
0.000793401
0.000592529
0.00033511
0.000122552
3.7033e-05
9.60024e-06
3.99783e-06
2.38064e-05
0.000326092
0.00131786
0.00251584
0.00320191
0.00318996
0.00322133
0.0030976
0.00314938
0.00273349
0.00281209
0.00257297
0.00265364
0.00202625
0.00211891
0.00141112
0.00150467
0.00125049
0.00132628
0.000669853
0.000721081
0.000246957
0.0002531
0.000132786
0.000108838
0.000353324
0.000157855
0.00117925
0.000996023
0.000821725
0.000617665
0.00194136
0.00185762
0.00160966
0.00145156
0.00195643
0.00211572
0.00219242
0.00219092
0.00186224
0.00173514
0.00192125
0.00208371
0.00175635
0.00214689
0.00228135
0.00184178
0.00177833
0.0018047
0.00192846
0.00231767
0.00199462
0.00239032
0.00241145
0.000178444
3.79517e-07
1.02464e-05
0.00140181
0.000644252
2.15971e-09
3.40573e-10
8.52036e-11
3.90124e-09
1.05942e-07
1.48575e-06
1.17822e-05
5.68651e-05
0.000188552
0.000426096
0.000665594
0.000781756
0.000812033
0.000822038
0.000836572
0.000881683
0.000954931
0.00102945
0.00103509
0.000908763
0.000653748
0.000335422
0.000113502
3.21116e-05
8.91616e-06
1.71895e-05
0.000219574
0.00111583
0.00236721
0.00318534
0.00312403
0.00316978
0.00302651
0.00309137
0.00288754
0.00296004
0.00240617
0.00250252
0.00221416
0.00231001
0.00160564
0.00171272
0.000955477
0.00105586
0.000786954
0.000866144
0.000275933
0.000315901
0.000100335
9.55324e-05
9.40704e-05
7.82775e-05
0.000454565
0.000292113
0.000198909
0.000137153
0.00126776
0.00105685
0.000842227
0.00063548
0.0021164
0.00196573
0.00171768
0.00151778
0.00229091
0.00240759
0.00236279
0.00242544
0.00218442
0.00194843
0.0022486
0.00244177
0.00194819
0.0020513
0.00219933
0.00184183
0.00192927
0.00190731
0.00189521
0.00230381
0.00197449
0.00232986
0.00237766
0.000119806
5.70474e-08
2.5504e-06
0.00133577
0.000547478
1.12991e-09
1.19814e-10
1.51282e-09
5.75884e-08
9.68947e-07
9.06513e-06
5.20164e-05
0.000185676
0.000432755
0.000696842
0.000813777
0.000831167
0.000819037
0.000806673
0.000831253
0.000920646
0.00104445
0.00115848
0.00116797
0.00099967
0.000679158
0.000314145
9.6829e-05
2.53425e-05
1.78439e-05
0.00013796
0.000864146
0.00216713
0.00313034
0.00314029
0.00293033
0.00297823
0.00277365
0.00285467
0.00259695
0.00268797
0.00205249
0.00216702
0.00182395
0.00193763
0.00116708
0.00128682
0.000528205
0.000626765
0.000372881
0.000443965
9.5803e-05
0.000106612
7.23052e-05
5.81031e-05
0.000116543
0.000108841
0.00010899
0.000108652
0.00045995
0.00032141
0.000232608
0.000194006
0.00129286
0.00105921
0.000832793
0.000630122
0.00220951
0.00175864
0.00199296
0.00152008
0.00260476
0.00264596
0.00245031
0.00259714
0.00255938
0.00227096
0.00263392
0.00278014
0.00224931
0.00197863
0.00211101
0.0018957
0.00219069
0.00210888
0.00191085
0.00228109
0.00194389
0.00226369
0.00233942
5.68435e-05
9.0488e-09
6.11792e-07
0.00125246
0.000391617
5.15646e-10
5.56057e-10
2.59374e-08
5.78465e-07
6.29533e-06
4.15422e-05
0.000172642
0.000428691
0.000709098
0.000837685
0.000848502
0.000810488
0.000735898
0.000676319
0.000745936
0.000960738
0.00116212
0.00130623
0.00128379
0.00103786
0.000654347
0.000270298
7.43778e-05
2.64755e-05
8.83411e-05
0.0006304
0.00191512
0.00299962
0.00316013
0.00284534
0.0029302
0.00268631
0.0027684
0.00249256
0.00259203
0.00227936
0.0023884
0.00168065
0.00181558
0.00141337
0.00154539
0.000735505
0.000857512
0.000198398
0.000259611
0.000126378
0.000156015
4.39594e-05
3.83169e-05
0.000120788
7.94808e-05
0.000185011
0.00018679
0.000187054
0.000175919
0.000468429
0.000358989
0.000309632
0.00030394
0.00126796
0.00102248
0.000801509
0.000623159
0.00222781
0.00173988
0.00195985
0.00147057
0.00285057
0.0028286
0.00246885
0.00269099
0.00292437
0.00266092
0.00302486
0.00304398
0.00262783
0.00195287
0.00203846
0.00202375
0.0025397
0.00240507
0.00196915
0.00225722
0.00191246
0.00218892
0.00229901
2.54886e-05
1.43541e-09
1.34289e-07
0.00112927
0.000270252
3.42178e-10
1.09202e-08
2.96411e-07
4.05168e-06
3.03283e-05
0.000144327
0.000410356
0.000707876
0.000855004
0.000865515
0.000802882
0.000666991
0.000504246
0.000511384
0.000718306
0.00105025
0.00133072
0.00146838
0.00133351
0.00100742
0.000587109
0.000207511
5.55527e-05
7.56745e-05
0.000454828
0.00163029
0.00280864
0.00315065
0.00292097
0.0026298
0.00269768
0.00243416
0.00253639
0.00220326
0.00232224
0.00194831
0.00207806
0.00128109
0.00143372
0.000990617
0.00113217
0.000344403
0.000449278
5.99883e-05
8.05554e-05
3.88073e-05
4.61723e-05
3.97635e-05
2.35728e-05
0.000328825
0.000283615
0.000151871
0.000224554
0.000315794
0.000342062
0.000352934
0.00035224
0.000499496
0.000448182
0.000447767
0.000482861
0.00120711
0.000970501
0.000779893
0.000649622
0.00219154
0.00167391
0.00188983
0.00139452
0.00304614
0.00293577
0.00244266
0.0027222
0.00321562
0.00306945
0.00335735
0.00325273
0.00304031
0.00196325
0.00200549
0.00224351
0.00294035
0.00276425
0.00209089
0.00223494
0.00187714
0.00212135
0.00225802
8.52655e-06
3.85396e-10
4.75169e-08
0.000995129
0.000149577
3.24824e-09
1.43767e-07
2.29419e-06
2.07236e-05
0.000111232
0.000366199
0.000695333
0.000865567
0.000882568
0.000803485
0.000618171
0.000381914
0.000333517
0.000489016
0.00081759
0.00127489
0.00157006
0.0015576
0.00130718
0.000907885
0.000473639
0.000137666
8.38557e-05
0.000334968
0.00134447
0.00257846
0.00310693
0.00300019
0.00257651
0.00267268
0.0023923
0.00248819
0.0021588
0.00228105
0.00188532
0.00202633
0.00158612
0.00173722
0.000858296
0.00101628
0.000574115
0.000710572
0.000110849
0.000154662
1.62554e-05
2.07535e-05
1.63046e-05
1.44914e-05
9.38993e-05
5.54632e-05
3.27498e-05
0.000561302
0.000492532
0.000287061
0.000396809
0.000534189
0.000580548
0.000597817
0.000595818
0.000604102
0.000613405
0.000674308
0.000764369
0.00114339
0.000943271
0.000812424
0.000778195
0.00213217
0.00159522
0.00182432
0.00133256
0.00317954
0.00298836
0.00240694
0.0027174
0.00344312
0.00344815
0.00361616
0.00342053
0.00345092
0.00200517
0.00200256
0.00253567
0.00335343
0.00315643
0.00228588
0.00221092
0.00183314
0.00206656
0.00221241
3.86122e-06
2.86657e-10
3.1304e-08
0.000799365
9.19792e-05
4.82659e-08
1.23724e-06
1.26225e-05
8.04866e-05
0.000303153
0.000660744
0.000867663
0.000898453
0.000813239
0.000598103
0.00030728
0.000214142
0.000313825
0.000602404
0.00113503
0.00160935
0.00173454
0.00154979
0.00118228
0.00073825
0.00033719
0.000119852
0.0002825
0.00108804
0.002333
0.00300261
0.00301961
0.00267008
0.00232891
0.00240687
0.0021053
0.00222487
0.00182622
0.00197139
0.00150972
0.00167141
0.00117832
0.00134377
0.000438504
0.000584119
0.000218401
0.000314892
2.89219e-05
4.23406e-05
6.0192e-06
5.77755e-06
1.24532e-05
7.93113e-06
0.000174346
8.51513e-05
8.14291e-05
3.63855e-05
0.000856932
0.000755254
0.000472413
0.000622174
0.000849637
0.0009093
0.000925301
0.000915759
0.0008
0.00088799
0.00101933
0.00114846
0.00112588
0.000996429
0.000971119
0.00100454
0.00209421
0.00155195
0.00181365
0.00134041
0.00326142
0.00301337
0.0024069
0.0027154
0.00363663
0.00375303
0.00383285
0.00354407
0.00381872
0.00207691
0.00200584
0.00287311
0.00375219
0.00355115
0.00253292
0.00218595
0.00176952
0.00203193
0.00216098
1.93452e-06
8.80186e-09
1.81624e-07
0.000645064
5.6191e-05
4.91765e-07
7.47307e-06
5.22798e-05
0.000236462
0.000590758
0.000861182
0.000911527
0.000830908
0.000598557
0.000276257
0.000141602
0.000191428
0.00040679
0.000941259
0.00158806
0.00185404
0.00175449
0.00142181
0.000955113
0.00051203
0.000213419
0.000285482
0.000905842
0.00209127
0.00286557
0.00300882
0.00277616
0.00221733
0.00232967
0.00201255
0.00211666
0.00173947
0.00188263
0.00142234
0.00158574
0.00107913
0.00125195
0.000740957
0.000906442
0.000144613
0.000217139
6.33822e-05
9.58679e-05
6.68514e-06
9.39802e-06
4.31603e-06
3.39794e-06
1.9268e-05
1.18028e-05
7.76324e-06
0.00032397
0.000188059
0.000152005
6.26723e-05
0.00119935
0.00105433
0.000674391
0.000873898
0.00125695
0.00131419
0.00132458
0.00129174
0.00112945
0.001291
0.00146574
0.00161967
0.00121197
0.00119243
0.00123491
0.00138582
0.00212281
0.00159314
0.00189431
0.00145951
0.00332678
0.00305176
0.00248098
0.00275792
0.00380896
0.00400844
0.00404077
0.00365616
0.00412461
0.00221209
0.00203213
0.00323176
0.00410987
0.00392147
0.00280921
0.00215818
0.00170778
0.00200534
0.00210957
2.13427e-06
1.13421e-07
1.37067e-06
0.000532342
4.94887e-05
3.29045e-06
3.33655e-05
0.000165992
0.000503388
0.000836344
0.00091792
0.00085417
0.00060884
0.000276024
0.000103388
0.000113072
0.000248053
0.000688364
0.00144651
0.00187815
0.00190954
0.00166103
0.00117109
0.000668154
0.000339495
0.000320895
0.000855665
0.00186661
0.00271131
0.00297439
0.0028396
0.0023058
0.00186088
0.00196179
0.00161102
0.00174614
0.00130227
0.00146098
0.000968001
0.00113815
0.000632657
0.000798338
0.000327975
0.00046998
3.70131e-05
6.03043e-05
1.44314e-05
2.28981e-05
2.41274e-06
2.22944e-06
6.67934e-06
4.88652e-06
4.07745e-06
2.75474e-05
1.38435e-05