/*--------------------------------*- C++ -*----------------------------------*\
  =========                 |
  \\      /  F ield         | OpenFOAM: The Open Source CFD Toolbox
   \\    /   O peration     | Website:  https://openfoam.org
    \\  /    A nd           | Version:  dev
     \\/     M anipulation  |
\*---------------------------------------------------------------------------*/
FoamFile
{
    version     2.0;
    format      ascii;
    class       volScalarField;
    location    "2500";
    object      G;
}
// * * * * * * * * * * * * * * * * * * * * * * * * * * * * * * * * * * * * * //

dimensions      [1 0 -3 0 0 0 0];

internalField   nonuniform List<scalar> 
9851
(
4151.6
4157.76
4159.26
4163.15
4165.45
4167.79
4167.76
4170.86
4173.99
4177.13
4171.61
4175.5
4179.41
4183.34
4187.3
4174.68
4179.35
4184.04
4188.76
4193.52
4198.31
4177.01
4182.42
4187.87
4193.38
4198.94
4204.54
4210.19
4178.62
4184.74
4190.93
4197.19
4203.54
4209.96
4216.43
4222.96
4179.51
4186.33
4193.23
4200.22
4207.32
4214.52
4221.83
4229.2
4236.65
4179.72
4187.21
4194.78
4202.47
4210.29
4218.26
4226.36
4234.58
4242.9
4251.29
4179.26
4187.39
4195.62
4203.97
4212.48
4221.17
4230.03
4239.07
4248.25
4257.54
4266.92
4178.17
4186.91
4195.76
4204.75
4213.91
4223.28
4232.86
4242.67
4252.68
4262.86
4273.17
4283.59
4176.47
4185.79
4195.22
4204.82
4214.6
4224.62
4234.88
4245.4
4256.18
4267.21
4278.45
4289.83
4301.35
4174.18
4184.05
4194.04
4204.2
4214.58
4225.2
4236.09
4247.29
4258.8
4270.61
4282.71
4295.06
4307.58
4320.26
4171.33
4181.73
4192.25
4202.94
4213.86
4225.05
4236.54
4248.36
4260.54
4273.09
4285.99
4299.22
4312.75
4326.48
4340.38
4167.97
4178.85
4189.86
4201.05
4212.48
4224.2
4236.24
4248.65
4261.45
4274.66
4288.3
4302.35
4316.79
4331.56
4346.58
4361.8
4164.1
4175.44
4186.91
4198.57
4210.48
4222.68
4235.23
4248.17
4261.53
4275.36
4289.67
4304.46
4319.74
4335.46
4351.57
4367.97
4384.6
4159.77
4171.53
4183.43
4195.52
4207.87
4220.52
4233.53
4246.96
4260.84
4275.22
4290.13
4305.6
4321.63
4338.2
4355.3
4372.85
4390.74
4408.88
4155
4167.16
4179.45
4191.95
4204.7
4217.76
4231.2
4245.06
4259.4
4274.28
4289.73
4305.79
4322.49
4339.83
4357.81
4376.39
4395.48
4414.97
4434.77
4149.81
4162.34
4175.01
4187.87
4200.99
4214.43
4228.24
4242.5
4257.26
4272.58
4288.5
4305.09
4322.37
4340.39
4359.13
4378.61
4398.79
4419.56
4440.8
4462.39
4144.24
4157.1
4170.12
4183.32
4196.77
4210.55
4224.72
4239.33
4254.45
4270.15
4286.49
4303.53
4321.32
4339.91
4359.33
4379.59
4400.69
4422.59
4445.2
4468.35
4491.91
4138.33
4151.48
4164.81
4178.32
4192.09
4206.18
4220.65
4235.57
4251.02
4267.05
4283.74
4301.16
4319.38
4338.45
4358.43
4379.37
4401.26
4424.12
4447.91
4472.53
4497.78
4523.5
4132.09
4145.51
4159.12
4172.92
4186.96
4201.33
4216.07
4231.27
4247
4263.32
4280.31
4298.05
4316.61
4336.08
4356.52
4378
4400.56
4424.22
4449
4474.86
4501.69
4529.26
4557.39
4125.55
4139.21
4153.07
4167.13
4181.42
4196.03
4211.02
4226.47
4242.43
4258.99
4276.23
4294.23
4313.07
4332.85
4353.65
4375.55
4398.65
4422.97
4448.56
4475.44
4503.58
4532.85
4563
4593.84
4118.76
4132.63
4146.71
4160.98
4175.5
4190.33
4205.53
4221.18
4237.35
4254.12
4271.56
4289.76
4308.82
4328.84
4349.9
4372.13
4395.6
4420.43
4446.68
4474.37
4503.55
4534.22
4566.2
4599.26
4633.19
4111.72
4125.77
4140.05
4154.51
4169.23
4184.25
4199.64
4215.46
4231.8
4248.73
4266.34
4284.7
4303.92
4324.1
4345.35
4367.79
4391.53
4416.7
4443.42
4471.75
4501.75
4533.48
4566.95
4601.99
4638.39
4675.79
4104.47
4118.68
4133.12
4147.76
4162.64
4177.82
4193.37
4209.34
4225.82
4242.88
4260.61
4279.08
4298.41
4318.7
4340.06
4362.63
4386.53
4411.9
4438.9
4467.66
4498.28
4530.82
4565.39
4601.99
4640.53
4680.71
4722.02
4097.03
4111.38
4125.96
4140.73
4155.75
4171.07
4186.75
4202.85
4219.44
4236.6
4254.41
4272.96
4292.35
4312.69
4334.1
4356.72
4380.68
4406.14
4433.27
4462.24
4493.23
4526.36
4561.72
4599.44
4639.64
4682.16
4726.58
4772.39
4089.43
4103.89
4118.58
4133.47
4148.6
4164.03
4179.82
4196.01
4212.69
4229.92
4247.79
4266.38
4285.8
4306.14
4327.54
4350.13
4374.07
4399.51
4426.64
4455.65
4486.78
4520.21
4556.1
4594.59
4635.91
4680.18
4727.18
4776.5
4827.51
4081.7
4096.23
4111.02
4126
4141.22
4156.73
4172.6
4188.87
4205.61
4222.89
4240.78
4259.38
4278.79
4299.1
4320.44
4342.95
4366.79
4392.11
4419.13
4448.05
4479.1
4512.56
4548.66
4587.61
4629.64
4675.04
4723.9
4776.05
4831.05
4888.16
4073.84
4088.44
4103.3
4118.34
4133.63
4149.2
4165.12
4181.44
4198.22
4215.53
4233.43
4252.02
4271.38
4291.62
4312.86
4335.24
4358.92
4384.05
4410.85
4439.55
4470.38
4503.64
4539.64
4578.69
4621.07
4667.1
4717.07
4771.17
4829.29
4890.96
4955.27
4065.9
4080.54
4095.44
4110.52
4125.85
4141.46
4157.42
4173.76
4190.56
4207.88
4225.77
4244.32
4263.61
4283.75
4304.85
4327.06
4350.53
4375.41
4401.92
4430.28
4460.76
4493.65
4529.3
4568.07
4610.39
4656.64
4707.13
4762.28
4822.44
4887.55
4957.14
5030.03
4057.89
4072.54
4087.46
4102.57
4117.91
4133.54
4149.5
4165.86
4182.66
4199.96
4217.82
4236.32
4255.53
4275.55
4296.49
4318.48
4341.69
4366.27
4392.42
4420.37
4450.38
4482.76
4517.87
4556.09
4597.93
4643.91
4694.43
4749.94
4811.05
4878.25
4951.64
5030.71
5113.98
4049.83
4064.48
4079.4
4094.5
4109.84
4125.46
4141.41
4157.75
4174.53
4191.79
4209.61
4228.04
4247.16
4267.05
4287.81
4309.57
4332.48
4356.71
4382.45
4409.92
4439.37
4471.13
4505.54
4543.02
4584.06
4629.29
4679.29
4734.58
4795.8
4863.78
4939.21
5022.59
5113.1
5183.8
5185.64
4041.75
4056.38
4071.27
4086.34
4101.65
4117.24
4133.16
4149.47
4166.2
4183.42
4201.17
4219.52
4238.53
4258.28
4278.86
4300.38
4322.97
4346.81
4372.09
4399.03
4427.86
4458.9
4492.5
4529.07
4569.1
4613.23
4662.17
4716.6
4777.25
4844.99
4920.97
5006.07
5101.94
5184.34
5179.86
5234.68
5236.22
4033.67
4048.25
4063.09
4078.12
4093.38
4108.92
4124.78
4141.03
4157.7
4174.85
4192.53
4210.78
4229.68
4249.28
4269.66
4290.93
4313.21
4336.65
4361.43
4387.78
4415.94
4446.21
4478.91
4514.45
4553.32
4596.12
4643.61
4696.56
4755.91
4822.6
4897.82
4983.2
5067.89
5055.57
5172.51
5106.83
5162.17
5234.21
5228.76
5289.18
5290.4
4025.61
4040.12
4054.9
4069.86
4085.04
4100.51
4116.3
4132.46
4149.05
4166.11
4183.69
4201.84
4220.61
4240.06
4260.25
4281.28
4303.25
4326.29
4350.57
4376.3
4403.73
4433.16
4464.9
4499.34
4536.92
4578.24
4624.04
4675.1
4732.45
4797.26
4870.78
4954.62
5041.68
5026.03
5093.61
5220.06
5149.08
5208.21
5287.62
5281.02
5347.75
5348.59
4017.59
4032.01
4046.7
4061.57
4076.67
4092.03
4107.72
4123.78
4140.27
4157.22
4174.7
4192.73
4211.37
4230.66
4250.66
4271.45
4293.1
4315.75
4339.55
4364.67
4391.36
4419.89
4450.61
4483.88
4520.1
4559.84
4603.79
4652.72
4707.63
4769.78
4840.65
4921.9
5009.27
4991.23
5078.02
5060.59
5133.79
5270.79
5193.46
5257.15
5344.93
5336.98
5410.86
5411.27
4009.63
4023.95
4038.53
4053.29
4068.27
4083.52
4099.09
4115.02
4131.38
4148.21
4165.55
4183.45
4201.95
4221.08
4240.9
4261.45
4282.82
4305.1
4328.42
4352.95
4378.91
4406.55
4436.18
4468.21
4503.04
4541.12
4583.13
4629.8
4682.04
4741.07
4808.43
4886.02
4972.35
4952.44
5041.87
5021.96
5116.17
5096.66
5176.09
5325
5240.37
5309.28
5406.6
5397.07
5479.08
5478.99
4001.75
4015.94
4030.41
4045.04
4059.88
4074.99
4090.42
4106.21
4122.41
4139.09
4156.28
4174.03
4192.38
4211.35
4230.98
4251.32
4272.41
4294.34
4317.21
4341.18
4366.43
4393.2
4421.78
4452.52
4485.88
4522.28
4562.29
4606.63
4656.11
4711.82
4775.21
4848.19
4931.95
4910.71
5001.05
4979.26
5075.78
5053.69
5156.23
5134.36
5220.7
5383.05
5290.11
5364.9
5473.14
5461.81
5553.03
5552.4
3993.96
4008.01
4022.34
4036.83
4051.52
4066.47
4081.73
4097.35
4113.38
4129.89
4146.91
4164.49
4182.66
4201.47
4220.92
4241.05
4261.9
4283.5
4305.96
4329.4
4353.98
4379.91
4407.47
4436.97
4468.8
4503.46
4541.45
4583.44
4630.14
4682.5
4741.8
4809.75
4889.36
4867.73
4956.78
4933.76
5030.58
5006.61
5111.01
5086.46
5198.38
5173.83
5267.82
5445.41
5342.95
5424.4
5545.19
5531.77
5633.48
5632.19
3986.28
4000.18
4014.36
4028.68
4043.21
4057.99
4073.06
4088.48
4104.32
4120.62
4137.45
4154.83
4172.82
4191.45
4210.72
4230.66
4251.28
4272.6
4294.69
4317.64
4341.59
4366.73
4393.31
4421.62
4452
4484.9
4520.83
4560.43
4604.38
4653.43
4708.68
4771.63
4846.36
4825.01
4910.54
4887.31
4982.01
4957.04
5060.9
5034.55
5147.64
5120.31
5242.69
5215.07
5317.61
5512.57
5399.21
5488.19
5623.39
5607.54
5721.25
5719.17
3978.72
3992.46
4006.47
4020.63
4034.97
4049.55
4064.42
4079.63
4095.25
4111.33
4127.93
4145.09
4162.87
4181.3
4200.38
4220.13
4240.55
4261.63
4283.4
4305.92
4329.3
4353.71
4379.36
4406.53
4435.53
4466.76
4500.67
4537.85
4579.01
4624.84
4676.19
4734.28
4804.08
4783.39
4864.34
4841.65
4931.98
4907.1
5007.74
4980.82
5092.11
5063.32
5185.7
5155.39
5289.21
5258.14
5370.32
5585.07
5459.25
5556.77
5708.54
5689.87
5817.46
5814.5
3971.3
3984.87
3998.7
4012.67
4026.82
4041.19
4055.84
4070.82
4086.19
4102.02
4118.37
4135.29
4152.83
4171.03
4189.92
4209.48
4229.71
4250.58
4272.09
4294.25
4317.14
4340.88
4365.67
4391.76
4419.45
4449.09
4481.09
4515.97
4554.33
4596.93
4644.52
4698.08
4763.2
4743.3
4819.44
4797.72
4882.72
4858.83
4954.09
4927.81
5034.45
5005.85
5124.56
5093.62
5225.44
5192.28
5338.2
5303.51
5426.33
5663.65
5523.54
5630.81
5801.7
5779.69
5923.42
5919.35
3964.03
3977.41
3991.06
4004.83
4018.78
4032.93
4047.34
4062.07
4077.18
4092.74
4108.8
4125.44
4142.72
4160.67
4179.32
4198.68
4218.74
4239.44
4260.74
4282.62
4305.09
4328.25
4352.27
4377.36
4403.82
4431.95
4462.15
4494.86
4530.61
4570.02
4613.91
4663.19
4723.84
4705.23
4776.52
4755.72
4835.5
4812.86
4902.18
4877.29
4977.67
4950.28
5063.01
5033.04
5159.22
5126.45
5267.7
5232.15
5390.28
5352.24
5486.35
5749.07
5592.89
5711.22
5903.91
5877.92
6040.61
6035.12
3956.92
3970.11
3983.56
3997.13
4010.86
4024.78
4038.95
4053.42
4068.25
4083.5
4099.26
4115.59
4132.56
4150.22
4168.61
4187.75
4207.62
4228.17
4249.32
4270.99
4293.16
4315.85
4339.19
4363.38
4388.68
4415.41
4443.9
4474.57
4507.88
4544.34
4584.65
4629.97
4682.21
4735.55
4715.8
4790.8
4769.31
4853.17
4829.83
4923.86
4898.34
5003.97
4975.98
5094.62
5063.92
5197.27
5163.39
5313.94
5276.62
5446.74
5406.21
5551.86
5842.33
5668.94
5799.7
6016.5
5985.85
6170.97
6163.56
3949.97
3962.97
3976.22
3989.58
4003.09
4016.77
4030.68
4044.87
4059.4
4074.34
4089.77
4105.75
4122.38
4139.71
4157.81
4176.68
4196.34
4216.74
4237.78
4259.33
4281.3
4303.64
4326.42
4349.82
4374.08
4399.49
4426.39
4455.14
4486.17
4519.92
4556.94
4598.4
4646.38
4708.7
4689.45
4748.41
4728.27
4807.14
4784.97
4873.62
4849.65
4948.99
4922.83
5034.12
5005.3
5130.46
5098.48
5240.26
5204.52
5366.14
5326.76
5509.83
5467.73
5625.47
5945.04
5754.71
5899.48
6140.95
6104.94
6317.09
6306.79
3943.19
3955.99
3969.04
3982.19
3995.47
4008.91
4022.56
4036.46
4050.69
4065.3
4080.36
4095.98
4112.22
4129.19
4146.93
4165.5
4184.91
4205.12
4226.06
4247.56
4269.45
4291.59
4313.97
4336.71
4360.04
4384.25
4409.67
4436.63
4465.53
4496.76
4530.79
4568.63
4612.5
4670.66
4652.33
4722.16
4702.21
4763.4
4742.51
4826.25
4803.3
4897.33
4872.46
4977.34
4950.04
5067.26
5036.81
5169.41
5134.89
5287.49
5248.02
5424.97
5381.14
5582.1
5537.03
5710.27
6060.45
5854.21
6015.44
6278.88
6238.02
6482.9
6467.71
3936.58
3949.18
3962.03
3974.96
3988.01
4001.21
4014.59
4028.21
4042.12
4056.38
4071.08
4086.29
4102.12
4118.67
4136.02
4154.23
4173.33
4193.29
4214.07
4235.52
4257.45
4279.59
4301.78
4324.04
4346.58
4369.71
4393.76
4419.07
4445.98
4474.88
4506.16
4540.69
4580.74
4634.55
4617.57
4682.7
4663.72
4737.79
4716.92
4780.88
4759.09
4848.06
4824.03
4923.29
4897.05
5007.13
4978.05
5101.08
5068.15
5208.89
5170.55
5336.46
5291.31
5488.66
5437.58
5663.72
5612.22
5807.09
6194.24
5969.48
6151.17
6433.13
6391.43
6675.75
6654.02
3930.24
3942.56
3955.2
3967.92
3980.74
3993.69
4006.8
4020.13
4033.72
4047.63
4061.94
4076.73
4092.12
4108.21
4125.12
4142.93
4161.65
4181.26
4201.75
4223.07
4245.04
4267.35
4289.65
4311.72
4333.68
4355.87
4378.68
4402.46
4427.54
4454.27
4483.01
4514.53
4550.96
4596.25
4645.31
4627.26
4696.53
4676.72
4755.13
4733.16
4800.5
4777.56
4871.22
4845.77
4949.5
4921.48
5036.13
5004.85
5133.24
5097.26
5246.63
5203.33
5385.18
5332.5
5555.43
5494.73
5753.35
5692.25
5915.07
6352.2
6099.65
6306.85
6615.25
6577.73
6921.93
6894.29
3936.2
3948.55
3961.06
3973.65
3986.35
3999.2
4012.23
4025.5
4039.06
4052.98
4067.35
4082.26
4097.86
4114.3
4131.66
4149.93
4169.08
4189.13
4210.13
4232.02
4254.52
4277.16
4299.49
4321.26
4342.75
4364.46
4386.83
4410.22
4434.94
4461.32
4490.04
4523.13
4564.23
4620.57
4602.96
4657.48
4638.78
4711.75
4690.98
4772.86
4749.72
4820.86
4796.58
4893.9
4866.82
4974.2
4944.17
5062.54
5028.8
5161.89
5122.54
5281.01
5231.95
5432.62
5371.3
5624.46
5552.54
5850.63
5776.95
6034.16
6539.54
6245.11
6483.94
6851.26
6811.23
7219.36
7198.1
3942.18
3954.39
3966.76
3979.22
3991.8
4004.54
4017.49
4030.69
4044.22
4058.16
4072.6
4087.69
4103.62
4120.51
4138.3
4156.92
4176.38
4196.82
4218.34
4240.83
4263.86
4286.79
4308.97
4330.21
4351.07
4372.18
4394.01
4416.89
4441.09
4467.18
4497.09
4534.36
4585.92
4569.7
4632.23
4613.83
4670.81
4651.24
4727.24
4705.48
4789.71
4765.38
4840.43
4814.75
4914.68
4885.89
4995.9
4963.8
5085
5048.79
5185.99
5143.28
5312.34
5256.98
5480
5409.28
5696.58
5612.49
5955.93
5867.27
6164.88
6759.92
6408.11
6614.53
6654.23
7147.36
7086.33
7529.4
7516.7
3948.01
3960.06
3972.28
3984.6
3997.06
4009.69
4022.55
4035.69
4049.2
4063.16
4077.74
4093.15
4109.56
4126.88
4144.95
4163.73
4183.39
4204.22
4226.33
4249.49
4273.05
4296.11
4317.87
4338.37
4358.46
4378.88
4400.08
4422.32
4445.98
4472.83
4506.41
4549.46
4596.06
4578.81
4644.13
4624.95
4684.38
4663.94
4741.88
4719.18
4804.67
4779.26
4858
4830.96
4932.41
4901.95
5013.66
4979.54
5103.05
5064.45
5206.2
5160.08
5342.31
5280.41
5528.63
5447.83
5773.66
5677.16
6071.37
5916.22
5966.77
6297.58
6248.39
6761.23
6966.59
6925.57
6566.55
6517.25
6375.68
6716.47
7463.55
7095.44
7285.23
7330.57
7849.84
7842.53
3953.67
3965.55
3977.63
3989.8
4002.13
4014.65
4027.41
4040.49
4053.98
4068.04
4082.94
4098.86
4115.75
4133.31
4151.37
4170.12
4189.97
4211.29
4234.14
4258.03
4282.02
4304.95
4325.98
4345.56
4364.8
4384.47
4404.95
4426.47
4450.39
4480.4
4519.2
4571.08
4554.63
4606.4
4588.45
4655.4
4635.52
4697.21
4675.96
4754.82
4731.28
4816.99
4790.68
4872.64
4844.35
4946.36
4914.37
5027.11
4991.03
5117.22
5076.15
5224.7
5175.07
5372.75
5304.3
5581.88
5501.35
5458.16
5863.41
5810.18
5702.39
5756.15
6020.83
6193.66
6138.2
5965.73
6321.03
6877.37
7049.9
6664.5
6608.02
6459.29
6825.23
7477.93
7726.07
7684.83
7234.55
7430.77
8179.63
7883.85
8082.38
8100.76
3959.16
3970.87
3982.78
3994.81
4007
4019.39
4032.05
4045.08
4058.63
4073
4088.45
4104.95
4122.07
4139.49
4157.31
4175.97
4196.09
4218.08
4241.81
4266.45
4290.64
4313.06
4333.1
4351.64
4370
4388.89
4408.58
4429.88
4456.33
4491.1
4534.07
4579.92
4562.77
4616.3
4597.78
4665.4
4644.93
4708.56
4686.61
4765.47
4741.26
4826.19
4799.23
4883.78
4854.4
4956.16
4922.8
5036.45
4998.29
5129.28
5085.33
5243.66
5190.11
5417.79
5378.32
5342.21
5307.01
5650.12
5598.23
5524.79
5479.33
5909.28
5851.91
5736.86
5794.04
6078.37
6262.66
6201.89
6017.98
6398.63
6997.41
7181.24
6767.36
6546.37
6704.82
6939.49
7635.88
7845.64
7376.7
7582.3
8259.39
8427.4
8429.25
8053.96
8250.11
3964.46
3975.99
3987.74
3999.61
4011.64
4023.9
4036.47
4049.52
4063.36
4078.33
4094.48
4111.26
4128.18
4145.17
4162.6
4181.22
4201.86
4224.79
4249.47
4274.66
4298.69
4320.22
4339.05
4356.53
4374.03
4392.14
4411.28
4434.29
4465.15
4503.88
4552.96
4536.75
4587.87
4570.13
4625.21
4606.2
4673.71
4652.83
4717.93
4695.42
4773.48
4748.8
4832.05
4804.69
4891.12
4860.88
4961.78
4927.21
5042.78
5002.1
5140.72
5093.15
5275.41
5244.55
5216.63
5188.98
5436.34
5395.53
5357.35
5321.28
5681.01
5626.55
5548.95
5501.5
5956.99
5895.27
5772.62
5833.41
6137.93
6335.06
6269.07
6072.47
6480.56
7123.04
7318.02
6875.8
6638.1
6807.42
7059.33
7795.44
8011.86
7523.54
7737.9
8429.05
8594.89
8597.07
8224.08
8421.76
3969.56
3980.91
3992.48
4004.17
4016.04
4028.17
4040.7
4054.02
4068.52
4084.3
4100.84
4117.42
4133.8
4150.15
4167.17
4186.02
4207.58
4231.63
4257.17
4282.52
4305.91
4326.2
4343.74
4360.22
4376.94
4394.39
4414.45
4441.36
4476.06
4516.04
4559.24
4542.74
4594.63
4576.58
4632.73
4613.35
4680.15
4659.01
4725.05
4702.16
4778.63
4753.67
4834.55
4806.99
4894.63
4863.76
4963.75
4927.94
5046.94
5003.28
5162.8
5136.76
5110.9
5086.06
5287.79
5256.1
5226.32
5197.56
5456.43
5414.03
5374.27
5336.87
5713.34
5574.54
5655.99
5524.99
6006.59
5940.3
5809.7
5874.28
6200.1
6411.46
6339.77
6129.32
6567.13
7254.4
7460.08
6990.27
6735.03
6916.02
7185.36
7958.58
8180.87
7675.03
7897.68
8597.96
8763.68
8765.86
8396.75
8593.19
3974.46
3985.61
3996.97
4008.48
4020.18
4032.22
4044.97
4058.98
4074.4
4090.74
4107.14
4123.15
4138.72
4154.32
4171.23
4190.81
4213.59
4238.78
4264.84
4289.77
4312.03
4330.86
4347.14
4362.76
4378.86
4396.61
4419.81
4450.53
4486.83
4531.31
4515.97
4564.35
4547.56
4600.03
4581.83
4638.64
4618.98
4684.56
4663.3
4729.7
4706.67
4780.8
4755.74
4833.84
4806.25
4894.51
4863.19
4962.88
4925.81
5048.89
5001.76
5169.69
5142.12
5114.81
5088.24
5301.82
5268.73
5237.23
5206.77
5478.02
5433.99
5392.72
5353.85
5746.98
5601.46
5686.69
5549.81
6058.21
5987.14
5848.31
5916.83
6265.32
6492.18
6414.07
6188.89
6658.45
7391.37
7607.29
7110.86
6837.4
7030.73
7317.51
8125.24
8352.72
7831.52
8061.79
8766.89
8933.9
8936
8570.79
8763.97
3979.13
3990.06
4001.21
4012.52
4024.09
4036.25
4049.68
4064.75
4080.9
4097.22
4113.07
4128.18
4142.78
4157.99
4175.31
4196.01
4220.18
4246.23
4272.16
4296.1
4316.85
4334.13
4349.31
4364.35
4380.39
4400.4
4427.26
4459.96
4495.47
4535.24
4519.79
4568.29
4551.45
4604.01
4585.79
4642.78
4623
4686.77
4665.57
4731.75
4708.78
4780.07
4755.08
4830.53
4802.88
4891.66
4860
4959.21
4920.96
5061.99
5035.78
4986.34
5009.97
5177.04
5147.65
5118.52
5090
5317.22
5282.45
5249.04
5216.53
5501.02
5455.37
5412.55
5372.09
5782.04
5629.69
5718.78
5575.96
6112.07
6035.95
5888.57
5961.18
6333.59
6576.93
6491.77
6251.05
6754.22
7534.29
7760.25
7237.56
6945.35
7151.64
7455.9
8295.49
8527.17
7993.38
8230.35
8936.68
9106.36
9108.11
8745.21
8934.2
3983.56
3994.25
4005.17
4016.3
4027.91
4040.67
4055.28
4071.26
4087.56
4103.4
4118.33
4132.31
4146.25
4161.54
4179.71
4201.95
4227.31
4253.6
4278.74
4301.21
4320.23
4336.07
4350.51
4365.39
4382.86
4406.16
4435.29
4467.76
4507.25
4492.93
4538
4522.41
4570.98
4554.19
4606.51
4588.4
4645.08
4625.38
4686.66
4665.65
4731.23
4708.48
4776.73
4751.9
4825.26
4797.65
4886.42
4854.71
4964.14
4943.8
4912.78
5062.2
5034.05
4982.49
5007.26
5184.7
5153.21
5122.06
5091.67
5333.72
5296.98
5261.38
5226.57
5525.35
5478.05
5433.58
5391.35
5818.73
5659.3
5752.44
5603.46
6168.28
6086.92
5930.67
6007.52
6404.67
6665.57
6573.13
6315.86
6854.75
7683.9
7919.52
7371.04
7059.23
7279.01
7601.16
8469.24
8703.5
8160.42
8403.51
9107.87
9282.03
9283.17
8918.87
9104.5
3987.72
3998.15
4008.86
4019.94
4032.01
4045.99
4061.76
4078.07
4094.01
4108.95
4122.63
4135.72
4149.43
4165.17
4184.74
4208.58
4234.57
4260.41
4284.29
4304.96
4322.23
4336.95
4351.17
4366.83
4387.01
4412.71
4442.19
4473.16
4509.2
4494.95
4539.62
4524.14
4572.32
4555.69
4607.42
4589.55
4645.41
4626.01
4684.27
4663.58
4728.32
4705.84
4771.59
4746.89
4818.3
4790.91
4878.69
4847.39
4959.8
4939.32
4913.83
4895.64
5061.6
5031.76
4977.99
5003.76
5192.36
5158.54
5125.22
5092.85
5350.91
5311.9
5273.84
5236.42
5550.97
5501.87
5455.53
5411.16
5857.2
5690.4
5787.88
5632.33
6227.13
6140.35
5974.86
6056.08
6479.12
6758.75
6658.86
6384.09
6960.56
7840.19
8084.95
7511.2
7179.09
7412.41
7753.45
8646.26
8880.92
8332.88
8581.35
9281.62
9460.79
9461.02
9091.6
9276.84
3991.61
4001.77
4012.35
4023.73
4036.95
4052.36
4068.68
4084.79
4099.86
4113.49
4126.1
4138.71
4152.47
4169.17
4190.56
4215.5
4241.45
4266.4
4288.63
4307.39
4323.16
4337.29
4351.92
4369.53
4392.09
4418.61
4447.23
4482.05
4468.91
4510.09
4495.88
4540.06
4524.81
4572.22
4555.86
4606.65
4589.14
4643.77
4624.83
4679.82
4659.62
4723.43
4701.09
4765.06
4740.52
4809.79
4782.81
4879.24
4863.32
4838.04
4954.59
4933.39
4907.44
4889.66
5060.23
5028.75
4972.77
4999.49
5199.64
5163.37
5127.78
5093.35
5368.36
5326.72
5285.88
5245.67
5577.79
5526.59
5477.94
5431.05
5897.71
5723.12
5825.26
5662.53
6289.21
6196.56
6021.45
6107.14
6557.53
6856.68
6749.15
6455.98
7071.83
8003.01
8256.68
7657.87
7304.47
7551.52
7912.58
8826.49
9059.24
8511.21
8763.98
9458.37
9641.72
9641.39
9265.45
9452.4
3995.18
4005.12
4015.85
4028.21
4043.03
4059.32
4075.63
4090.95
4104.67
4117.1
4129.07
4141.44
4155.59
4173.84
4196.91
4222.18
4247.67
4271.36
4291.78
4308.81
4323.41
4337.59
4353.41
4373.16
4396.89
4423.1
4450.01
4482.57
4469.58
4510.02
4496.08
4539.29
4524.41
4570.66
4554.7
4604.22
4587.15
4640.38
4621.95
4674.05
4654.25
4717.16
4695
4757.28
4732.91
4809.28
4795.81
4773.36
4873.39
4857.9
4823.08
4837.64
4948.67
4927.03
4900.56
4883.07
5058.05
5024.98
4966.88
4994.49
5206.2
5167.44
5129.57
5093.04
5385.5
5340.91
5297.07
5253.97
5605.56
5551.8
5500.38
5450.48
5940.42
5757.52
5864.48
5693.9
6354.71
6255.92
6070.9
6161.2
6640.19
6959.49
6844.37
6531.61
7188.57
8172.69
8435.02
7810.95
7435.27
7696.75
8078.4
9010.3
9240.2
8695.38
8952.22
9638.5
9826.5
9826.33
9442.82
9632.54
3998.44
4008.35
4019.82
4033.82
4049.94
4066.45
4082.11
4096.06
4108.5
4120.18
4131.75
4144.06
4159.15
4179.29
4203.15
4228.29
4252.99
4275.18
4293.78
4309.25
4323.34
4338.15
4355.65
4376.79
4400.67
4425.8
4456.49
4444.29
4482.1
4469.2
4508.93
4495.33
4537.37
4522.93
4567.74
4552.29
4600.27
4583.72
4635.45
4617.49
4667.35
4647.96
4709.74
4687.89
4748.29
4724.06
4803.94
4790.46
4772.09
4759.35
4867.15
4852.13
4817.66
4831.76
4942.17
4920.16
4893.41
4876.2
5055.05
5020.47
4960.4
4988.8
5211.79
5170.57
5130.45
5091.85
5401.77
5353.98
5307.03
5261.03
5633.98
5577.11
5522.28
5468.88
5985.49
5793.16
5905.14
5725.93
6423.93
6319.09
6123.28
6218.79
6727.92
7067.74
6944.91
6612
7311.1
8349.27
8619.78
7970.31
7572.22
7848.29
8250.67
9199.54
9426.74
8886.1
9147.75
9825.09
10017.8
10022.3
9627.02
9821.89
4001.45
4011.8
4024.82
4040.5
4057.18
4073.25
4087.56
4100.14
4111.78
4122.99
4134.23
4146.88
4163.4
4184.93
4208.89
4233.59
4257.14
4277.6
4294.48
4308.9
4323.15
4339.14
4358.07
4379.78
4403.12
4426.42
4455.88
4443.95
4480.76
4468.19
4506.82
4493.62
4534.4
4520.41
4563.66
4548.79
4595.15
4579.08
4629.54
4611.95
4659.67
4640.74
4701.19
4679.76
4746.76
4734.74
4713.87
4798.46
4785.16
4766.68
4753.9
4860.64
4846.02
4811.97
4825.76
4935.21
4912.95
4886.22
4869.3
5051.27
5015.33
4953.48
4982.58
5216.21
5172.62
5130.32
5089.73
5416.67
5365.52
5315.44
5266.6
5662.5
5601.86
5543.05
5485.72
6032.53
5829.44
5946.75
5758.05
6497.92
6386.71
6178.03
6279.89
6820.95
7181.92
7050.82
6697.57
7439.84
8532.35
8810.81
8136.02
7715.41
8006.23
8429.47
9397.33
9624.35
9084.89
9353.33
10027.5
10255.3
10269.5
9827.79
10038.8
4004.41
4016.03
4031.03
4047.75
4064.27
4079.07
4091.92
4103.65
4114.8
4125.59
4136.78
4150.2
4168.15
4190.2
4213.89
4237.71
4259.73
4278.47
4293.89
4308.03
4323.1
4340.37
4360.17
4381.82
4403.99
4425.23
4454.57
4442.73
4478.7
4466.54
4503.85
4491.12
4530.46
4516.95
4558.84
4544.4
4589.36
4573.79
4622.76
4605.65
4650.89
4632.51
4691.38
4670.45
4741.33
4729.05
4699.72
4710.99
4792.86
4779.68
4761.05
4748.2
4854.08
4839.77
4806.19
4819.71
4927.93
4905.59
4879
4862.44
5046.74
5009.67
4946.26
4976.01
5219.28
5173.47
5129.1
5086.67
5429.79
5375.22
5322.05
5270.46
5690.44
5625.35
5562.1
5500.55
6080.85
5865.85
5988.76
5789.6
6576.56
6458.36
6234.59
6344.04
6919.07
7302.09
7162.29
6787.8
7574.49
8721.81
9009.76
8308.39
7864.83
8170.6
8614.67
9608.46
9844.82
9293.88
9571.35
10290.4
10627.3
10644.2
10070.1
10330
4007.83
4021.52
4038.11
4055.08
4070.49
4083.75
4095.68
4106.92
4117.66
4128.2
4139.66
4154.03
4172.85
4194.86
4217.85
4240.35
4260.61
4277.64
4292.39
4307.07
4323.27
4341.56
4361.69
4382.75
4403.41
4428.66
4441.63
4418.06
4452.87
4476.07
4464.35
4500.36
4488.06
4526.03
4513
4553.49
4539.52
4582.94
4567.94
4615.13
4598.63
4640.92
4623.25
4680.22
4659.84
4735.55
4723.13
4693.6
4704.97
4787.15
4774.04
4755.2
4742.25
4847.53
4833.45
4800.34
4813.65
4920.38
4898.08
4871.84
4855.66
5041.48
5003.54
4938.94
4969.21
5220.75
5172.88
5126.7
5082.68
5440.75
5382.72
5326.51
5272.25
5716.99
5646.85
5578.79
5512.81
6130.02
5901.81
6030.51
5819.7
6658.84
6532.91
6292.2
6410.36
7022.15
7427.94
7278.87
6882.21
7714.83
8918.81
9219
8487.17
8020.14
8341.19
8807.06
9840.8
10103.4
9514.81
9806.5
10679.3
11134.1
11138.4
10380.4
10721
4012.34
4028.22
4045.57
4061.74
4075.52
4087.77
4099.2
4110.08
4120.5
4131.03
4142.99
4158.11
4177.21
4198.71
4220.56
4241.34
4259.73
4275.73
4290.72
4306.4
4323.63
4342.51
4362.54
4382.69
4401.81
4439.63
4427.03
4416.75
4450.63
4473.15
4461.79
4496.62
4484.75
4521.32
4508.79
4547.65
4534.26
4575.85
4561.48
4606.62
4590.86
4629.7
4612.95
4675.99
4665.84
4647.76
4729.49
4717
4687.02
4698.46
4781.33
4768.25
4749.09
4735.98
4841.04
4827.16
4794.44
4807.6
4912.77
4890.57
4864.79
4848.94
5035.51
4996.91
4931.6
4962.16
5220.27
5170.54
5122.9
5077.68
5449.01
5387.5
5328.28
5271.51
5741.25
5665.46
5592.21
5521.59
6178.88
5936.47
6070.45
5847.48
6744.19
6609.22
6348.67
6476.88
7129.16
7558.81
7399.08
6979.42
7860.23
9125.56
9439.59
8672.12
8181.15
8517.19
9007.77
10102.2
10407.1
9750.28
10065.3
11154
11699.7
11678.6
10751.6
11166.2
4018.33
4035.68
4052.69
4067.19
4079.83
4091.55
4102.64
4113.21
4123.48
4134.22
4146.68
4162.19
4181.08
4201.62
4221.97
4240.95
4258.06
4273.85
4289.53
4306.15
4324.09
4343.21
4362.88
4382.04
4399.69
4437.56
4425.15
4415.1
4448.22
4470.04
4459.04
4492.67
4481.24
4516.33
4504.35
4541.36
4528.65
4568.12
4554.49
4597.23
4582.33
4617.15
4601.59
4669.23
4659.11
4633.21
4642.05
4723.07
4710.51
4680.07
4691.51
4775.34
4762.24
4742.55
4729.28
4834.56
4820.9
4788.4
4801.44
4905.29
4883.21
4857.71
4842.15
5028.66
4989.66
4924.06
4954.73
5217.44
5166.07
5117.38
5071.42
5453.74
5388.75
5326.65
5267.6
5762.17
5680.04
5601.21
5525.82
6224.92
5967.94
6105.98
5871.16
6830.76
6684.84
6395.16
6540.61
7237.98
7693.36
7521.25
7077.3
8010.51
9342.66
9673.28
8863.78
8347.01
8698.49
9217.25
10395.3
10753.2
10005
10350.4
11666.1
12282.7
12238.4
11163.7
11645.5
4025.56
4043.21
4058.67
4071.79
4083.86
4095.23
4106.04
4116.41
4126.72
4137.76
4150.58
4166.15
4184.35
4203.59
4222.42
4240.09
4256.6
4272.59
4288.98
4306.36
4324.78
4344.01
4363.11
4380.85
4402.19
4413.43
4393.16
4435.33
4423.11
4445.66
4466.75
4456.13
4488.51
4477.54
4511.08
4499.68
4534.74
4522.75
4559.85
4547.08
4586.98
4573.12
4626.22
4610.62
4603.17
4589.26
4661.79
4651.7
4634.74
4716.23
4703.59
4672.54
4684.01
4768.97
4755.83
4735.36
4721.99
4828
4814.55
4782.02
4795.01
4897.76
4875.84
4850.44
4835.11
5020.69
4981.68
4916.25
4946.82
5211.75
5159.12
5109.75
5063.56
5453.95
5385.63
5320.83
5259.74
5778.36
5689.44
5604.99
5524.96
6258.72
5993.54
6133.73
5883.54
6916.34
6754.99
6458.62
6599.8
7347.07
7831.5
7641.45
7171.07
8165.23
9571.29
9922.24
9062.71
8517.2
8885.55
9436.67
10720.9
11135
10281.8
10662.6
12199.6
12820.9
12805.3
11608.8
12153.8
4033.36
4049.89
4063.64
4076.06
4087.78
4098.87
4109.47
4119.78
4130.24
4141.58
4154.63
4169.95
4187.12
4204.99
4222.57
4239.43
4255.76
4272.2
4289.32
4307.32
4326.17
4345.07
4362.78
4378.99
4411.52
4400.58
4391.74
4432.95
4420.92
4442.93
4463.27
4453.04
4484.14
4473.63
4505.61
4494.79
4527.84
4516.61
4551.16
4539.35
4576.02
4563.36
4618.6
4603.29
4596.31
4576.47
4582.65
4653.78
4643.94
4626.86
4708.87
4696.16
4664.42
4675.89
4761.95
4748.74
4727.3
4713.92
4821.21
4807.99
4775.02
4787.99
4890.08
4868.35
4842.76
4827.59
5011.01
4972.44
4907.86
4938.04
5202.48
5149.05
5099.48
5053.5
5449.32
5377.9
5310.51
5247.43
5782.71
5689.96
5602.4
5519.5
6260.37
6019.97
6138.56
5918.94
6996.78
6840.17
6436.41
6619.52
7451.58
7973
7775.89
7278.14
8323.54
9812.41
10189.8
9270.24
8692.77
9080.5
9668.29
11080.4
11551
10581.8
11004.9
12766
13337.4
13417.2
12088.8
12702.8
4040.79
4055.4
4068.15
4080.19
4091.64
4102.51
4112.99
4123.33
4134.01
4145.64
4158.81
4173.67
4189.81
4206.5
4223.16
4239.62
4256.15
4273.16
4290.92
4309.42
4327.93
4345.47
4361.8
4376.76
4409.58
4398.84
4390.19
4430.44
4418.69
4440.07
4459.62
4449.79
4479.58
4469.55
4499.95
4489.72
4520.74
4510.28
4542.17
4531.36
4564.51
4553.22
4610.7
4595.6
4589.04
4570.14
4575.82
4645.22
4635.67
4618.52
4700.8
4688.08
4655.66
4667.01
4753.95
4740.72
4718.05
4704.79
4813.92
4800.88
4767.02
4779.94
4882.03
4860.54
4834.17
4819.16
4998.65
4961.03
4898.15
4927.52
5188.91
5134.92
5085.48
5040.2
5441.19
5367.51
5298
5233.24
5772.16
5681.43
5595.32
5512.86
6256.41
6031.18
6134.7
5900.59
7026.88
6819.9
6431.94
6615.79
7492.25
8125.54
7757.39
7258.21
8492.44
10069
10478.6
9488.37
8877.96
9283.26
9919.39
11475.3
12007.7
10910.3
11383.5
13401.4
14069.3
14211.5
12615.5
13318.1
4047.05
4060.19
4072.45
4084.25
4095.48
4106.17
4116.6
4127.07
4138.02
4149.93
4163.12
4177.55
4192.9
4208.79
4224.95
4241.36
4258.21
4275.69
4293.71
4311.67
4328.91
4345.19
4360.31
4374.15
4388.68
4407.57
4397.05
4427.87
4416.39
4437.14
4455.88
4446.47
4474.9
4465.36
4494.14
4484.5
4513.49
4503.8
4533.01
4523.23
4552.79
4542.86
4602.46
4587.69
4581.68
4563.56
4568.84
4636.07
4626.89
4609.72
4691.77
4679.12
4646.21
4657.28
4744.54
4731.36
4707.27
4694.29
4805.69
4792.77
4757.55
4770.36
4872.92
4851.8
4823.91
4809.14
4982.62
4946.22
4885.98
4914.18
5173.76
5119.23
5068.95
5023.04
5434.31
5360.15
5290.12
5225.03
5768.31
5677.55
5591.42
5509.02
6252.67
6027.78
6131.08
5896.35
7023.05
6814.94
6428
6611.99
7488.22
8112.22
7751.58
7252.67
8481.99
10345.7
10793.7
9715.29
8870.93
9280.11
10176.1
11913.1
12514.3
11275.7
11805.6
14155.5
16313.2
15365.9
13204.2
14019.4
4052.26
4064.65
4076.65
4088.26
4099.29
4109.86
4120.32
4130.99
4142.24
4154.39
4167.57
4181.71
4196.63
4212.13
4228.1
4244.58
4261.59
4278.95
4296.25
4313.08
4329.18
4344.34
4358.41
4371.27
4386.99
4385.33
4405.51
4395.17
4425.26
4414.04
4434.18
4452.12
4443.13
4470.19
4461.15
4488.25
4479.23
4506.17
4497.23
4523.82
4515.04
4546.08
4557.06
4541.64
4532.44
4593.94
4579.62
4574.18
4561.83
4626.33
4617.61
4600.6
4681.52
4669.11
4636.03
4646.63
4733.28
4720.32
4694.84
4682.31
4795.84
4783.06
4746.09
4758.69
4861.68
4841.23
4810.79
4796.6
4964.22
4928.26
4869.97
4896.91
5165.51
5110.87
5043.44
5002.99
5430.51
5356.38
5286.39
5221.35
5764.86
5674.09
5588.04
5505.65