/*--------------------------------*- C++ -*----------------------------------*\
  =========                 |
  \\      /  F ield         | OpenFOAM: The Open Source CFD Toolbox
   \\    /   O peration     | Website:  https://openfoam.org
    \\  /    A nd           | Version:  dev
     \\/     M anipulation  |
\*---------------------------------------------------------------------------*/
FoamFile
{
    version     2.0;
    format      ascii;
    class       volScalarField;
    location    "2500";
    object      H2O;
}
// * * * * * * * * * * * * * * * * * * * * * * * * * * * * * * * * * * * * * //

dimensions      [0 0 0 0 0 0 0];

internalField   nonuniform List<scalar> 
9851
(
4.82315e-34
1.67918e-33
9.83999e-34
3.3698e-33
3.18358e-33
1.05867e-33
3.3376e-33
9.15582e-33
4.60931e-33
6.50898e-34
8.75851e-33
2.22795e-32
1.17172e-32
3.20941e-33
3.14983e-34
1.03725e-32
3.26465e-32
3.16245e-32
1.35135e-32
1.481e-33
1.27871e-34
6.2308e-33
4.47514e-32
5.12906e-32
3.18845e-32
8.49317e-33
1.0364e-33
2.92137e-35
1.60782e-32
7.06133e-32
8.8088e-32
6.22003e-32
2.63018e-32
3.64486e-33
5.1779e-34
3.07073e-35
1.27638e-32
9.19395e-32
1.24909e-31
1.115e-31
5.79086e-32
1.84217e-32
2.31501e-33
2.8612e-34
4.19624e-36
5.72638e-32
1.62848e-31
2.1128e-31
1.82929e-31
1.17686e-31
4.75648e-32
8.53083e-33
1.44218e-33
8.54727e-35
3.51791e-36
8.70206e-32
2.50546e-31
3.66482e-31
3.06397e-31
1.93941e-31
1.0162e-31
3.39081e-32
5.44544e-33
5.04386e-34
3.93864e-35
2.65508e-36
3.68154e-31
5.79679e-31
7.42461e-31
5.3952e-31
3.19248e-31
1.86301e-31
7.54526e-32
1.80105e-32
2.81944e-33
2.0678e-34
3.74265e-35
1.93249e-35
8.25422e-31
1.60721e-30
1.84514e-30
1.15161e-30
6.63272e-31
3.16281e-31
1.59602e-31
4.82062e-32
9.37585e-33
9.74582e-34
1.86379e-34
1.73985e-34
9.67425e-35
8.14342e-31
5.18339e-30
4.44097e-30
2.72802e-30
1.43741e-30
6.00282e-31
2.91796e-31
1.05227e-31
2.79154e-32
3.82365e-33
1.66361e-33
1.88039e-33
2.60598e-33
1.28469e-33
3.7259e-30
1.36196e-29
1.28648e-29
7.58202e-30
3.47617e-30
1.2335e-30
5.62414e-31
1.98264e-31
7.26949e-32
1.86921e-32
7.71327e-33
1.71314e-32
2.46308e-32
1.98574e-32
2.39714e-32
4.91351e-30
3.24797e-29
3.13254e-29
2.25068e-29
8.55118e-30
3.78795e-30
1.06019e-30
5.026e-31
1.78925e-31
7.34558e-32
5.4879e-32
7.24293e-32
2.00983e-31
1.9802e-31
3.99662e-31
4.06081e-31
1.80028e-29
7.79286e-29
7.42887e-29
6.35138e-29
3.13764e-29
9.93348e-30
3.39576e-30
1.23898e-30
5.71844e-31
2.51408e-31
4.98597e-31
7.03318e-31
1.23085e-30
2.20823e-30
3.32665e-30
4.79306e-30
4.09619e-30
7.50583e-29
3.47225e-28
2.50504e-28
1.94927e-28
1.03444e-28
3.0066e-29
1.08386e-29
4.77696e-30
2.82683e-30
2.14398e-30
2.90541e-30
5.31013e-30
9.23574e-30
1.28384e-29
2.33027e-29
3.3098e-29
5.06808e-29
3.7574e-29
3.68216e-28
1.15969e-27
6.81047e-28
6.87673e-28
2.8779e-28
1.23195e-28
4.22781e-29
2.55517e-29
1.6182e-29
2.52313e-29
2.3203e-29
3.05071e-29
9.22993e-29
1.33474e-28
1.55291e-28
2.36485e-28
3.41303e-28
4.37632e-28
2.52488e-28
1.00997e-27
2.30552e-27
2.3082e-27
2.15374e-27
9.67533e-28
4.3604e-28
2.84875e-28
1.50532e-28
1.43492e-28
1.54956e-28
2.06522e-28
2.11799e-28
6.54461e-28
1.04198e-27
1.03534e-27
1.50584e-27
3.06136e-27
5.07538e-27
4.30466e-27
3.61445e-27
1.83774e-27
5.22343e-27
8.32707e-27
4.98604e-27
3.2989e-27
1.97086e-27
1.84219e-27
1.04464e-27
1.44446e-27
1.31402e-27
1.67346e-27
2.27379e-27
3.58286e-27
6.75941e-27
1.04198e-26
1.49134e-26
2.13011e-26
4.10081e-26
6.71004e-26
4.91155e-26
8.35803e-27
2.98311e-27
1.34336e-26
1.81455e-26
1.73987e-26
1.34918e-26
9.25452e-27
1.28236e-26
1.01146e-26
1.11157e-26
1.51275e-26
1.36573e-26
1.21066e-26
2.87707e-26
3.21343e-26
5.44536e-26
9.99099e-26
1.31819e-25
2.54264e-25
3.65046e-25
5.59534e-25
3.51416e-25
1.34475e-25
1.05411e-26
3.94199e-26
6.20451e-26
7.15552e-26
4.91872e-26
5.66268e-26
7.63835e-26
1.02209e-25
8.04174e-26
1.10433e-25
9.49197e-26
1.42986e-25
1.53901e-25
3.57131e-25
4.00413e-25
9.18221e-25
1.01148e-24
1.87643e-24
1.96348e-24
2.69218e-24
4.37235e-24
2.3927e-24
8.80722e-25
1.62521e-26
6.21642e-26
1.0066e-25
1.9811e-25
2.4572e-25
2.7965e-25
5.15531e-25
8.95562e-25
6.08007e-25
6.61402e-25
6.93098e-25
1.03126e-24
1.24504e-24
1.47662e-24
5.13293e-24
4.94338e-24
6.72442e-24
7.43828e-24
2.03385e-23
1.5454e-23
2.68637e-23
2.8408e-23
2.06585e-23
8.03588e-24
9.75623e-26
2.70558e-25
2.74645e-25
5.32081e-25
1.04901e-24
1.98548e-24
3.33687e-24
6.07446e-24
4.28686e-24
4.92831e-24
6.06131e-24
5.8402e-24
1.05789e-23
1.10282e-23
1.65521e-23
4.61085e-23
4.65059e-23
5.41466e-23
7.59978e-23
1.39877e-22
1.0425e-22
1.78686e-22
2.11639e-22
1.83615e-22
1.05788e-22
2.00782e-25
3.91638e-25
9.51138e-25
1.81085e-24
3.96912e-24
1.19205e-23
1.80134e-23
2.48105e-23
4.19488e-23
3.92301e-23
4.71278e-23
3.18942e-23
5.30496e-23
1.06286e-22
1.29717e-22
1.91703e-22
5.67826e-22
5.50983e-22
6.32542e-22
6.49237e-22
9.77279e-22
1.24529e-21
8.74811e-22
1.39374e-21
1.21273e-21
3.15989e-22
7.08618e-25
1.35705e-24
2.42029e-24
5.00941e-24
1.54677e-23
4.75648e-23
1.69179e-22
2.56023e-22
2.26707e-22
2.10436e-22
3.14658e-22
2.05378e-22
3.15443e-22
4.75315e-22
1.05769e-21
1.17193e-21
2.68542e-21
4.55117e-21
4.26116e-21
2.70447e-21
4.39063e-21
1.07557e-20
8.10543e-21
6.53154e-21
7.11464e-21
6.37642e-21
3.52924e-21
8.53121e-25
4.45024e-24
5.11552e-24
1.53934e-23
5.63203e-23
1.99216e-22
8.64384e-22
1.713e-21
2.33796e-21
1.91652e-21
1.3519e-21
1.84961e-21
2.18453e-21
3.04589e-21
5.38781e-21
6.70212e-21
9.49309e-21
1.93555e-20
2.27453e-20
1.51082e-20
3.51359e-20
4.39763e-20
6.58211e-20
7.3809e-20
2.94905e-20
3.599e-20
3.56695e-20
1.64524e-20
3.27211e-24
1.03615e-23
1.63569e-23
6.23294e-23
1.99508e-22
7.82714e-22
3.771e-21
8.50499e-21
1.28022e-20
1.24058e-20
1.34183e-20
9.14832e-21
9.16488e-21
1.72345e-20
2.68808e-20
3.3704e-20
4.24173e-20
6.30421e-20
7.48873e-20
8.42077e-20
1.8785e-19
1.235e-19
1.83421e-19
4.33687e-19
1.63105e-19
1.43776e-19
1.60163e-19
2.50568e-19
4.57033e-20
2.12257e-23
4.13819e-23
6.24316e-23
1.80553e-22
9.85668e-22
4.1617e-21
1.33575e-20
4.32007e-20
7.5775e-20
1.00033e-19
8.17429e-20
7.9463e-20
6.63352e-20
5.4175e-20
1.11274e-19
2.01802e-19
3.05559e-19
4.13199e-19
4.70629e-19
3.8457e-19
7.67314e-19
9.03087e-19
1.17567e-18
1.74808e-18
1.6983e-18
6.92282e-19
8.68474e-19
1.41985e-18
2.29461e-18
4.34619e-19
6.7618e-23
1.0949e-22
2.01912e-22
6.03549e-22
3.9971e-21
1.79009e-20
5.31825e-20
1.3301e-19
4.01576e-19
5.52067e-19
6.48474e-19
3.62674e-19
4.41579e-19
3.3782e-19
4.16598e-19
7.17307e-19
1.66188e-18
2.01282e-18
3.254e-18
3.27567e-18
2.68857e-18
3.80836e-18
2.58392e-18
5.60792e-18
5.60389e-18
4.58201e-18
1.03239e-17
1.13924e-17
2.28874e-17
1.9523e-17
8.05993e-18
2.65058e-22
3.08242e-22
5.81428e-22
2.54907e-21
1.12159e-20
6.81034e-20
2.90852e-19
6.83694e-19
1.93993e-18
2.5637e-18
4.21556e-18
2.6521e-18
1.75378e-18
2.62363e-18
1.66583e-18
3.95265e-18
6.30821e-18
9.49524e-18
1.13233e-17
1.3282e-17
1.21164e-17
1.21504e-17
1.20816e-17
1.81526e-17
1.98158e-17
3.36749e-17
3.9294e-17
1.31336e-16
2.10788e-16
1.97147e-16
1.51373e-16
2.66765e-17
7.81416e-22
1.4565e-21
2.16425e-21
1.00232e-20
5.08429e-20
2.55674e-19
9.43923e-19
3.50995e-18
7.21764e-18
1.19869e-17
2.08255e-17
2.12753e-17
1.48661e-17
1.09121e-17
1.07993e-17
1.58405e-17
2.69986e-17
3.45788e-17
4.22324e-17
3.24213e-17
4.29513e-17
3.09463e-17
5.05322e-17
4.36065e-17
6.22487e-17
1.13994e-16
2.7283e-16
6.68177e-16
1.51155e-15
2.3062e-15
2.99272e-15
4.41707e-16
4.72005e-18
5.40539e-21
6.97543e-21
5.80126e-21
3.60169e-20
2.58226e-19
1.16967e-18
5.41509e-18
1.35598e-17
4.66069e-17
6.06646e-17
9.15604e-17
9.41272e-17
1.0158e-16
9.00201e-17
6.6231e-17
6.35736e-17
1.47224e-16
1.01384e-16
1.21016e-16
1.46368e-16
1.43247e-16
1.45854e-16
1.39809e-16
2.01829e-16
1.66633e-16
4.06374e-16
1.21272e-15
4.5029e-15
1.51996e-14
2.98872e-14
3.09023e-14
1.42339e-14
3.40838e-16
1.1713e-17
1.15029e-16
2.02288e-20
2.54083e-20
2.39291e-20
1.02923e-19
9.39954e-19
5.71108e-18
2.51213e-17
5.95747e-17
1.53783e-16
3.23165e-16
3.66443e-16
4.57282e-16
5.0741e-16
5.16439e-16
3.4172e-16
2.83336e-16
3.93553e-16
4.23892e-16
4.5124e-16
4.99179e-16
4.68606e-16
4.37445e-16
3.92305e-16
4.47726e-16
5.00788e-16
1.29928e-15
5.69981e-15
2.67623e-14
1.21592e-13
3.54401e-13
4.68877e-13
1.96862e-13
0
1.26757e-15
1.15775e-14
3.62601e-17
4.06054e-16
1.17373e-19
1.22317e-19
1.098e-19
3.41274e-19
3.15032e-18
2.14379e-17
9.87814e-17
3.21622e-16
6.30092e-16
1.34996e-15
2.05638e-15
2.37603e-15
2.64927e-15
3.03183e-15
2.13664e-15
1.50766e-15
1.66249e-15
2.10403e-15
1.74613e-15
1.6905e-15
1.76572e-15
1.56821e-15
1.2102e-15
1.23017e-15
1.48678e-15
4.76193e-15
2.56674e-14
1.4222e-13
7.00469e-13
3.09774e-12
6.45769e-12
3.6354e-12
3.82641e-13
1.73128e-12
1.04903e-13
1.28734e-12
1.05112e-12
5.56816e-15
6.75014e-14
1.18575e-16
2.12645e-15
5.12436e-19
4.79252e-19
4.40903e-19
9.48405e-19
9.49318e-18
7.59635e-17
3.88072e-16
1.32344e-15
3.37144e-15
7.56716e-15
1.30752e-14
1.74493e-14
2.08418e-14
2.24379e-14
2.34727e-14
1.29457e-14
1.18697e-14
1.19435e-14
1.11302e-14
1.00094e-14
8.34663e-15
6.91114e-15
5.41254e-15
4.64734e-15
5.43724e-15
1.45731e-14
9.76736e-14
6.42602e-13
3.46412e-12
1.8743e-11
6.57736e-11
6.09758e-11
9.29193e-12
5.40152e-11
8.69403e-12
7.64924e-13
9.01914e-12
7.9885e-12
3.40432e-14
4.63328e-13
4.08135e-16
1.28424e-14
1.81897e-18
2.34148e-18
1.78412e-18
2.56757e-18
2.60477e-17
2.42569e-16
1.43496e-15
5.33831e-15
1.69258e-14
4.2666e-14
8.09589e-14
1.22335e-13
1.59095e-13
1.86989e-13
2.21164e-13
1.16134e-13
1.03105e-13
9.3781e-14
8.27979e-14
6.88816e-14
5.3885e-14
4.06089e-14
3.01683e-14
2.20683e-14
2.05612e-14
4.80728e-14
3.29248e-13
2.53241e-12
1.52671e-11
9.23491e-11
4.59568e-10
7.42269e-10
2.6789e-10
9.86143e-10
5.43519e-11
3.22688e-10
7.22455e-11
5.70837e-12
7.55801e-11
6.37073e-11
2.24195e-13
3.30465e-12
2.0139e-15
7.94595e-14
8.81504e-18
1.11085e-17
6.43228e-18
7.8229e-18
6.98352e-17
7.76331e-16
4.81657e-15
2.31292e-14
8.20629e-14
2.2473e-13
4.73517e-13
7.98279e-13
1.15289e-12
1.46888e-12
1.67215e-12
1.13487e-12
9.33846e-13
8.05442e-13
6.65197e-13
5.15749e-13
3.7254e-13
2.56568e-13
1.7367e-13
1.17886e-13
8.84192e-14
1.49907e-13
1.01298e-12
8.59028e-12
5.72741e-11
3.77762e-10
2.37424e-09
6.96139e-09
3.70152e-09
1.36472e-08
1.69884e-09
8.19859e-09
5.0017e-10
3.06915e-09
6.29116e-10
4.37573e-11
6.31458e-10
5.16055e-10
1.52676e-12
2.41404e-11
1.26005e-14
5.18196e-13
2.94698e-17
3.91753e-17
2.78162e-17
2.31471e-17
1.78768e-16
2.08981e-15
1.69277e-14
9.30675e-14
3.68754e-13
1.10751e-12
2.56357e-12
4.77983e-12
7.69658e-12
1.09218e-11
1.34216e-11
1.32358e-11
8.55023e-12
7.12676e-12
5.55514e-12
4.02532e-12
2.68903e-12
1.68944e-12
1.0348e-12
6.41027e-13
4.18799e-13
4.77002e-13
2.8569e-12
2.69112e-11
2.07401e-10
1.31466e-09
1.06244e-08
5.19031e-08
4.44915e-08
1.38137e-07
3.43201e-08
1.275e-07
1.63781e-08
7.64142e-08
4.45432e-09
2.73537e-08
5.41467e-09
3.39869e-10
5.29064e-09
4.19101e-09
1.05399e-11
1.77276e-10
8.17604e-14
3.43651e-12
1.05809e-16
1.4581e-16
1.03374e-16
7.24081e-17
3.85365e-16
5.66209e-15
5.32679e-14
3.43668e-13
1.53417e-12
5.07105e-12
1.2831e-11
2.61356e-11
4.65681e-11
7.4617e-11
1.04162e-10
1.27077e-10
7.61684e-11
6.34483e-11
4.73271e-11
3.22364e-11
1.99923e-11
1.15259e-11
6.38641e-12
3.53858e-12
2.05624e-12
1.62586e-12
6.64559e-12
8.16339e-11
6.7292e-10
4.59075e-09
3.52002e-08
2.7215e-07
3.7874e-07
1.02418e-06
4.22608e-07
1.29235e-06
3.15065e-07
1.13849e-06
1.45435e-07
6.67673e-07
3.89101e-08
2.34397e-07
4.5745e-08
2.63117e-09
4.36904e-08
3.3581e-08
7.30378e-11
1.29279e-09
5.39803e-13
2.2728e-11
3.43201e-16
5.00932e-16
3.52502e-16
2.15068e-16
7.80844e-16
1.32229e-14
1.5661e-13
1.14939e-12
5.84745e-12
2.14609e-11
5.93739e-11
1.31403e-10
2.5302e-10
4.52025e-10
7.30956e-10
1.0531e-09
6.63558e-10
5.56015e-10
4.04164e-10
2.60767e-10
1.50987e-10
8.03348e-11
4.06237e-11
2.01765e-11
1.03528e-11
6.20375e-12
1.45453e-11
1.66735e-10
2.00174e-09
1.5566e-08
1.13616e-07
9.91493e-07
2.42726e-06
5.97188e-06
3.53345e-06
8.83087e-06
3.6565e-06
1.03507e-05
2.65896e-06
8.85319e-06
1.21459e-06
5.26852e-06
3.25555e-07
1.88153e-06
3.72199e-07
2.0091e-08
3.4862e-07
2.61631e-07
4.99863e-10
9.26735e-09
3.59461e-12
1.48683e-10
1.54944e-15
2.05101e-15
1.21398e-15
7.34643e-16
1.47061e-15
2.68107e-14
4.1213e-13
3.52754e-12
2.04293e-11
8.34926e-11
2.53205e-10
6.0818e-10
1.25928e-09
2.38596e-09
4.29128e-09
7.20207e-09
5.42228e-09
4.71088e-09
3.39574e-09
2.09446e-09
1.14071e-09
5.64067e-10
2.62452e-10
1.18443e-10
5.40911e-11
2.67323e-11
3.09727e-11
3.43611e-10
4.44243e-09
4.00254e-08
3.12881e-07
3.10652e-06
1.11391e-05
2.2031e-05
1.98483e-05
4.41146e-05
2.60925e-05
5.9655e-05
2.55423e-05
6.51484e-05
1.85613e-05
5.41774e-05
8.94845e-06
3.33448e-05
2.52694e-06
1.3074e-05
2.818e-06
1.50159e-07
2.59901e-06
1.92569e-06
3.35139e-09
6.51385e-08
2.33957e-11
9.37072e-10
8.45554e-15
9.30586e-15
4.82334e-15
2.24471e-15
2.72145e-15
4.86087e-14
8.68531e-13
1.0072e-11
6.61448e-11
2.99114e-10
9.92394e-10
2.58466e-09
5.7596e-09
1.15542e-08
2.12281e-08
3.73219e-08
4.32258e-08
3.76254e-08
2.72332e-08
1.63227e-08
8.47529e-09
3.93354e-09
1.70189e-09
7.07637e-10
2.94932e-10
1.26993e-10
7.8126e-11
5.4118e-10
9.47424e-09
9.66736e-08
8.53446e-07
7.18395e-06
4.08122e-05
6.53207e-05
7.64036e-05
0.000141507
0.000122745
0.000221422
0.000146944
0.00028771
0.000136902
0.000304715
0.000100216
0.000250952
5.20249e-05
0.000162329
1.67194e-05
7.09831e-05
1.81536e-05
1.07821e-06
1.65969e-05
1.23995e-05
2.16517e-08
4.41535e-07
1.47813e-10
5.5925e-09
4.89771e-14
5.28021e-14
2.58712e-14
1.10066e-14
5.42061e-15
7.79279e-14
1.64998e-12
2.45479e-11
1.99761e-10
9.87678e-10
3.56955e-09
1.0058e-08
2.40583e-08
5.14325e-08
9.73781e-08
1.67215e-07
2.41177e-07
2.6641e-07
1.94014e-07
1.18836e-07
6.06813e-08
2.67834e-08
1.08637e-08
4.35788e-09
1.62977e-09
6.29475e-10
2.65811e-10
7.25464e-10
1.56365e-08
2.47238e-07
2.22421e-06
2.18422e-05
0.000119123
8.74754e-05
0.000202978
0.000301578
0.000339842
0.000470741
0.000461703
0.000650162
0.000535217
0.000791566
0.000524677
0.000851079
0.000404361
0.000790952
0.000231137
0.000582126
8.57713e-05
0.000292493
9.02355e-05
7.02718e-06
8.16402e-05
6.15766e-05
1.33875e-07
2.84503e-06
8.95099e-10
3.14917e-08
2.73454e-13
3.20169e-13
1.5194e-13
5.85648e-14
1.87331e-14
1.04273e-13
2.74371e-12
4.44444e-11
5.25435e-10
3.03564e-09
1.17484e-08
3.57173e-08
9.11075e-08
2.0685e-07
4.11453e-07
7.04456e-07
1.0422e-06
1.22934e-06
1.15669e-06
8.38263e-07
3.99123e-07
1.72427e-07
6.81467e-08
2.5934e-08
8.70835e-09
3.13819e-09
1.12711e-09
1.09898e-09
1.92834e-08
3.83831e-07
5.05452e-06
5.41605e-05
0.000403678
0.000365115
0.000521444
0.000595546
0.00072415
0.000832301
0.00100322
0.00104052
0.0012694
0.00116913
0.00147868
0.00119247
0.00157296
0.00105747
0.0015346
0.000746807
0.00132724
0.000332672
0.000870427
0.000338175
3.62826e-05
0.000302645
0.000231936
8.09236e-07
1.59169e-05
5.04939e-09
1.71482e-07
1.33194e-12
1.87944e-12
9.3239e-13
3.3088e-13
9.3198e-14
1.21039e-13
3.60601e-12
7.10202e-11
9.02004e-10
7.91398e-09
3.49301e-08
1.15683e-07
3.11236e-07
7.42985e-07
1.55847e-06
2.77826e-06
4.16513e-06
4.90618e-06
4.46946e-06
3.2383e-06
1.98611e-06
1.04642e-06
4.01712e-07
1.45164e-07
4.61798e-08
1.58489e-08
5.34812e-09
2.41226e-09
1.92422e-08
3.96186e-07
7.49172e-06
8.92813e-05
0.000518463
0.00102016
0.00110586
0.000831481
0.00093754
0.00115476
0.00129475
0.00147329
0.00165234
0.00173602
0.00194338
0.00188082
0.0020785
0.00189941
0.00210484
0.00181161
0.00207434
0.00153071
0.00196279
0.00093354
0.00165506
0.000921699
0.000147903
0.000825581
0.000656753
4.81558e-06
7.28013e-05
2.91814e-08
9.9409e-07
5.50244e-12
9.15555e-12
5.85316e-12
1.87102e-12
5.3266e-13
1.69261e-13
3.79351e-12
9.36159e-11
1.37138e-09
1.37892e-08
8.34972e-08
3.24876e-07
9.58253e-07
2.37542e-06
5.23071e-06
9.88032e-06
1.55508e-05
1.92191e-05
1.84574e-05
1.402e-05
8.65016e-06
4.47707e-06
2.08626e-06
7.67559e-07
2.47572e-07
8.11067e-08
2.55384e-08
8.02873e-09
2.0225e-08
4.42377e-07
8.37067e-06
0.000112593
0.000589585
0.00116915
0.00123092
0.00159425
0.00166845
0.00141181
0.00151284
0.0018015
0.00192985
0.00210083
0.00221544
0.00220518
0.00229039
0.00221461
0.0022723
0.00218815
0.00224491
0.00215154
0.00221877
0.00205076
0.00217792
0.00170624
0.00209512
0.00168804
0.000459047
0.00158015
0.0013505
2.4586e-05
0.000256845
3.61788e-07
8.61103e-06
1.86281e-11
3.6093e-11
2.39087e-11
9.81486e-12
3.03172e-12
5.02291e-13
3.29666e-12
1.00082e-10
1.79844e-09
1.96488e-08
1.53156e-07
7.01401e-07
2.45151e-06
6.73546e-06
1.54005e-05
3.06166e-05
5.06041e-05
6.64153e-05
6.97672e-05
5.85907e-05
3.91456e-05
2.11261e-05
9.49018e-06
3.634e-06
1.27239e-06
4.15421e-07
1.21792e-07
3.38141e-08
2.56748e-08
4.53105e-07
8.36016e-06
0.000117416
0.000627454
0.00127508
0.00123151
0.00172543
0.00177708
0.00218688
0.00224786
0.00203352
0.00211866
0.002305
0.00238144
0.00234979
0.00240194
0.00231125
0.00233095
0.0022457
0.00221466
0.00220059
0.00212813
0.00219548
0.00211137
0.00219935
0.00215591
0.00211596
0.0022081
0.00211303
0.00103703
0.00206661
0.00192804
0.00011715
0.000692689
1.33215e-05
0.00010252
3.67226e-11
1.19543e-10
9.88758e-11
4.89349e-11
1.53272e-11
2.39012e-12
2.32888e-12
9.09903e-11
1.95379e-09
2.53381e-08
2.11593e-07
1.1871e-06
4.76013e-06
1.48914e-05
3.77535e-05
7.82976e-05
0.00013126
0.000177105
0.000199356
0.000190347
0.000150833
9.32226e-05
4.54038e-05
1.82035e-05
6.20594e-06
2.02656e-06
5.73899e-07
1.52196e-07
5.21387e-08
4.34451e-07
8.21076e-06
0.000114923
0.000625177
0.00160252
0.00180486
0.00190848
0.00229331
0.00233282
0.00255944
0.00261068
0.00244718
0.00250603
0.00245038
0.00249721
0.00234165
0.00234762
0.00215413
0.00208675
0.00198548
0.00182644
0.00192269
0.0016827
0.00198678
0.00169571
0.00211575
0.00185979
0.00221991
0.0020931
0.00223681
0.00168296
0.00224224
0.00222396
0.000505679
0.00141022
0.000210621
0.000589816
1.99767e-10
3.40565e-10
1.81852e-10
6.52593e-11
1.23316e-11
2.49324e-12
6.23934e-11
1.84833e-09
2.79127e-08
2.6065e-07
1.68627e-06
7.47502e-06
2.56811e-05
6.89329e-05
0.000144488
0.00023509
0.000308092
0.000346814
0.000349712
0.000317819
0.000253423
0.000160946
7.37798e-05
2.74267e-05
9.0538e-06
2.55545e-06
6.68959e-07
1.71087e-07
3.80989e-07
7.41688e-06
0.0001089
0.000610848
0.00158982
0.00238739
0.00238591
0.00235103
0.00238086
0.00265652
0.00269866
0.00263866
0.00268837
0.00254351
0.00259072
0.00235929
0.00237793
0.00203584
0.00200896
0.00169332
0.00160053
0.0014562
0.00126978
0.00139835
0.00113489
0.00151899
0.00122632
0.00177761
0.0014455
0.00210417
0.00175443
0.00215718
0.00214981
0.00223234
0.00229489
0.00123561
0.00201459
0.000144576
0.000708662
5.65223e-10
7.3438e-10
2.6553e-10
6.67595e-11
7.72983e-12
3.4528e-11
1.36991e-09
2.70919e-08
2.88436e-07
2.03468e-06
1.00349e-05
3.7053e-05
0.000103648
0.000216024
0.000340129
0.000431817
0.000481461
0.000496413
0.000479564
0.000427519
0.000338566
0.000218832
9.79978e-05
3.46547e-05
1.02838e-05
2.77699e-06
6.83731e-07
4.19958e-07
5.07152e-06
9.30291e-05
0.000573612
0.00155912
0.00237582
0.00229728
0.00278486
0.00279551
0.00273232
0.0027631
0.00273854
0.0027884
0.0024901
0.0025428
0.00240611
0.00244452
0.0020087
0.00202203
0.00154973
0.00153739
0.00114177
0.0010708
0.00091293
0.000740629
0.000992598
0.000767851
0.00121841
0.0010332
0.0014579
0.0012872
0.00179136
0.00149241
0.00188962
0.00234163
0.00202737
0.00212614
0.002279
0.00158392
0.00225267
7.30648e-05
0.000609435
1.28492e-09
1.28667e-09
2.72329e-10
3.85537e-11
1.86026e-11
8.15123e-10
2.16223e-08
2.84798e-07
2.18171e-06
1.18504e-05
4.67962e-05
0.000135941
0.000283698
0.000435651
0.000541899
0.000598294
0.000622712
0.000624572
0.000598544
0.000530935
0.000415495
0.000263591
0.000113225
3.80594e-05
1.06277e-05
2.73112e-06
8.19027e-07
3.02612e-06
6.63425e-05
0.000505017
0.00149715
0.00255891
0.002801
0.00285629
0.00292537
0.00296413
0.00283653
0.0028828
0.0026004
0.00266075
0.00216309
0.00222907
0.00205547
0.00210513
0.00154806
0.00158067
0.00104548
0.0010531
0.000636878
0.000593071
0.000548053
0.000364887
0.000845658
0.000627096
0.00116398
0.00103694
0.00139893
0.00144236
0.00157041
0.00151794
0.00149725
0.00178583
0.0016284
0.0022097
0.00235539
0.00229653
0.00193673
0.00173756
0.00167108
0.00202458
0.00167167
0.00234499
0.00233383
0.00219278
5.09145e-05
0.000521621
2.41248e-09
8.78595e-10
1.91846e-10
2.11212e-11
4.06161e-10
1.39041e-08
2.42026e-07
2.17331e-06
1.25584e-05
5.3067e-05
0.000161148
0.000340483
0.000519575
0.000635743
0.000691647
0.000720974
0.000737864
0.000745156
0.000721642
0.000640307
0.00049114
0.000297828
0.000119488
3.76077e-05
1.01974e-05
2.61241e-06
2.83178e-06
4.09442e-05
0.000416688
0.00139119
0.00250644
0.00302509
0.00300553
0.00299017
0.00302591
0.00284306
0.00290039
0.00272223
0.00278348
0.00230056
0.00237547
0.00176826
0.00184709
0.00163348
0.00169684
0.00108067
0.00112949
0.000584572
0.000602049
0.000276376
0.000243723
0.000385105
0.000198671
0.000863491
0.000607345
0.00150295
0.0013416
0.00125387
0.00160346
0.00173106
0.00186311
0.0018209
0.00157877
0.00157777
0.00162932
0.00169619
0.001607
0.00213477
0.002244
0.00181959
0.00169481
0.00164757
0.00192198
0.00220731
0.0014198
0.00190512
0.00232326
0.00232246
1.33065e-05
0.00139256
0.000676514
0.000223616
2.72691e-09
5.33643e-10
6.77358e-11
1.75122e-10
7.66479e-09
1.67319e-07
1.92774e-06
1.24318e-05
5.50598e-05
0.000175893
0.000382215
0.000586463
0.000701837
0.000747027
0.000770254
0.000798445
0.000833908
0.000865224
0.000853698
0.000756172
0.000564726
0.000319386
0.000116801
3.52953e-05
9.14976e-06
3.81024e-06
2.26894e-05
0.000310791
0.00125602
0.00239779
0.00305167
0.00304028
0.00307017
0.00295226
0.0030016
0.00260522
0.00268014
0.00245224
0.00252912
0.00193118
0.00201948
0.00134491
0.00143407
0.00119181
0.00126404
0.000638421
0.000687245
0.000235369
0.000241224
0.000126555
0.000103731
0.000336745
0.000150448
0.00112392
0.000949286
0.000783167
0.000588682
0.00185027
0.00177046
0.00153413
0.00138345
0.00186463
0.00201645
0.00208954
0.00208812
0.00177486
0.00165372
0.0018311
0.00198593
0.00167394
0.00204615
0.0021743
0.00175536
0.00169488
0.00172002
0.00183797
0.00220891
0.00190103
0.00227816
0.00229829
0.000170071
3.61709e-07
9.7656e-06
0.00133603
0.000614021
2.05837e-09
3.24592e-10
8.12056e-11
3.71819e-09
1.00971e-07
1.41603e-06
1.12293e-05
5.41968e-05
0.000179705
0.000406102
0.000634363
0.000745073
0.00077393
0.000783466
0.000797317
0.000840312
0.000910123
0.000981147
0.00098652
0.000866121
0.000623072
0.000319683
0.000108176
3.06049e-05
8.49779e-06
1.63829e-05
0.000209271
0.00106347
0.00225613
0.00303587
0.00297744
0.00302104
0.00288449
0.00294631
0.00275205
0.00282115
0.00229327
0.00238509
0.00211026
0.00220162
0.0015303
0.00163235
0.000910643
0.00100632
0.000750028
0.000825501
0.000262985
0.000301078
9.56267e-05
9.10498e-05
8.96563e-05
7.46045e-05
0.000433236
0.000278407
0.000189575
0.000130718
0.00120827
0.00100726
0.000802708
0.000605661
0.00201709
0.00187349
0.00163708
0.00144657
0.00218341
0.00229462
0.00225192
0.00231163
0.00208192
0.001857
0.00214309
0.0023272
0.00185677
0.00195504
0.00209613
0.00175541
0.00183875
0.00181782
0.00180628
0.00219571
0.00188184
0.00222053
0.00226609
0.000114184
5.43705e-08
2.43073e-06
0.00127309
0.000521788
1.07689e-09
1.14192e-10
1.44184e-09
5.48861e-08
9.23481e-07
8.63976e-06
4.95757e-05
0.000176964
0.000412448
0.000664144
0.000775592
0.000792166
0.000780605
0.000768821
0.000792248
0.000877447
0.000995442
0.00110412
0.00111317
0.000952763
0.00064729
0.000299404
9.22855e-05
2.41533e-05
1.70066e-05
0.000131487
0.000823598
0.00206544
0.00298346
0.00299294
0.00279283
0.00283849
0.0026435
0.00272072
0.0024751
0.00256185
0.00195618
0.00206534
0.00173837
0.00184671
0.00111232
0.00122644
0.00050342
0.000597356
0.000355384
0.000423132
9.13076e-05
0.00010161
6.89124e-05
5.53767e-05
0.000111075
0.000103734
0.000103876
0.000103554
0.000438368
0.000306329
0.000221693
0.000184902
0.0012322
0.00100951
0.000793716
0.000600555
0.00210583
0.00167612
0.00189944
0.00144876
0.00248254
0.00252181
0.00233533
0.00247528
0.00243929
0.0021644
0.00251033
0.00264969
0.00214376
0.00188579
0.00201195
0.00180675
0.00208789
0.00200992
0.00182119
0.00217406
0.00185267
0.00215747
0.00222965
5.41762e-05
8.6242e-09
5.83085e-07
0.00119369
0.000373241
4.9145e-10
5.29965e-10
2.47203e-08
5.51322e-07
5.99994e-06
3.95929e-05
0.000164541
0.000408576
0.000675825
0.000798378
0.000808688
0.000772457
0.000701367
0.000644584
0.000710934
0.000915657
0.00110759
0.00124494
0.00122355
0.000989156
0.000623643
0.000257615
7.08878e-05
2.52332e-05
8.41959e-05
0.00060082
0.00182526
0.00285887
0.00301184
0.00271183
0.0027927
0.00256026
0.0026385
0.0023756
0.0024704
0.00217241
0.00227633
0.00160179
0.00173039
0.00134705
0.00147287
0.000700993
0.000817275
0.000189089
0.000247429
0.000120448
0.000148694
4.18967e-05
3.6519e-05
0.00011512
7.57513e-05
0.00017633
0.000178025
0.000178277
0.000167664
0.000446448
0.000342144
0.000295103
0.000289678
0.00120847
0.000974506
0.0007639
0.000593919
0.00212327
0.00165824
0.00186788
0.00140157
0.00271682
0.00269587
0.002353
0.00256472
0.00278715
0.00253606
0.00288292
0.00290115
0.00250453
0.00186124
0.00194281
0.00192879
0.00242053
0.00229222
0.00187675
0.0021513
0.00182272
0.00208621
0.00219113
2.42926e-05
1.36805e-09
1.27988e-07
0.00107628
0.000257571
3.26122e-10
1.04078e-08
2.82503e-07
3.86157e-06
2.89052e-05
0.000137555
0.000391101
0.000674661
0.000814885
0.000824902
0.000765209
0.000635693
0.000480585
0.000487388
0.000684601
0.00100097
0.00126827
0.00139948
0.00127093
0.000960152
0.00055956
0.000197774
5.2946e-05
7.21237e-05
0.000433486
0.00155379
0.00267685
0.00300281
0.00278391
0.0025064
0.00257109
0.00231994
0.00241737
0.00209988
0.00221327
0.00185689
0.00198055
0.00122098
0.00136645
0.000944134
0.00107905
0.000328242
0.000428196
5.71735e-05
7.67755e-05
3.69863e-05
4.40057e-05
3.78977e-05
2.24666e-05
0.000313395
0.000270307
0.000144744
0.000214018
0.000300976
0.000326011
0.000336374
0.000335712
0.000476058
0.000427152
0.000426756
0.000460204
0.00115047
0.000924962
0.000743298
0.00061914
0.00208871
0.00159537
0.00180116
0.00132909
0.00290321
0.00279801
0.00232804
0.00259447
0.00306474
0.00292542
0.00319981
0.0031001
0.00289765
0.00187113
0.00191139
0.00213824
0.00280238
0.00263454
0.00199278
0.00213007
0.00178906
0.00202181
0.00215206
8.12646e-06
3.67312e-10
4.52873e-08
0.000948435
0.000142559
3.09582e-09
1.37021e-07
2.18654e-06
1.97512e-05
0.000106013
0.000349015
0.000662706
0.000824952
0.000841155
0.000765783
0.000589165
0.000363994
0.000317867
0.000466069
0.000779226
0.00121507
0.00149638
0.00148451
0.00124584
0.000865284
0.000451415
0.000131206
7.99209e-05
0.00031925
0.00128138
0.00245747
0.00296114
0.00285941
0.00245562
0.00254727
0.00228005
0.00237143
0.0020575
0.00217402
0.00179686
0.00193125
0.00151169
0.00165571
0.000818022
0.000968596
0.000547176
0.00067723
0.000105648
0.000147405
1.54926e-05
1.97797e-05
1.55395e-05
1.38114e-05
8.94933e-05
5.28607e-05
3.12131e-05
0.000534964
0.000469421
0.000273592
0.00037819
0.000509123
0.000553307
0.000569765
0.00056786
0.000575756
0.000584622
0.000642668
0.000728503
0.00108974
0.000899009
0.000774303
0.00074168
0.00203212
0.00152036
0.00173872
0.00127003
0.00303034
0.00284814
0.002294
0.00258989
0.00328156
0.00328635
0.00344648
0.00326002
0.003289
0.00191108
0.00190859
0.00241669
0.00319607
0.00300832
0.00217862
0.00210717
0.00174712
0.00196959
0.0021086
3.68004e-06
2.73206e-10
2.98351e-08
0.000761857
8.76633e-05
4.60011e-08
1.17919e-06
1.20303e-05
7.67099e-05
0.000288928
0.00062974
0.00082695
0.000856295
0.00077508
0.000570039
0.000292862
0.000204094
0.000299099
0.000574138
0.00108177
0.00153384
0.00165315
0.00147707
0.0011268
0.000703609
0.000321368
0.000114228
0.000269244
0.00103699
0.00222353
0.00286172
0.00287792
0.00254479
0.00221963
0.00229393
0.00200651
0.00212047
0.00174053
0.00187889
0.00143888
0.00159299
0.00112303
0.00128072
0.000417928
0.00055671
0.000208153
0.000300116
2.75648e-05
4.03538e-05
5.73676e-06
5.50645e-06
1.18689e-05
7.55898e-06
0.000166165
8.11558e-05
7.76082e-05
3.46782e-05
0.000816722
0.000719815
0.000450246
0.000592979
0.000809769
0.000866633
0.000881883
0.000872789
0.000762462
0.000846323
0.000971504
0.00109457
0.00107305
0.000949673
0.000925551
0.000957405
0.00199594
0.00147913
0.00172855
0.00127752
0.00310839
0.00287197
0.00229396
0.00258799
0.00346599
0.00357693
0.003653
0.00337777
0.00363954
0.00197946
0.00191172
0.00273829
0.00357613
0.00338452
0.00241407
0.00208338
0.00168649
0.00193658
0.00205958
1.84375e-06
8.38885e-09
1.73102e-07
0.000614796
5.35544e-05
4.68689e-07
7.12241e-06
4.98267e-05
0.000225366
0.000563038
0.000820773
0.000868755
0.000791919
0.000570471
0.000263294
0.000134958
0.000182446
0.000387703
0.000897093
0.00151355
0.00176704
0.00167217
0.0013551
0.000910296
0.000488004
0.000203404
0.000272086
0.000863337
0.00199314
0.00273111
0.00286764
0.00264589
0.00211329
0.00222036
0.00191811
0.00201734
0.00165785
0.00179429
0.0013556
0.00151133
0.0010285
0.00119321
0.000706189
0.000863909
0.000137827
0.00020695
6.04081e-05
9.13695e-05
6.37146e-06
8.95704e-06
4.11351e-06
3.2385e-06
1.83639e-05
1.1249e-05
7.39896e-06
0.000308768
0.000179235
0.000144873
5.97315e-05
0.00114307
0.00100486
0.000642747
0.000832892
0.00119797
0.00125252
0.00126242
0.00123112
0.00107645
0.00123042
0.00139696
0.00154367
0.00115511
0.00113648
0.00117697
0.00132079
0.0020232
0.00151839
0.00180543
0.00139102
0.00317067
0.00290856
0.00236456
0.00262851
0.00363023
0.00382035
0.00385117
0.0034846
0.00393107
0.00210829
0.00193678
0.00308011
0.00391702
0.00373747
0.00267739
0.00205691
0.00162765
0.00191124
0.00201059
2.03412e-06
1.08099e-07
1.30636e-06
0.000507363
4.71666e-05
3.13605e-06
3.17999e-05
0.000158203
0.000479768
0.0007971
0.000874848
0.00081409
0.000580271
0.000263072
9.85368e-05
0.000107766
0.000236413
0.000656063
0.00137864
0.00179002
0.00181994
0.00158309
0.00111614
0.000636802
0.000323565
0.000305838
0.000815515
0.00177903
0.00258409
0.00283482
0.00270636
0.0021976
0.00177356
0.00186974
0.00153543
0.00166421
0.00124116
0.00139243
0.000922579
0.00108474
0.000602971
0.000760877
0.000312585
0.000447927
3.52764e-05
5.74746e-05
1.37542e-05
2.18237e-05
2.29953e-06
2.12483e-06
6.36592e-06
4.65723e-06
3.88612e-06
2.62548e-05
1.31939e-05