/*--------------------------------*- C++ -*----------------------------------*\
  =========                 |
  \\      /  F ield         | OpenFOAM: The Open Source CFD Toolbox
   \\    /   O peration     | Website:  https://openfoam.org
    \\  /    A nd           | Version:  dev
     \\/     M anipulation  |
\*---------------------------------------------------------------------------*/
FoamFile
{
    version     2.0;
    format      ascii;
    class       volScalarField;
    location    "2500";
    object      k;
}
// * * * * * * * * * * * * * * * * * * * * * * * * * * * * * * * * * * * * * //

dimensions      [0 2 -2 0 0 0 0];

internalField   nonuniform List<scalar> 
9851
(
0.000171777
0.000176297
0.000161591
0.000146925
0.000227255
0.000128328
0.000121825
0.000240138
0.000202109
0.00011387
0.000112292
0.000224284
0.000240348
0.000153158
0.00010973
0.000106636
0.000188184
0.000262397
0.000206641
0.000129156
0.0001071
0.000103816
0.000150801
0.000261031
0.000247642
0.000157128
0.00011998
0.000105159
0.000102183
0.000132095
0.000245522
0.000266294
0.000200329
0.000132513
0.000115014
0.000103847
0.000101212
0.000119636
0.000210961
0.000278514
0.000242524
0.000154535
0.000122552
0.000111389
0.00010297
0.0001006
0.000111868
0.000171145
0.000274944
0.000269236
0.00018892
0.000131652
0.00011713
0.000108783
0.00010234
0.000100092
0.000107088
0.000144794
0.00025868
0.000281765
0.000231632
0.000148589
0.000121716
0.000113271
0.000106953
0.000101848
9.94045e-05
0.000103898
0.000128309
0.0002242
0.000289951
0.000263379
0.000177839
0.000128537
0.00011635
0.000110475
0.000105578
0.000101471
9.88564e-05
0.000101844
0.000117459
0.000183867
0.000285598
0.00028341
0.00021489
0.000142189
0.000119335
0.000112741
0.000108383
0.000104505
0.000101167
9.84527e-05
0.00010038
0.000110755
0.000153281
0.000269537
0.000293468
0.000253195
0.000166097
0.000124691
0.000114421
0.000110041
0.000106777
0.000103612
0.000100926
9.82309e-05
9.93093e-05
0.000106335
0.000134783
0.000236304
0.000300468
0.000278143
0.000198162
0.000135533
0.000116558
0.000111065
0.000108006
0.000105439
0.000102912
0.000100726
9.83017e-05
9.84847e-05
0.000103319
0.000122273
0.000196719
0.000296355
0.000295119
0.000233892
0.000155062
0.000120686
0.000112011
0.000108537
0.000106356
0.000104403
0.00010234
0.000100548
9.83695e-05
9.73888e-05
0.000101022
0.00011406
0.000162435
0.000281671
0.000303955
0.000268312
0.000182309
0.000129113
0.000113527
0.000108907
0.000106648
0.000105117
0.000103578
0.000101821
0.000100393
9.83989e-05
9.63793e-05
9.91218e-05
0.000108293
0.000141944
0.000251932
0.000310882
0.000289765
0.000213523
0.000144907
0.000116606
0.00010942
0.000106605
0.00010528
0.000104167
0.000102818
0.000101381
0.000100253
9.84085e-05
9.5527e-05
9.7561e-05
0.000104223
0.000127689
0.000213457
0.000308137
0.000305343
0.000247253
0.000166584
0.000123026
0.000110425
0.000106491
0.000105126
0.000104286
0.000103306
0.000102175
0.000100986
0.000100127
9.8389e-05
9.48249e-05
9.62326e-05
0.000101188
0.000117665
0.00017748
0.000296434
0.000313572
0.00027824
0.000194344
0.000135346
0.000112636
0.000106667
0.00010435
0.000104108
0.000103412
0.000102573
0.000101605
0.000100625
0.000100025
9.83582e-05
9.43535e-05
9.51151e-05
9.87658e-05
0.000110631
0.000152637
0.000272511
0.000321031
0.000298689
0.000223228
0.000153283
0.000117597
0.000107289
0.000103871
0.000103146
0.000103258
0.000102665
0.000101937
0.000101083
0.000100267
9.99137e-05
9.8324e-05
9.40117e-05
9.39928e-05
9.67865e-05
0.000105531
0.000136153
0.000237923
0.0003209
0.000313739
0.000255076
0.00017516
0.00012739
0.000108966
0.000103947
0.000101939
0.000102342
0.00010253
0.000102027
0.000101352
0.000100586
9.99426e-05
9.97842e-05
9.82864e-05
9.36941e-05
9.28549e-05
9.50591e-05
0.000101707
0.000124418
0.000202741
0.000313529
0.00032246
0.000282851
0.000201467
0.000141005
0.000112929
0.00010439
0.00010142
0.000100791
0.000101714
0.000101915
0.00010144
0.000100793
0.000100091
9.96395e-05
9.96774e-05
9.82383e-05
9.33951e-05
9.1862e-05
9.35589e-05
9.87695e-05
0.000115891
0.000173061
0.000295812
0.000329987
0.000304968
0.000227826
0.000158859
0.000120442
0.000105697
0.000101456
9.9698e-05
0.000100085
0.000101215
0.000101344
0.000100871
0.000100242
9.96572e-05
9.9349e-05
9.95748e-05
9.81691e-05
9.30973e-05
9.1016e-05
9.22806e-05
9.64551e-05
0.000109784
0.000152497
0.000269808
0.00033273
0.000319851
0.000256848
0.000179666
0.000130861
0.000108825
0.00010178
9.925e-05
9.86948e-05
9.96997e-05
0.000100719
0.000100776
0.000100299
9.97109e-05
9.91894e-05
9.9079e-05
9.94798e-05
9.80732e-05
9.28102e-05
9.03273e-05
9.1213e-05
9.46229e-05
0.000105392
0.000138576
0.000239349
0.000329143
0.000330051
0.000283116
0.000203011
0.000144232
0.000114598
0.000102783
9.92742e-05
9.77905e-05
9.82266e-05
9.93955e-05
0.000100189
0.000100194
9.97195e-05
9.91494e-05
9.87394e-05
9.88177e-05
9.94036e-05
9.79427e-05
9.25327e-05
8.97944e-05
9.03549e-05
9.31969e-05
0.000102271
0.000128821
0.00021038
0.000318753
0.000335408
0.000306262
0.000227679
0.000160614
0.000122062
0.000105288
9.95157e-05
9.74421e-05
9.70683e-05
9.80161e-05
9.90845e-05
9.96416e-05
9.95633e-05
9.90992e-05
9.85534e-05
9.83218e-05
9.85777e-05
9.9333e-05
9.77764e-05
9.22619e-05
8.9423e-05
8.97013e-05
9.21264e-05
0.00010013
0.000122101
0.000186687
0.00030011
0.000339292
0.000321033
0.000251661
0.00017976
0.000131864
0.00010936
0.000100281
9.74594e-05
9.63689e-05
9.6796e-05
9.79016e-05
9.87722e-05
9.90594e-05
9.89148e-05
9.84318e-05
9.79902e-05
9.79687e-05
9.84282e-05
9.93328e-05
9.75558e-05
9.19919e-05
8.92037e-05
8.92752e-05
9.14129e-05
9.8786e-05
0.000117759
0.000169191
0.000277554
0.000338082
0.000331347
0.000276736
0.000200171
0.000144366
0.00011467
0.000102134
9.76375e-05
9.61143e-05
9.59212e-05
9.6801e-05
9.78455e-05
9.83794e-05
9.85345e-05
9.83036e-05
9.77672e-05
9.74394e-05
9.76514e-05
9.82601e-05
9.93872e-05
9.72786e-05
9.17417e-05
8.91106e-05
8.90768e-05
9.1046e-05
9.81352e-05
0.000115797
0.000157324
0.000254273
0.000333087
0.000336541
0.000298448
0.000221754
0.000159252
0.000121764
0.00010502
9.82005e-05
9.61296e-05
9.54516e-05
9.59089e-05
9.69206e-05
9.77596e-05
9.79957e-05
9.798e-05
9.76727e-05
9.72237e-05
9.70859e-05
9.7526e-05
9.83024e-05
9.95858e-05
9.6965e-05
9.15389e-05
8.91374e-05
8.90731e-05
9.10031e-05
9.804e-05
0.000115727
0.000149573
0.000232837
0.00032239
0.000338934
0.00031552
0.000243252
0.000176071
0.000130746
0.000108743
9.95581e-05
9.62678e-05
9.53514e-05
9.53922e-05
9.60811e-05
9.71853e-05
9.77157e-05
9.76759e-05
9.73955e-05
9.69956e-05
9.6625e-05
9.6828e-05
9.75384e-05
9.87151e-05
0.000100009
9.66357e-05
9.13924e-05
8.92748e-05
8.92459e-05
9.12868e-05
9.84758e-05
0.00011618
0.000144723
0.000214463
0.000306498
0.000338469
0.000325805
0.000263975
0.00019426
0.000141984
0.000113552
0.00010157
9.66876e-05
9.53861e-05
9.53105e-05
9.56123e-05
9.65138e-05
9.73978e-05
9.75651e-05
9.73403e-05
9.69524e-05
9.64684e-05
9.6218e-05
9.66653e-05
9.76419e-05
9.92696e-05
0.000100674
9.63221e-05
9.13304e-05
8.95166e-05
8.9591e-05
9.19304e-05
9.9618e-05
0.000117342
0.000142432
0.000199958
0.00028914
0.000335684
0.000331039
0.000283933
0.00021261
0.00015556
0.000119868
0.000104042
9.76899e-05
9.55164e-05
9.53607e-05
9.55869e-05
9.62637e-05
9.71989e-05
9.76563e-05
9.74887e-05
9.71244e-05
9.66612e-05
9.63365e-05
9.65764e-05
9.73541e-05
9.88255e-05
0.000100746
0.000101605
9.60675e-05
9.13845e-05
8.98795e-05
9.0104e-05
9.28992e-05
0.000101413
0.000119291
0.000142016
0.000189353
0.000272289
0.000329424
0.000332752
0.000300028
0.00023103
0.000170511
0.00012831
0.000107221
9.90544e-05
9.58775e-05
9.55138e-05
9.56766e-05
9.63174e-05
9.72561e-05
9.7888e-05
9.78688e-05
9.75499e-05
9.71585e-05
9.67884e-05
9.6918e-05
9.7649e-05
9.90331e-05
0.00010099
0.000102557
0.000101124
0.000102869
9.5929e-05
9.15919e-05
9.03887e-05
9.08193e-05
9.42373e-05
0.000103906
0.000121858
0.000142776
0.000182238
0.000257211
0.000320257
0.000331335
0.000311732
0.000248513
0.000186371
0.000138854
0.000111804
0.000100663
9.66503e-05
9.5815e-05
9.59103e-05
9.65167e-05
9.74598e-05
9.82788e-05
9.85676e-05
9.83749e-05
9.80068e-05
9.77701e-05
9.78331e-05
9.86439e-05
9.98569e-05
0.000101607
0.000103265
0.000103738
0.000104167
0.000101287
0.000103189
9.59567e-05
9.19593e-05
9.10231e-05
9.177e-05
9.59975e-05
0.000107031
0.000124912
0.000144446
0.000178276
0.000245002
0.000310177
0.000328306
0.000317855
0.000264259
0.00020296
0.000151294
0.0001181
0.000102871
9.75929e-05
9.64415e-05
9.63253e-05
9.69707e-05
9.79149e-05
9.88886e-05
9.95044e-05
9.93666e-05
9.91628e-05
9.9052e-05
9.94423e-05
0.000100131
0.000101745
0.00010304
0.000103437
0.000103906
0.000104595
0.000104437
0.000105289
0.000104327
0.000104989
0.00010135
0.000103523
9.61665e-05
9.24741e-05
9.17332e-05
9.29285e-05
9.81915e-05
0.000110786
0.000128625
0.000147128
0.000177095
0.000236395
0.000300517
0.000324373
0.000319711
0.000278791
0.000219304
0.000165562
0.000126424
0.000106132
9.87531e-05
9.73063e-05
9.70234e-05
9.76664e-05
9.86979e-05
9.96802e-05
0.000100715
0.000101293
0.000101064
0.000100959
0.00010153
0.000102908
0.000103853
0.000105572
0.000104887
0.000106907
0.00010546
0.000105652
0.000106863
0.000106912
0.000104983
0.0001058
0.000101476
0.000103968
9.65718e-05
9.31051e-05
9.25049e-05
9.42478e-05
0.000100786
0.000115131
0.000133125
0.000150823
0.000177996
0.000231212
0.000292524
0.000320261
0.00031933
0.00029007
0.000235468
0.000181346
0.000137022
0.000111032
0.000100452
9.83145e-05
9.80113e-05
9.85618e-05
9.97937e-05
0.000101012
0.000102156
0.000103104
0.000103449
0.000103706
0.000104564
0.000106198
0.000108667
0.000110114
0.000108845
0.0001118
0.000107253
0.00010924
0.000108515
0.000106784
0.000108559
0.00010848
0.00010549
0.000106578
0.000101704
0.000104289
9.71871e-05
9.38656e-05
9.33792e-05
9.57509e-05
0.000103726
0.00011999
0.000138402
0.000155623
0.000180587
0.000230055
0.000287392
0.000316746
0.000318258
0.000297903
0.000250269
0.000197396
0.000150238
0.000118623
0.000103401
9.98522e-05
9.91187e-05
9.99307e-05
0.000101383
0.000102803
0.000103832
0.000104927
0.000105959
0.000106772
0.000107461
0.000109514
0.000112604
0.000116885
0.000114227
0.000118116
0.000112048
0.000114859
0.000110444
0.000112688
0.000110398
0.000108081
0.000110135
0.000109691
0.000106056
0.000107466
0.000101853
0.000104732
9.80287e-05
9.48477e-05
9.44167e-05
9.7424e-05
0.000106941
0.000125206
0.000144333
0.000161638
0.000185566
0.000231385
0.000286189
0.000314872
0.000317148
0.000304045
0.000264684
0.000215631
0.000167004
0.000129325
0.000108261
0.00010197
0.000100754
0.000101338
0.000102886
0.000104715
0.000106305
0.000107179
0.000108572
0.000109956
0.000110793
0.000113411
0.00011822
0.000122536
0.000120977
0.000126081
0.000118345
0.000122643
0.000115359
0.000118955
0.000112308
0.000115267
0.000112284
0.000109161
0.000112146
0.000111561
0.000106513
0.000108294
0.00010211
0.000104968
9.90774e-05
9.61132e-05
9.56894e-05
9.92328e-05
0.000110311
0.000130583
0.000150791
0.000168809
0.000192672
0.000235633
0.000287575
0.000315294
0.000317557
0.000308569
0.000277068
0.000234802
0.00018727
0.0001443
0.000116013
0.000106017
0.00010299
0.000103164
0.000104953
0.000106994
0.000109036
0.00011062
0.000111781
0.000113145
0.000114969
0.000117116
0.000121516
0.000129116
0.000131
0.000141353
0.000128101
0.000139164
0.000123566
0.000133537
0.00011833
0.000125032
0.000114768
0.000118305
0.000114094
0.000110661
0.000113446
0.000112476
0.000106929
0.000109399
0.000102371
0.000105066
0.000100164
9.76048e-05
9.72332e-05
0.000101233
0.000113698
0.000135958
0.00015771
0.000176992
0.000201957
0.000244575
0.000293561
0.000319341
0.000320637
0.000312834
0.000289627
0.000254818
0.000210399
0.000163195
0.000128861
0.000113293
0.000107296
0.000106288
0.000108265
0.000110145
0.000112397
0.000114712
0.000115912
0.000117268
0.000118508
0.000120707
0.000126904
0.000141906
0.000157773
0.000198595
0.000163193
0.000215888
0.000158089
0.000218575
0.000143517
0.000195076
0.000127882
0.000159749
0.000118133
0.000130965
0.00011766
0.000111203
0.000116532
0.000114796
0.000107595
0.000109717
0.000102389
0.000105345
0.000101142
9.9186e-05
9.90016e-05
0.000103488
0.000117099
0.000141242
0.000165001
0.000186103
0.000213233
0.000257369
0.000306414
0.000329466
0.000328054
0.000322288
0.000309028
0.000282606
0.000242572
0.00019158
0.000148507
0.000125462
0.00011477
0.000111405
0.000112615
0.000114234
0.000116924
0.000119764
0.000121022
0.000122007
0.000121516
0.000124143
0.000131976
0.000172782
0.000251857
0.000363225
0.000321678
0.000546342
0.00035586
0.000640267
0.000328989
0.00063924
0.00025935
0.000518592
0.000180447
0.000346461
0.000133419
0.000201021
0.000133382
0.000112534
0.000130278
0.000124513
0.000107799
0.000109933
0.00010243
0.000105596
0.000101787
0.00010062
0.000100878
0.000105948
0.000120569
0.000146417
0.000172545
0.000196045
0.000226282
0.000273899
0.000324284
0.000345524
0.000340866
0.000337009
0.000330822
0.000315962
0.000284019
0.000235389
0.000182734
0.000146244
0.00012693
0.000118918
0.000118528
0.000120027
0.000122037
0.000124606
0.000126814
0.000126844
0.000125775
0.000126944
0.000143975
0.000218884
0.000544861
0.000796501
0.000850852
0.00146282
0.00119004
0.00201652
0.00127858
0.00236476
0.00110881
0.00229243
0.000795187
0.00178088
0.000444401
0.00112214
0.000216273
0.000531447
0.000218164
0.000117628
0.000204394
0.000178067
0.000107314
0.000111596
0.000102483
0.000104777
0.000101876
0.000101763
0.000102732
0.000108473
0.000123952
0.000151502
0.00018026
0.000206637
0.000240837
0.000293862
0.000348007
0.000368529
0.000361492
0.000359263
0.000361651
0.000359946
0.000344885
0.000299707
0.000238975
0.000185138
0.000149655
0.000132454
0.000127547
0.000127822
0.000129174
0.000129865
0.000131279
0.000131183
0.000131669
0.000131769
0.000159233
0.000383632
0.00135364
0.00112423
0.00205564
0.00301102
0.00306189
0.00412868
0.00368506
0.00503633
0.00386738
0.00545745
0.00351537
0.00535355
0.00259901
0.00469954
0.00143889
0.00337409
0.000586549
0.00167543
0.000586329
0.00014712
0.000524707
0.000413895
0.000107234
0.000123135
0.000101912
0.000104002
0.000101164
0.000102443
0.000104452
0.000110935
0.000127013
0.000156356
0.00018818
0.000217686
0.000256562
0.000316769
0.000377705
0.000399698
0.000391969
0.000392403
0.000406666
0.000426919
0.00043502
0.000399809
0.000333674
0.000257947
0.00019889
0.000160753
0.000143583
0.000137785
0.000137981
0.00013845
0.000137119
0.000135206
0.000136643
0.000139289
0.000184834
0.000660474
0.00412949
0.0036286
0.00513137
0.00519684
0.0061312
0.00626075
0.00728498
0.00683358
0.00793486
0.0069292
0.00817071
0.00657104
0.00805285
0.0056755
0.0075532
0.00399201
0.00642155
0.00178806
0.00435504
0.0017404
0.000286051
0.00152055
0.00115918
0.000110298
0.000186977
0.000101103
0.00010458
9.99465e-05
0.000102599
0.000105929
0.000113253
0.000129652
0.000160752
0.000196185
0.000229123
0.000272823
0.000342091
0.00041318
0.000440296
0.000433261
0.000440424
0.000472885
0.000512545
0.000533771
0.000513452
0.00044754
0.000358519
0.000276662
0.000214801
0.000174479
0.000154327
0.000148015
0.000148317
0.000146866
0.000142844
0.000141199
0.000146697
0.000217071
0.000980163
0.00508311
0.00813963
0.0087041
0.00699416
0.00770875
0.00812301
0.00878759
0.00876804
0.00938424
0.00910904
0.00983416
0.00924723
0.0102561
0.00907415
0.0104345
0.00841697
0.0101751
0.00699643
0.00925292
0.00445031
0.0073646
0.00425166
0.000780721
0.00373231
0.00293649
0.000132469
0.000459138
0.000101248
0.000111737
0.000100173
0.000102755
0.000107232
0.000115492
0.000131852
0.000164491
0.000203954
0.000240551
0.000289109
0.000368637
0.00045414
0.000491286
0.000490829
0.000512792
0.000576367
0.000657442
0.000718873
0.000731547
0.000668924
0.000544311
0.000408974
0.000303533
0.000232276
0.000187661
0.000165798
0.000158524
0.000157433
0.000154939
0.000149428
0.000154099
0.000239343
0.00128347
0.0057842
0.0089339
0.00933104
0.00988965
0.0100768
0.00929102
0.00965486
0.00983364
0.0101566
0.0104086
0.0108648
0.0111421
0.0119529
0.0117473
0.0129511
0.0117798
0.0135049
0.0112733
0.0132969
0.00990454
0.0123578
0.00750839
0.0104445
0.00738163
0.00211327
0.00692563
0.00597997
0.000245231
0.00129256
0.000105072
0.000174239
0.000104179
0.000107091
0.000109336
0.000117927
0.000133944
0.000167349
0.000211012
0.000251651
0.00030457
0.000395094
0.000499154
0.000553025
0.000568485
0.000627069
0.000766464
0.000968412
0.00119748
0.00135739
0.0013349
0.00111001
0.000792366
0.00051953
0.000349471
0.000257561
0.000202998
0.000177126
0.000167871
0.000167113
0.000162686
0.000164633
0.000253211
0.00142306
0.00633179
0.00948045
0.00958777
0.010183
0.010304
0.0105874
0.0105864
0.0103809
0.0105182
0.0112217
0.0115152
0.012693
0.0133302
0.0141948
0.0153339
0.0151371
0.016519
0.0151469
0.0164287
0.0144628
0.0158011
0.0130996
0.0149245
0.0106977
0.013562
0.0106041
0.00465142
0.0101074
0.00918158
0.00074825
0.00324675
0.000218544
0.00103099
0.000112535
0.000124288
0.000116845
0.000121327
0.000136622
0.000169405
0.000217018
0.000261891
0.000319119
0.000419752
0.000546193
0.000623898
0.000667721
0.000796033
0.00110412
0.00162867
0.00230861
0.0029147
0.00317669
0.00294031
0.00222459
0.00136134
0.000757081
0.000431692
0.0002843
0.000217328
0.000187178
0.000177784
0.000176026
0.00017852
0.000264255
0.0014273
0.00651686
0.0102605
0.0103596
0.0105437
0.0105651
0.0104899
0.0119776
0.0119828
0.0117402
0.0118917
0.0138823
0.0144027
0.0163533
0.0172553
0.0175472
0.0184076
0.0173248
0.0180165
0.0165909
0.0172094
0.0158128
0.0163081
0.0150667
0.0156443
0.0137123
0.0150985
0.0135302
0.00786293
0.0129969
0.0121082
0.00263099
0.00636911
0.00184198
0.00432459
0.000135631
0.000139572
0.000128555
0.000140225
0.000171737
0.000221658
0.000271079
0.000332138
0.000441704
0.000592579
0.000701229
0.000783337
0.00101418
0.00158116
0.00258486
0.00387186
0.00501896
0.00564476
0.00563865
0.00501707
0.00379651
0.00222154
0.00106613
0.000526447
0.000309783
0.000230251
0.000196893
0.000187286
0.000191203
0.000272313
0.00139238
0.00647447
0.0104225
0.0103182
0.0102685
0.010446
0.0104104
0.0119438
0.0118361
0.0154089
0.0155027
0.0148423
0.0151666
0.018059
0.0187477
0.0191626
0.0198473
0.0186312
0.0191588
0.0174502
0.017343
0.0160406
0.0151316
0.0152928
0.0139164
0.0153076
0.0139955
0.0150456
0.0150638
0.0149579
0.0108228
0.0147597
0.0142228
0.00553359
0.00906777
0.00122114
0.0043874
0.000151821
0.000151339
0.000146122
0.00017463
0.00022517
0.000278801
0.000343265
0.000459151
0.000635052
0.000780842
0.000907385
0.00125418
0.00212796
0.00366156
0.00550676
0.00697603
0.00774382
0.00786836
0.00743351
0.00649027
0.00502373
0.0030531
0.0013577
0.000607002
0.000336
0.00024075
0.000207013
0.000201825
0.000275864
0.00129518
0.00629162
0.0104114
0.0101856
0.0101441
0.0112127
0.0109333
0.0116692
0.0114592
0.0154808
0.0153813
0.0200592
0.0202201
0.0193076
0.0197342
0.0204904
0.0210864
0.0196514
0.0201372
0.0170793
0.0168559
0.0137952
0.0124772
0.0116889
0.00942339
0.0114893
0.00882168
0.013041
0.00995397
0.0149303
0.0126687
0.0149858
0.0130942
0.0151352
0.0150626
0.0145543
0.00714837
0.0112854
0.000690156
0.00397874
0.000172608
0.000161175
0.00017684
0.000227803
0.000284251
0.00035221
0.000470861
0.000669507
0.000856833
0.00103013
0.0014856
0.00266123
0.00467509
0.00693087
0.00840266
0.00899705
0.00906202
0.00881722
0.00820014
0.00719674
0.00569421
0.00362605
0.00159252
0.000662815
0.000352118
0.000252143
0.000219369
0.000275973
0.00107305
0.00589
0.0103666
0.00985131
0.0106424
0.0104451
0.0144094
0.0139126
0.015158
0.0148232
0.020221
0.0201336
0.022503
0.0228132
0.0216227
0.0220961
0.0206397
0.0211565
0.0168238
0.01696
0.011407
0.0107945
0.00739554
0.00581545
0.0068014
0.0052811
0.00772199
0.00620761
0.00946083
0.00768393
0.0127083
0.009602
0.011016
0.01423
0.0128976
0.0149908
0.0135861
0.0148118
0.0147968
0.0136743
0.013235
0.0150282
0.00882961
0.0144842
0.01388
0.0118542
0.000592996
0.00404001
0.000198558
0.000182771
0.000225347
0.00028723
0.00035797
0.000476787
0.000691997
0.000924188
0.00113998
0.00168221
0.00310802
0.00555434
0.00798958
0.00914161
0.00952348
0.00951112
0.00918672
0.00865579
0.00799648
0.00714722
0.00581529
0.00384453
0.00172558
0.000675855
0.000362913
0.000260244
0.00027694
0.000827084
0.00502481
0.0102701
0.00938673
0.0122243
0.0112462
0.0133609
0.0126976
0.0190628
0.0184946
0.0199077
0.0195487
0.0230157
0.0231058
0.0226688
0.0231022
0.021675
0.0221857
0.0172747
0.0177399
0.0105824
0.0106712
0.00485441
0.00439946
0.00390934
0.00276021
0.00508679
0.00398815
0.00670293
0.00610221
0.00569854
0.00862291
0.00807226
0.00759714
0.00774686
0.00968148
0.0113333
0.00990353
0.00878951
0.0115928
0.0151792
0.0152298
0.0142208
0.0126627
0.0120591
0.014729
0.0129638
0.00861063
0.0115146
0.0151662
0.0148171
0.000309797
0.00927441
0.00574321
0.0023037
0.000208189
0.000218335
0.000283694
0.000358794
0.000476949
0.00070147
0.000975781
0.00123462
0.00181946
0.00341796
0.00618702
0.00855476
0.009454
0.00961861
0.00937287
0.00885703
0.00826324
0.00774053
0.00722718
0.00660114
0.0055712
0.00378866
0.00171861
0.000661975
0.000362285
0.000296653
0.000637403
0.00395371
0.0101075
0.00911419
0.0121762
0.0160732
0.0158421
0.0177966
0.0171295
0.0227096
0.0223106
0.0230925
0.0229786
0.0234723
0.0237674
0.0197626
0.0205234
0.0183339
0.0190289
0.0110226
0.0115903
0.00423084
0.00423755
0.00214206
0.00186812
0.00282541
0.00190041
0.00523308
0.0047453
0.00417706
0.00356708
0.00741664
0.00721247
0.00640817
0.00599246
0.00837409
0.00824968
0.00820548
0.00822305
0.00904148
0.0101422
0.00932607
0.00875084
0.0105023
0.0151922
0.0155343
0.0134015
0.0109996
0.0116464
0.0141932
0.0139611
0.0123955
0.0157107
0.0156238
0.00206053
0.000116668
0.000314073
0.0097948
0.00573393
0.000221843
0.00026906
0.000352633
0.000472235
0.000697817
0.00100988
0.00130605
0.00190526
0.00356784
0.00653169
0.00882371
0.00950002
0.00946795
0.00882502
0.00782617
0.00692261
0.00643338
0.00646528
0.00639147
0.00592843
0.00506895
0.00350355
0.00162942
0.000621544
0.000370997
0.000545771
0.00300406
0.00980476
0.0090978
0.0108998
0.0187491
0.0172438
0.0203636
0.0196197
0.0217614
0.0211262
0.0241147
0.0240461
0.0239813
0.0241008
0.021289
0.0220124
0.0142855
0.0154149
0.0123423
0.013265
0.00446967
0.00494056
0.00172765
0.00165038
0.00149067
0.00131186
0.00301003
0.00247807
0.0021093
0.00180945
0.00554137
0.00500734
0.00441107
0.00380834
0.00807303
0.00781606
0.0068761
0.0064549
0.00874414
0.00890307
0.00895413
0.00897748
0.00909297
0.0096467
0.00942671
0.00921957
0.0100133
0.0149844
0.0157006
0.0124679
0.0104403
0.0109557
0.0134539
0.0149342
0.0132714
0.0161712
0.0163288
0.00177693
0.000103953
0.000168207
0.0102605
0.00563526
0.000250987
0.000337189
0.000449434
0.000685543
0.0010176
0.00135945
0.00193613
0.00357897
0.00664273
0.0088533
0.00943097
0.00907408
0.00786482
0.00634585
0.00489679
0.00422839
0.00454051
0.00522508
0.00561558
0.00526015
0.00448619
0.00307635
0.00141971
0.000559725
0.000543437
0.00220937
0.00915665
0.00924714
0.0100294
0.017885
0.0218196
0.0218085
0.0231208
0.0226515
0.0238559
0.0235532
0.0237325
0.0240521
0.0226793
0.0232614
0.0166101
0.017809
0.00776337
0.00908383
0.00570383
0.00665176
0.00166657
0.00180516
0.00120509
0.00101991
0.00166927
0.00154922
0.00148748
0.00141759
0.0032572
0.00280793
0.00249638
0.00230755
0.00592925
0.00533726
0.0047232
0.00415047
0.00875242
0.00740359
0.00837736
0.00688682
0.00953546
0.00975497
0.00968961
0.00980156
0.00963227
0.00975768
0.00998088
0.0100934
0.0100858
0.0145438
0.0156258
0.0116408
0.0104257
0.0107938
0.0125977
0.015883
0.0141444
0.0165276
0.0169612
0.00115994
0.00010153
0.00012232
0.0106621
0.00506615
0.000300236
0.000428516
0.000643237
0.0010138
0.00138132
0.00192437
0.00350265
0.00659326
0.00878068
0.00925153
0.00851896
0.00690528
0.004963
0.00326369
0.00274717
0.00305083
0.00375942
0.00451527
0.00497682
0.00463619
0.00389108
0.00259193
0.00114103
0.000624495
0.00163404
0.00775951
0.00930704
0.00954348
0.0158201
0.0229949
0.0220595
0.0238417
0.0234779
0.0242502
0.0241121
0.0242324
0.0242881
0.0212039
0.0221325
0.0190012
0.0201479
0.0105269
0.0120181
0.00296779
0.00368171
0.00207184
0.00244519
0.000895001
0.00086046
0.00137128
0.00103951
0.00220969
0.00213631
0.00203708
0.00185309
0.00368265
0.00336477
0.00319982
0.00315606
0.00628699
0.00566451
0.00508266
0.00461628
0.00936146
0.00785899
0.00885898
0.00725722
0.0104788
0.0106199
0.0103494
0.0106006
0.0105607
0.0102602
0.0109239
0.0111206
0.0104749
0.013881
0.015354
0.0112854
0.0106968
0.0109594
0.0119818
0.0167691
0.0150331
0.0167243
0.0175697
0.000696908
0.000100856
0.000107823
0.0108996
0.00431039
0.000380712
0.000605628
0.000972512
0.00138754
0.00188403
0.00327915
0.00635539
0.00860909
0.00899116
0.00797586
0.00609659
0.00399769
0.00229903
0.00185775
0.00213331
0.00277585
0.00352814
0.00416574
0.00446191
0.0040678
0.00329357
0.00207277
0.000920954
0.00136359
0.0061532
0.00920713
0.00921924
0.0139197
0.0225537
0.0243299
0.0244768
0.0244359
0.0244388
0.0239964
0.0242836
0.0229158
0.0235314
0.0168373
0.0183725
0.0136036
0.0152333
0.00468321
0.00600202
0.00117463
0.00142368
0.000902581
0.00100007
0.000779639
0.000668768
0.00259513
0.00221381
0.00135854
0.00181978
0.00315594
0.00314102
0.00306944
0.00289211
0.00431863
0.0042314
0.00426517
0.00438528
0.00662377
0.00603706
0.00557947
0.00534865
0.00988382
0.00824958
0.00928327
0.00761278
0.0114032
0.0114605
0.010928
0.0113179
0.0116425
0.0111731
0.0120394
0.0121273
0.0112948
0.0131433
0.0148662
0.0113126
0.0113344
0.0113576
0.011772
0.0176482
0.0159879
0.0166857
0.0181099
0.000322392
0.000100659
0.000105397
0.0108947
0.00308124
0.000519645
0.000932495
0.00136844
0.00184546
0.00295688
0.00585057
0.00831295
0.00872542
0.00751042
0.00548258
0.0034336
0.00180769
0.00133645
0.00155277
0.00209566
0.00287009
0.00357488
0.0040087
0.00400464
0.00353252
0.00267285
0.00153405
0.00138185
0.00474513
0.00888782
0.0089652
0.0124519
0.0213191
0.0248041
0.0246342
0.0245988
0.0247692
0.0236998
0.02423
0.022092
0.0229862
0.0197663
0.0210086
0.0112136
0.0130988
0.00757587
0.00937919
0.00178452
0.0022841
0.000651285
0.000716299
0.000620131
0.000616282
0.00102475
0.000802165
0.000672153
0.00378395
0.00326949
0.00203854
0.00266925
0.004485
0.00449905
0.00442232
0.00417923
0.0053363
0.00550271
0.00577858
0.00606401
0.00702559
0.00659278
0.00644072
0.00650055
0.0103645
0.00864517
0.00974279
0.00807379
0.0122785
0.0122533
0.0114882
0.0119714
0.0127356
0.0122965
0.0131825
0.0130626
0.0123794
0.012603
0.0142633
0.011516
0.0123009
0.0121053
0.0118535
0.0185134
0.0168685
0.0165479
0.0185613
0.000223764
0.000100576
0.000105297
0.0104796
0.00237959
0.000806675
0.00134221
0.0017744
0.00269712
0.00514728
0.00795654
0.00844537
0.00714387
0.00505492
0.00313355
0.00162871
0.00104692
0.00116278
0.00166018
0.00255513
0.00341364
0.00392983
0.00398392
0.00361875
0.00295543
0.00202791
0.00161236
0.00373371
0.00820927
0.00872449
0.0113854
0.0198856
0.025079
0.0245118
0.025019
0.0233833
0.0240497
0.02133
0.0224585
0.018458
0.0199919
0.0149678
0.0167601
0.00547865
0.00725128
0.00298543
0.00399955
0.00082515
0.000990052
0.000532559
0.000540819
0.000567191
0.000541019
0.00141494
0.000944382
0.000898475
0.000678543
0.00517538
0.00448951
0.00290045
0.0037076
0.00621006
0.00621967
0.00608061
0.00572503
0.0068001
0.0072686
0.0077358
0.00810745
0.00767641
0.00759152
0.00770934
0.00816494
0.0109146
0.00918842
0.0103909
0.0088355
0.0131238
0.0129951
0.0121532
0.0126314
0.0137523
0.0134569
0.01426
0.0139506
0.013536
0.0123868
0.0136931
0.011942
0.0134062
0.0130667
0.012003
0.0193455
0.0176276
0.0162249
0.0188758
0.000198897
0.000100942
0.000124265
0.0098055
0.00203723
0.00121695
0.00174424
0.0023982
0.00446779
0.0074073
0.00820196
0.0068913
0.00476735
0.00298638
0.00165344
0.000910876
0.000904756
0.00132729
0.00233766
0.00344244
0.00406241
0.00411361
0.00378792
0.00318829
0.00244207
0.00198303
0.00337393
0.00738083
0.00838649
0.0106713
0.0185459
0.0249086
0.0239982
0.0244536
0.0226656
0.0234087
0.0203749
0.0216328
0.0172013
0.0188946
0.0133331
0.0153356
0.00926135
0.0112773
0.00208527
0.00284717
0.00122405
0.00157007
0.000566741
0.00061967
0.000517191
0.000511616
0.000597115
0.000559459
0.00053643
0.00213122
0.00143587
0.00124446
0.000820438
0.0067257
0.00582906
0.00379565
0.0048244
0.00824182
0.0082216
0.00796469
0.00746005
0.00877081
0.00942432
0.00999696
0.0103592
0.00878704
0.00901063
0.00953909
0.0102746
0.011698
0.0100868
0.0114561
0.0100666
0.0139539
0.0137589
0.0130805
0.0134223
0.0146873
0.0145407
0.0152109
0.0148142
0.0146394
0.0123317
0.0132568
0.0125925
0.0144764
0.0139848
0.0122399
0.0201947
0.0182743
0.0157855
0.019102
0.000295631
0.000106026
0.000369646
0.00952703
0.00227097
0.00162746
0.00226645
0.00369248
0.00680107
0.00787131
0.00677488
0.00461834
0.00296898
0.00179502
0.000889684
0.000739441
0.00103119
0.00201513
0.00339363
0.00431381
0.004539
0.00421855
0.00360504
0.00291601
0.00245316
0.00340827
0.0065613
0.00789671
0.0101653
0.0173686
0.0245254
0.0245471
0.0212206
0.0221685
0.0189527
0.0202171
0.0156695
0.0174021
0.0117681
0.0137751
0.00761705
0.00973186
0.00398005
0.00565138
0.000953885
0.00119426
0.000695743
0.00080084
0.000508411
0.000520507
0.000535657
0.000523906
0.000517254
0.000654228
0.0005808
0.000553612
0.000589067
0.00282212
0.0019545
0.00165198
0.00104991
0.0083302
0.0072035
0.00471356
0.00596576
0.0104403
0.0103588
0.00994948
0.00926602
0.0110801
0.0118095
0.0123812
0.01265
0.0103478
0.0109578
0.0117892
0.0126825
0.0129285
0.0114629
0.0129674
0.0117797
0.0148033
0.0146516
0.0144355
0.0144733
0.0155593
0.0155013
0.0160504
0.0156938
0.0155348
0.012352
0.0130046
0.0131825
0.0152118
0.014564
0.0124774
0.0209373
0.0188432
0.0153021
0.0191724
0.0013737
0.000144489
0.0023452
0.0098244
0.00402286
0.00201105
0.00324342
0.00578232
0.00757369
0.00672181
0.0046188
0.00301794
0.00200007
0.000952539
0.000643498
0.000789406
0.00156496
0.0030985
0.00436919
0.00494632
0.00484124
0.00424661
0.00350606
0.00305455
0.00366604
0.00609344
0.00752192
0.00992104
0.0165659
0.0239686
0.0249094
0.018945
0.0196497
0.0168275
0.0178914
0.0137482
0.0154169
0.0100061
0.0119269
0.00599412
0.00794953
0.00302754
0.00426818
0.0015753
0.002163
0.000642785