/*--------------------------------*- C++ -*----------------------------------*\
  =========                 |
  \\      /  F ield         | OpenFOAM: The Open Source CFD Toolbox
   \\    /   O peration     | Website:  https://openfoam.org
    \\  /    A nd           | Version:  dev
     \\/     M anipulation  |
\*---------------------------------------------------------------------------*/
FoamFile
{
    version     2.0;
    format      ascii;
    class       volScalarField;
    location    "2500";
    object      N2;
}
// * * * * * * * * * * * * * * * * * * * * * * * * * * * * * * * * * * * * * //

dimensions      [0 0 0 0 0 0 0];

internalField   nonuniform List<scalar> 
9851
(
0.76699
0.76699
0.76699
0.76699
0.76699
0.76699
0.76699
0.76699
0.76699
0.76699
0.76699
0.76699
0.76699
0.76699
0.76699
0.76699
0.76699
0.76699
0.76699
0.76699
0.76699
0.76699
0.76699
0.76699
0.76699
0.76699
0.76699
0.76699
0.76699
0.76699
0.76699
0.76699
0.76699
0.76699
0.76699
0.76699
0.76699
0.76699
0.76699
0.76699
0.76699
0.76699
0.76699
0.76699
0.76699
0.76699
0.76699
0.76699
0.76699
0.76699
0.76699
0.76699
0.76699
0.76699
0.76699
0.76699
0.76699
0.76699
0.76699
0.76699
0.76699
0.76699
0.76699
0.76699
0.76699
0.76699
0.76699
0.76699
0.76699
0.76699
0.76699
0.76699
0.76699
0.76699
0.76699
0.76699
0.76699
0.76699
0.76699
0.76699
0.76699
0.76699
0.76699
0.76699
0.76699
0.76699
0.76699
0.76699
0.76699
0.76699
0.76699
0.76699
0.76699
0.76699
0.76699
0.76699
0.76699
0.76699
0.76699
0.76699
0.76699
0.76699
0.76699
0.76699
0.76699
0.76699
0.76699
0.76699
0.76699
0.76699
0.76699
0.76699
0.76699
0.76699
0.76699
0.76699
0.76699
0.76699
0.76699
0.76699
0.76699
0.76699
0.76699
0.76699
0.76699
0.76699
0.76699
0.76699
0.76699
0.76699
0.76699
0.76699
0.76699
0.76699
0.76699
0.76699
0.76699
0.76699
0.76699
0.76699
0.76699
0.76699
0.76699
0.76699
0.76699
0.76699
0.76699
0.76699
0.76699
0.76699
0.76699
0.76699
0.76699
0.76699
0.76699
0.76699
0.76699
0.76699
0.76699
0.76699
0.76699
0.76699
0.76699
0.76699
0.76699
0.76699
0.76699
0.76699
0.76699
0.76699
0.76699
0.76699
0.76699
0.76699
0.76699
0.76699
0.76699
0.76699
0.76699
0.76699
0.76699
0.76699
0.76699
0.76699
0.76699
0.76699
0.76699
0.76699
0.76699
0.76699
0.76699
0.76699
0.76699
0.76699
0.76699
0.76699
0.76699
0.76699
0.76699
0.76699
0.76699
0.76699
0.76699
0.76699
0.76699
0.76699
0.76699
0.76699
0.76699
0.76699
0.76699
0.76699
0.76699
0.76699
0.76699
0.76699
0.76699
0.76699
0.76699
0.76699
0.76699
0.76699
0.76699
0.76699
0.76699
0.76699
0.76699
0.76699
0.76699
0.76699
0.76699
0.76699
0.76699
0.76699
0.76699
0.76699
0.76699
0.76699
0.76699
0.76699
0.76699
0.76699
0.76699
0.76699
0.76699
0.76699
0.76699
0.76699
0.76699
0.76699
0.76699
0.76699
0.76699
0.76699
0.76699
0.76699
0.76699
0.76699
0.76699
0.76699
0.76699
0.76699
0.76699
0.76699
0.76699
0.76699
0.76699
0.76699
0.76699
0.76699
0.76699
0.76699
0.76699
0.76699
0.76699
0.76699
0.76699
0.76699
0.76699
0.76699
0.76699
0.76699
0.76699
0.76699
0.76699
0.76699
0.76699
0.76699
0.76699
0.76699
0.76699
0.76699
0.76699
0.76699
0.76699
0.76699
0.76699
0.76699
0.76699
0.76699
0.76699
0.76699
0.76699
0.76699
0.76699
0.76699
0.76699
0.76699
0.76699
0.76699
0.76699
0.76699
0.76699
0.76699
0.76699
0.76699
0.76699
0.76699
0.76699
0.76699
0.76699
0.76699
0.76699
0.76699
0.76699
0.76699
0.76699
0.76699
0.76699
0.76699
0.76699
0.76699
0.76699
0.76699
0.76699
0.76699
0.76699
0.76699
0.76699
0.76699
0.76699
0.76699
0.76699
0.76699
0.76699
0.76699
0.76699
0.76699
0.76699
0.76699
0.76699
0.76699
0.76699
0.76699
0.76699
0.76699
0.76699
0.76699
0.76699
0.76699
0.76699
0.76699
0.76699
0.76699
0.76699
0.76699
0.76699
0.76699
0.76699
0.76699
0.76699
0.76699
0.76699
0.76699
0.76699
0.76699
0.76699
0.76699
0.76699
0.76699
0.76699
0.76699
0.76699
0.76699
0.76699
0.76699
0.76699
0.76699
0.76699
0.76699
0.76699
0.76699
0.76699
0.76699
0.76699
0.76699
0.76699
0.76699
0.76699
0.76699
0.76699
0.76699
0.76699
0.76699
0.76699
0.76699
0.76699
0.76699
0.76699
0.76699
0.76699
0.76699
0.76699
0.76699
0.76699
0.76699
0.76699
0.76699
0.76699
0.76699
0.76699
0.76699
0.76699
0.76699
0.76699
0.76699
0.76699
0.76699
0.76699
0.76699
0.76699
0.76699
0.76699
0.76699
0.76699
0.76699
0.76699
0.76699
0.76699
0.76699
0.76699
0.76699
0.76699
0.76699
0.76699
0.76699
0.76699
0.76699
0.76699
0.76699
0.76699
0.76699
0.76699
0.76699
0.76699
0.76699
0.76699
0.76699
0.76699
0.76699
0.76699
0.76699
0.76699
0.76699
0.76699
0.76699
0.76699
0.76699
0.76699
0.76699
0.76699
0.76699
0.76699
0.76699
0.76699
0.76699
0.76699
0.76699
0.76699
0.76699
0.76699
0.76699
0.76699
0.76699
0.76699
0.76699
0.76699
0.76699
0.76699
0.76699
0.76699
0.76699
0.76699
0.76699
0.76699
0.76699
0.76699
0.76699
0.76699
0.76699
0.76699
0.76699
0.76699
0.76699
0.76699
0.76699
0.76699
0.76699
0.76699
0.76699
0.76699
0.76699
0.76699
0.76699
0.76699
0.76699
0.76699
0.76699
0.76699
0.76699
0.76699
0.76699
0.76699
0.76699
0.76699
0.76699
0.76699
0.76699
0.76699
0.76699
0.76699
0.76699
0.76699
0.76699
0.76699
0.76699
0.76699
0.76699
0.76699
0.76699
0.76699
0.76699
0.76699
0.76699
0.76699
0.76699
0.76699
0.76699
0.76699
0.76699
0.76699
0.76699
0.76699
0.76699
0.76699
0.76699
0.76699
0.76699
0.76699
0.76699
0.76699
0.76699
0.76699
0.76699
0.76699
0.76699
0.76699
0.76699
0.76699
0.76699
0.76699
0.76699
0.76699
0.76699
0.76699
0.76699
0.76699
0.76699
0.76699
0.76699
0.76699
0.76699
0.76699
0.76699
0.76699
0.76699
0.76699
0.76699
0.76699
0.76699
0.76699
0.76699
0.76699
0.76699
0.76699
0.76699
0.76699
0.76699
0.76699
0.76699
0.76699
0.76699
0.76699
0.76699
0.76699
0.76699
0.76699
0.76699
0.76699
0.76699
0.76699
0.76699
0.76699
0.76699
0.76699
0.76699
0.76699
0.76699
0.76699
0.76699
0.76699
0.76699
0.76699
0.76699
0.76699
0.76699
0.76699
0.76699
0.76699
0.76699
0.76699
0.76699
0.76699
0.76699
0.76699
0.76699
0.76699
0.76699
0.76699
0.76699
0.76699
0.76699
0.76699
0.76699
0.76699
0.76699
0.76699
0.76699
0.76699
0.76699
0.76699
0.76699
0.76699
0.76699
0.76699
0.76699
0.76699
0.76699
0.76699
0.76699
0.76699
0.76699
0.76699
0.76699
0.76699
0.76699
0.76699
0.76699
0.76699
0.76699
0.76699
0.76699
0.76699
0.76699
0.76699
0.76699
0.76699
0.76699
0.76699
0.76699
0.76699
0.76699
0.76699
0.76699
0.76699
0.76699
0.76699
0.76699
0.76699
0.76699
0.76699
0.76699
0.76699
0.76699
0.76699
0.76699
0.76699
0.76699
0.76699
0.76699
0.76699
0.76699
0.76699
0.76699
0.76699
0.76699
0.76699
0.76699
0.76699
0.76699
0.76699
0.76699
0.76699
0.76699
0.76699
0.76699
0.76699
0.76699
0.76699
0.76699
0.76699
0.76699
0.76699
0.76699
0.76699
0.76699
0.76699
0.76699
0.76699
0.76699
0.76699
0.76699
0.76699
0.76699
0.76699
0.76699
0.76699
0.76699
0.76699
0.76699
0.76699
0.76699
0.76699
0.76699
0.76699
0.76699
0.76699
0.76699
0.76699
0.76699
0.76699
0.76699
0.76699
0.76699
0.76699
0.76699
0.76699
0.76699
0.76699
0.76699
0.76699
0.76699
0.76699
0.76699
0.76699
0.76699
0.76699
0.76699
0.76699
0.76699
0.76699
0.76699
0.76699
0.76699
0.76699
0.76699
0.76699
0.76699
0.76699
0.76699
0.76699
0.76699
0.76699
0.76699
0.76699
0.76699
0.76699
0.76699
0.76699
0.76699
0.76699
0.76699
0.76699
0.76699
0.76699
0.76699
0.76699
0.76699
0.76699
0.76699
0.76699
0.76699
0.76699
0.76699
0.76699
0.76699
0.76699
0.76699
0.76699
0.76699
0.76699
0.76699
0.76699
0.76699
0.76699
0.76699
0.76699
0.76699
0.76699
0.76699
0.76699
0.76699
0.76699
0.76699
0.76699
0.76699
0.76699
0.76699
0.76699
0.76699
0.76699
0.76699
0.76699
0.76699
0.76699
0.76699
0.76699
0.76699
0.76699
0.76699
0.76699
0.76699
0.76699
0.76699
0.76699
0.76699
0.76699
0.76699
0.76699
0.76699
0.76699
0.76699
0.76699
0.76699
0.76699
0.76699
0.76699
0.76699
0.76699
0.76699
0.76699
0.76699
0.76699
0.76699
0.76699
0.76699
0.76699
0.76699
0.76699
0.76699
0.76699
0.76699
0.76699
0.76699
0.76699
0.76699
0.76699
0.76699
0.76699
0.76699
0.76699
0.76699
0.76699
0.76699
0.76699
0.76699
0.76699
0.76699
0.76699
0.766989
0.76699
0.76699
0.76699
0.76699
0.76699
0.76699
0.76699
0.76699
0.76699
0.76699
0.76699
0.76699
0.76699
0.76699
0.76699
0.76699
0.76699
0.76699
0.76699
0.76699
0.76699
0.76699
0.76699
0.76699
0.76699
0.76699
0.76699
0.76699
0.76699
0.76699
0.76699
0.76699
0.76699
0.76699
0.76699
0.76699
0.76699
0.76699
0.76699
0.76699
0.76699
0.76699
0.76699
0.76699
0.76699
0.76699
0.766989
0.766987
0.766988
0.766986
0.766988
0.766986
0.766989
0.766986
0.766989
0.766988
0.76699
0.766989
0.76699
0.76699
0.76699
0.76699
0.76699
0.76699
0.76699
0.76699
0.76699
0.76699
0.76699
0.76699
0.76699
0.76699
0.76699
0.76699
0.76699
0.76699
0.76699
0.76699
0.76699
0.76699
0.76699
0.76699
0.76699
0.76699
0.76699
0.76699
0.76699
0.76699
0.76699
0.76699
0.76699
0.76699
0.76699
0.76699
0.76699
0.76699
0.76699
0.766989
0.766985
0.766981
0.766982
0.766971
0.766979
0.766965
0.766979
0.766962
0.766982
0.766967
0.766986
0.766976
0.766989
0.766984
0.766989
0.76699
0.766989
0.766989
0.76699
0.76699
0.76699
0.76699
0.76699
0.76699
0.76699
0.76699
0.76699
0.76699
0.76699
0.76699
0.76699
0.76699
0.76699
0.76699
0.76699
0.76699
0.76699
0.76699
0.76699
0.76699
0.76699
0.76699
0.76699
0.76699
0.76699
0.76699
0.76699
0.76699
0.76699
0.76699
0.76699
0.76699
0.76699
0.766987
0.766973
0.766962
0.766957
0.76693
0.766938
0.766895
0.766927
0.766867
0.766932
0.76686
0.766947
0.766883
0.766968
0.766921
0.766983
0.76696
0.766982
0.76699
0.766983
0.766985
0.76699
0.76699
0.76699
0.76699
0.76699
0.76699
0.76699
0.76699
0.76699
0.76699
0.76699
0.76699
0.76699
0.76699
0.76699
0.76699
0.76699
0.76699
0.76699
0.76699
0.76699
0.76699
0.76699
0.76699
0.76699
0.76699
0.76699
0.76699
0.76699
0.76699
0.76699
0.76699
0.76699
0.76699
0.766989
0.766981
0.766939
0.766953
0.766903
0.766861
0.766845
0.766789
0.766793
0.766712
0.766762
0.766652
0.766766
0.766627
0.766817
0.766652
0.766891
0.766742
0.766953
0.766865
0.766951
0.766987
0.766955
0.766964
0.76699
0.766989
0.76699
0.76699
0.76699
0.76699
0.76699
0.76699
0.76699
0.76699
0.76699
0.76699
0.76699
0.76699
0.76699
0.76699
0.76699
0.76699
0.76699
0.76699
0.76699
0.766989
0.76699
0.76699
0.76699
0.76699
0.76699
0.76699
0.76699
0.76699
0.76699
0.76699
0.76699
0.76699
0.766988
0.766967
0.766818
0.766834
0.766767
0.766736
0.766681
0.766635
0.766562
0.766546
0.766448
0.766491
0.766359
0.766481
0.766319
0.766539
0.766335
0.766671
0.766423
0.766848
0.766618
0.766846
0.766975
0.766861
0.766891
0.76699
0.766983
0.76699
0.76699
0.76699
0.76699
0.76699
0.76699
0.76699
0.76699
0.76699
0.76699
0.76699
0.76699
0.76699
0.76699
0.76699
0.76699
0.766989
0.766989
0.766988
0.766988
0.766988
0.766989
0.766989
0.76699
0.76699
0.76699
0.76699
0.76699
0.76699
0.76699
0.76699
0.76699
0.766987
0.766952
0.766769
0.766555
0.766518
0.766635
0.76659
0.766497
0.766437
0.766361
0.766285
0.766249
0.76616
0.766187
0.766103
0.766179
0.766091
0.766217
0.766105
0.766337
0.766152
0.766591
0.766283
0.766597
0.766927
0.766638
0.76671
0.766988
0.766959
0.76699
0.76699
0.76699
0.76699
0.76699
0.76699
0.76699
0.76699
0.76699
0.76699
0.76699
0.76699
0.76699
0.76699
0.76699
0.766989
0.766988
0.766986
0.766983
0.766982
0.766982
0.766984
0.766986
0.766988
0.766989
0.76699
0.76699
0.76699
0.76699
0.76699
0.76699
0.76699
0.766986
0.766942
0.766738
0.766491
0.766465
0.766309
0.766278
0.766387
0.766344
0.766221
0.766166
0.766093
0.766044
0.766049
0.766012
0.766045
0.76602
0.766056
0.766032
0.766072
0.766043
0.766115
0.76606
0.766262
0.766096
0.766269
0.766794
0.766315
0.766414
0.76698
0.76688
0.76699
0.766986
0.76699
0.76699
0.76699
0.76699
0.76699
0.76699
0.76699
0.76699
0.76699
0.76699
0.76699
0.76699
0.766989
0.766987
0.766983
0.766977
0.766968
0.766962
0.76696
0.766965
0.766973
0.766981
0.766986
0.766988
0.766989
0.76699
0.76699
0.76699
0.76699
0.76699
0.766986
0.76694
0.766722
0.766446
0.766464
0.766253
0.766231
0.766056
0.76603
0.766122
0.766086
0.766006
0.765973
0.765987
0.765965
0.766003
0.765995
0.766031
0.766045
0.766051
0.766082
0.766053
0.766089
0.766051
0.76607
0.766087
0.766047
0.766088
0.766547
0.766108
0.766167
0.76694
0.766694
0.766984
0.766946
0.76699
0.76699
0.76699
0.76699
0.76699
0.76699
0.76699
0.76699
0.76699
0.76699
0.76699
0.766989
0.766988
0.766984
0.766974
0.766957
0.766934
0.766914
0.766905
0.766909
0.766926
0.76695
0.766971
0.766982
0.766987
0.766989
0.76699
0.76699
0.76699
0.76699
0.766986
0.766941
0.766723
0.766306
0.76622
0.766175
0.766011
0.765994
0.765897
0.765876
0.765945
0.76592
0.765944
0.765924
0.76599
0.765988
0.76607
0.766099
0.766142
0.76621
0.766169
0.766272
0.766142
0.766266
0.766087
0.766196
0.766042
0.766097
0.766035
0.766272
0.766033
0.766041
0.766774
0.766388
0.7669
0.766738
0.76699
0.76699
0.76699
0.76699
0.76699
0.76699
0.76699
0.76699
0.76699
0.76699
0.766989
0.766987
0.766979
0.766961
0.766928
0.76689
0.766858
0.766842
0.766841
0.766854
0.766882
0.766921
0.766959
0.766978
0.766986
0.766989
0.76699
0.76699
0.76699
0.766987
0.766944
0.766729
0.766311
0.765971
0.765972
0.765986
0.765974
0.765856
0.765838
0.765864
0.765842
0.765904
0.765884
0.765983
0.765975
0.766121
0.766132
0.766267
0.766307
0.766368
0.766448
0.766393
0.766506
0.766342
0.766467
0.766231
0.766373
0.766092
0.766241
0.766069
0.766072
0.766037
0.76601
0.766463
0.76613
0.766928
0.766687
0.76699
0.76699
0.76699
0.76699
0.76699
0.76699
0.76699
0.76699
0.76699
0.766989
0.766986
0.766974
0.766946
0.766898
0.766845
0.766806
0.766784
0.766778
0.766785
0.766808
0.766845
0.766897
0.766948
0.766975
0.766986
0.766989
0.76699
0.76699
0.766988
0.76695
0.766745
0.766324
0.765976
0.766009
0.765801
0.765797
0.765824
0.76581
0.765821
0.7658
0.765927
0.765905
0.765963
0.765946
0.766133
0.766127
0.766328
0.766334
0.766503
0.766533
0.7666
0.766674
0.766566
0.766662
0.76647
0.766549
0.766368
0.766441
0.766225
0.766353
0.766183
0.76599
0.766125
0.766082
0.766017
0.766314
0.766028
0.766959
0.76673
0.76699
0.76699
0.76699
0.76699
0.76699
0.76699
0.76699
0.76699
0.766989
0.766985
0.76697
0.766932
0.766869
0.766804
0.766759
0.766735
0.766724
0.766723
0.766734
0.766763
0.766813
0.766877
0.766942
0.766974
0.766985
0.766989
0.76699
0.766989
0.766962
0.766774
0.766351
0.765898
0.765794
0.765771
0.765741
0.765725
0.765779
0.765759
0.76588
0.765854
0.766067
0.766038
0.766113
0.766091
0.766329
0.766315
0.766544
0.76654
0.766718
0.766737
0.766756
0.766834
0.766629
0.766722
0.766493
0.766547
0.766393
0.766374
0.76632
0.766342
0.766351
0.766228
0.766295
0.766047
0.765985
0.76601
0.766163
0.766248
0.766277
0.766126
0.766276
0.765989
0.765994
0.766054
0.766968
0.766767
0.76699
0.76699
0.76699
0.76699
0.76699
0.76699
0.76699
0.766989
0.766985
0.766967
0.766921
0.766845
0.766768
0.766719
0.766695
0.766682
0.766675
0.766672
0.766682
0.766717
0.76678
0.766863
0.766939
0.766974
0.766986
0.766989
0.766989
0.766973
0.766812
0.766396
0.76592
0.765699
0.765707
0.765714
0.765698
0.765776
0.765752
0.765828
0.765802
0.766008
0.765976
0.766235
0.766202
0.766293
0.766266
0.766529
0.766508
0.76674
0.766733
0.766872
0.766886
0.766826
0.766905
0.766621
0.766731
0.766348
0.766417
0.766455
0.766306
0.766251
0.766195
0.766213
0.766316
0.766316
0.766294
0.766266
0.766304
0.766079
0.766032
0.766213
0.766267
0.766287
0.76617
0.766048
0.766384
0.766177
0.765998
0.765999
0.766984
0.766396
0.766701
0.766895
0.76699
0.76699
0.76699
0.76699
0.76699
0.76699
0.766989
0.766985
0.766966
0.766915
0.766827
0.76674
0.76669
0.766671
0.766661
0.766649
0.766634
0.766621
0.766626
0.766667
0.766749
0.766854
0.76694
0.766975
0.766986
0.766988
0.76698
0.766857
0.766454
0.765966
0.765687
0.765692
0.765679
0.76573
0.765709
0.765878
0.765846
0.765943
0.76591
0.766166
0.766128
0.766416
0.766378
0.766481
0.76645
0.766717
0.766697
0.76689
0.766887
0.766936
0.766946
0.766846
0.766926
0.76651
0.766585
0.766656
0.766739
0.7662
0.766234
0.766335
0.766399
0.766194
0.766129
0.766098
0.766099
0.766232
0.766284
0.766208
0.766142
0.766275
0.766117
0.766062
0.766241
0.766266
0.766256
0.766205
0.766047
0.766178
0.766018
0.766009
0.766917
0.76699
0.766986
0.76642
0.766728
0.76699
0.76699
0.76699
0.76699
0.76699
0.766989
0.766985
0.766967
0.766913
0.766817
0.766719
0.766672
0.76666
0.766656
0.76665
0.766631
0.766601
0.766571
0.766569
0.76662
0.766724
0.766854
0.766944
0.766977
0.766986
0.766983
0.766901
0.766536
0.766027
0.765694
0.765719
0.7657
0.765759
0.765732
0.765815
0.765786
0.766011
0.765972
0.766089
0.76605
0.766337
0.766293
0.766601
0.76656
0.76667
0.766638
0.766878
0.766861
0.766949
0.766951
0.766952
0.766958
0.766805
0.766871
0.766909
0.766934
0.766474
0.76656
0.766647
0.766731
0.766129
0.76619
0.766291
0.766372
0.766058
0.76601
0.766029
0.766003
0.766101
0.766197
0.766075
0.765997
0.766197
0.766155
0.766095
0.766241
0.766205
0.766214
0.766219
0.766053
0.766187
0.766042
0.766023
0.766941
0.76699
0.766989
0.766447
0.766767
0.76699
0.76699
0.76699
0.76699
0.76699
0.766986
0.766969
0.766914
0.766814
0.766706
0.766659
0.766652
0.766657
0.766662
0.766652
0.766615
0.766565
0.766519
0.766515
0.766583
0.766714
0.766862
0.766951
0.76698
0.766983
0.766934
0.766638
0.766108
0.765716
0.765712
0.765798
0.765778
0.765862
0.765829
0.765933
0.765896
0.766155
0.766108
0.766248
0.766202
0.766515
0.766466
0.766775
0.766735
0.766838
0.766809
0.766951
0.766947
0.766961
0.766966
0.766943
0.766946
0.766946
0.766946
0.766803
0.766859
0.766895
0.766911
0.766464
0.766559
0.766651
0.766734
0.766091
0.766275
0.766179
0.766372
0.76593
0.765913
0.765993
0.765933
0.765949
0.766066
0.765918
0.765859
0.766075
0.766185
0.766131
0.766219
0.766099
0.766132
0.766213
0.766062
0.766199
0.766069
0.766038
0.766967
0.76699
0.76699
0.76648
0.766831
0.76699
0.76699
0.76699
0.76699
0.766987
0.766973
0.76692
0.766816
0.766702
0.766649
0.766645
0.76666
0.766691
0.766715
0.766687
0.766599
0.766517
0.766459
0.766468
0.766568
0.766724
0.76688
0.76696
0.766979
0.766954
0.766734
0.766211
0.76577
0.765704
0.765832
0.765798
0.765897
0.765864
0.765976
0.765935
0.766063
0.766018
0.766306
0.766251
0.766415
0.766361
0.766691
0.766641
0.766909
0.766884
0.766939
0.766927
0.766972
0.766974
0.766941
0.766958
0.766915
0.766914
0.766914
0.766918
0.766799
0.766844
0.766864
0.766866
0.766474
0.766574
0.766664
0.766736
0.766084
0.766282
0.766193
0.766392
0.76583
0.765839
0.765986
0.765895
0.7658
0.765907
0.765759
0.765752
0.765921
0.766195
0.766161
0.766167
0.765957
0.766012
0.766189
0.766072
0.766212
0.766099
0.766055
0.76698
0.76699
0.76699
0.766531
0.76688
0.76699
0.76699
0.76699
0.766988
0.766978
0.766931
0.766823
0.766702
0.766642
0.766638
0.766663
0.766719
0.766785
0.766782
0.766698
0.766563
0.766449
0.766393
0.766447
0.76658
0.766751
0.766906
0.766967
0.766959
0.766805
0.766327
0.765847
0.765708
0.765802
0.76592
0.765892
0.766
0.765958
0.766094
0.766045
0.766197
0.766145
0.766469
0.766407
0.766587
0.766529
0.76685
0.766807
0.766966
0.766957
0.766974
0.766971
0.766974
0.76698
0.766856
0.766875
0.766928
0.766899
0.766862
0.766851
0.766846
0.766847
0.766787
0.766808
0.766808
0.766794
0.766499
0.766595
0.766673
0.766726
0.766098
0.766309
0.766221
0.766423
0.765751
0.765796
0.765996
0.765882
0.765682
0.765741
0.765624
0.765667
0.765753
0.766191
0.766174
0.766077
0.765794
0.765865
0.766139
0.766081
0.766226
0.766127
0.766071
0.766987
0.76699
0.76699
0.766585
0.766929
0.76699
0.76699
0.766989
0.766982
0.766945
0.766841
0.766707
0.766638
0.766631
0.766663
0.766738
0.766835
0.766854
0.766791
0.766657
0.766471
0.766351
0.766356
0.766458
0.766621
0.766797
0.766934
0.766956
0.766854
0.766443
0.765941
0.765726
0.765769
0.765942
0.765903
0.766017
0.765978
0.766112
0.766062
0.766223
0.766166
0.766345
0.766283
0.766641
0.766577
0.766756
0.766701
0.766945
0.766927
0.766983
0.766982
0.766983
0.766984
0.766952
0.766967
0.766977
0.766762
0.76679
0.766873
0.766829
0.766773
0.766754
0.766747
0.766748
0.766744
0.76674
0.766716
0.766679
0.766525
0.766606
0.766659
0.766673
0.766123
0.766341
0.766248
0.766448
0.765696
0.765774
0.766011
0.765884
0.765589
0.765587
0.765519
0.765598
0.765586
0.766174
0.766175
0.765958
0.765626
0.765706
0.76606
0.76609
0.766244
0.766149
0.76609
0.766988
0.76699
0.76699
0.766665
0.766953
0.76699
0.766989
0.766985
0.766957
0.766867
0.766721
0.766637
0.766624
0.766659
0.766747
0.766865
0.766903
0.766862
0.766745
0.766528
0.766335
0.766284
0.766359
0.766509
0.76669
0.766853
0.766941
0.766875
0.766547
0.766041
0.765768
0.765761
0.765904
0.766042
0.766011
0.766133
0.766085
0.766247
0.766188
0.766376
0.76631
0.766511
0.766443
0.766812
0.766752
0.766901
0.766862
0.766978
0.766973
0.766988
0.766988
0.766985
0.766987
0.766919
0.766955
0.766957
0.766975
0.766641
0.766683
0.766798
0.766737
0.766644
0.76662
0.766614
0.766617
0.766665
0.766629
0.766575
0.766523
0.766532
0.766585
0.766595
0.766581
0.766138
0.766359
0.766252
0.766445
0.765663
0.765764
0.766011
0.765885
0.76551
0.765463
0.765431
0.765548
0.765436
0.766145
0.766174
0.765821
0.765463
0.765545
0.765959
0.766101
0.76627
0.766163
0.766111
0.766989
0.76699
0.76699
0.766728
0.766967
0.76699
0.766987
0.766969
0.766894
0.76675
0.76664
0.766619
0.766652
0.766746
0.766878
0.766932
0.766912
0.766824
0.766607
0.766344
0.766236
0.766276
0.766412
0.766601
0.766782
0.766903
0.766874
0.766621
0.766139
0.765824
0.765766
0.765861
0.766088
0.766042
0.766171
0.766129
0.766282
0.766224
0.766411
0.766345
0.766551
0.766481
0.766689
0.766621
0.766931
0.766902
0.766964
0.766951
0.766987
0.766986
0.766988
0.766989
0.766982
0.766985
0.766987
0.766858
0.766913
0.766928
0.766965
0.766502
0.766561
0.766716
0.766634
0.766479
0.766455
0.766451
0.766464
0.76653
0.766465
0.766394
0.766331
0.766497
0.766505
0.766488
0.766426
0.766126
0.766342
0.766219
0.766396
0.765637
0.765748
0.765981
0.765868
0.76544
0.765359
0.765346
0.765503
0.765312
0.76609
0.766163
0.765675
0.765318
0.765395
0.765847
0.766112
0.766295
0.766174
0.766132
0.766989
0.76699
0.766989
0.766773
0.76697
0.766989
0.766976
0.766922
0.766785
0.76665
0.766617
0.766642
0.766742
0.766878
0.766948
0.766944
0.766889
0.76671
0.766401
0.766226
0.766213
0.766314
0.766514
0.766718
0.766852
0.766859
0.766642
0.766231
0.765887
0.76578
0.765835
0.766052
0.766233
0.766192
0.766335
0.76628
0.76646
0.766396
0.766596
0.766527
0.766733
0.766665
0.766857
0.766799
0.766975
0.766965
0.766984
0.766981
0.766989
0.766989
0.766987
0.766988
0.766988
0.766979
0.766984
0.766987
0.766985
0.766796
0.766869
0.766895
0.766948
0.766356
0.766435
0.766633
0.76653
0.766286
0.766269
0.766271
0.766298
0.766347
0.76626
0.76618
0.766116
0.766405
0.766377
0.766313
0.766223
0.766072
0.766275
0.766127
0.766283
0.7656
0.765708
0.765896
0.765811
0.765373
0.765263
0.765259
0.765443
0.7652
0.766028
0.766154
0.765536
0.765193
0.765267
0.76574
0.766125
0.766318
0.766183
0.766155
0.766987
0.76699
0.766986
0.766793
0.766967
0.766983
0.766943
0.766831
0.766672
0.766617
0.766632
0.766731
0.766874
0.766953
0.766963
0.766934
0.766811
0.766535
0.766249
0.766186
0.766225
0.766397
0.766612
0.766776
0.766821
0.766633
0.766281
0.765954
0.765806
0.765828
0.765997
0.766308
0.76626
0.766405
0.766357
0.766521
0.76646
0.766651
0.766585
0.766783
0.766716
0.766893
0.766843
0.76695
0.766927
0.766987
0.766985
0.766989
0.766988
0.766989
0.766989
0.766986
0.766987
0.766986
0.766987
0.766971
0.766981
0.766985
0.766983
0.766732
0.766822
0.766868
0.76693
0.766209
0.766314
0.766559
0.766434
0.766078
0.766071
0.766081
0.76613
0.766123
0.766027
0.765947
0.765888
0.766253
0.766185
0.766089
0.76598
0.76595
0.766134
0.765959
0.766113
0.765531
0.765617
0.765735
0.765688
0.765289
0.765163
0.765159
0.765348
0.765094
0.765966
0.76614
0.765417
0.765091
0.765161
0.765647
0.76614
0.76633
0.766198
0.76618
0.76698
0.766984
0.766966
0.76679
0.766943
0.766966
0.766868
0.766718
0.766621
0.766624
0.766715
0.766865
0.766952
0.766972
0.766961
0.766891
0.766689
0.766353
0.766195
0.766178
0.766266
0.766449
0.766644
0.766744
0.766599
0.766282
0.766002
0.76584
0.765831
0.765964
0.766284
0.766495
0.766451
0.766601
0.766547
0.766721
0.766659
0.766839
0.766782
0.766923
0.766888
0.766964
0.766948
0.766981
0.766975
0.766989
0.766989
0.76699
0.76699
0.766988
0.766988
0.766989
0.766984
0.766986
0.766982
0.766984
0.766963
0.766977
0.766982
0.766978
0.766678
0.766783
0.766847
0.766913
0.766064
0.766196
0.766496
0.766345
0.765863
0.765863
0.765892
0.76596
0.765872
0.765778
0.765704
0.765657
0.766039
0.765941
0.765825
0.765709
0.765749
0.765944
0.765741
0.765879
0.765408
0.765459
0.765505
0.765496
0.765175
0.765055
0.765043
0.765204
0.764992
0.765914
0.76613
0.765314
0.76499
0.765057
0.765566
0.766155
0.766327
0.766215
0.766208
0.766946
0.766921
0.766893
0.766751
0.766885
0.76692
0.766756
0.766638
0.766619
0.766696
0.766848
0.766949
0.766974
0.766974
0.766941
0.766819
0.766556
0.766261
0.766178
0.766183
0.766284
0.766458
0.766584
0.766522
0.766264
0.766014
0.765868
0.765844
0.76595
0.76624
0.766714
0.766703
0.766666
0.76681
0.766757
0.766898
0.766859
0.766949
0.766927
0.766974
0.766964
0.766985
0.766981
0.766988
0.766987
0.76699
0.76699
0.76699
0.76699
0.766986
0.766988
0.766988
0.766987
0.766977
0.766979
0.76697
0.766975
0.766953
0.76697
0.766975
0.76697
0.766635
0.766754
0.766833
0.766899
0.765908
0.76607
0.766436
0.766252
0.765643
0.765649
0.765693
0.765782
0.765604
0.765518
0.765453
0.765414
0.765781
0.76566
0.765534
0.765419
0.765499
0.765693
0.765459
0.765604
0.765233
0.765246
0.76523
0.765247
0.765042
0.764939
0.764906
0.765045
0.76488
0.765867
0.766117
0.765223
0.764878
0.764964
0.765491
0.766172
0.766289
0.766232
0.766244
0.766774
0.766402
0.766451
0.766534
0.76656
0.766837
0.766663
0.76662
0.766676
0.766828
0.766941
0.766974
0.766978
0.766968
0.766906
0.76674
0.766461
0.766227
0.766171
0.766183
0.766272
0.766369
0.766351
0.766203
0.766008
0.765883
0.765861
0.765952
0.766221
0.766686
0.766939
0.766845
0.766932
0.766886
0.76694
0.766916
0.766969
0.766957
0.766982
0.766977
0.766987
0.766985
0.766989
0.766988
0.76699
0.76699
0.76699
0.76699
0.766989
0.76699
0.766981
0.766985
0.766987
0.766983
0.766963
0.766966
0.766945
0.766955
0.766941
0.766961
0.76696
0.766955
0.7666
0.766733
0.766818
0.766885
0.76574
0.765927
0.766357
0.76614
0.765407
0.76542
0.765484
0.76559
0.765325
0.765243
0.765182
0.765154
0.765488
0.765357
0.765227
0.765113
0.765186
0.765383
0.765119
0.765277
0.765044
0.765026
0.764935
0.76499
0.764877
0.764809
0.764747
0.764842
0.76476
0.765815
0.766102
0.76514
0.764785
0.764868
0.765414
0.766199
0.766247
0.76625
0.76627
0.766385
0.76609
0.766176
0.766326
0.76629
0.766736
0.766628
0.766656
0.766802
0.766928
0.76697
0.766979
0.766978
0.766953
0.766867
0.766684
0.766415
0.766213
0.766166
0.766165
0.766191
0.766172
0.766095
0.765984
0.765895
0.76588
0.765969
0.766226
0.766672
0.766947
0.766953
0.76698
0.766976
0.766966
0.76698
0.766974
0.766986
0.766984
0.766989
0.766988
0.76699
0.766989
0.76699
0.76699
0.76699
0.76699
0.76699
0.76699
0.766987
0.766988
0.766989
0.766966
0.766976
0.766982
0.766972
0.766935
0.766939
0.7669
0.766915
0.766925
0.766945
0.766931
0.766926
0.766556
0.766709
0.766785
0.766858
0.765554
0.765766
0.766255
0.766007
0.765151
0.765181
0.765259
0.765385
0.765023
0.764949
0.764897
0.764881
0.765149
0.765015
0.764893
0.764791
0.764859
0.765026
0.764778
0.76491
0.764799
0.764743
0.764601
0.764675
0.764693
0.764673
0.764631
0.764641
0.76467
0.765761
0.766079
0.765049
0.764701
0.764786
0.765341
0.766231
0.766226
0.76625
0.766289
0.766165
0.765998
0.76602
0.766228
0.766177
0.766667
0.766645
0.766765
0.766911
0.766959
0.766976
0.766979
0.766974
0.766938
0.766842
0.76666
0.766398
0.766208
0.766156
0.766123
0.766085
0.766036
0.765977
0.765913
0.765911
0.766012
0.766263
0.766687
0.766946
0.766988
0.766984
0.766989
0.766988
0.766986
0.766989
0.766988
0.76699
0.766989
0.76699
0.76699
0.76699
0.76699
0.76699
0.76699
0.76699
0.76699
0.766989
0.76699
0.766982
0.766987
0.766989
0.766987
0.766933
0.766954
0.76697
0.766944
0.766885
0.766891
0.766823
0.766845
0.766897
0.766916
0.766881
0.766876
0.766482
0.76666
0.766727
0.766807
0.765347
0.765578
0.76612
0.765843
0.764883
0.764925
0.76502
0.765161
0.764712
0.764652
0.764617
0.764608
0.764787
0.764677
0.764591
0.764527
0.764548
0.764685
0.764495
0.764582
0.764605
0.764563
0.76448
0.764522
0.764603
0.764627
0.7646
0.764583
0.764637
0.765704
0.766036
0.764953
0.764673
0.764738
0.765253
0.766266
0.766228
0.76624
0.766289
0.766098
0.766105
0.76596
0.766194
0.766129
0.766652
0.766727
0.766884
0.766947
0.766967
0.766978
0.766979
0.76697
0.766929
0.766832
0.766652
0.766396
0.766214
0.766141
0.766089
0.76604
0.765989
0.76595
0.765971
0.766092
0.766359
0.766735
0.766952
0.766988
0.76699
0.76699
0.76699
0.766989
0.76699
0.76699
0.76699
0.76699
0.76699
0.76699
0.76699
0.76699
0.76699
0.76699
0.76699
0.76699
0.76699
0.76699
0.766988
0.766988
0.766989
0.766989
0.76697
0.766982
0.766984
0.766874
0.766908
0.76694
0.766887
0.7668
0.76681
0.766704
0.766735
0.766846
0.766866
0.766796
0.76679
0.76638
0.766585
0.766636
0.766726
0.765104
0.765346
0.765931
0.765629
0.764613
0.764663
0.764762
0.764916
0.764484
0.764456
0.764444
0.764441
0.764492
0.764451
0.764405
0.764387
0.76445
0.764442
0.764424
0.76439
0.764533
0.764501
0.764458
0.764466
0.764548
0.764605
0.764531
0.764513
0.764623
0.765631
0.765995
0.764883
0.76464
0.7647
0.765134
0.766276
0.766234
0.766213
0.766281
0.766059
0.766394
0.765918
0.76618
0.766099
0.766697
0.766852
0.766929
0.766954
0.766969
0.766978
0.766979
0.766968
0.766926
0.766829
0.766656
0.766438
0.766256
0.766155
0.76609
0.766046
0.766032
0.766084
0.766224
0.7665
0.766806
0.766963
0.766988
0.76699
0.76699
0.76699
0.76699
0.76699
0.76699
0.76699
0.76699
0.76699
0.76699
0.76699
0.76699
0.76699
0.76699
0.76699
0.76699
0.76699
0.76699
0.76699
0.766985
0.766987
0.766988
0.766989
0.766989
0.766945
0.766973
0.766977
0.766778
0.76683
0.76688
0.766796
0.766669
0.766684
0.766537
0.766581
0.766765
0.766782
0.766663
0.766657
0.766227
0.76647
0.766485
0.766592
0.764822
0.765054
0.765653
0.765337
0.764446
0.764476
0.764536
0.764649
0.76437
0.764364
0.764362
0.764362
0.764368
0.764329
0.764298
0.764275
0.764173
0.764398
0.764166
0.764375
0.764474
0.76447
0.764197
0.764203
0.764487
0.76455
0.764488
0.764484
0.764591
0.765525
0.765907
0.764807
0.764643
0.764709
0.765006
0.766265
0.76622
0.766171
0.76625
0.76598
0.766315
0.76584
0.766151
0.766035
0.766784
0.766912
0.766939
0.766955
0.76697
0.766979
0.76698
0.766968
0.766926
0.766836
0.766697