/*--------------------------------*- C++ -*----------------------------------*\
  =========                 |
  \\      /  F ield         | OpenFOAM: The Open Source CFD Toolbox
   \\    /   O peration     | Website:  https://openfoam.org
    \\  /    A nd           | Version:  dev
     \\/     M anipulation  |
\*---------------------------------------------------------------------------*/
FoamFile
{
    version     2.0;
    format      ascii;
    class       volScalarField;
    location    "2500";
    object      nut;
}
// * * * * * * * * * * * * * * * * * * * * * * * * * * * * * * * * * * * * * //

dimensions      [0 2 -1 0 0 0 0];

internalField   nonuniform List<scalar> 
9851
(
0.000133848
0.000136631
0.000129902
0.000122939
0.000163532
0.000114424
0.000111903
0.000172259
0.000153249
0.000108236
0.000108044
0.000165634
0.00017338
0.000130234
0.000106241
0.000104845
0.00014929
0.000186749
0.000158879
0.000118524
0.000104697
0.0001032
0.000130712
0.000187284
0.000180933
0.000134926
0.000113653
0.000103517
0.000102416
0.000122071
0.000181185
0.000191619
0.000158988
0.000122033
0.000110747
0.00010272
0.000102237
0.000115117
0.000165354
0.000200224
0.000181721
0.000135942
0.000116491
0.000108495
0.000102189
0.000102102
0.000110562
0.000144736
0.000199366
0.000196901
0.000155834
0.000123019
0.000113341
0.00010688
0.000101808
0.000101826
0.000107573
0.000131896
0.000192309
0.000204736
0.000179777
0.000134571
0.00011718
0.000110953
0.000105747
0.000101512
0.000100959
0.00010543
0.000122331
0.000174918
0.00021074
0.00019721
0.000152662
0.000122514
0.000114061
0.000109115
0.000104886
0.000101289
0.000100216
0.000104573
0.000115735
0.000153661
0.000208862
0.000208779
0.000173836
0.000132671
0.00011692
0.000111544
0.000107663
0.000104183
0.000101114
9.96733e-05
0.000104067
0.000111896
0.000138346
0.000201037
0.000215001
0.0001955
0.000148569
0.000121624
0.000114126
0.000109579
0.000106499
0.000103554
0.000100952
9.94156e-05
0.00010369
0.000109371
0.000128379
0.000183433
0.00021976
0.000209042
0.000167644
0.000130302
0.000116749
0.00011168
0.00010809
0.000105511
0.000103038
0.000100824
9.95109e-05
0.000103094
0.000107627
0.000121109
0.000162784
0.000217666
0.000218572
0.000187989
0.000144309
0.000120587
0.000114126
0.000109784
0.000106913
0.000104767
0.000102639
0.000100707
9.96313e-05
0.00010202
0.000106504
0.000116244
0.000144382
0.000210197
0.000223736
0.000207516
0.000161035
0.00012769
0.000116317
0.000111806
0.00010841
0.000106052
0.000104173
0.000102291
0.000100604
9.97288e-05
0.000101045
0.000105608
0.000112798
0.000134584
0.000194367
0.000228212
0.000218647
0.000179396
0.000139816
0.000119302
0.000113794
0.000109954
0.000107379
0.000105371
0.000103655
0.000101994
0.000100512
9.98027e-05
0.000100256
0.00010485
0.00011039
0.000126538
0.000173345
0.000226798
0.0002271
0.000198883
0.000153638
0.000124966
0.000115582
0.00011151
0.000108751
0.00010657
0.000104749
0.000103215
0.000101724
0.00010043
9.98315e-05
9.96598e-05
0.000104159
0.000108581
0.000120589
0.000153864
0.000220466
0.000231569
0.000216381
0.000170856
0.000134959
0.00011782
0.000113114
0.000109666
0.000107869
0.000105863
0.000104216
0.000102826
0.000101477
0.000100369
9.98359e-05
9.93493e-05
0.000103493
0.00010723
0.000116347
0.000141424
0.000207506
0.000236221
0.000226596
0.000187886
0.000147298
0.000122413
0.000114572
0.000110842
0.000108589
0.000107106
0.000105256
0.000103761
0.000102469
0.000101229
0.000100298
9.98376e-05
9.9217e-05
0.000102743
0.000106288
0.000113187
0.000133252
0.00018823
0.00023614
0.000234465
0.000206885
0.000161225
0.000130832
0.000116353
0.000112259
0.000109087
0.000107826
0.000106444
0.000104739
0.00010335
0.000102132
0.000101013
0.000100206
9.98441e-05
9.91353e-05
0.000101971
0.000105457
0.000110832
0.000126602
0.000168871
0.000231876
0.000238754
0.000222254
0.000177934
0.000140781
0.000120224
0.000113558
0.000110151
0.000107981
0.000107205
0.000105861
0.000104278
0.000102965
0.000101799
0.000100813
0.000100139
9.98554e-05
9.90881e-05
0.000101357
0.00010473
0.000109061
0.000121454
0.000152883
0.000221919
0.00024339
0.000233406
0.000193795
0.000152979
0.000127045
0.000115072
0.000111434
0.000108542
0.000107233
0.000106661
0.000105327
0.000103848
0.000102598
0.000101523
0.000100622
0.000100076
9.98688e-05
9.90651e-05
0.000100897
0.000104112
0.000107702
0.000117723
0.000142541
0.000207874
0.000244955
0.000240617
0.000211525
0.000166679
0.000135295
0.000118273
0.00011257
0.00010954
0.00010749
0.000106768
0.000106108
0.00010482
0.000103436
0.000102253
0.000101214
0.000100446
0.00010002
9.98826e-05
9.9072e-05
0.000100591
0.000103603
0.000106646
0.000115056
0.000136047
0.000191075
0.000242933
0.000245739
0.000226037
0.000181621
0.000144939
0.000123834
0.000113965
0.000110718
0.000108118
0.000106922
0.000106327
0.000105544
0.000104323
0.000103025
0.00010189
0.00010092
0.000100277
9.99743e-05
9.9896e-05
9.91073e-05
0.000100432
0.000103214
0.000105846
0.000113188
0.000131044
0.00017505
0.000237121
0.00024845
0.000238374
0.00019717
0.000156307
0.000130217
0.000116658
0.000111704
0.000109091
0.000107277
0.000106528
0.000105894
0.00010498
0.000103802
0.000102589
0.000101499
0.000100653
0.000100121
9.99272e-05
9.99093e-05
9.91681e-05
0.000100416
0.000102938
0.000105279
0.000111958
0.000127412
0.000162582
0.000226981
0.000251364
0.000244868
0.00021162
0.000169376
0.00013777
0.000120803
0.000112992
0.000110119
0.000107926
0.000106825
0.000106211
0.000105467
0.000104417
0.000103275
0.000102115
0.000101127
0.000100437
0.000100038
9.99365e-05
9.99128e-05
9.92471e-05
0.000100517
0.000102792
0.000104951
0.000111265
0.000125106
0.000153774
0.000215141
0.000250928
0.000249915
0.000226787
0.000182824
0.0001471
0.000125763
0.000115188
0.000111058
0.000108832
0.000107313
0.00010656
0.000105944
0.000104999
0.00010394
0.000102813
0.000101651
0.000100746
0.00010021
9.99105e-05
9.99575e-05
9.99057e-05
9.93543e-05
0.000100714
0.000102776
0.000104852
0.000111043
0.000124474
0.000148193
0.000202867
0.000248645
0.000252437
0.000238565
0.000196951
0.000157834
0.0001318
0.000118333
0.000112149
0.000109806
0.000108011
0.000107017
0.000106384
0.000105668
0.000104547
0.000103446
0.000102357
0.00010131
0.000100543
0.000100155
9.99484e-05
0.000100074
9.98985e-05
9.94969e-05
0.000100996
0.000102861
0.000104966
0.00011119
0.000125084
0.000144799
0.000191621
0.000243488
0.00025431
0.000247136
0.000210671
0.000169695
0.000139056
0.000122152
0.00011401
0.000110646
0.000108886
0.000107693
0.000106808
0.000106343
0.000105443
0.000104191
0.000102944
0.000101828
0.000100868
0.000100341
0.000100163
0.00010022
0.000100328
9.99005e-05
9.96771e-05
0.000101341
0.000103038
0.0001053
0.000111704
0.000125557
0.000142922
0.000182095
0.000235282
0.000254916
0.000251797
0.000223394
0.000182364
0.00014772
0.000126739
0.000116519
0.000111665
0.000109721
0.000108635
0.000107481
0.000106833
0.000106235
0.000105137
0.000103859
0.000102609
0.000101475
0.000100565
0.000100154
0.00010012
0.000100441
0.000100682
9.99252e-05
9.99077e-05
0.00010174
0.000103316
0.000105893
0.000112762
0.000126564
0.00014268
0.000174832
0.000226369
0.000254782
0.000254157
0.000235626
0.000194802
0.00015792
0.000132439
0.000119303
0.000113284
0.000110538
0.000109524
0.000108468
0.000107614
0.000107057
0.000106191
0.000104919
0.000103611
0.000102384
0.000101433
0.000100845
0.000100589
0.000100827
0.000101356
7.85521e-05
9.99885e-05
0.000100195
0.000102191
0.000103698
0.000106706
0.000114248
0.000128077
0.000143392
0.000169844
0.000217753
0.00025263
0.000255736
0.000244527
0.000207119
0.000168923
0.000139564
0.000122714
0.000115264
0.000111514
0.000110369
0.000109408
0.000108613
0.000108062
0.000107297
0.000106105
0.000104765
0.000103479
0.00010239
0.000101821
0.000101698
0.000101898
8.97312e-05
7.2729e-05
5.97006e-05
5.8735e-05
0.000100114
0.000100553
0.000102695
0.000104211
0.000107784
0.00011622
0.000129969
0.000144473
0.00016682
0.000210053
0.000248619
0.000255744
0.000250907
0.000218598
0.000180288
0.000147925
0.000127368
0.000117493
0.00011297
0.000111274
0.000110344
0.00010958
0.00010908
0.000108472
0.000107498
0.000106254
0.000104948
0.000103824
0.000102992
0.000102719
9.53398e-05
7.94122e-05
6.59023e-05
5.82945e-05
5.72238e-05
5.08157e-05
5.15567e-05
0.000100319
0.000100979
0.000103229
0.000104884
0.000109154
0.000118534
0.000132134
0.000145927
0.000165579
0.000203996
0.000243974
0.000255584
0.000253872
0.000228774
0.000192038
0.000157466
0.000133325
0.000120095
0.000114637
0.000112534
0.000111317
0.00011063
0.000110155
0.00010971
0.000109018
0.000107759
0.000106499
0.000105326
0.000104597
9.36087e-05
8.14086e-05
7.05295e-05
7.01505e-05
6.43859e-05
5.35146e-05
5.99778e-05
5.07116e-05
5.11063e-05
4.90762e-05
4.49213e-05
4.42348e-05
0.000100604
0.000101459
0.000103763
0.000105704
0.000110804
0.000121193
0.000134734
0.000148033
0.000165918
0.000200034
0.000239491
0.000255108
0.000255174
0.000238066
0.000203315
0.000168035
0.000140304
0.000123735
0.000116405
0.000114082
0.00011259
0.000111862
0.000111512
0.000111023
0.000110634
0.000109906
0.000108526
0.000107283
9.93194e-05
8.54214e-05
7.36843e-05
6.34787e-05
5.96011e-05
5.70174e-05
5.6208e-05
4.71291e-05
4.60812e-05
4.45949e-05
4.37283e-05
4.28596e-05
3.92747e-05
3.85432e-05
0.000100975
0.000101967
0.000104287
0.000106643
0.000112683
0.000124142
0.000137767
0.000150651
0.000167212
0.000197891
0.000235801
0.00025447
0.000255596
0.000245399
0.000214388
0.000179713
0.000148684
0.00012876
0.000118541
0.000115667
0.000114171
0.000113192
0.000112964
0.000112662
0.000112269
0.000111834
0.000110976
0.000108155
9.44396e-05
8.09216e-05
6.85989e-05
5.89058e-05
5.33172e-05
5.21192e-05
5.31315e-05
5.02868e-05
4.60774e-05
4.13468e-05
4.29885e-05
3.95846e-05
3.8075e-05
3.77358e-05
3.48013e-05
3.4051e-05
0.00010143
0.000102507
0.000104839
0.000107698
0.000114718
0.000127302
0.000141179
0.000153829
0.000169299
0.000197853
0.000233479
0.000253938
0.000256206
0.00025047
0.000224187
0.000190927
0.000158604
0.000135767
0.00012191
0.000117593
0.000115736
0.000114882
0.000114761
0.000114632
0.000114073
0.0001137
0.000113393
0.000107079
9.30893e-05
7.92478e-05
6.6657e-05
5.68948e-05
5.01589e-05
4.96143e-05
4.77883e-05
4.67364e-05
4.52371e-05
4.39388e-05
4.16763e-05
3.6573e-05
3.80537e-05
3.51726e-05
3.37255e-05
3.35236e-05
3.08857e-05
3.04797e-05
0.000101973
0.000103136
0.000105465
0.000108822
0.000116844
0.000130569
0.000144873
0.000157618
0.000172849
0.000198888
0.00023313
0.000254004
0.000256865
0.000254751
0.000233951
0.000203195
0.000170522
0.000143908
0.000126964
0.000120009
0.000117666
0.000116478
0.000116359
0.000116604
0.000116589
0.000115879
0.000115781
0.000109669
9.44777e-05
7.93678e-05
6.52999e-05
5.50891e-05
4.95075e-05
4.86478e-05
4.51685e-05
4.58049e-05
4.27173e-05
4.22691e-05
4.04263e-05
3.96619e-05
3.70515e-05
3.26842e-05
3.40597e-05
3.16108e-05
3.01337e-05
2.99829e-05
2.79078e-05
2.75183e-05
0.000102584
0.000103894
0.000106221
0.00010999
0.000118989
0.000133832
0.00014876
0.000161935
0.000177201
0.000201624
0.000233948
0.00025494
0.000258339
0.000258455
0.000242333
0.000216203
0.000184831
0.00015537
0.000133915
0.000124222
0.000120136
0.000118414
0.000118393
0.000118714
0.000119056
0.000119012
0.00011865
0.000112538
9.75783e-05
8.15356e-05
6.72901e-05
5.59123e-05
4.88899e-05
5.15209e-05
4.44528e-05
4.95432e-05
4.15192e-05
4.41011e-05
3.8839e-05
3.90236e-05
3.61332e-05
3.58706e-05
3.32063e-05
2.94528e-05
3.07151e-05
2.86389e-05
2.72851e-05
2.70856e-05
2.54521e-05
2.53474e-05
0.000103145
0.000104742
0.000107127
0.00011124
0.000121066
0.000137007
0.000152787
0.000166666
0.000182543
0.000206819
0.000237102
0.000257849
0.000261212
0.000261642
0.000249487
0.000228193
0.000199452
0.000168334
0.000143671
0.000130874
0.000124534
0.000121544
0.000121432
0.000121339
0.000121639
0.000122353
0.000122095
0.000115157
0.000102457
8.84084e-05
6.96272e-05
6.29705e-05
6.39369e-05
8.9754e-05
5.89559e-05
9.22978e-05
5.36278e-05
8.46404e-05
4.46769e-05
6.78277e-05
3.70449e-05
4.8388e-05
3.29406e-05
3.55689e-05
3.03066e-05
2.67603e-05
2.7995e-05
2.59502e-05
2.49528e-05
2.46592e-05
2.39622e-05
2.3642e-05
0.000103607
0.00010561
0.000108125
0.000112594
0.000123092
0.000140055
0.000156888
0.000171735
0.00018869
0.000213543
0.000243661
0.000263785
0.000266799
0.000267589
0.000260272
0.000243976
0.000218515
0.000185385
0.000156285
0.000140075
0.000131322
0.000126383
0.000125346
0.000124638
0.000125244
0.000126258
0.00012588
0.000119365
0.000109179
9.88693e-05
7.95488e-05
9.31966e-05
9.72106e-05
9.31267e-05
9.62378e-05
0.000108833
9.95908e-05
0.000111527
0.000100879
0.000112277
9.0836e-05
0.00010852
5.43707e-05
0.000100347
3.39088e-05
5.98455e-05
3.18641e-05
2.40935e-05
2.93461e-05
2.60698e-05
2.30597e-05
2.25662e-05
2.28384e-05
2.22302e-05
0.000103847
0.000106345
0.000109133
0.000114001
0.00012508
0.000142946
0.000160983
0.000177058
0.000195485
0.000221752
0.000252198
0.000271564
0.000274462
0.000275053
0.000272073
0.00026241
0.000242106
0.000211571
0.000177734
0.000153653
0.00014046
0.000132692
0.000129989
0.000129207
0.000129173
0.000129988
0.000129886
0.000125255
0.000115721
0.000110779
9.39839e-05
8.84822e-05
0.00011064
0.000117173
0.00012102
0.000161392
0.000142533
0.000188891
0.000144688
0.000203713
0.00013304
0.000195535
0.000120203
0.000163917
0.000104016
0.000131124
6.21612e-05
0.000107388
5.96365e-05
2.30184e-05
5.2418e-05
4.12384e-05
2.16387e-05
2.10833e-05
2.28463e-05
2.14256e-05
0.00010376
0.000106893
0.000110062
0.000115378
0.000126929
0.000145673
0.000165015
0.000182516
0.000202764
0.000231115
0.000262912
0.000282346
0.00028491
0.000286428
0.00028754
0.000283976
0.000273492
0.000246823
0.000211157
0.00017839
0.000155199
0.000142686
0.000136887
0.000135303
0.000134435
0.00013327
0.000128707
0.000127527
0.000120216
0.000122179
0.000105228
9.16195e-05
0.000169193
0.000124848
0.000192788
0.00024846
0.000245571
0.000304209
0.00027438
0.000347145
0.000279694
0.000363978
0.000257033
0.000353477
0.000203549
0.000314642
0.000142025
0.000241693
0.000108655
0.000150352
0.000106192
2.96879e-05
9.96636e-05
9.00135e-05
2.04887e-05
2.206e-05
2.5551e-05
2.16479e-05
0.000103244
0.000107186
0.000110844
0.000116663
0.000128514
0.00014815
0.000168985
0.000187987
0.000210331
0.000241341
0.000275697
0.000296511
0.000299723
0.000302008
0.000306384
0.000311583
0.00031257
0.000292465
0.000258887
0.000219112
0.000186032
0.000161736
0.000148526
0.000138174
0.000133482
0.000131502
0.000126868
0.000125496
0.000122708
0.000124183
0.000100154
0.00012091
0.00032911
0.000285044
0.000363749
0.000362548
0.00041534
0.000413233
0.00046991
0.000436912
0.000496415
0.000435137
0.000500336
0.000410028
0.000486249
0.000359231
0.000453707
0.000270058
0.000392044
0.000153776
0.000284523
0.000150308
7.12005e-05
0.000139319
0.000121352
1.99453e-05
3.93237e-05
3.23068e-05
2.17833e-05
0.000102632
0.000107232
0.000111443
0.000117821
0.000129802
0.000150269
0.00017282
0.000193411
0.000217851
0.00025228
0.000290329
0.000314027
0.000318076
0.000320471
0.000325294
0.000328637
0.00032467
0.000309827
0.000283339
0.000250205
0.000217887
0.00019046
0.000147822
0.000129737
0.000124063
0.000124764
0.000125633
0.000125813
0.000125196
0.000126453
0.000101217
0.000152078
0.000386914
0.000536136
0.000573925
0.00046386
0.000507057
0.00051747
0.000557106
0.000542559
0.000579816
0.000550772
0.00059022
0.000546273
0.000594085
0.0005269
0.000585991
0.000487268
0.000561863
0.000414079
0.000513784
0.000286359
0.00042478
0.000272994
0.000104189
0.00024289
0.000199723
2.23866e-05
8.38649e-05
3.55447e-05
1.96234e-05
0.000102994
0.000107267
0.000111996
0.000118977
0.000130795
0.000151949
0.000176361
0.000198593
0.000225052
0.000263238
0.000306227
0.000334409
0.000339716
0.000339873
0.000338505
0.000333878
0.000327155
0.000314589
0.000293884
0.000266553
0.00023722
0.000211888
0.000189451
0.000138513
0.000118782
0.000115748
0.000121411
0.000125764
0.00012709
0.000129379
0.000104808
0.000181156
0.000433607
0.000592177
0.000619883
0.000633232
0.000650906
0.000589313
0.000614244
0.000608568
0.000631105
0.000621565
0.000646771
0.00063314
0.000666539
0.00063598
0.000678509
0.000621013
0.000676049
0.000589723
0.000654051
0.000529226
0.000613751
0.000423724
0.000537888
0.000410914
0.000161328
0.00038534
0.000340348
5.12929e-05
0.000122001
1.19045e-05
2.42971e-05
0.000104715
0.000109951
0.000113316
0.00012036
0.000131803
0.000153098
0.000179393
0.000203387
0.000231585
0.000273575
0.000322655
0.000357056
0.000364338
0.000361698
0.000355084
0.000350209
0.000350581
0.000348335
0.000329722
0.000293648
0.000252067
0.000222832
0.0002034
0.000188829
0.000140368
0.000114376
0.000112001
0.000120115
0.000126242
0.000131194
0.000110134
0.000197056
0.000475854
0.000634633
0.000645419
0.000664385
0.000678176
0.000674579
0.000682893
0.000649255
0.00066373
0.000667421
0.000684848
0.000695787
0.000721153
0.000719143
0.000756183
0.00072494
0.000765394
0.000706686
0.00074049
0.000673445
0.000706447
0.000624081
0.000668834
0.000536749
0.000626608
0.000524631
0.000276541
0.000499917
0.000460823
9.28891e-05
0.000209918
4.45156e-05
0.000100325
0.000109146
0.000120108
0.000118335
0.000122501
0.000133153
0.000153841
0.000181786
0.00020758
0.000237405
0.000282719
0.000338745
0.000380915
0.000392207
0.00039058
0.000396406
0.000427277
0.000481769
0.000534104
0.000554174
0.000519605
0.000424998
0.000307637
0.000233574
0.000205728
0.000188059
0.000144732
0.000112385
0.000110248
0.000119029
0.00013192
0.000115868
0.000199327
0.000493592
0.000697
0.0006895
0.000706682
0.000689647
0.000694885
0.000720947
0.000727177
0.000699226
0.000711357
0.000744011
0.000765836
0.000790519
0.000822807
0.000797309
0.000827359
0.000767213
0.00079099
0.000728032
0.000749338
0.000691115
0.000707279
0.000658036
0.000673551
0.000621112
0.0006455
0.000606721
0.00040748
0.000582995
0.000550601
0.00018399
0.00035006
0.000151693
0.000199991
0.000124935
0.000131441
0.00012699
0.000135157
0.000154702
0.000183456
0.000211118
0.000242318
0.000290408
0.000353554
0.000405075
0.000422115
0.00042707
0.000458028
0.000540874
0.000658556
0.000770879
0.000832487
0.000829301
0.000761723
0.000622462
0.000423285
0.000265838
0.000208948
0.000188025
0.000145742
0.000111422
0.000109675
0.000128508
0.000122702
0.000200227
0.000497965
0.000720589
0.000711009
0.000714416
0.000700509
0.00070684
0.000732733
0.000736103
0.000817463
0.000826651
0.000786026
0.000803248
0.000853622
0.000881873
0.000855945
0.000884045
0.000815692
0.000837752
0.000758478
0.00075444
0.000696967
0.000656253
0.000660425
0.000613526
0.000648883
0.000602632
0.000633057
0.000626679
0.000623886
0.000508743
0.000612557
0.000596317
0.000332482
0.000455441
0.000105533
0.000264874
0.000136051
0.00013983
0.000138596
0.000156035
0.000184558
0.000213849
0.000246227
0.000296079
0.000366137
0.00042834
0.000453178
0.000466374
0.000525892
0.000656734
0.000831299
0.000976837
0.00104959
0.00105753
0.00101208
0.000917655
0.000764442
0.000532745
0.000301988
0.000211407
0.000190054
0.000144217
0.000111661
0.000117524
0.000133671
0.000199144
0.000496482
0.000734146
0.000719643
0.000722198
0.000735725
0.000732636
0.000737305
0.000737058
0.000833722
0.000839428
0.000950888
0.000966428
0.000908446
0.000930714
0.000912631
0.000940452
0.000859528
0.000882294
0.000734273
0.00071992
0.000597437
0.000551126
0.000538462
0.000462914
0.00052019
0.000431223
0.00055728
0.000452539
0.000608937
0.00052936
0.000599514
0.000567271
0.000595276
0.000591198
0.000594804
0.000389628
0.000514833
7.29884e-05
0.000228385
0.000149134
0.000146732
0.000157275
0.000185292
0.000215431
0.000249047
0.000299441
0.000375351
0.00044912
0.000483985
0.000504713
0.00058896
0.000760521
0.000980617
0.00112359
0.00117251
0.00117029
0.00114364
0.00108325
0.00098705
0.000837218
0.000606986
0.000335092
0.00021322
0.00019002
0.00014364
0.000115596
0.000147073
0.000190751
0.0004786
0.000745728
0.000720582
0.000730298
0.000729292
0.000832907
0.0008246
0.000840797
0.000838298
0.000977083
0.000986062
0.00102006
0.00104335
0.000967887
0.000994538
0.000907274
0.000933663
0.00071816
0.00072901
0.000518028
0.000501725
0.000392845
0.000335885
0.000363731
0.000311488
0.000374263
0.000326928
0.000420886
0.000361343
0.000516609
0.000414854
0.000464331
0.000560161
0.000512058
0.000590272
0.00057176
0.000587943
0.000570971
0.00052602
0.000516205
0.000576601
0.000423969
0.000581402
0.000565447
0.000519604
6.99778e-05
0.000210492
0.000165337
0.000160585
0.000183979
0.000216017
0.000250319
0.000300547
0.000380322
0.0004663
0.000512377
0.000539781
0.000639951
0.000851792
0.00109495
0.0011981
0.00122624
0.00121569
0.00117513
0.00111809
0.00105435
0.000976132
0.000848569
0.000637201
0.00035834
0.000212744
0.000189325
0.000140507
0.000148616
0.00017839
0.000423134
0.000753756
0.000715363
0.000791425
0.000767281
0.00081381
0.000799828
0.000986203
0.000978355
0.00099059
0.000990468
0.00106397
0.00108173
0.00101905
0.00104753
0.000961283
0.000990055
0.000740963
0.000755423
0.000500898
0.000510613
0.000301345
0.000286471
0.000260762
0.00021401
0.00029073
0.000251358
0.000323815
0.000307569
0.000293684
0.000378894
0.000355613
0.000334126
0.00034126
0.000408837
0.000460056
0.000409028
0.000374857
0.000461428
0.000580931
0.000583778
0.000540858
0.000484723
0.00047041
0.000554536
0.000536556
0.000395461
0.000484926
0.000584665
0.000576634
4.73662e-05
0.000398424
0.000252332
0.000128175
0.000173465
0.000181153
0.000214077
0.000250043
0.000299778
0.00038103
0.000478221
0.000538692
0.000567893
0.000677608
0.000921836
0.0011549
0.00123542
0.00124048
0.00120361
0.00114038
0.00107326
0.00102129
0.000973857
0.000917032
0.000821514
0.000633193
0.0003604
0.000210308
0.000187155
0.000159599
0.000171986
0.000358476
0.000754254
0.000719511
0.000815927
0.000930841
0.000927563
0.000967055
0.000953687
0.00111639
0.00111855
0.0010969
0.00110935
0.00107524
0.00110168
0.000845021
0.000882331
0.000778235
0.00081476
0.000525581
0.00054349
0.000283019
0.000285441
0.000191173
0.000179596
0.000203558
0.000162389
0.000277516
0.000261515
0.000240707
0.000217992
0.000328006
0.000323178
0.00030572
0.000294688
0.000355149
0.000344591
0.000340226
0.000340884
0.000375012
0.000410325
0.000377274
0.000357065
0.000415722
0.000566613
0.000575289
0.000503675
0.000426372
0.000442318
0.000524928
0.000549782
0.000494204
0.000580695
0.000579724
0.00011347
6.04121e-06
4.02217e-05
0.00039458
0.000238344
0.000183241
0.000206637
0.000246935
0.000297248
0.000378267
0.000484215
0.000560499
0.000593576
0.000699813
0.000961588
0.00118963
0.00124588
0.00123279
0.00115564
0.00103644
0.000928691
0.0008735
0.000885507
0.00088881
0.000848727
0.000768248
0.000601555
0.0003528
0.000204617
0.000183585
0.000180205
0.000314532
0.000744353
0.000734215
0.000789345
0.00106534
0.00102721
0.00109581
0.00108378
0.00111516
0.00110762
0.00116925
0.00118702
0.00112658
0.00114933
0.000933103
0.000979721
0.000638283
0.000678891
0.000568209
0.000604264
0.000298336
0.000321319
0.000173761
0.000173898
0.000147872
0.000139902
0.000195298
0.000173397
0.000156712
0.000144734
0.000281033
0.000263774
0.000242669
0.00021943
0.000338398
0.000334313
0.00031504
0.000304446
0.000347777
0.000348527
0.000351638
0.000350343
0.000358907
0.00038121
0.000361706
0.000350936
0.00038757
0.000545582
0.000563202
0.000463397
0.00039678
0.000408771
0.000489011
0.000558064
0.000498745
0.000573692
0.000576965
9.51578e-05
2.9338e-06
1.00833e-05
0.00038742
0.000219293
0.000199429
0.000239388
0.000287653
0.000372491
0.000482985
0.000578409
0.000611807
0.000705864
0.000978338
0.00119778
0.00124872
0.00120736
0.00107184
0.000894911
0.00071538
0.000634823
0.000672599
0.000751749
0.000810304
0.000781979
0.000707218
0.000552565
0.000324962
0.000200662
0.000191819
0.000285841
0.000719017
0.000748643
0.000772782
0.00108338
0.0012046
0.00122008
0.00121408
0.00121503
0.00120058
0.00120963
0.00115431
0.00119137
0.00103121
0.00108992
0.000728832
0.000777793
0.000440911
0.000484008
0.000360159
0.000407783
0.000179889
0.000193555
0.000134874
0.000124359
0.000138496
0.000134401
0.000131842
0.000127794
0.000196223
0.000175648
0.000160317
0.00015043
0.000289441
0.000270319
0.000248051
0.000224734
0.000349902
0.00032582
0.000343951
0.000313091
0.00035387
0.000359128
0.000362104
0.000361364
0.000353296
0.000366094
0.00035517
0.000356737
0.000372229
0.000494974
0.000509086
0.000425587
0.000380391
0.000389863
0.000447759
0.000561535
0.000499681
0.000529257
0.000542169
6.9553e-05
2.19787e-06
3.61342e-06
0.000376605
0.000184085
0.000222888
0.000279304
0.000356939
0.000478871
0.000587774
0.000632976
0.000712486
0.000978
0.00119822
0.00124196
0.00116561
0.000986658
0.000755014
0.000542211
0.000488303
0.000517917
0.000594013
0.000682278
0.000747315
0.000718314
0.000643512
0.000493763
0.000286951
0.00020589
0.000268931
0.000647296
0.000756606
0.00077042
0.00103244
0.00131264
0.00129504
0.00130109
0.00131034
0.00126957
0.00128833
0.00122092
0.00124651
0.000961806
0.001035
0.000832339
0.000893727
0.000533202
0.000582946
0.000255782
0.000290923
0.000209472
0.000228582
0.0001198
0.000124493
0.000122986
0.000109229
0.000145566
0.000142978
0.000140781
0.000136402
0.000203261
0.000185967
0.00017517
0.000169153
0.000295721
0.000274763
0.000252165
0.000230379
0.000358338
0.000333108
0.000349577
0.000317687
0.000364732
0.000368645
0.000369097
0.000370754
0.000358038
0.000357081
0.000358174
0.000366991
0.000359851
0.000443127
0.000452212
0.000402352
0.000365863
0.000375108
0.000418789
0.00053487
0.000474106
0.000468711
0.000476956
3.79783e-05
1.68538e-06
2.17899e-06
0.000333662
0.000147155
0.000259688
0.000344462
0.000461989
0.000589588
0.000654059
0.000713936
0.000962144
0.00118811
0.00122571
0.00112365
0.000913102
0.000654884
0.000434755
0.000388268
0.00041554
0.00048613
0.000570598
0.000648595
0.000696504
0.000657757
0.000577025
0.000430463
0.000245944
0.000267272
0.000556108
0.000758205
0.00077419
0.000981223
0.00136095
0.00138746
0.00141414
0.0013366
0.00136294
0.00125092
0.00130457
0.00111017
0.00117535
0.000774259
0.000848144
0.000640528
0.000705207
0.0003428
0.000407259
0.000165114
0.000186543
0.000133956
0.000146496
0.000102412
0.000102358
0.000146756
0.000134981
0.000106098
0.00012189
0.000165837
0.000164123
0.000160559
0.00015491
0.000213761
0.000203346
0.000197534
0.000196047
0.000297611
0.000273899
0.000255037
0.000239491
0.00036247
0.000335968
0.00035094
0.000310504
0.000373463
0.000375804
0.000371857
0.000376226
0.000366366
0.000357243
0.000364662
0.000375073
0.000356326
0.000403617
0.000408705
0.000387453
0.000357219
0.000361559
0.000399655
0.000464535
0.000399542
0.000422493
0.000428766
1.31048e-05
1.11832e-06
1.42028e-06
0.000272337
0.000106847
0.000314753
0.000447924
0.000584473
0.000667924
0.000709089
0.000916267
0.00116569
0.00120688
0.00108716
0.000856783
0.000596573
0.000376754
0.000324577
0.000347804
0.000409472
0.000493373
0.000575567
0.00063134
0.000644001
0.000600681
0.00050619
0.000345761
0.000279512
0.00047745
0.000753307
0.000774219
0.000943109
0.00135049
0.0014655
0.00148522
0.00140349
0.00144011
0.00123294
0.00132198
0.00106862
0.00115072
0.000914585
0.000988996
0.000600404
0.000665219
0.000464955
0.000531436
0.000212937
0.000240315
0.000113849
0.000124487
0.000103168
0.000106457
9.38729e-05
9.01415e-05
8.89866e-05
0.000175021
0.000160785
0.00012293
0.000143109
0.000195909
0.000195382
0.000192597
0.000185699
0.000229884
0.000225819
0.00022641
0.00022957
0.000287454
0.000272366
0.000263898
0.000253867
0.00036266
0.00032748
0.000348671
0.000307181
0.000378564
0.000379952
0.000371072
0.000377721
0.000373542
0.000361609
0.000370162
0.000378943
0.000357856
0.000370826
0.000367535
0.000372102
0.000354736
0.000354207
0.000381842
0.000409617
0.000346766
0.000381824
0.000388362
7.34456e-06
9.32604e-07
1.11464e-06
0.000208412
7.67336e-05
0.00040878
0.000574257
0.000674507
0.000711196
0.000859491
0.00113308
0.00118673
0.00105784
0.000817075
0.000568143
0.000354804
0.000287503
0.000300261
0.000359868
0.000454485
0.000544354
0.000611166
0.00063119
0.000600564
0.000531345
0.000413179
0.00032048
0.000426196
0.00072458
0.000774456
0.000916893
0.00132168
0.00154423
0.00145809
0.00135835
0.00123913
0.00133892
0.00106179
0.00115174
0.000892424
0.000975475
0.000737625
0.000813946
0.00041401
0.000506459
0.000277278
0.000330267
0.000139664
0.000160129
9.6998e-05
0.000100332
9.27243e-05
9.17299e-05
0.000101552
8.68348e-05
7.72279e-05
7.85972e-05
0.000208392
0.000191617
0.000146675
0.000170615
0.000231466
0.000231369
0.00022844
0.000220879
0.00025133
0.000254857
0.00026026
0.000265841
0.000293722
0.00028599
0.000276172
0.000275478
0.000360516
0.000331025
0.000346237
0.000317726
0.000380532
0.000380198
0.00036831
0.000375892
0.000376406
0.000365447
0.000371864
0.00037887
0.000359673
0.000342419
0.000328008
0.000358445
0.000353924
0.000349298
0.000351165
0.000369162
0.000296757
0.000342614
0.000356331
4.89734e-06
7.8602e-07
1.76672e-06
0.000172607
5.36502e-05
0.000533788
0.000675905
0.000715602
0.000808337
0.00108323
0.00116646
0.00104015
0.000791067
0.000555077
0.000365381
0.000268431
0.000267222
0.000322778
0.000429002
0.000533542
0.00060337
0.000623114
0.00059782
0.000539486
0.000455326
0.000374392
0.000422518
0.000684765
0.000765871
0.000900148
0.00129245
0.0015827
0.00138341
0.00152953
0.0012527
0.00139364
0.00106842
0.00115918
0.000901543
0.000989307
0.000730048
0.000815311
0.000575588
0.000650446
0.000243479
0.000285893
0.000184203
0.000212656
0.000106393
0.000116948
7.4982e-05
9.213e-05
8.27626e-05
7.63186e-05
6.63928e-05
0.000121481
9.65696e-05
8.67833e-05
7.33102e-05
0.000242293
0.000223657
0.000172872
0.000200126
0.000268326
0.000268239
0.000264407
0.000256005
0.000279428
0.000286556
0.000294122
0.000300033
0.000305909
0.000298073
0.000296539
0.000300734
0.000357218
0.00033432
0.000348264
0.000323688
0.000379128
0.000376995
0.00036428
0.00037205
0.000374283
0.000365361
0.000367857
0.000374594
0.000358265
0.000317568
0.000296245
0.000347175
0.000350245
0.00034241
0.000325538
0.000332979
0.000265791
0.000308369
0.000322051
5.95084e-06
7.16847e-07
6.42712e-06
0.000142055
5.07819e-05
0.000656028
0.000729276
0.000770573
0.00102314
0.00113672
0.00103516
0.000782141
0.000560371