/*--------------------------------*- C++ -*----------------------------------*\
  =========                 |
  \\      /  F ield         | OpenFOAM: The Open Source CFD Toolbox
   \\    /   O peration     | Website:  https://openfoam.org
    \\  /    A nd           | Version:  dev
     \\/     M anipulation  |
\*---------------------------------------------------------------------------*/
FoamFile
{
    version     2.0;
    format      ascii;
    class       volScalarField;
    location    "2500";
    object      omega;
}
// * * * * * * * * * * * * * * * * * * * * * * * * * * * * * * * * * * * * * //

dimensions      [0 0 -1 0 0 0 0];

internalField   nonuniform List<scalar> 
9851
(
1.28337
1.29032
1.24395
1.1951
1.38967
1.12151
1.08867
1.39405
1.31883
1.05205
1.03931
1.35409
1.38625
1.17602
1.03285
1.01708
1.26053
1.40508
1.30062
1.0897
1.02295
1.00597
1.15369
1.39377
1.36869
1.16455
1.05567
1.01586
0.997717
1.08212
1.35509
1.38971
1.26002
1.08588
1.03853
1.01097
0.98998
1.03926
1.27581
1.39101
1.33459
1.13677
1.05204
1.02668
1.00764
0.985286
1.01181
1.18247
1.37909
1.36737
1.21231
1.07018
1.03343
1.0178
1.00523
0.982968
0.995493
1.09779
1.34512
1.37623
1.28844
1.10417
1.03871
1.02089
1.01141
1.00331
0.9846
0.985476
1.04886
1.28174
1.37587
1.33553
1.16492
1.04916
1.02008
1.01247
1.0066
1.00179
0.986431
0.973905
1.01489
1.19657
1.3674
1.35747
1.23616
1.07174
1.02065
1.01073
1.00669
1.00309
1.00053
0.987754
0.964577
0.989796
1.10795
1.34073
1.36496
1.29511
1.11797
1.02521
1.00259
1.00421
1.00261
1.00056
0.99975
0.988084
0.957754
0.972237
1.04988
1.28824
1.36725
1.33056
1.18204
1.04015
0.998366
0.994497
0.999219
0.99932
0.998779
0.99903
0.987849
0.955293
0.95997
1.00961
1.20847
1.36151
1.35022
1.24418
1.07452
1.00082
0.981472
0.988643
0.994786
0.996527
0.99709
0.998422
0.987335
0.954609
0.948535
0.981208
1.12504
1.34003
1.35854
1.29297
1.13211
1.01114
0.976013
0.974067
0.983751
0.991184
0.994286
0.995405
0.997901
0.986665
0.953823
0.93858
0.960054
1.05469
1.29616
1.36225
1.32527
1.19023
1.03641
0.977401
0.961562
0.969542
0.980455
0.988574
0.991926
0.993992
0.997423
0.98603
0.952828
0.930481
0.944129
1.00909
1.2314
1.35864
1.34453
1.24321
1.08426
0.984475
0.955383
0.954991
0.966668
0.978569
0.986229
0.989922
0.992741
0.996985
0.98555
0.951486
0.923903
0.931907
0.975751
1.15348
1.34458
1.35412
1.28588
1.13747
1.00287
0.956005
0.943006
0.951526
0.965137
0.976852
0.984235
0.988128
0.991603
0.996571
0.985199
0.949715
0.919045
0.921067
0.950875
1.07929
1.31327
1.35903
1.31816
1.1881
1.04063
0.960661
0.936432
0.937104
0.949871
0.96407
0.975384
0.982423
0.986474
0.990494
0.996173
0.98484
0.947536
0.914831
0.910607
0.932352
1.02177
1.264
1.35894
1.33811
1.23294
1.08643
0.973693
0.936512
0.925954
0.934477
0.949134
0.96323
0.97411
0.980666
0.984868
0.989401
0.995787
0.984398
0.945113
0.910604
0.901401
0.917672
0.982749
1.20057
1.35214
1.3506
1.27265
1.13226
1.00159
0.939319
0.919267
0.920736
0.933417
0.948782
0.962727
0.972783
0.978909
0.983226
0.988363
0.99539
0.983805
0.942546
0.906325
0.893334
0.905634
0.954198
1.13198
1.33297
1.3558
1.3066
1.1756
1.03844
0.948028
0.918534
0.910466
0.918517
0.93334
0.948938
0.962189
0.971327
0.977036
0.981625
0.987348
0.99499
0.982981
0.939759
0.902068
0.886363
0.895574
0.932563
1.06985
1.29794
1.35833
1.32929
1.21427
1.07792
0.967224
0.920116
0.904153
0.906066
0.918173
0.933796
0.949209
0.961423
0.969673
0.975137
0.979993
0.986387
0.994603
0.981885
0.936796
0.897967
0.880405
0.887264
0.916006
1.01859
1.25264
1.35487
1.3431
1.25252
1.11778
0.995124
0.925418
0.901887
0.896643
0.904476
0.918677
0.934809
0.949257
0.960413
0.967915
0.973104
0.978389
0.985449
0.994292
0.980447
0.933661
0.894078
0.87541
0.880495
0.903547
0.983035
1.20183
1.34426
1.35001
1.2848
1.15473
1.02755
0.937373
0.902531
0.890883
0.893216
0.904837
0.920097
0.935698
0.949148
0.959167
0.965982
0.97098
0.976841
0.984588
0.994053
0.978652
0.930359
0.89053
0.87141
0.87507
0.894359
0.958316
1.14826
1.32218
1.3498
1.31105
1.18921
1.06131
0.957129
0.905274
0.887501
0.885035
0.892917
0.906116
0.921763
0.936523
0.948692
0.957778
0.963933
0.968979
0.975426
0.983905
0.993959
0.976409
0.926898
0.887452
0.868504
0.871004
0.887841
0.941276
1.10026
1.2901
1.34733
1.32584
1.22024
1.09488
0.981412
0.911794
0.886673
0.87916
0.883145
0.893847
0.908413
0.923556
0.936956
0.947992
0.956137
0.961793
0.967179
0.974467
0.983481
0.994295
0.973703
0.923379
0.884787
0.866708
0.868325
0.883757
0.930291
1.06162
1.25339
1.33961
1.33317
1.25101
1.12593
1.00898
0.92386
0.887501
0.875627
0.875452
0.883722
0.896203
0.911044
0.925155
0.937332
0.947165
0.954233
0.959667
0.965619
0.973753
0.983532
0.995121
0.970635
0.920018
0.882582
0.865957
0.866975
0.881735
0.925192
1.03297
1.21509
1.32405
1.33276
1.27671
1.15466
1.03757
0.94024
0.890229
0.873243
0.870051
0.875703
0.885777
0.899572
0.913888
0.926713
0.93747
0.946103
0.95254
0.957934
0.96499
0.973797
0.984984
0.996815
0.967319
0.916884
0.88093
0.866148
0.866923
0.881581
0.925313
1.0126
1.17775
1.30268
1.32777
1.29392
1.18166
1.06523
0.961167
0.895956
0.871697
0.865871
0.869354
0.87735
0.889576
0.903411
0.916815
0.927979
0.93723
0.94487
0.950658
0.956775
0.965163
0.975251
0.988334
0.999919
0.963942
0.914147
0.87986
0.867157
0.868144
0.883433
0.92714
0.998258
1.14371
1.2773
1.31754
1.3025
1.20502
1.09142
0.985057
0.90508
0.872083
0.862346
0.864105
0.870687
0.881247
0.894525
0.907918
0.919628
0.92918
0.937391
0.944106
0.949759
0.957676
0.967844
0.980147
0.993987
1.00452
0.960785
0.912068
0.879525
0.868912
0.870611
0.887656
0.931405
0.990401
1.11487
1.25045
1.30398
1.30115
1.22698
1.11545
1.0094
0.919364
0.873752
0.859368
0.859781
0.865406
0.874492
0.886791
0.9
0.912308
0.922377
0.93113
0.938916
0.94529
0.951844
0.960187
0.971886
0.987096
1.00385
1.00725
1.01553
0.958201
0.91088
0.880166
0.871498
0.874315
0.894052
0.93759
0.988256
1.09242
1.22451
1.28814
1.29557
1.24242
1.13685
1.03374
0.938684
0.877799
0.856758
0.855538
0.861076
0.869197
0.880785
0.89347
0.906031
0.916925
0.925848
0.93386
0.941691
0.949907
0.960325
0.972206
0.987651
1.00307
1.01747
1.01817
1.01066
1.02202
0.956517
0.910679
0.881763
0.874969
0.87947
0.902959
0.945339
0.989852
1.07668
1.20102
1.27136
1.28453
1.25203
1.15511
1.05687
0.960801
0.885805
0.856581
0.85132
0.856996
0.865327
0.876529
0.888882
0.901361
0.912736
0.922117
0.931115
0.940432
0.950716
0.962278
0.975511
0.991497
1.00191
1.00347
1.01999
1.00935
1.02363
1.02667
1.03011
1.01282
1.03046
0.955888
0.911445
0.884062
0.879137
0.886171
0.914129
0.954658
0.993888
1.06737
1.18178
1.25481
1.27152
1.25291
1.17106
1.07864
0.985285
0.901073
0.857738
0.848355
0.852954
0.861738
0.873095
0.88509
0.89783
0.910343
0.921638
0.931245
0.941054
0.952632
0.967317
0.982556
1.0006
1.00749
1.01592
1.01451
1.0338
1.03326
1.0409
1.04004
1.04506
1.01671
1.04103
0.956395
0.913089
0.887023
0.883772
0.894422
0.927416
0.966304
1.00115
1.06449
1.16838
1.24055
1.25854
1.24935
1.18203
1.09833
1.00908
0.921565
0.862319
0.847399
0.849976
0.85846
0.870748
0.883412
0.89659
0.909914
0.921938
0.932178
0.942822
0.95663
0.97472
0.99797
1.01943
1.02519
1.0411
1.02482
1.03561
1.04327
1.05108
1.05319
1.06388
1.05495
1.06222
1.02193
1.05244
0.958173
0.915695
0.890688
0.889071
0.904179
0.942557
0.980329
1.01166
1.06668
1.16275
1.23091
1.24734
1.2422
1.18938
1.11634
1.03388
0.94725
0.873726
0.848173
0.849133
0.856419
0.869853
0.883427
0.896811
0.910227
0.922842
0.934437
0.945909
0.959965
0.980767
1.00985
1.04741
1.05649
1.079
1.05617
1.07387
1.05685
1.07269
1.06723
1.07389
1.07944
1.09107
1.0713
1.08289
1.0277
1.06658
0.961324
0.919635
0.895245
0.895263
0.915246
0.958925
0.996272
1.02551
1.07357
1.16339
1.22759
1.23963
1.23468
1.1935
1.13137
1.0612
0.979369
0.898661
0.852687
0.849686
0.856273
0.87002
0.884206
0.898046
0.911795
0.924919
0.937737
0.950417
0.964059
0.989832
1.03083
1.07578
1.10121
1.13717
1.10481
1.13588
1.09848
1.12798
1.08635
1.1131
1.10412
1.10019
1.11911
1.12955
1.08747
1.10616
1.03515
1.07874
0.965822
0.925106
0.900852
0.902201
0.927071
0.975725
1.01365
1.04245
1.08731
1.16867
1.22923
1.23674
1.22923
1.1939
1.14333
1.08603
1.0132
0.928755
0.866313
0.853448
0.85728
0.871214
0.886478
0.901275
0.915843
0.929487
0.942103
0.955067
0.974299
0.999712
1.04634
1.13828
1.18628
1.29018
1.19277
1.31568
1.17727
1.2892
1.14725
1.22515
1.12946
1.17313
1.14469
1.13605
1.15691
1.16386
1.10416
1.13681
1.04362
1.08777
0.971104
0.931863
0.907648
0.910046
0.939139
0.992342
1.03222
1.06196
1.10635
1.18256
1.23812
1.23848
1.2275
1.19566
1.16089
1.11668
1.05489
0.969469
0.896922
0.865667
0.861574
0.874483
0.891562
0.907745
0.924017
0.937548
0.949356
0.965227
0.983511
1.01183
1.07742
1.29792
1.4975
1.99131
1.59709
2.18676
1.56685
2.21826
1.43806
1.99676
1.29076
1.65646
1.1982
1.36033
1.21732
1.16379
1.22639
1.22346
1.1253
1.15467
1.04743
1.09791
0.976204
0.93917
0.915619
0.919131
0.951316
1.00847
1.05171
1.08367
1.13007
1.20523
1.25754
1.24899
1.2296
1.20442
1.18733
1.15833
1.11009
1.03341
0.950229
0.895679
0.873958
0.881488
0.89843
0.91653
0.933573
0.948567
0.961407
0.978747
0.990764
1.0257
1.1303
1.73268
2.59084
3.90033
3.34254
5.01999
3.57322
5.74092
3.26123
5.69344
2.64697
4.77875
1.91725
3.45262
1.42254
2.17107
1.45685
1.20633
1.45191
1.40251
1.13499
1.17558
1.05088
1.10537
0.980159
0.946168
0.924359
0.929361
0.963938
1.02428
1.07182
1.10723
1.15754
1.23516
1.28583
1.27235
1.24194
1.22525
1.21593
1.20408
1.17312
1.11258
1.02814
0.95178
0.90368
0.896193
0.911832
0.92895
0.944755
0.958596
0.976349
0.992301
1.00545
1.04238
1.26218
2.47376
4.92465
6.79762
7.03069
9.06377
8.34925
10.6756
8.83678
11.6083
8.33441
11.7239
6.61537
10.8646
4.27242
8.55785
2.37245
4.94883
2.45894
1.31751
2.39594
2.17525
1.13759
1.22294
1.04911
1.09236
0.981839
0.952006
0.933395
0.94015
0.976549
1.04002
1.09239
1.13216
1.18777
1.2715
1.32367
1.30524
1.26879
1.25429
1.25774
1.26752
1.26104
1.21426
1.13174
1.03783
0.964278
0.928292
0.931769
0.944707
0.960863
0.974456
0.990582
1.00533
1.02776
1.07514
1.51321
4.18723
8.00054
9.00483
10.6627
12.1187
12.4684
13.5719
13.4305
14.5078
13.8272
14.9939
13.6768
15.1454
12.7685
14.9362
10.1312
13.9602
5.39825
11.1434
5.5214
1.82832
5.26478
4.59814
1.14571
1.48011
1.03231
1.07651
0.979856
0.955746
0.942334
0.950904
0.988322
1.05538
1.11359
1.15799
1.2198
1.31254
1.37
1.348
1.30777
1.29931
1.32731
1.37016
1.39175
1.36703
1.28888
1.17723
1.06912
0.993925
0.966724
0.966831
0.981262
0.999742
1.01158
1.0208
1.04736
1.12164
1.8455
5.46252
12.5475
12.73
14.1069
14.3342
14.7619
15.1507
15.5029
15.6406
15.9843
15.9242
16.3304
16.0258
16.5612
15.799
16.6477
14.7821
16.3796
11.6277
15.3064
11.5789
3.58914
10.9141
9.55219
1.22805
2.56807
1.01578
1.09343
0.973836
0.956797
0.950525
0.961233
0.998843
1.06976
1.1352
1.18465
1.25234
1.356
1.42314
1.4021
1.36213
1.3743
1.45372
1.55961
1.64404
1.65722
1.57952
1.4329
1.26975
1.1278
1.04388
1.01172
1.01054
1.0304
1.0454
1.05077
1.06512
1.16009
2.14461
6.44511
13.1376
15.182
15.1659
15.0782
15.2029
15.6975
15.7737
16.1605
16.1849
16.5387
16.6619
16.9278
17.2636
17.2218
17.8067
17.2738
18.1095
16.8963
18.0094
15.541
17.3375
15.5742
7.49329
15.3662
14.7029
1.77682
5.47473
1.02516
1.3375
0.972607
0.957936
0.957463
0.970709
1.00808
1.08254
1.15646
1.21128
1.28463
1.40039
1.48302
1.46912
1.44482
1.50877
1.70268
1.96911
2.19735
2.3254
2.27615
2.04204
1.72403
1.43252
1.22605
1.10986
1.06719
1.06609
1.08478
1.10028
1.09866
1.19106
2.28365
7.0849
13.3397
15.0865
15.0529
15.6177
15.4812
15.7658
15.7183
16.1587
16.0933
16.7458
16.7985
17.5982
17.9328
18.4711
19.0877
18.9688
19.9762
19.1163
20.3301
18.7151
20.1348
17.72
19.4177
17.9639
13.0992
17.9728
17.5702
3.7017
10.5947
1.19797
2.97923
0.994875
0.973994
0.964871
0.979784
1.01624
1.09309
1.17625
1.2373
1.31516
1.44419
1.54702
1.54884
1.56032
1.73368
2.15854
2.76524
3.4157
3.89678
4.04858
3.78005
3.14348
2.33149
1.71815
1.36399
1.18889
1.1295
1.12504
1.1534
1.15916
1.2343
2.29913
7.2216
13.3062
14.9385
14.8551
15.327
15.1937
15.6948
15.5024
15.989
15.8471
16.8135
16.8142
18.2427
18.4846
19.7385
20.278
20.8805
21.5823
21.4337
22.1862
21.4758
22.367
20.9903
22.3142
19.9306
21.6435
20.2125
16.82
20.2181
19.9243
8.05531
15.4667
3.55874
9.98725
1.03105
1.0348
0.987408
0.990413
1.02605
1.10117
1.19381
1.26164
1.3442
1.4847
1.6124
1.63789
1.70247
2.03808
2.78533
3.81175
4.79194
5.45718
5.7323
5.65873
5.23434
4.42513
3.24129
2.09837
1.51176
1.26854
1.19301
1.19731
1.22681
1.2934
2.28066
7.16059
13.2029
14.721
15.0247
14.92
15.3195
15.0959
16.6136
16.4785
16.7903
16.7169
18.6588
18.8065
20.6868
20.9713
22.008
22.2486
22.5815
22.7772
22.7888
22.9661
22.8801
23.0575
22.8965
23.2266
22.0771
23.3904
22.3006
19.2965
22.2934
21.9909
14.2996
18.1943
11.3679
16.2134
1.08561
1.06187
1.01233
1.0375
1.11011
1.20824
1.28402
1.37067
1.52098
1.67606
1.73111
1.85574
2.37473
3.4521
4.77905
5.87931
6.5107
6.7806
6.79928
6.58647
6.09918
5.24832
4.01046
2.51951
1.64757
1.34511
1.26445
1.27834
1.34457
2.21931
6.95403
13.0019
14.4639
14.5121
14.3733
14.9121
14.7281
16.3004
16.0795
18.8497
18.7536
18.8827
18.8816
21.1558
21.259
22.3876
22.4506
22.841
22.8693
23.0068
22.9234
23.0149
22.7262
23.156
22.6827
23.5907
23.224
23.7666
24.0375
23.9753
21.2736
24.0953
23.8511
16.6433
19.9099
11.5712
16.5641
1.11591
1.08231
1.0543
1.11917
1.22005
1.30373
1.3941
1.55077
1.73447
1.82295
2.00227
2.68922
4.04638
5.57541
6.62427
7.14145
7.37794
7.44033
7.34482
7.07267
6.57176
5.73088
4.49586
2.87125
1.76792
1.41768
1.3487
1.38288
2.06376
6.50373
12.6724
14.1817
14.1537
14.0462
15.2403
14.9232
15.8268
15.5472
18.5683
18.3236
21.0952
20.9225
21.2535
21.2033
22.452
22.4215
22.863
22.8237
22.757
22.5752
22.1475
21.4587
21.7079
20.3566
22.0867
20.4573
23.4012
21.9958
24.5186
23.932
24.9966
23.0829
25.4255
25.478
24.469
18.3467
21.9205
9.45569
17.4212
1.1574
1.09843
1.1244
1.22943
1.31945
1.41423
1.57247
1.78368
1.9078
2.12843
2.94346
4.51853
6.14723
7.06787
7.47837
7.67331
7.74342
7.7098
7.56991
7.29116
6.80135
5.97387
4.75249
3.1086
1.85306
1.50277
1.44008
1.87643
5.62536
12.3067
13.9013
13.6713
14.5727
14.3222
17.3001
16.872
18.0281
17.6824
20.6953
20.4182
22.0606
21.8654
22.3402
22.2175
22.7492
22.6597
22.3936
22.2312
20.8484
20.3993
18.8256
17.3138
18.699
16.9545
20.6325
18.9877
22.4784
21.2649
24.5995
23.1455
23.7245
25.4034
25.1877
25.3964
23.7619
25.1927
25.9151
25.9957
25.639
26.0634
20.8261
24.9126
24.547
22.8139
8.47406
19.1931
1.20093
1.13816
1.22485
1.32966
1.43005
1.5864
1.8195
1.98196
2.22489
3.11647
4.85665
6.52076
7.29676
7.6301
7.76638
7.82363
7.81761
7.7416
7.58425
7.32198
6.85306
6.03347
4.81549
3.17684
1.91688
1.57187
1.78081
4.63638
11.8752
13.6253
13.1216
15.4459
14.6572
16.4177
15.8754
19.3295
18.9037
20.0968
19.7368
21.6319
21.36
22.2451
22.0539
22.548
22.4086
22.0959
21.9945
20.0699
19.8818
16.1092
15.3574
14.992
12.8976
17.4966
15.8664
20.6999
19.8401
19.4037
22.7581
22.6995
22.7373
22.7007
23.6805
24.6347
24.2123
23.4476
25.1236
26.1292
26.0883
26.2931
26.1235
25.6353
26.5609
24.1612
21.7737
23.745
25.9399
25.6959
6.54047
23.2777
22.7605
17.9731
1.20018
1.20525
1.3252
1.43493
1.591
1.84098
2.04044
2.29188
3.20388
5.04415
6.71163
7.40733
7.65244
7.75395
7.78727
7.76674
7.69918
7.57915
7.42119
7.19838
6.78163
5.98341
4.7686
3.14764
1.93574
1.80422
3.70613
11.0292
13.4007
12.6672
14.9231
17.2674
17.0792
18.4029
17.9613
20.342
19.9459
21.0525
20.7136
21.8299
21.5738
21.7084
21.5929
21.9053
21.8061
19.7929
19.7994
14.949
14.8456
11.2048
10.4018
13.8801
11.7028
18.8569
18.1454
17.3533
16.3633
22.6113
22.3173
20.9609
20.335
23.5791
23.9405
24.1177
24.1227
24.1098
24.7175
24.7196
24.5077
25.2629
26.8122
27.0026
26.6074
25.7982
26.3304
27.0384
25.3939
25.0817
27.0551
26.9504
18.1592
2.50586
7.80854
24.8234
24.0574
1.21066
1.30209
1.42804
1.58869
1.84478
2.08561
2.33016
3.20981
5.09828
6.7926
7.41718
7.62512
7.68012
7.63647
7.55103
7.45415
7.36506
7.30122
7.19104
6.98509
6.59806
5.82416
4.61853
3.0376
2.02085
3.02861
9.55089
13.1722
12.3912
13.8087
17.5993
16.787
18.5832
18.1029
19.5141
19.0735
20.624
20.2574
21.2868
20.9694
21.4432
21.2656
20.0375
20.13
19.8584
19.9401
14.982
15.3759
9.94272
9.49049
10.0808
9.37701
15.4125
14.2913
13.4597
12.5019
19.7179
18.9835
18.1773
17.3556
23.8566
23.3794
21.8261
21.2021
25.1429
25.5449
25.464
25.6248
25.3351
25.3055
26.0618
26.2713
25.836
27.4649
27.8774
26.9054
26.3126
26.8014
27.5125
26.7608
26.6096
28.188
28.3013
18.6735
1.64022
5.21446
26.4843
25.6974
1.25853
1.40854
1.56241
1.84043
2.1069
2.35032
3.16461
5.07034
6.78982
7.39142
7.55253
7.51566
7.33771
7.09103
6.84502
6.66074
6.75069
6.95057
6.93022
6.72671
6.34343
5.5674
4.36884
2.78939
2.83307
7.72935
12.7349
12.3519
12.9783
16.5085
18.1136
17.8747
19.0439
18.6427
19.8703
19.4714
20.5049
20.1885
21.0523
20.7961
20.1939
20.2232
16.7941
17.2817
15.837
16.312
9.26444
9.32635
8.93487
8.20135
12.0529
11.5268
11.2822
11.0928
16.5995
15.9861
15.5715
15.3397
20.4852
19.7443
19.0412
18.4684
25.014
22.7229
24.3563
21.9963
26.9462
27.1629
26.7592
27.1238
27.264
26.6535
28.1017
28.2936
27.0958
28.1275
28.7125
27.3522
27.4079
27.6862
27.9914
28.2849
28.3069
29.283
29.7264
16.677
1.35535
3.70492
28.3111
27.5207
1.34702
1.53423
1.80209
2.11707
2.35009
3.04019
4.9161
6.74157
7.3281
7.44915
7.3086
6.99866
6.57339
6.01923
5.62596
5.89058
6.32885
6.61793
6.6596
6.45427
6.04663
5.24934
3.97639
3.03314
6.07606
11.9876
12.301
12.3874
15.323
17.5181
17.0338
18.3244
17.9173
19.1011
18.7158
19.8477
19.4848
19.9749
19.7797
20.2019
20.1181
17.7192
18.096
11.6028
12.6553
9.89078
10.6972
7.47081
6.91171
11.1499
9.51674
15.18
14.9415
14.4699
13.5855
18.1178
18.0934
18.267
18.658
21.2599
20.616
20.1561
20.0378
26.1246
23.5929
25.342
22.8439
28.7302
28.8079
28.0398
28.5921
29.4959
28.7334
30.4989
30.3022
29.1091
28.7511
29.5608
28.0486
29.2371
29.2168
28.6107
29.9946
30.2068
30.3381
31.1481
14.0202
1.26805
2.65296
30.6071
29.2915
1.46604
1.75819
2.10506
2.35341
2.88051
4.59306
6.60545
7.24602
7.3355
7.09819
6.67679
6.10442
5.28809
4.78471
5.13382
5.71009
6.18323
6.42273
6.40615
6.18435
5.70785
4.81522
3.74456
5.10189
11.0648
12.1433
11.9082
14.1861
16.5721
17.5356
17.3087
18.2821
17.931
18.9441
18.6142
19.54
19.2588
18.7778
18.8451
18.4021
18.6314
13.6617
14.5344
7.11405
7.61355
6.73791
6.82663
7.61274
6.53364
17.6833
16.4008
12.8046
14.9297
19.0304
19.1382
19.1172
18.6696
20.2031
20.8089
21.5921
22.3685
22.2131
21.8609
21.8771
22.3334
27.268
24.5546
26.4526
23.918
30.5336
30.496
29.3876
30.0828
31.7785
31.276
33.0151
32.3332
31.698
29.3627
30.343
29.1973
31.7294
31.4129
29.4555
31.86
32.4864
31.4457
32.5873
9.45496
1.28695
2.69232
33.1227
28.6015
1.65096
2.08182
2.34132
2.76297
4.16998
6.38522
7.13133
7.22975
6.90829
6.39903
5.75554
4.79807
4.11752
4.4645
5.11796
5.81728
6.21105
6.34951
6.21837
5.88085
5.28033
4.43674
4.94379
9.93848
11.7984
11.5797
13.203
15.7862
16.9253
16.5863
17.5185
17.1995
18.106
17.8215
18.567
18.3548
18.8281
18.7295
16.6277
17.0797
15.346
16.0582
8.38052
9.5046
5.72062
5.75401
6.0109
5.78903
10.9163
8.89896
7.55341
21.62
20.3345
16.583
18.6519
22.8933
23.0269
22.9616
22.5054
23.2129
24.3679
25.5227
26.4147
23.6492
23.7526
24.4061
25.6061
28.579
25.7849
27.8835
25.5477
32.4343
32.2497
30.9595
31.6938
34.0942
34.0051
35.6128
34.4711
34.5934
30.0987
31.1337
30.9485
34.6763
34.1756
30.7023
33.831
34.9633
32.5666
34.1731
8.18617
1.25379
2.72213
36.2525
27.8452
1.97337
2.33731
2.63067
3.79237
5.98876
7.02206
7.11649
6.75329
6.1866
5.51543
4.59045
3.64144
3.87258
4.6133
5.62204
6.27099
6.43005
6.31176
6.02558
5.56216
4.90807
5.03107
8.76054
11.3297
11.2653
12.4174
15.0457
16.2405
16.8109
16.662
17.324
17.0778
17.6508
17.509
17.7068
17.7185
17.3962
17.5979
13.2331
14.2005
10.7669
12.11
5.90809
6.18285
5.49041
5.39031
6.11696
5.68052
13.9332
10.8756
11.6341
8.63317
24.8348
23.4295
19.7747
21.7308
26.8293
26.8821
26.6179
25.9193
27.0565
28.5203
29.7234
30.4974
25.7056
26.5447
27.915
29.6392
30.275
27.6367
30.011
27.8085
34.488
34.1799
32.9973
33.6038
36.5358
36.8232
38.3473
36.8215
37.6343
31.0874
32.0775
33.3161
37.8789
37.4083
32.5528
35.84
37.872
33.6309
35.7423
7.84413
1.38654
3.83633
39.123
28.043
2.27983
2.5806
3.35131
5.52713
6.83819
7.03148
6.62527
6.02648
5.38012
4.52524
3.39333
3.38578
4.11207
5.44907
6.45205
6.73287
6.60169
6.33621
5.90987
5.36335
5.29666
7.98528
10.7786
10.9503
11.855
14.3494
15.7381
16.2075
15.9876
16.5449
16.3544
16.7558
16.6845
16.649
16.7479
16.1056
16.4395
15.0094
15.6291
8.56445
9.95887
6.64512
7.38313
5.32689
5.2987
5.67774
5.46551
7.21479
6.51028
6.09175
17.5436
14.8687
14.3399
11.1913
27.7585
26.0624
21.9564
24.1068
30.7157
30.6503
30.1228
29.1403
31.3884
32.8882
33.9892
34.5268
28.7244
30.2296
32.1681
34.1653
32.7475
30.1712
32.8949
31.0998
36.8053
36.4963
35.9079
36.0765
39.2412
39.7981
41.35
39.5473
40.8621
32.2914
33.0422
36.2713
41.3323
40.8422
34.6544
38.2077
40.767
34.6328
37.4877
10.7293
2.35554
10.8737
42.6789
31.7162
2.48078
3.10781
4.79187
6.64728
6.92459
6.54475
5.90474
5.29824
4.55169
3.36882
3.00841
3.5658
5.08618
6.50748
7.07309
7.04283
6.78951
6.39807
5.95727
5.89166
7.83617
10.1918
10.6181
11.4301
13.7377
15.2941
15.6882
15.7346
15.7439
15.8531
15.8108
15.6222
15.7856
14.9413
15.3504
13.5929
14.3711
11.4179
12.6016
5.74925
6.23054
5.33016
5.47254
5.30215
5.19251
6.39493
6.17749
6.05078
8.322
7.02482
6.68455
7.27273
19.6517
17.1448
16.305
13.6025
30.5438
28.501
23.8561
26.2425
34.6242
34.3617
33.5648
32.2539
35.9527
37.3907
38.3632
38.7152
32.6781
34.7582
36.9969
39.0829
36.0631
33.8122
36.9668
35.4083
39.5899
39.5043
39.8356
39.496
42.3372
43.1219
44.8896
42.8905
44.4325
33.641
34.1595
39.0423
44.6876
43.5808
36.8874
40.4645
43.6106
35.979
38.9048
24.2104
5.05425
33.8785
45.993
42.9301
2.77418
4.28025
6.21482
6.83854
6.50344
5.8327
5.24389
4.63056
3.47756
2.74732
3.05575
4.41752
6.35191
7.21208
7.39555
7.25814
6.96107
6.62947
6.62436
7.91061
9.65559
10.2487
11.0719
13.2409
14.9008
15.3575
14.9614
14.897
14.9169
14.946
14.6238
14.822
13.8009
14.2847
12.2511
13.1253
9.82258
11.2087
7.02999
8.35084
5.0343
5.06655
5.10087
5.04952
5.6464
5.37707
7.17282
6.73696
7.46996
6.88022
10.8202
8.41355
7.7331
8.62553
21.414
18.9078
17.5665
15.062
33.4095
30.924
25.5146
28.2469
38.7296
38.2606
37.1564
35.5198
40.8538
42.2209
43.0445
43.2933
37.5925
40.0368
42.4149
44.5239
40.7599
38.5706
42.343
40.8148
43.267
43.673
45.4722
44.357
46.1984
46.9557
49.0721
47.2556
47.731
35.4479
35.66
41.9183
47.1792
46.6512
39.6168
42.5375
46.0384
37.1824
40.9238
46.5032
25.8782
61.4893
51.0674
57.8026
3.46523
5.80764
6.649
6.49785
5.82691
5.20838
4.72821
3.70224
2.67702
2.67434
3.59599
5.66618
7.16394
7.57547
7.67821
7.54578
7.31622
7.31695
8.1488
9.36887
10.0098
10.8983
12.9161
14.566
15.1017
14.4843
13.9223
14.075
13.5128
13.7467
12.5429
13.1241
10.8701
11.7929
8.27789
9.6186
6.07598
6.96751
5.20614
5.51167
4.94279
4.86312
5.15806
5.01362
6.50205
6.1322
5.9116
8.61276
8.0969
9.23748
8.31243
12.6456
10.3999
9.36303
10.6736
22.8141
20.1709
18.9438
16.6543
36.6823
33.6896
27.3006
30.4855
43.2383
42.5362
41.1945
39.2228
46.254
47.5492
48.2445
48.4393
43.4429
46.1176
48.5899
50.708
47.1006
44.5873
49.3534
47.324
48.3612
49.6043
53.1075
51.1284
50.9113
50.3428
52.7668
52.6893
50.3324
37.487
37.133
45.217
50.646
50.0235
42.3622
45.213
50.3931
39.2962
43.3229
74.2148
57.1484
90.9893
58.8554
69.773
4.70482
6.45066
6.48021
5.83964
5.20989
4.79643
3.96748
2.74441
2.45345
2.87717
4.49368
6.71987
7.56878
7.93099
8.09415
8.02229
8.006
8.46465
9.36403
10.0002
10.9155
12.8491
14.3224
14.8858
14.4319
11.1839
11.9833
12.1964
10.9029
11.5258
8.95356
10.0455
6.70033
7.82831
5.37419
5.91593
4.7959
4.99793
4.78357
4.74632
4.98462
4.86274
5.47233
5.14138
7.5115
6.71582
6.43015
7.08041
10.6334
9.92041
11.9117
10.6514
14.5224
12.4477
11.8299
13.2426
24.2773
21.4874
20.5037
18.4395
40.7628
37.2191
29.5725
33.3709
48.3449
47.4968
45.9419
43.6985
52.4087
53.6474
54.3036
54.4944
50.3461
53.2993
55.9327
58.071
55.6265
52.1851
58.7075
55.4566
54.6202
56.8813
62.8605
59.6104
55.2359
53.6662
57.5228
58.1244
54.9833
39.5923
39.1653
47.864
54.6433
52.815
44.645
48.8151
53.874
40.7281
44.4992
80.2026
97.3663
87.9454
60.3424
68.7421
5.80328
6.4284
5.88378
5.22059
4.84434
4.20469
3.02297
2.42054
2.44589
3.36549
5.42347
7.28841
7.94732
8.43551
8.66976
8.74878
8.98194
9.5123
10.1256
11.0658
12.8894
14.1813
14.7213
14.3742
11.2015
6.43137
9.61863
6.57375
8.80421
6.91946
7.87369
5.50017
6.09222
4.76933
5.07125
4.49453
4.59277
4.51126
4.46155
4.74239
4.62176
5.1174
4.94004
6.01305
5.423
9.45033
8.19779
7.21203
8.70719
13.938
12.7955
15.7038
14.1862
16.6613
14.9122
15.2881
16.5739
26.0778
23.0283
22.7689
20.8034
45.8074
41.8041
32.934
37.3729
54.3779
53.3722
51.6097
49.0894
59.7562
61.0421
61.6795
61.8588
58.9283
62.2173
65.0832
67.3778
66.6658
62.3282
70.8636
66.3512
61.5704
65.6348
74.8331
70.0175
62.1405
60.4111
66.7965
67.5594
60.8745
41.6504
40.3078
50.6651
59.4168
58.1155
47.6827
49.4663
53.4033
41.4576
43.9924
71.763
92.0678
71.5756
56.9966
56.6317
6.14024
5.92889
5.25104
4.88657
4.38533
3.43265
2.53653
2.30925
2.60125
3.97683
6.17627
7.72425
8.47651
9.0482
9.40772
9.68926
10.0047
10.5717
11.5025
13.0354
14.1143
14.5961
14.2691
11.2541
5.79151
5.95741
4.44324
4.67364
5.43585
4.68069
5.00497
4.30886
4.4502
4.20797
4.23155
4.25898
4.22792
4.47674
4.33725
4.78777
4.63127
5.2841
4.99684
7.29054
6.39308
5.88137
12.4208
10.5394
9.0536
11.566
18.0688
16.7374
20.2894
18.8368
19.3541
17.9952
19.3438
20.4304
28.8363
25.3713
26.1465
24.0547
52.1412
47.7324
37.64
42.7545
61.6884
60.4593
58.5211
55.741
69.1099
70.3803
70.9283
71.0895
70.4473
74.1588
77.2389
79.6416
80.2009
75.5402
85.7426
80.6445
72.9838
78.4171
94.102
85.4225
73.7801
68.7602
77.7681
80.7841
68.8437
43.574
41.3046
56.1183
69.3931
67.8749
52.0399
47.3694
48.0763
41.1471
41.9
54.4892
99.6719
66.2512
46.1922
45.5222
5.90078
5.33523
4.90271
4.55989
3.75758
2.95442
2.35971
2.29908
2.89825
4.51059
6.69377
8.23787
9.07878
9.73936
10.285
10.7408
11.3265
12.185
13.2871
14.0804
14.4768
14.0896
11.0419
5.79323
3.51133
4.2565
3.67369
3.69783
4.10555
3.95383
4.00622
3.94788
3.93504
4.03109
3.97302
4.17934
4.10668
4.50572
4.32059
4.8205
4.67441
5.58454
5.06618
8.93535
7.04797
6.04685
6.81275
16.8268
14.3548
12.0266
15.8617
22.9011
21.3961
25.3614
23.936
22.7716
21.711
24.0229
25.0585
33.0529
29.0119
30.7896
28.4379
60.1589
55.4314
44.0702
50.047
70.6514
69.2045
67.0958
64.0466
81.3317
82.3309
82.7822
82.835
85.6374
90.0065
93.3227
95.8099
105.43
91.7974
116.125
98.4465
88.8697
100.791
148.38
119.379
87.7081
80.9223
95.6415
100.585
84.4217
46.8098
42.5881
64.215
84.0117
80.9553
58.9305
41.7878
40.3557
40.7445
39.2229
49.0569
114.544
68.6185
38.7773
40.2666
5.40588
4.93614
4.64869
4.07282
3.41042
2.70823
2.29533
2.36153
3.19626
4.82501
7.0374
8.7555
9.71884
10.486
11.1895
11.9029
12.667
13.4105
14.0264
14.3139
13.7503
10.4172
5.53776
3.4047
3.01849
3.35993
2.91833
3.64807
3.36658
3.64681
3.69024
3.65949
3.8017
3.73516
3.95603
3.85828
4.15386
4.04692
4.53773
4.34132
4.82226
4.68028
6.45494
6.13448
5.5826
5.22834
11.9502
8.52668
7.809
21.9484
19.3157
16.7398
21.315
28.4742
26.8373
31.0102
29.2678
27.0678
26.243
29.4381
30.5891
38.9164
34.0579
36.9417
34.1874
70.3022
65.2909
52.9574
59.9187
81.8425
80.0984
77.6594
74.3943
97.2927
98.0882
98.4681
98.3149
106.444
112.027
116.794
119.118
181.679
129.748
180.734
150.043
120.632
151.46
191.348
185.19
118.327
103.368
140.323
152.577
106.063
51.5903
45.4748
76.5227
105.444
103.068
69.6698
37.8827
36.4927
41.9915
38.9221
48.8146
105.244
96.6378
36.7308
40.159
4.98244
4.75454
4.27079
3.815
3.24223
2.54333
2.27332
2.45645
3.34553
4.9786
7.19267
9.09315
10.2692
11.1724
11.9601
12.6952
13.3594
13.8925
14.0187
13.0509
9.26829
5.0306
3.23655
2.73117
3.07975
2.80916
2.75502
3.39322
3.15588
3.44096
3.55161
3.49463
3.69321
3.6171
3.89336
3.77209
4.14935
3.99376
4.54534
4.37631
4.83505
4.65686
7.20435
6.56146
5.80354
5.14264
5.52757
16.4147
10.9174
9.61387
27.3173
24.7375
22.0903
26.5509
34.4364
32.9274
36.9431
34.6399
32.404
31.5749
35.4496
36.8092
47.1661
41.098
45.249
41.9283
82.8994
77.3348
65.2412
72.9591
96.4841
94.0375
90.3679
86.8379
120.689
121.573
122.138
121.652
177.987
174.779
182.938
181.895
420.059
199.639
428.492
203.8
186.733
204.569
443.963
435.954
178.5
145.943
189.167
182.058
147.927
60.502
55.0618
98.5287
149.215
148.8
89.7726
36.6891
35.9841
45.1952
40.8464
51.1426
86.4427
87.4069
37.6071
43.6042
4.77309
4.49017
4.06637
3.70158
3.12445
2.42226
2.24773
2.49816
3.40105
5.01989
7.11972
9.13806
10.5608
11.5887
12.4106
13.071
13.507
13.3518
11.5622
7.68558
4.36422
3.02555
2.58846
2.4469
2.90201
2.70736
2.63538
3.21856
2.98228
3.27264
3.40609
3.33372
3.59424
3.49425
3.84241
3.70609
4.17264
3.97147
4.51483
4.39123
4.89428
4.63279
8.26379
7.19555
6.05543
5.27247
5.63451
21.6166
14.9864
12.4182
32.486
29.8287
27.0227
31.1668
40.3763
39.0054
42.7187
39.9124
38.9886
37.64
41.9204
43.4778
58.8724
51.4655
56.9883
52.0402
98.4002
91.3101
81.5263
88.1686
118.939
114.72
107.368
101.142
180.491
177.195
171.131
165.743
395.49
405.739
399.085
403.474
829.281
423.745
826.746
420.361
456.352
462.499
838.705
836.961
458.468
194.734
464.872
464.056
201.381
88.0093
64.1871
146.457
203.48
205.767
145.593
37.7113
37.401
55.675
45.6475
52.7008
200.215
115.033
42.3653
49.7762
4.59961
4.31178
4.00008
3.63847
2.97771
2.32011
2.2105
2.50855
3.3959
4.86133
6.62222
8.52732
10.1969
11.3733
12.1192
12.3785
11.5041
9.14528
5.92625
3.67356
2.78499
2.44309
2.3008
2.22812
2.49406
2.77357
2.56303
3.05314
2.85121
3.12814
3.30892
3.21365
3.53415
3.4165
3.81556
3.66132
4.19555
3.96297
4.47493
4.39448
4.92945
4.62798
9.95534
8.07031
6.37312
5.34151
5.81136
25.8839
19.6274
16.4671
37.4294
34.4882
30.8527
35.0029
46.4983
44.6554
47.9908
44.7125
47.7558
44.7155
48.9588
50.9312
74.292
67.0989
75.4993
64.8792
118.668
108.134
100.546
103.784
159.224
153.842
141.331
120.784
399.405
401.871
396.959
397.215
799.533
807.028
794.97
800.696
2476.09
809.901
2452.27
813.044
853.364
858.113
2452.43
2470.19
862.219
457.764
878.136
862.306
453.588
101.534
88.181
190.404
446.827
439.786
150.665
42.4302
44.7191
64.7288
59.1206
58.1155
353.128
182.894
49.4808
56.5573
4.4577
4.26403
3.98207
3.56512