/*--------------------------------*- C++ -*----------------------------------*\
  =========                 |
  \\      /  F ield         | OpenFOAM: The Open Source CFD Toolbox
   \\    /   O peration     | Website:  https://openfoam.org
    \\  /    A nd           | Version:  dev
     \\/     M anipulation  |
\*---------------------------------------------------------------------------*/
FoamFile
{
    version     2.0;
    format      ascii;
    class       volScalarField;
    location    "2500";
    object      p_rgh;
}
// * * * * * * * * * * * * * * * * * * * * * * * * * * * * * * * * * * * * * //

dimensions      [1 -1 -2 0 0 0 0];

internalField   nonuniform List<scalar> 
9851
(
0.00429412
0.00568843
0.00493166
0.00567357
0.00805288
0.00422071
0.00456125
0.00974121
0.00816665
0.0031904
0.00464506
0.0105957
0.0107702
0.00678473
0.00228987
0.00405357
0.00985345
0.0127747
0.0104816
0.00524157
0.00140201
0.00311294
0.00893437
0.0130752
0.0129499
0.00887123
0.0043673
0.000609749
0.00304987
0.00834514
0.0129782
0.0144395
0.0120093
0.00694561
0.00327818
0.000115528
0.00230606
0.007154
0.0119219
0.015103
0.0141928
0.0103848
0.00581332
0.0023427
-0.000652939
0.00229521
0.00656729
0.0112927
0.0153384
0.0157437
0.01297
0.00834446
0.0046576
0.0013596
-0.00113125
0.00168983
0.00526798
0.0102608
0.0145603
0.0164015
0.0149743
0.0113534
0.00698721
0.00348262
0.000652555
-0.00179301
0.00168718
0.0047417
0.00952764
0.0134067
0.0164285
0.0162911
0.0134386
0.00929977
0.00576169
0.00239565
-5.63645e-05
-0.00230446
0.0013935
0.00413765
0.00867051
0.012648
0.0164424
0.0169414
0.0152687
0.0115265
0.0077352
0.00428709
0.00143995
-0.000889653
-0.00294487
0.000901231
0.00394438
0.00743735
0.0117173
0.0156041
0.01719
0.0164811
0.0134751
0.0096997
0.00624761
0.0032792
0.00071778
-0.00141137
-0.00350504
0.000779725
0.00353275
0.00677377
0.0108518
0.0145227
0.0170073
0.0172272
0.0149566
0.0117954
0.00825928
0.00509486
0.00246718
4.74573e-05
-0.00217824
-0.00400797
0.000460985
0.0030072
0.00589213
0.009762
0.0136048
0.0165092
0.0173794
0.0165506
0.0135279
0.0101471
0.00685284
0.00396072
0.00157605
-0.000772588
-0.00268215
-0.00446217
0.000294192
0.00226352
0.00511438
0.00822739
0.0125552
0.0157015
0.0172918
0.0170714
0.0149431
0.0116882
0.00861272
0.00569027
0.00306684
0.000809865
-0.00136879
-0.00323249
-0.0049671
0.000161706
0.00228323
0.00453912
0.00797308
0.0119502
0.014759
0.0168207
0.0172656
0.0159341
0.0132208
0.0100391
0.00716215
0.00450044
0.0021508
-1.38179e-05
-0.00201423
-0.00378698
-0.00543962
0.000138395
0.00199985
0.00369035
0.00724735
0.0105678
0.0136952
0.0161114
0.0171408
0.0164612
0.0144437
0.0114503
0.00847518
0.00593662
0.00357268
0.00134435
-0.000740708
-0.00266847
-0.00432105
-0.0059377
5.97565e-05
0.00144439
0.0030319
0.00656582
0.00911758
0.0125593
0.0153594
0.0166942
0.0166998
0.0151712
0.0126441
0.00987537
0.00721461
0.00486469
0.00256949
0.000583512
-0.0013839
-0.00314861
-0.00479846
-0.00631084
-7.91931e-05
0.00120164
0.00334273
0.00559384
0.00806885
0.0116521
0.0143801
0.0160619
0.0166025
0.015671
0.013632
0.0110763
0.00836072
0.00608117
0.00392523
0.00183573
-9.2847e-05
-0.00190234
-0.00356561
-0.00517834
-0.00675208
-0.000186924
0.00112753
0.00275115
0.00458508
0.00783992
0.0104863
0.0133559
0.0152356
0.0161909
0.0158807
0.0143236
0.0119468
0.00938544
0.0070633
0.00491072
0.00299701
0.00103009
-0.000743789
-0.00241321
-0.0039998
-0.00553363
-0.00706767
-0.000117642
0.00112218
0.00270294
0.00475275
0.00710555
0.00949991
0.0121858
0.0143351
0.0155479
0.0157216
0.0146833
0.0127151
0.0103322
0.00803284
0.00602366
0.00411068
0.00227462
0.000391713
-0.00133363
-0.00290331
-0.00436204
-0.00589391
-0.0073734
-0.000244261
0.000630939
0.00217155
0.00414653
0.0061917
0.00852211
0.0109253
0.0133247
0.0147403
0.0153077
0.0147557
0.0131722
0.0109916
0.00879436
0.00693724
0.00501299
0.00327493
0.00141707
-7.16546e-05
-0.00177957
-0.00320355
-0.00464891
-0.00612865
-0.00760246
-8.15368e-06
0.000962196
0.00203322
0.00372667
0.00540853
0.00744996
0.00982155
0.0121798
0.0137968
0.0146835
0.0145411
0.0133749
0.0115292
0.00950839
0.00749119
0.00587137
0.00411819
0.00247902
0.000848212
-0.000523842
-0.00221116
-0.00351381
-0.00483517
-0.0062595
-0.00771088
-6.11607e-05
0.000610805
0.00192572
0.00341986
0.00482876
0.0065392
0.00862989
0.0109058
0.0127884
0.0139038
0.0141166
0.0133751
0.0118745
0.0100259
0.00811194
0.00632905
0.00494307
0.00339991
0.00195745
0.00034712
-0.000997933
-0.00243945
-0.00375371
-0.00499321
-0.00631121
-0.00781357
0.000145339
0.00081175
0.00179755
0.0028954
0.00429551
0.00573566
0.00762484
0.00973445
0.0116652
0.012952
0.0134956
0.0131143
0.011957
0.0102864
0.0085652
0.00696013
0.00548421
0.00416839
0.00273858
0.00123424
-8.48306e-05
-0.00125502
-0.00260367
-0.00381635
-0.00500776
-0.00627552
-0.00773678
6.56744e-05
0.000894295
0.00155154
0.00262121
0.00371427
0.00502548
0.00672813
0.00862764
0.0105501
0.0119538
0.0126737
0.0126818
0.0118232
0.0104201
0.00875638
0.00727247
0.00588039
0.0046154
0.00339063
0.00207292
0.000932378
-0.000353617
-0.00146094
-0.00260893
-0.00380001
-0.00486904
-0.00609765
-0.00760751
0.000201147
0.000912783
0.00145558
0.00241987
0.00325446
0.00436266
0.00586809
0.00758134
0.00933787
0.0108415
0.0118024
0.0119746
0.0115079
0.010338
0.00884808
0.00736806
0.00604267
0.00485493
0.00378688
0.00273105
0.00170724
0.000453145
-0.000651069
-0.00154238
-0.00261484
-0.00360432
-0.00467672
-0.00580105
-0.0073603
0.000563713
0.00117091
0.00169553
0.00212769
0.00291468
0.00383705
0.00507572
0.00660033
0.00822447
0.00973476
0.0107914
0.0112057
0.0109491
0.0100067
0.00874664
0.00738738
0.00617428
0.00507838
0.00406429
0.00321857
0.00224329
0.0013255
0.000370362
-0.00060309
-0.00146505
-0.0024468
-0.00331223
-0.00427143
-0.00532153
-0.00690693
0.000707929
0.00116329
0.00163764
0.00202989
0.002565
0.00331295
0.00431477
0.00565236
0.00719178
0.00862041
0.00973452
0.0103057
0.0102508
0.009626
0.00855754
0.00725026
0.00609606
0.00511181
0.00427863
0.00347484
0.00261935
0.00183045
0.000868084
0.000238974
-0.000667379
-0.00137323
-0.00198164
-0.00280117
-0.00357656
-0.00464835
-0.00619884
0.000871032
0.00116364
0.00153703
0.00190232
0.00222315
0.00284563
0.00369638
0.00487336
0.00624376
0.0075034
0.00862869
0.00928215
0.00939383
0.0090373
0.00814043
0.00697652
0.00583059
0.00496689
0.0041687
0.00353878
0.00286009
0.00210965
0.00154826
0.00085462
0.000205084
-0.000258068
-0.000990765
-0.00138552
-0.00200381
-0.0028117
-0.00378106
-0.00533146
0.000851132
0.00142703
0.00173373
0.00180517
0.00198077
0.00242897
0.00312432
0.00409051
0.00532537
0.00649444
0.00754983
0.00822824
0.00851394
0.00823449
0.00762403
0.00660857
0.00557759
0.00468137
0.00393799
0.00322537
0.0028189
0.00224131
0.00187773
0.00121748
0.000959976
0.000413795
-4.46767e-05
-0.000378672
-0.000692129
-0.00106076
-0.00166707
-0.00265834
-0.00428469
0.00112098
0.00167927
0.00166422
0.00182756
0.00188112
0.00211058
0.00269691
0.00345007
0.00454084
0.00553491
0.00649355
0.00714936
0.00748472
0.00740073
0.00689729
0.00599102
0.00512894
0.00414482
0.00344426
0.00300804
0.00261235
0.00232055
0.00191155
0.00165742
0.00118794
0.000888888
0.000580644
0.000486943
0.000463104
0.000426337
0.000173318
-0.00031498
-0.00128067
-0.00460569
-0.00275074
0.00111904
0.00156952
0.00176745
0.00180635
0.00182275
0.00193362
0.00232982
0.00290045
0.00378273
0.00467238
0.00549484
0.00609978
0.00644817
0.00642177
0.00602364
0.00536714
0.00443317
0.00365959
0.00303908
0.00258551
0.00218941
0.00197589
0.00173735
0.00149783
0.00127345
0.00110383
0.00105989
0.00116632
0.00136654
0.00164573
0.00180794
0.0016834
0.000933804
-0.00114773
0.000330755
-0.00391849
-0.00202345
0.00128541
0.00175474
0.00191374
0.00183484
0.00181273
0.001824
0.00205639
0.00250571
0.00316816
0.00391924
0.00458711
0.00508421
0.00538783
0.00540601
0.0051061
0.0045058
0.00369287
0.00295827
0.0023138
0.00189244
0.0016654
0.00151712
0.00139881
0.00128537
0.00125234
0.00122886
0.00135469
0.00158731
0.00201827
0.00254847
0.00310935
0.00344182
0.00237825
0.00333423
0.00170736
0.00276414
0.00303881
-0.000341772
0.00120644
-0.00321489
-0.00121585
0.00132519
0.00171439
0.00197342
0.00188448
0.00182003
0.00179018
0.00189343
0.00220153
0.00268141
0.00328705
0.00380654
0.00419329
0.00440174
0.00436946
0.00409237
0.00357777
0.00286326
0.00214897
0.00156313
0.00115776
0.000922931
0.000879303
0.000902708
0.000931234
0.00102921
0.0011194
0.00135383
0.0017561
0.00240681
0.00316518
0.00402856
0.0047969
0.00420872
0.0050282
0.00388491
0.00268825
0.00424008
0.00409209
0.00056242
0.00220705
-0.00247368
-0.000344969
0.00126579
0.00175579
0.00205207
0.00193768
0.00184426
0.00181355
0.00182352
0.00199472
0.00233872
0.00278777
0.00315873
0.00340191
0.00349049
0.0033815
0.00305557
0.00256255
0.00190618
0.00122705
0.000663405
0.00028676
0.00010488
9.38981e-05
0.000209554
0.000367107
0.000573019
0.000813094
0.00119401
0.00160193
0.00234666
0.00346724
0.00461739
0.00575448
0.00565427
0.00632362
0.0049217
0.00583135
0.00535996
0.00378704
0.00539469
0.00528314
0.00153649
0.00328167
-0.00168743
0.000561794
0.00132404
0.00192882
0.00209269
0.00199334
0.001953
0.00190073
0.00184947
0.00192725
0.00215582
0.00243881
0.00265556
0.00274126
0.0026825
0.00245826
0.00204642
0.00149989
0.00084478
0.000187426
-0.000359827
-0.000719788
-0.00086735
-0.000830596
-0.000657949
-0.000400251
-7.94159e-05
0.000290787
0.00069715
0.00136411
0.00212177
0.0033011
0.00481475
0.00627131
0.00680856
0.00719377
0.00662893
0.00729771
0.0064029
0.00734206
0.00659711
0.00496671
0.00667741
0.00656946
0.00256194
0.00442149
-0.000870969
0.00150605
0.00126964
0.00188036
0.00208026
0.00214432
0.00209823
0.00204712
0.00197059
0.00197491
0.00209552
0.00225047
0.00231489
0.00223611
0.00200938
0.00162968
0.00109287
0.000425884
-0.000287757
-0.000968213
-0.00151791
-0.00186666
-0.00198769
-0.00190496
-0.00167226
-0.00134467
-0.000938198
-0.000448446
-0.000112527
0.000559528
0.00164329
0.0028279
0.00445552
0.00633719
0.00748129
0.00759235
0.00786752
0.00831832
0.00817228
0.00890466
0.00771481
0.00874267
0.007974
0.00622493
0.00807098
0.00795053
0.00363151
0.00562039
-3.59639e-05
0.00247773
0.00122346
0.00190852
0.00217139
0.00228947
0.00225082
0.00224869
0.0021728
0.00212693
0.00216544
0.00221567
0.00214762
0.00190858
0.00150278
0.000937048
0.000221755
-0.000608056
-0.00144725
-0.00221891
-0.00281064
-0.00316318
-0.00326254
-0.00313741
-0.00284339
-0.0024441
-0.0019758
-0.00139775
-0.000744502
-0.000378999
0.000520848
0.00213994
0.00388219
0.00579527
0.00777039
0.00762373
0.00871323
0.00902917
0.00955467
0.0101918
0.00967715
0.0105863
0.00918935
0.010355
0.00948564
0.0075603
0.00958462
0.00943287
0.00474066
0.00687555
0.000803668
0.00346655
0.00110395
0.00185819
0.00222808
0.00241622
0.00244414
0.00249428
0.00244331
0.00237224
0.00235899
0.00233299
0.00215674
0.00177361
0.00119047
0.000419385
-0.00051464
-0.00156247
-0.00260444
-0.00353429
-0.00422511
-0.00461729
-0.00471049
-0.00454499
-0.00418381
-0.00370285
-0.00316056
-0.00254914
-0.00183085
-0.00116179
-0.00052241
0.000571325
0.00260714
0.00522977
0.0078321
0.00792873
0.00954013
0.010362
0.0110286
0.0124862
0.0116523
0.0134131
0.0115742
0.0133007
0.01087
0.0124521
0.0111996
0.00897693
0.0112819
0.0110641
0.00588258
0.00818704
0.00162751
0.00445726
0.000998954
0.00180935
0.00222927
0.00251636
0.00266393
0.00278065
0.00276728
0.00270584
0.00266714
0.00259694
0.00234257
0.00183794
0.00109182
0.000114408
-0.0010721
-0.00239105
-0.00370403
-0.00487441
-0.00574716
-0.00624036
-0.00635426
-0.00614969
-0.00571293
-0.00513744
-0.00449398
-0.0038296
-0.0030258
-0.00232285
-0.00154535
-0.000465604
0.00109802
0.00371477
0.00845193
0.0095729
0.0121965
0.0160487
0.0154599
0.0214332
0.0170139
0.024643
0.0166907
0.0242083
0.0150477
0.0209529
0.0131339
0.016735
0.0135302
0.0105008
0.0135423
0.0131295
0.0070493
0.00955953
0.00242403
0.00542928
0.000880475
0.0016878
0.00219743
0.00258494
0.00284002
0.00307354
0.00313555
0.00311971
0.00308598
0.00300174
0.00270111
0.00210615
0.00121426
4.72347e-05
-0.00139636
-0.00304046
-0.00468934
-0.00619163
-0.00735231
-0.00803015
-0.00821401
-0.00798758
-0.00746804
-0.0067679
-0.0060123
-0.00525223
-0.00443262
-0.00362007
-0.00287618
-0.0017556
-0.000284233
0.00294197
0.0121339
0.0151024
0.0211051
0.0315202
0.0324391
0.0492113
0.0397247
0.0648436
0.0402475
0.0715312
0.0348344
0.0642
0.0258914
0.048717
0.0181103
0.0307741
0.0187737
0.0122908
0.018488
0.0172541
0.00822845
0.0110519
0.00316244
0.00635912
0.000754041
0.0015484
0.00214492
0.00262038
0.00298827
0.00334767
0.00352874
0.00359405
0.00360251
0.00353972
0.00322659
0.00257478
0.00156824
0.000234451
-0.00146015
-0.00342596
-0.00551328
-0.00746083
-0.00901237
-0.00997587
-0.0103114
-0.0101064
-0.00950673
-0.00867386
-0.00776067
-0.00684358
-0.00596765
-0.00502744
-0.00425163
-0.00349541
-0.00171801
0.00314331
0.0234404
0.0157516
0.0408328
0.0558754
0.0686429
0.0892908
0.0947272
0.125718
0.112788
0.156653
0.115364
0.173635
0.0960187
0.168272
0.0639677
0.132859
0.0345945
0.0777824
0.0360367
0.015289
0.0344043
0.0298322
0.00942871
0.0130529
0.00379175
0.00721931
0.000617485
0.00139167
0.00206084
0.00263153
0.0031047
0.00358875
0.00391001
0.00409389
0.00418466
0.00418156
0.00390079
0.00323466
0.0021603
0.000679071
-0.00123279
-0.00353615
-0.00603534
-0.00847616
-0.0105532
-0.0120091
-0.0126819
-0.0125846
-0.0119194
-0.0109188
-0.00977727
-0.00865192
-0.00763081
-0.00661844
-0.00589893
-0.0049181
-0.00335042
0.00606967
0.0647883
0.0644956
0.0881127
0.107986
0.126388
0.154135
0.179305
0.197026
0.231955
0.227425
0.277103
0.239671
0.303695
0.221815
0.306489
0.167413
0.276421
0.087248
0.194271
0.0894795
0.0234926
0.0828811
0.0681807
0.0107413
0.0175016
0.00426675
0.00803858
0.000469893
0.00120781
0.00192697
0.0026002
0.00318318
0.00375794
0.00424707
0.00457457
0.00478468
0.00487723
0.00468422
0.00406451
0.00297715
0.0013986
-0.000674467
-0.00322447
-0.00609608
-0.00905874
-0.0117892
-0.0138965
-0.0151156
-0.0153798
-0.0147736
-0.0135905
-0.0121656
-0.0107487
-0.0094752
-0.00837076
-0.00726707
-0.00636325
-0.00470735
0.0089605
0.0781199
0.162468
0.171285
0.140551
0.153694
0.20009
0.218008
0.26099
0.284587
0.315404
0.343445
0.351895
0.378952
0.367173
0.397112
0.362375
0.404732
0.318983
0.395805
0.209375
0.3471
0.209494
0.0495786
0.192176
0.158914
0.0128591
0.0317213
0.00440425
0.00885464
0.000321296
0.000984853
0.00172685
0.00249209
0.00319539
0.003874
0.00452626
0.00500122
0.00536774
0.00558971
0.00553037
0.00502554
0.00400456
0.00244043
0.000366488
-0.00217242
-0.00511041
-0.00845256
-0.0119933
-0.0150799
-0.0173009
-0.0182409
-0.0179413
-0.0167401
-0.0150479
-0.0132331
-0.0115835
-0.0102335
-0.00903147
-0.00821316
-0.0058919
0.0103744
0.0837652
0.177121
0.181877
0.248595
0.254098
0.231457
0.241705
0.302304
0.315849
0.361922
0.372577
0.392652
0.398677
0.409334
0.411317
0.41932
0.42234
0.425845
0.432491
0.418034
0.437345
0.361348
0.432376
0.362052
0.117841
0.34469
0.30204
0.018609
0.0736294
0.0038415
0.0108315
0.000181458
0.000728105
0.00146335
0.00229067
0.00311438
0.00390316
0.00470373
0.00535694
0.00589106
0.00628139
0.00639353
0.00606654
0.00522595
0.00386883
0.002105
0.000149041
-0.00193787
-0.00463694
-0.00844609
-0.0131127
-0.0173216
-0.0202299
-0.0211229
-0.0203183
-0.0184789
-0.0162323
-0.0140679
-0.0122853
-0.010869
-0.00970107
-0.00795071
0.008838
0.0846393
0.184741
0.17254
0.257028
0.258995
0.333859
0.3357
0.324907
0.330748
0.378714
0.382377
0.399967
0.39961
0.40949
0.40413
0.415682
0.402624
0.423575
0.405034
0.436547
0.41723
0.448362
0.436982
0.441897
0.456802
0.446494
0.2402
0.442214
0.419116
0.0404036
0.168642
0.00454649
0.0318148
4.87882e-05
0.000435691
0.00111895
0.00197604
0.00291304
0.00381037
0.00474886
0.00559786
0.00632922
0.00689774
0.00723033
0.0071315
0.00656757
0.00566367
0.00480535
0.0045411
0.00487817
0.00457829
0.0023315
-0.00255038
-0.00978117
-0.0171701
-0.0220687
-0.0235323
-0.0224334
-0.019932
-0.0171152
-0.0146837
-0.0128613
-0.0116368
-0.00990773
0.00579176
0.0792792
0.218072
0.257566
0.267079
0.335249
0.334045
0.384399
0.383733
0.38411
0.384689
0.398454
0.396831
0.397021
0.389411
0.384471
0.365195
0.374387
0.340377
0.379547
0.332588
0.403639
0.348672
0.437492
0.388658
0.465181
0.440342
0.473922
0.373573
0.479922
0.480505
0.126797
0.320039
0.0343046
0.137844
0.000115
0.000674971
0.00153617
0.00255772
0.00357903
0.00466329
0.00567061
0.00664301
0.00741532
0.00798557
0.00816086
0.00794421
0.00765311
0.00808089
0.0101208
0.013226
0.0152304
0.0145208
0.0106517
0.00383476
-0.00536427
-0.0155983
-0.0232379
-0.0255102
-0.0241412
-0.0209617
-0.0176937
-0.0151523
-0.0132733
-0.0117991
0.00239239
0.0725042
0.207452
0.322142
0.315268
0.329964
0.327561
0.382361
0.380607
0.391985
0.39076
0.39508
0.393484
0.382432
0.376449
0.34847
0.335984
0.310357
0.286963
0.287345
0.248403
0.291676
0.239871
0.324365
0.26781
0.380616
0.316874
0.448646
0.382437
0.464036
0.469468
0.482769
0.498827
0.282913
0.444703
0.0218883
0.16355
0.00018007
0.000944801
0.00204852
0.00318408
0.00438617
0.00557102
0.00674936
0.00779409
0.00859682
0.00908473
0.00925613
0.00963464
0.0114631
0.015791
0.021301
0.0250635
0.0257055
0.0231152
0.0173062
0.00850737
-0.00247746
-0.0145114
-0.0242315
-0.0271339
-0.0253618
-0.0215689
-0.0180124
-0.0154977
-0.0134879
-0.00189892
0.0631015
0.195023
0.308419
0.29174
0.37035
0.364783
0.377787
0.374541
0.389711
0.38872
0.367738
0.367191
0.372089
0.369385
0.32729
0.320866
0.270573
0.260669
0.219143
0.199496
0.19472
0.157714
0.221144
0.175388
0.271482
0.233315
0.324262
0.288335
0.394712
0.335504
0.418179
0.511167
0.449131
0.471507
0.499487
0.356675
0.495886
0.0194229
0.147515
0.000271611
0.00132329
0.00255516
0.0038935
0.0052502
0.00663734
0.00792973
0.00903952
0.00983186
0.0104
0.0114081
0.0144921
0.0208124
0.0281999
0.0334216
0.0352766
0.0340989
0.0300817
0.0229384
0.0125564
-0.000373984
-0.0141867
-0.0255122
-0.0285976
-0.0260514
-0.0217582
-0.0181547
-0.0152025
-0.00679696
0.0503573
0.17952
0.314823
0.358865
0.35953
0.384418
0.382287
0.387559
0.38618
0.367422
0.36807
0.3183
0.320318
0.317892
0.317502
0.254307
0.251749
0.187658
0.181403
0.132388
0.117401
0.129836
0.0901326
0.194461
0.149222
0.260451
0.232
0.312458
0.312696
0.354827
0.336471
0.336087
0.400768
0.36941
0.489774
0.51741
0.508054
0.435349
0.396258
0.38092
0.454847
0.379557
0.518766
0.517734
0.487532
0.0154075
0.133079
0.000417177
0.00170472
0.00315265
0.00468484
0.00625404
0.00780279
0.00919901
0.0103467
0.0112838
0.0128157
0.0168551
0.0246904
0.0336504
0.0399479
0.0425667
0.0426389
0.0405295
0.0361122
0.0285875
0.0170749
0.00183414
-0.0142814
-0.0270047
-0.0295667
-0.0260839
-0.0215475
-0.0176127
-0.0111481
0.0362189
0.159315
0.297833
0.370135
0.360969
0.378598
0.376726
0.370259
0.370604
0.368894
0.369685
0.323129
0.326363
0.258734
0.263479
0.252605
0.255096
0.178618
0.179586
0.108656
0.104688
0.067127
0.0540261
0.0991134
0.0582778
0.195268
0.144118
0.316768
0.285055
0.266975
0.347639
0.36599
0.382177
0.378387
0.350171
0.356739
0.361602
0.366123
0.365366
0.478383
0.501319
0.414837
0.38858
0.376304
0.437553
0.493737
0.330056
0.4333
0.518145
0.519256
0.012691
0.327912
0.174784
0.0688843
0.000625084
0.0021499
0.00380364
0.00557249
0.00735481
0.00904225
0.010537
0.0118618
0.0137658
0.0183791
0.0272044
0.0373017
0.043877
0.0466051
0.0472006
0.046769
0.0450171
0.041428
0.0345793
0.0221417
0.00441015
-0.0147208
-0.0284541
-0.0296928
-0.0255725
-0.0208427
-0.0149008
0.0208898
0.136805
0.275511
0.356082
0.368438
0.365193
0.370334
0.3699
0.336379
0.339401
0.329804
0.333185
0.268893
0.27476
0.193788
0.201062
0.182866
0.187684
0.104255
0.106216
0.0455831
0.040092
0.0379264
0.0265751
0.0890668
0.0481339
0.241618
0.208099
0.175665
0.137989
0.377107
0.360379
0.317702
0.28902
0.39146
0.413934
0.419759
0.422871
0.382587
0.369052
0.3953
0.414851
0.376469
0.464263
0.491384
0.403714
0.384331
0.393186
0.423239
0.49785
0.436619
0.513371
0.518614
0.0611729
0.00886295
0.0205237
0.320455
0.165967
0.000833167
0.00260557
0.00452893
0.00655363
0.0085165
0.0103442
0.0120511
0.0142819
0.0190607
0.0283224
0.039115
0.0456136
0.0480609
0.0487504
0.0483774
0.0479419
0.0471733
0.0456171
0.0402046
0.0268742
0.00654109
-0.0160636
-0.0293423
-0.0291963
-0.0246894
-0.0183176
0.00656401
0.108995
0.250559
0.343735
0.345436
0.345645
0.346217
0.347658
0.342085
0.34448
0.292723
0.298551
0.280843
0.286843
0.209192
0.217928
0.125118
0.134579
0.110635
0.117117
0.0378892
0.0390316
0.0182767
0.0112379
0.0294085
0.0191962
0.106488
0.0752232
0.0552386
0.0409084
0.255885
0.217845
0.178713
0.140394
0.404546
0.377301
0.334931
0.299507
0.444833
0.460057
0.446009
0.459364
0.434188
0.403342
0.447919
0.471839
0.407378
0.449375
0.479772
0.404279
0.408801
0.410119
0.418435
0.499589
0.437359
0.50631
0.516744
0.0537997
0.0102659
0.0230105
0.312185
0.151449
0.001051
0.00309037
0.00532569
0.00758167
0.0097259
0.0117827
0.0142989
0.0191219
0.0281836
0.0393409
0.0457829
0.0481367
0.0483846
0.0474277
0.0466866
0.0475144
0.0487129
0.0496673
0.0450534
0.0302633
0.00691149
-0.0180284
-0.029727
-0.0282238
-0.0222416
-0.00503011
0.0769646
0.221133
0.327786
0.33315
0.321129
0.320037
0.313803
0.317725
0.304139
0.309291
0.245189
0.254082
0.226978
0.236101
0.14534
0.156954
0.0583193
0.0688573
0.0432308
0.0497596
0.00566971
0.00254275
0.0110968
0.00237678
0.0332699
0.0281402
0.0241337
0.0202671
0.106852
0.0793665
0.0600872
0.0493758
0.259611
0.217759
0.176552
0.138806
0.418468
0.340948
0.380747
0.2992
0.494097
0.496731
0.458648
0.485311
0.493767
0.455333
0.509186
0.524738
0.456095
0.438207
0.466744
0.413771
0.45125
0.44308
0.422001
0.500019
0.436465
0.498184
0.514211
0.0461747
0.0107043
0.0269698
0.300971
0.125077
0.00128869
0.0036231
0.00617275
0.00863584
0.0110274
0.0137423
0.0185061
0.0272254
0.0381804
0.0447553
0.0472223
0.0467613
0.0433598
0.0385754
0.0384884
0.0455106
0.0512761
0.0542352
0.0489128
0.0306986
0.00463679
-0.0207913
-0.0295993
-0.0261529
-0.013392
0.0475688
0.187039
0.304748
0.326466
0.29973
0.306037
0.290641
0.295152
0.277765
0.284465
0.262531
0.270468
0.194414
0.2068
0.169128
0.181687
0.0805742
0.0937666
0.00504088
0.0108059
0.0013896
0.00212298
-0.00548426
-0.0111605
0.0158553
0.00252939
0.0437183
0.0398674
0.0358219
0.0300682
0.10758
0.0848531
0.0722023
0.066954
0.254721
0.210782
0.1704
0.136707
0.420082
0.336888
0.374026
0.289959
0.531601
0.523911
0.459974
0.498538
0.550725
0.517476
0.570187
0.564845
0.516659
0.435246
0.456187
0.435078
0.507376
0.49102
0.432652
0.500446
0.435676
0.488243
0.511284
0.0456361
0.00892959
0.0300737
0.282064
0.105978
0.00154773
0.00420749
0.00702377
0.00974584
0.0126646
0.0171285
0.0254611
0.0360126
0.0428047
0.0454544
0.0444021
0.0388318
0.0295363
0.0262428
0.0328949
0.0458683
0.0561034
0.0599399
0.0491597
0.0274206
0.000270379
-0.0239041
-0.0287001
-0.0186376
0.0247627
0.150426
0.276119
0.316984
0.296905
0.273294
0.275501
0.259019
0.266698
0.24036
0.250106
0.21857
0.229791
0.138911
0.154661
0.108103
0.123199
0.0200735
0.0320224
-0.0188413
-0.0188762
-0.0151999
-0.017705
-0.00916001
-0.0163501
0.0494607
0.0379619
0.00967409
0.0247426
0.0645798
0.0644731
0.0618969
0.0575196
0.111835
0.0990043
0.0946929
0.0960789
0.243465
0.200913
0.165577
0.139909
0.412575
0.324688
0.360932
0.275937
0.560425
0.538887
0.45382
0.501528
0.594972
0.581343
0.620743
0.595504
0.581414
0.438458
0.452505
0.470872
0.570719
0.548323
0.453118
0.501284
0.434276
0.479224
0.50814
0.0467401
0.00329003
0.0304935
0.260708
0.0856791
0.00180262
0.00478927
0.00789096
0.0110523
0.0152351
0.0227489
0.0330721
0.0400653
0.0429276
0.0417895
0.0348645
0.0232612
0.0179762
0.0222556
0.0341409
0.0537268
0.0656703
0.0620393
0.0456574
0.0204142
-0.00675919
-0.0267937
-0.022699
0.00858198
0.114652
0.244307
0.304634
0.297781
0.258153
0.266679
0.244179
0.25125
0.224287
0.23492
0.199056
0.212267
0.169942
0.184786
0.0792347
0.0969765
0.0465337
0.0623334
-0.0172699
-0.0136079
-0.0280473
-0.030274
-0.0215255
-0.0252948
-0.00243536
-0.0109573
-0.0187109
0.0858851
0.0704351
0.0295598
0.0509102
0.0999637
0.102912
0.101037
0.0960315
0.128326
0.125821
0.131552
0.141711
0.231365
0.194805
0.169352
0.15997
0.400964
0.309984
0.348106
0.263827
0.579121
0.544937
0.445725
0.498502
0.628386
0.639085
0.658873
0.619174
0.644351
0.446684
0.453714
0.517862
0.634514
0.609566
0.484761
0.501721
0.430869
0.472237
0.50363
0.0479332
-0.0114848
0.0237456
0.225753
0.0754631
0.00205889
0.00534766
0.008856
0.0129063
0.0194074
0.029263
0.0365847
0.0398048
0.0389194
0.0318451
0.0192839
0.0132365
0.015422
0.0251206
0.0476344
0.0687101
0.0721799
0.0596558
0.0367309
0.00934794
-0.0147279
-0.0246628
-0.000515776
0.0835151
0.212233
0.286404
0.29301
0.259866
0.228969
0.233205
0.209278
0.220138
0.182482
0.196604
0.150246
0.166937
0.11477
0.132656
0.0189076
0.0364087
-0.0070277
0.00414821
-0.0316898
-0.0321808
-0.03213
-0.0348703
-0.0250109
-0.0289412
0.00840213
-0.00838725
-0.0136755
-0.0223481
0.132005
0.111067
0.0572926
0.0853543
0.150827
0.155554
0.153024
0.146337
0.159746
0.170059
0.186947
0.203007
0.226459
0.201508
0.193858
0.195678
0.392258
0.300599
0.343609
0.262654
0.589474
0.546355
0.442798
0.495502
0.655798
0.684152
0.689649
0.635572
0.698987
0.459404
0.455868
0.571123
0.694315
0.669426
0.523978
0.501364
0.422726
0.467908
0.497457
0.0434532
-0.0359925
0.00484524
0.196275
0.0657292
0.00230259
0.00593545
0.0101016
0.0157902
0.0245617
0.0324891
0.036113
0.0358778
0.0291923
0.0172026
0.0108372
0.011629
0.018131
0.0400934
0.0695924
0.0799584
0.0718706
0.0508401
0.0217897
-0.00517521
-0.0213314
-0.00528514
0.0612189
0.181949
0.2657
0.285961
0.265655
0.210588
0.221894
0.192331
0.201338
0.165248
0.179621
0.131982
0.149352
0.0940963
0.113385
0.0550015
0.0743248
-0.0240137
-0.0156192
-0.031459
-0.0289646
-0.0371396
-0.038974
-0.0349734
-0.0375841
-0.0264045
-0.0286942
-0.0320351
0.0300902
0.00553231
-0.00488475
-0.0207273
0.184583
0.156711
0.0875054
0.123447
0.215317
0.219077
0.215107
0.204385
0.211979
0.233716
0.256908
0.276089
0.238026
0.231357
0.234653
0.254994
0.393671
0.304338
0.353107
0.278879
0.59682
0.549348
0.450832
0.498885
0.679204
0.720546
0.718078
0.649594
0.742593
0.480763
0.460322
0.626279
0.745796
0.723738
0.566877
0.499347
0.412509
0.464296
0.489505
0.0286711
-0.0758747
-0.029644
0.171653
0.0530963
0.00256078
0.00666267
0.0118853
0.0195174
0.027753
0.0318709
0.0325761
0.026563
0.0158425
0.00976996
0.00982659
0.013395
0.0305282
0.0649581
0.0838172
0.082435
0.0661226
0.03506
0.00349909
-0.0147353
-0.00708402
0.0514526
0.1546
0.244485
0.277293
0.267621
0.215158
0.17085
0.178976
0.146011
0.159812
0.112907
0.130114
0.0751676
0.0946326
0.0354006
0.0552649
-0.00202106
0.0154995
-0.0403633
-0.0383514
-0.0403024
-0.0408456
-0.0400184
-0.0420708
-0.0368834
-0.0380546
-0.0404736
-0.0273604
-0.030395
-0.0355217
-0.0340341
0.0524291
0.0208953
0.00552829
-0.0170219
0.238232
0.202557
0.117224
0.161055
0.287929
0.28853
0.28191
0.265524
0.281674
0.31065
0.336235
0.354756
0.271795
0.279033
0.300003
0.330338
0.410745
0.327089
0.384436
0.319458
0.607281
0.560952
0.478094
0.516128
0.700458
0.752621
0.745769
0.667621
0.77993
0.504089
0.463514
0.677374
0.788114
0.767617
0.605994
0.494167
0.399817
0.459358
0.478518
-0.00153565
-0.127055
-0.0837236
0.151955
0.0287175
0.0028648
0.00766537
0.0141458
0.0224002
0.0269832
0.0288431
0.0241672
0.0144951
0.00936598
0.00903257
0.0107793
0.0217183
0.0514089
0.0841294
0.0892835
0.0817366
0.0548452
0.0215525
-0.00212121
-0.00256145
0.0479727
0.137417
0.223063
0.266155
0.265593
0.226518
0.149869
0.163207
0.124826
0.136651
0.093491
0.110206
0.0567798
0.0755416
0.0174131
0.0373944
-0.0167186
-0.00104657
-0.0341962
-0.0272851
-0.0456524
-0.0456417
-0.043796
-0.0449601
-0.0424996
-0.0443665
-0.0383217
-0.0394335
-0.0420806
-0.0432495
-0.0270421
-0.0316737
-0.037117
-0.0354259
0.0747695
0.0367583
0.013358
-0.0126038
0.290014
0.245209
0.142253
0.194505
0.363048
0.359558
0.349116
0.325029
0.363674
0.394444
0.41847
0.434034
0.326884
0.348772
0.38059
0.416476
0.451772
0.376602
0.441741
0.379177
0.628181
0.589168
0.530982
0.555807
0.726189
0.784221
0.776136
0.696322
0.813608
0.52543
0.465779
0.717996
0.820409
0.80002
0.637271
0.484647
0.386027
0.450439
0.462935
-0.0436194
-0.179879
-0.133604
0.135455
0.0107424
0.00315991
0.00890936
0.016063
0.0217337
0.0246008
0.0216611
0.0132753
0.00887207
0.00855209
0.00955213
0.0156095
0.0362071
0.0742828
0.0920812
0.0924061
0.0783474
0.0509947
0.0220845
0.0114356
0.0513164
0.131639
0.206319
0.25364
0.261332
0.232676
0.156746
0.101601
0.112975
0.0722036
0.0873843
0.037207
0.0555392
0.00132072
0.0189393
-0.0258092
-0.0143585
-0.0394677
-0.0339731
-0.0447745
-0.0428758
-0.0479211
-0.0480568
-0.0460801
-0.0472024
-0.0443474
-0.0454651
-0.0474117
-0.0395593
-0.0407831
-0.0423788
-0.0439397
-0.0264897
-0.0325016
-0.0382434
-0.0362938
0.0925867
0.0489347
0.0181289
-0.00909962
0.339083
0.284796
0.162126
0.223868
0.436701
0.430188
0.413139
0.382649
0.450771
0.479182
0.499119
0.509276
0.402269
0.433645
0.470579
0.506691
0.517866
0.440999
0.512973
0.458989
0.666156
0.638709
0.603192
0.61627
0.760081
0.817378
0.811022
0.73896
0.843079
0.541414
0.464249
0.748876
0.846431
0.825423
0.660965
0.470185
0.374519
0.436318
0.441143
-0.0676163
-0.198146
-0.118192
0.136096
0.016639
0.00331744
0.00997825
0.0159223
0.0198407
0.0187451
0.0121014
0.00800186
0.00804455
0.00881145
0.0121919
0.0243711
0.0530017
0.0870566
0.097037
0.0954734
0.0812101
0.0568356
0.0417919
0.065246
0.131406
0.198177
0.242292
0.254718
0.233918
0.168249
0.0524419
0.0488173
0.0605858
0.0162082
0.0324464
-0.0122737
0.000585694
-0.0303124
-0.0224323
-0.0406022
-0.036248
-0.0456802
-0.0436357
-0.0477155
-0.0469804
-0.0497414
-0.049611
-0.048415
-0.0491599
-0.0453525
-0.0464726
-0.0500181
-0.0489723
-0.0395636
-0.0408721
-0.0403767
-0.0427078
-0.0256143
-0.0328008
-0.0380803
-0.0359512
0.105052
0.0564711
0.0194991
-0.00745994
0.388898
0.325161
0.180243
0.253288
0.507369
0.498289
0.476392
0.439531
0.537676
0.561057
0.576412
0.582953
0.488278
0.525153
0.563123
0.595758
0.595679
0.52273
0.599779
0.546676
0.717923
0.701939
0.683136
0.689337
0.800044
0.848332
0.845016
0.786923
0.867336
0.551312