/*--------------------------------*- C++ -*----------------------------------*\
  =========                 |
  \\      /  F ield         | OpenFOAM: The Open Source CFD Toolbox
   \\    /   O peration     | Website:  https://openfoam.org
    \\  /    A nd           | Version:  dev
     \\/     M anipulation  |
\*---------------------------------------------------------------------------*/
FoamFile
{
    version     2.0;
    format      ascii;
    class       surfaceScalarField;
    location    "2500";
    object      phi;
}
// * * * * * * * * * * * * * * * * * * * * * * * * * * * * * * * * * * * * * //

dimensions      [1 0 -1 0 0 0 0];

internalField   nonuniform List<scalar> 
19533
(
1.74082e-07
1.29685e-07
1.51575e-07
3.34421e-07
5.03424e-07
1.19039e-07
1.25201e-07
4.76507e-07
4.97895e-07
3.39936e-07
7.46138e-07
1.02267e-07
1.05632e-07
5.88282e-07
4.64066e-07
5.10313e-07
7.68976e-07
3.1709e-07
9.43949e-07
8.91144e-08
9.09452e-08
6.81538e-07
4.10324e-07
6.41995e-07
7.73328e-07
5.05913e-07
9.78184e-07
2.82804e-07
1.12165e-06
8.0385e-08
7.72627e-08
7.6518e-07
3.49822e-07
7.41994e-07
7.51274e-07
6.64004e-07
1.01249e-06
4.71611e-07
1.14991e-06
2.5453e-07
1.28725e-06
7.36298e-08
6.64998e-08
8.41525e-07
2.95189e-07
8.19774e-07
7.04175e-07
7.89043e-07
1.02987e-06
6.46615e-07
1.19276e-06
4.28786e-07
1.30834e-06
2.3339e-07
1.44102e-06
6.80614e-08
5.82989e-08
9.1346e-07
2.50487e-07
8.86149e-07
6.40657e-07
8.83189e-07
1.02124e-06
7.97605e-07
1.23668e-06
6.02627e-07
1.34507e-06
3.92047e-07
1.45871e-06
2.15666e-07
1.58584e-06
6.33227e-08
5.19374e-08
9.81045e-07
2.17824e-07
9.46067e-07
5.72082e-07
9.54567e-07
9.86245e-07
9.18112e-07
1.26769e-06
7.66509e-07
1.39394e-06
5.53734e-07
1.48694e-06
3.63658e-07
1.6005e-06
2.0099e-07
1.72084e-06
5.93625e-08
4.71741e-08
1.04296e-06
1.94887e-07
1.0039e-06
5.05693e-07
1.01234e-06
9.29875e-07
1.01091e-06
1.27435e-06
9.11399e-07
1.44586e-06
7.14548e-07
1.52892e-06
5.11772e-07
1.62484e-06
3.39292e-07
1.73342e-06
1.88363e-07
1.84923e-06
5.59894e-08
4.32425e-08
1.10066e-06
1.76267e-07
1.06157e-06
4.48828e-07
1.06068e-06
8.5948e-07
1.08265e-06
1.25326e-06
1.03195e-06
1.4884e-06
8.6881e-07
1.58329e-06
6.60168e-07
1.65867e-06
4.77895e-07
1.75443e-06
3.1823e-07
1.86016e-06
1.77421e-07
1.9706e-06
5.27917e-08
3.99328e-08
1.15342e-06
1.61601e-07
1.11524e-06
4.06267e-07
1.10393e-06
7.83955e-07
1.13598e-06
1.20815e-06
1.12769e-06
1.50991e-06
1.01038e-06
1.64192e-06
8.10173e-07
1.70454e-06
6.14289e-07
1.78326e-06
4.4905e-07
1.87799e-06
3.00397e-07
1.98028e-06
1.67771e-07
2.08605e-06
4.99588e-08
3.65792e-08
1.2009e-06
1.49634e-07
1.16534e-06
3.72595e-07
1.14869e-06
7.1077e-07
1.17703e-06
1.1455e-06
1.19856e-06
1.50516e-06
1.13239e-06
1.69474e-06
9.57501e-07
1.76138e-06
7.53305e-07
1.82153e-06
5.75984e-07
1.90289e-06
4.24123e-07
1.99632e-06
2.84326e-07
2.09501e-06
1.58804e-07
2.19603e-06
4.73116e-08
3.38053e-08
1.24212e-06
1.39871e-07
1.21055e-06
3.45128e-07
1.19268e-06
6.47449e-07
1.21191e-06
1.07213e-06
1.25025e-06
1.47475e-06
1.2289e-06
1.7301e-06
1.09698e-06
1.82454e-06
8.9432e-07
1.87133e-06
7.03493e-07
1.93659e-06
5.42198e-07
2.01925e-06
4.01164e-07
2.11019e-06
2.69138e-07
2.20483e-06
1.49975e-07
2.30029e-06
4.49476e-08
3.14153e-08
1.27824e-06
1.30311e-07
1.25157e-06
3.21892e-07
1.23364e-06
5.95303e-07
1.24462e-06
9.94825e-07
1.28911e-06
1.4235e-06
1.30143e-06
1.74203e-06
1.21689e-06
1.88563e-06
1.03577e-06
1.93112e-06
8.34445e-07
1.97866e-06
6.61212e-07
2.04852e-06
5.12847e-07
2.13055e-06
3.80722e-07
2.21861e-06
2.5532e-07
2.30802e-06
1.42254e-07
2.40042e-06
4.24223e-08
2.88171e-08
1.31031e-06
1.20194e-07
1.28834e-06
2.99916e-07
1.27344e-06
5.51711e-07
1.27705e-06
9.19476e-07
1.31984e-06
1.35757e-06
1.35491e-06
1.72881e-06
1.31462e-06
1.93416e-06
1.16832e-06
1.99717e-06
9.69637e-07
2.03e-06
7.83169e-07
2.08478e-06
6.24823e-07
2.1571e-06
4.86216e-07
2.23777e-06
3.61504e-07
2.32148e-06
2.41836e-07
2.40811e-06
1.34599e-07
2.4955e-06
4.00736e-08
2.60403e-08
1.33681e-06
1.11578e-07
1.31881e-06
2.79232e-07
1.30873e-06
5.17357e-07
1.30744e-06
8.51093e-07
1.34527e-06
1.28307e-06
1.39421e-06
1.69224e-06
1.39137e-06
1.96289e-06
1.28584e-06
2.06459e-06
1.10088e-06
2.09104e-06
9.08535e-07
2.12926e-06
7.38645e-07
2.1898e-06
5.92046e-07
2.26231e-06
4.61603e-07
2.3394e-06
3.43529e-07
2.42077e-06
2.29143e-07
2.50322e-06
1.26873e-07
2.58586e-06
3.76419e-08
2.29915e-08
1.3566e-06
1.02908e-07
1.34535e-06
2.59634e-07
1.33834e-06
4.90701e-07
1.33529e-06
7.91019e-07
1.36742e-06
1.2049e-06
1.42331e-06
1.63693e-06
1.44944e-06
1.96786e-06
1.38635e-06
2.12415e-06
1.22623e-06
2.15967e-06
1.03221e-06
2.1813e-06
8.56453e-07
2.22796e-06
7.00342e-07
2.29186e-06
5.62429e-07
2.36269e-06
4.38268e-07
2.43826e-06
3.25987e-07
2.51565e-06
2.16694e-07
2.59333e-06
1.19393e-07
2.67141e-06
3.5243e-08
2.08603e-08
1.37012e-06
9.24324e-08
1.36689e-06
2.42752e-07
1.36207e-06
4.67053e-07
1.36162e-06
7.37926e-07
1.38825e-06
1.12689e-06
1.44533e-06
1.56902e-06
1.49113e-06
1.94865e-06
1.46859e-06
2.16795e-06
1.34251e-06
2.23117e-06
1.15471e-06
2.24227e-06
9.71196e-07
2.27333e-06
8.11065e-07
2.32669e-06
6.65416e-07
2.39088e-06
5.34133e-07
2.46015e-06
4.16235e-07
2.53252e-06
3.08997e-07
2.60588e-06
2.0411e-07
2.67907e-06
1.11739e-07
2.75193e-06
3.26832e-08
1.84455e-08
1.37611e-06
8.24265e-08
1.37987e-06
2.2905e-07
1.38035e-06
4.42158e-07
1.38675e-06
6.92505e-07
1.40707e-06
1.05311e-06
1.46187e-06
1.49388e-06
1.52036e-06
1.90783e-06
1.53187e-06
2.19071e-06
1.44577e-06
2.29874e-06
1.27489e-06
2.31157e-06
1.08533e-06
2.32623e-06
9.18228e-07
2.3666e-06
7.71074e-07
2.42331e-06
6.32884e-07
2.48682e-06
5.07418e-07
2.55471e-06
3.94043e-07
2.62296e-06
2.9183e-07
2.69213e-06
1.91039e-07
2.76032e-06
1.03335e-07
2.82775e-06
3.00011e-08
1.59153e-08
1.37365e-06
7.37728e-08
1.38467e-06
2.15809e-07
1.39301e-06
4.15873e-07
1.40642e-06
6.56619e-07
1.42248e-06
9.85257e-07
1.47459e-06
1.41505e-06
1.54057e-06
1.8505e-06
1.5776e-06
2.18998e-06
1.53256e-06
2.35512e-06
1.38938e-06
2.38524e-06
1.20117e-06
2.38715e-06
1.02438e-06
2.4125e-06
8.72263e-07
2.46008e-06
7.34202e-07
2.51758e-06
6.02036e-07
2.58063e-06
4.81392e-07
2.64478e-06
3.72198e-07
2.7098e-06
2.74093e-07
2.77387e-06
1.77462e-07
2.83666e-06
9.44326e-08
2.89764e-06
2.69818e-08
1.35631e-08
1.36264e-06
6.69011e-08
1.38035e-06
2.02637e-07
1.39754e-06
3.94049e-07
1.41461e-06
6.26461e-07
1.43632e-06
9.22918e-07
1.48464e-06
1.33524e-06
1.55429e-06
1.78215e-06
1.60884e-06
2.16674e-06
1.60078e-06
2.39408e-06
1.49357e-06
2.45844e-06
1.31621e-06
2.45559e-06
1.13271e-06
2.46529e-06
9.71544e-07
2.50149e-06
8.30768e-07
2.55213e-06
6.99538e-07
2.61052e-06
5.7205e-07
2.67108e-06
4.54957e-07
2.73214e-06
3.49792e-07
2.79252e-06
2.55399e-07
2.85122e-06
1.6288e-07
2.90745e-06
8.46223e-08
2.96166e-06
2.37453e-08
1.12852e-08
1.34415e-06
6.01258e-08
1.36929e-06
1.88782e-07
1.394e-06
3.73882e-07
1.4175e-06
5.95465e-07
1.44535e-06
8.67404e-07
1.49177e-06
1.25622e-06
1.56351e-06
1.70694e-06
1.62939e-06
2.12396e-06
1.65155e-06
2.41183e-06
1.58299e-06
2.52441e-06
1.42758e-06
2.52913e-06
1.24263e-06
2.52501e-06
1.07292e-06
2.54824e-06
9.24751e-07
2.59111e-06
7.91679e-07
2.64387e-06
6.66054e-07
2.70111e-06
5.4193e-07
2.75862e-06
4.28379e-07
2.81624e-06
3.25983e-07
2.87151e-06
2.3508e-07
2.92373e-06
1.46586e-07
2.9722e-06
7.40606e-08
3.01885e-06
1.98851e-08
9.3836e-09
1.3169e-06
5.39185e-08
1.35029e-06
1.75445e-07
1.38243e-06
3.53035e-07
1.41465e-06
5.63617e-07
1.44919e-06
8.19571e-07
1.4931e-06
1.18035e-06
1.56751e-06
1.6279e-06
1.64244e-06
2.06673e-06
1.68653e-06
2.40728e-06
1.65605e-06
2.57671e-06
1.53066e-06
2.60417e-06
1.35253e-06
2.59123e-06
1.17632e-06
2.60024e-06
1.02081e-06
2.63371e-06
8.82065e-07
2.68058e-06
7.54868e-07
2.73389e-06
6.33167e-07
2.789e-06
5.11468e-07
2.84438e-06
4.0013e-07
2.89681e-06
3.00561e-07
2.94551e-06
2.13246e-07
2.99028e-06
1.28511e-07
3.03107e-06
6.1835e-08
3.07118e-06
1.67531e-08
7.68477e-09
1.28092e-06
4.85187e-08
1.32212e-06
1.64512e-07
1.36091e-06
3.32987e-07
1.4023e-06
5.32967e-07
1.44514e-06
7.76533e-07
1.4921e-06
1.10978e-06
1.56354e-06
1.54706e-06
1.64822e-06
1.99933e-06
1.70976e-06
2.38203e-06
1.71171e-06
2.61084e-06
1.6219e-06
2.6754e-06
1.45943e-06
2.66269e-06
1.2811e-06
2.65786e-06
1.11863e-06
2.68016e-06
9.74291e-07
2.72048e-06
8.42048e-07
2.76996e-06
7.18658e-07
2.8224e-06
5.99573e-07
2.87602e-06
4.79699e-07
2.92655e-06
3.70291e-07
2.9731e-06
2.72901e-07
3.01511e-06
1.88381e-07
3.05121e-06
1.08372e-07
3.08406e-06
4.89565e-08
3.11971e-06
1.16454e-08
5.79352e-09
1.23704e-06
4.40022e-08
1.28528e-06
1.55156e-07
1.33131e-06
3.13054e-07
1.38066e-06
5.03002e-07
1.43209e-06
7.35611e-07
1.48592e-06
1.04609e-06
1.55563e-06
1.4671e-06
1.64336e-06
1.92523e-06
1.72221e-06
2.33985e-06
1.75186e-06
2.62421e-06
1.69829e-06
2.73759e-06
1.55968e-06
2.73679e-06
1.38529e-06
2.72062e-06
1.21832e-06
2.7305e-06
1.06819e-06
2.76319e-06
9.31469e-07
2.80852e-06
8.03385e-07
2.85886e-06
6.82091e-07
2.91084e-06
5.64609e-07
2.95997e-06
4.46065e-07
3.00554e-06
3.3776e-07
3.04559e-06
2.42308e-07
3.0788e-06
1.60748e-07
3.10614e-06
8.62806e-08
3.13592e-06
3.276e-08
3.15006e-06
5.69116e-09
4.28672e-09
1.18443e-06
4.26698e-08
1.23836e-06
1.47457e-07
1.29281e-06
2.95148e-07
1.34905e-06
4.73851e-07
1.40966e-06
6.96044e-07
1.4715e-06
9.89275e-07
1.54258e-06
1.3899e-06
1.63267e-06
1.8477e-06
1.72076e-06
2.28472e-06
1.77723e-06
2.61624e-06
1.75979e-06
2.784e-06
1.65186e-06
2.80907e-06
1.48738e-06
2.78765e-06
1.31818e-06
2.78527e-06
1.16356e-06
2.80879e-06
1.02253e-06
2.84932e-06
8.90561e-07
2.89723e-06
7.6486e-07
2.94805e-06
6.44761e-07
2.99652e-06
5.28002e-07
3.04217e-06
4.09272e-07
3.08156e-06
3.01704e-07
3.11369e-06
2.07323e-07
3.13734e-06
1.29522e-07
3.16303e-06
5.91592e-08
3.16982e-06
1.30198e-08
3.1699e-06
-6.30144e-10
3.68358e-09
1.12353e-06
4.24501e-08
1.18448e-06
1.41855e-07
1.24379e-06
2.79635e-07
1.30815e-06
4.45317e-07
1.37743e-06
6.58129e-07
1.44743e-06
9.38131e-07
1.52249e-06
1.31709e-06
1.61522e-06
1.76908e-06
1.71117e-06
2.21953e-06
1.78584e-06
2.5902e-06
1.80322e-06
2.81186e-06
1.73187e-06
2.87441e-06
1.5865e-06
2.85681e-06
1.41827e-06
2.84314e-06
1.26029e-06
2.85671e-06
1.11557e-06
2.8914e-06
9.8036e-07
2.93666e-06
8.51042e-07
2.98691e-06
7.25869e-07
3.03592e-06
6.05203e-07
3.08223e-06
4.87812e-07
3.12184e-06
3.68887e-07
3.15374e-06
2.61587e-07
3.17678e-06
1.67795e-07
3.1997e-06
9.28454e-08
3.20157e-06
2.73916e-08
3.19217e-06
-9.23789e-09
3.17647e-06
-8.4788e-09
4.8131e-09
1.05461e-06
4.36321e-08
1.12217e-06
1.39875e-07
1.18632e-06
2.64715e-07
1.25855e-06
4.18665e-07
1.33466e-06
6.2222e-07
1.4132e-06
8.911e-07
1.49432e-06
1.24952e-06
1.58991e-06
1.691e-06
1.69316e-06
2.14717e-06
1.7834e-06
2.54975e-06
1.82619e-06
2.81924e-06
1.79579e-06
2.92777e-06
1.67846e-06
2.92467e-06
1.51863e-06
2.90372e-06
1.35765e-06
2.90673e-06
1.21025e-06
2.93467e-06
1.07226e-06
2.97712e-06
9.39848e-07
3.02686e-06
8.10934e-07
3.07724e-06
6.84422e-07
3.12467e-06
5.62595e-07
3.16554e-06
4.43939e-07
3.19854e-06
3.23952e-07
3.22277e-06
2.15506e-07
3.24429e-06
1.23091e-07
3.2443e-06
5.0019e-08
3.22983e-06
-1.02564e-08
3.20217e-06
-3.49306e-08
3.1648e-06
-1.84512e-08
6.89994e-09
9.79648e-07
4.72039e-08
1.05089e-06
1.3957e-07
1.12228e-06
2.51647e-07
1.19927e-06
3.9438e-07
1.28272e-06
5.88092e-07
1.36867e-06
8.47553e-07
1.45661e-06
1.18786e-06
1.55582e-06
1.61518e-06
1.66552e-06
2.07135e-06
1.76883e-06
2.49648e-06
1.83658e-06
2.80771e-06
1.8376e-06
2.96656e-06
1.75698e-06
2.98842e-06
1.61468e-06
2.96552e-06
1.45667e-06
2.95852e-06
1.30565e-06
2.9795e-06
1.16534e-06
3.01835e-06
1.03087e-06
3.06722e-06
8.99362e-07
3.11901e-06
7.69012e-07
3.16847e-06
6.4049e-07
3.21236e-06
5.15622e-07
3.2474e-06
3.94925e-07
3.27394e-06
2.72644e-07
3.29577e-06
1.63948e-07
3.29707e-06
7.03063e-08
3.27998e-06
-1.3964e-10
3.24523e-06
-5.3281e-08
3.19628e-06
-6.6394e-08
3.13221e-06
-3.08999e-08
9.48465e-09
8.99303e-07
5.29343e-08
9.73799e-07
1.38884e-07
1.05148e-06
2.41912e-07
1.13194e-06
3.71788e-07
1.22177e-06
5.56608e-07
1.3141e-06
8.07497e-07
1.40862e-06
1.13169e-06
1.51262e-06
1.54233e-06
1.6285e-06
1.99404e-06
1.74271e-06
2.43169e-06
1.83349e-06
2.78099e-06
1.8633e-06
2.98419e-06
1.81992e-06
3.04424e-06
1.70117e-06
3.02631e-06
1.55387e-06
3.01123e-06
1.40403e-06
3.02423e-06
1.26088e-06
3.05949e-06
1.12416e-06
3.10762e-06
9.90404e-07
3.16084e-06
8.57434e-07
3.21291e-06
7.24432e-07
3.26045e-06
5.92252e-07
3.29947e-06
4.63388e-07
3.32925e-06
3.39457e-07
3.35263e-06
2.15563e-07
3.35812e-06
1.028e-07
3.34097e-06
9.2301e-09
3.30489e-06
-5.98619e-08
3.24605e-06
-1.03038e-07
3.16966e-06
-1.03819e-07
3.07447e-06
-4.54322e-08
1.27051e-08
8.14017e-07
6.1754e-08
8.90377e-07
1.40317e-07
9.72312e-07
2.34706e-07
1.05863e-06
3.52436e-07
1.15123e-06
5.29141e-07
1.24917e-06
7.7152e-07
1.34996e-06
1.08119e-06
1.45895e-06
1.4741e-06
1.58068e-06
1.91734e-06
1.70502e-06
2.35915e-06
1.81512e-06
2.73908e-06
1.87533e-06
2.98237e-06
1.86507e-06
3.08496e-06
1.77914e-06
3.08338e-06
1.64415e-06
3.0637e-06
1.50131e-06
3.06829e-06
1.35983e-06
3.09965e-06
1.22064e-06
3.1468e-06
1.08488e-06
3.20165e-06
9.49475e-07
3.25703e-06
8.1315e-07
3.30871e-06
6.76039e-07
3.35344e-06
5.38135e-07
3.3877e-06
4.04772e-07
3.41395e-06
2.77891e-07
3.42588e-06
1.4768e-07
3.41146e-06
3.22042e-08
3.37708e-06
-6.30018e-08
3.31622e-06
-1.30052e-07
3.22862e-06
-1.61989e-07
3.11828e-06
-1.47586e-07
2.98991e-06
-6.27678e-08
1.72042e-08
7.24916e-07
7.37531e-08
8.0194e-07
1.44247e-07
8.86387e-07
2.29427e-07
9.77549e-07
3.39275e-07
1.07177e-06
5.06465e-07
1.17385e-06
7.4035e-07
1.28025e-06
1.03633e-06
1.39466e-06
1.41052e-06
1.52236e-06
1.84198e-06
1.65583e-06
2.2827e-06
1.78134e-06
2.68204e-06
1.87207e-06
2.96528e-06
1.89234e-06
3.10585e-06
1.84416e-06
3.13227e-06
1.73021e-06
3.11291e-06
1.59501e-06
3.1116e-06
1.45804e-06
3.13834e-06
1.32106e-06
3.18434e-06
1.18304e-06
3.24081e-06
1.04563e-06
3.30002e-06
9.06387e-07
3.35663e-06
7.6502e-07
3.40723e-06
6.22059e-07
3.44743e-06
4.78177e-07
3.47775e-06
3.40957e-07
3.49822e-06
2.05424e-07
3.49015e-06
6.89023e-08
3.45979e-06
-5.05822e-08
3.40242e-06
-1.49251e-07
3.31402e-06
-2.15466e-07
3.19251e-06
-2.36209e-07
3.03941e-06
-1.97053e-07
2.87358e-06
-2.44311e-08
-5.68481e-08
2.32432e-08
6.34791e-07
8.58878e-08
7.12752e-07
1.49623e-07
7.96562e-07
2.26977e-07
8.8884e-07
3.32037e-07
9.84774e-07
4.8969e-07
1.08851e-06
7.14418e-07
1.1997e-06
9.9743e-07
1.31904e-06
1.3529e-06
1.45213e-06
1.77005e-06
1.59409e-06
2.20483e-06
1.73359e-06
2.61275e-06
1.85047e-06
2.93308e-06
1.90421e-06
3.1072e-06
1.89094e-06
3.16617e-06
1.81025e-06
3.15729e-06
1.68577e-06
3.15252e-06
1.55408e-06
3.17439e-06
1.42191e-06
3.21942e-06
1.28585e-06
3.27754e-06
1.1461e-06
3.34133e-06
1.00419e-06
3.40328e-06
8.5963e-07
3.45966e-06
7.12247e-07
3.507e-06
5.62323e-07
3.5433e-06
4.12499e-07
3.57438e-06
2.6462e-07
3.57453e-06
1.20893e-07
3.55176e-06
-2.3202e-08
3.50162e-06
-1.49872e-07
3.41627e-06
-2.51554e-07
3.29487e-06
-3.17835e-07
3.13514e-06
-3.31918e-07
2.93169e-06
-1.14541e-07
-1.40574e-07
1.36742e-06
-1.85331e-08
1.37864e-06
-6.80495e-08
3.09454e-08
5.45705e-07
9.79876e-08
6.22657e-07
1.58914e-07
7.03505e-07
2.28821e-07
7.94744e-07
3.29791e-07
8.91114e-07
4.79946e-07
9.94508e-07
6.94206e-07
1.10866e-06
9.65114e-07
1.23192e-06
1.3018e-06
1.36999e-06
1.70246e-06
1.51951e-06
2.1274e-06
1.67141e-06
2.53707e-06
1.80919e-06
2.88208e-06
1.9014e-06
3.09212e-06
1.91924e-06
3.18059e-06
1.8765e-06
3.19245e-06
1.77515e-06
3.18771e-06
1.65054e-06
3.2059e-06
1.52246e-06
3.25108e-06
1.39027e-06
3.3114e-06
1.25205e-06
3.37931e-06
1.1079e-06
3.44775e-06
9.5958e-07
3.5111e-06
8.08175e-07
3.56568e-06
6.53428e-07
3.60899e-06
4.96385e-07
3.65086e-06
3.35829e-07
3.66274e-06
1.76201e-07
3.65109e-06
2.13882e-08
3.6118e-06
-1.33523e-07
3.53724e-06
-2.70928e-07
3.41816e-06
-3.74902e-07
3.24895e-06
-2.02546e-07
-2.29116e-07
1.51262e-06
-1.97957e-07
1.51079e-06
-2.25638e-07
1.38445e-06
-1.20346e-07
1.41147e-06
-1.67572e-07
1.32421e-06
-1.78133e-08
1.3315e-06
-7.53251e-08
3.96023e-08
4.60614e-07
1.10086e-07
5.33643e-07
1.71702e-07
6.09954e-07
2.35686e-07
6.96715e-07
3.32905e-07
7.91681e-07
4.77734e-07
8.93351e-07
6.80915e-07
1.00777e-06
9.39778e-07
1.13391e-06
1.25807e-06
1.27549e-06
1.64036e-06
1.4319e-06
2.0523e-06
1.5945e-06
2.45773e-06
1.75061e-06
2.81442e-06
1.87673e-06
3.0604e-06
1.93307e-06
3.17501e-06
1.9248e-06
3.21175e-06
1.85718e-06
3.21523e-06
1.74761e-06
3.23076e-06
1.62565e-06
3.27587e-06
1.49761e-06
3.34128e-06
1.36028e-06
3.4155e-06
1.21591e-06
3.48914e-06
1.06637e-06
3.55947e-06
9.11063e-07
3.62168e-06
7.51999e-07
3.67413e-06
5.88104e-07
3.72426e-06
4.22776e-07
3.75041e-06
2.47927e-07
3.75334e-06
7.37536e-08
3.72985e-06
-9.68357e-08
3.66977e-06
-2.66192e-07
3.56505e-06
-4.17905e-07
3.40168e-06
-2.54583e-07
-2.73098e-07
1.55201e-06
-2.41939e-07
1.59146e-06
-2.68565e-07
1.4303e-06
-2.16771e-07
1.5402e-06
-2.71347e-07
1.46627e-06
-2.61602e-07
1.34467e-06
-1.33496e-07
1.36571e-06
-1.88593e-07
1.27502e-06
-1.96793e-08
1.28238e-06
-8.26584e-08
4.7185e-08
3.8292e-07
1.22812e-07
4.47936e-07
1.86833e-07
5.18665e-07
2.4666e-07
5.99091e-07
3.40542e-07
6.89159e-07
4.82721e-07
7.86744e-07
6.75858e-07
8.98408e-07
9.22e-07
1.02549e-06
1.22303e-06
1.16883e-06
1.58566e-06
1.33004e-06
1.98169e-06
1.50236e-06
2.37747e-06
1.67462e-06
2.73801e-06
1.82692e-06
3.00636e-06
1.9307e-06
3.15134e-06
1.9567e-06
3.21293e-06
1.92361e-06
3.23036e-06
1.84203e-06
3.24795e-06
1.73041e-06
3.29288e-06
1.60858e-06
3.36412e-06
1.47469e-06
3.44573e-06
1.32992e-06
3.52817e-06
1.1768e-06
3.60579e-06
1.01992e-06
3.67625e-06
8.56314e-07
3.73769e-06
6.88208e-07
3.7952e-06
5.16898e-07
3.83653e-06
3.36407e-07
3.85471e-06
1.46337e-07
3.84885e-06
-4.54512e-08
3.81104e-06
-2.38295e-07
3.72586e-06
-4.27141e-07
3.57892e-06
-2.91298e-07
-3.03946e-07
1.63145e-06
-2.94585e-07
1.67923e-06
-3.20894e-07
1.57707e-06
-3.05425e-07
1.39143e-06
-2.42478e-07
1.50124e-06
-3.06303e-07
1.42509e-06
-2.95246e-07
1.29653e-06
-1.47632e-07
1.31716e-06
-2.092e-07
1.2177e-06
-2.17418e-08
1.22599e-06
-9.0931e-08
5.46758e-08
3.11373e-07
1.38898e-07
3.66964e-07
2.02785e-07
4.32129e-07
2.61765e-07
5.03706e-07
3.54722e-07
5.8503e-07
4.95724e-07
6.76236e-07
6.80219e-07
7.82408e-07
9.13093e-07
9.07285e-07
1.19762e-06
1.0508e-06
1.53962e-06
1.21474e-06
1.91701e-06
1.39458e-06
2.29862e-06
1.58108e-06
2.65577e-06
1.75676e-06
2.93382e-06
1.89939e-06
3.10742e-06
1.97458e-06
3.19482e-06
1.97479e-06
3.22941e-06
1.92455e-06
3.25502e-06
1.83493e-06
3.30082e-06
1.72243e-06
3.37842e-06
1.59422e-06
3.46905e-06
1.45128e-06
3.56205e-06
1.29593e-06
3.6499e-06
1.13256e-06
3.72865e-06
9.67364e-07
3.7988e-06
7.95039e-07
3.86337e-06
6.19795e-07
3.92019e-06
4.32973e-07
3.95274e-06
2.3813e-07
3.96703e-06
2.79628e-08
3.95367e-06
-1.88297e-07
3.89822e-06
-4.10859e-07
3.77726e-06
-3.08493e-07
-3.1715e-07
1.72845e-06
-3.40546e-07
1.78168e-06
-3.57208e-07
1.61984e-06
-3.3736e-07
1.66856e-06
-3.69627e-07
1.54416e-06
-3.48345e-07
1.34485e-06
-2.70148e-07
1.46484e-06
-3.46052e-07
1.37992e-06
-3.30303e-07
1.24052e-06
-1.6214e-07
1.26201e-06
-2.30668e-07
1.15563e-06
-2.35926e-08
1.16407e-06
-9.9353e-08
6.19017e-08
2.48771e-07
1.54606e-07
2.95817e-07
2.19407e-07
3.5048e-07
2.83779e-07
4.10304e-07
3.76643e-07
4.81928e-07
5.16463e-07
5.64402e-07
6.94342e-07
6.62174e-07
9.14375e-07
7.81141e-07
1.1828e-06
9.22043e-07
1.50436e-06
1.08595e-06
1.86105e-06
1.27057e-06
2.22397e-06
1.46911e-06
2.56996e-06
1.66679e-06
2.84923e-06
1.84128e-06
3.04015e-06
1.96663e-06
3.15497e-06
2.01442e-06
3.20781e-06
1.99638e-06
3.24407e-06
1.93547e-06
3.29673e-06
1.83898e-06
3.3816e-06
1.71919e-06
3.48286e-06
1.58033e-06
3.58764e-06
1.42558e-06
3.68727e-06
1.25844e-06
3.77682e-06
1.08425e-06
3.85602e-06
9.09981e-07
3.92638e-06
7.31829e-07
3.9971e-06
5.42678e-07
4.04421e-06
3.41244e-07
4.07683e-06
1.28075e-07
4.09001e-06
-1.08587e-07
4.0679e-06
-3.58192e-07
3.98669e-06
-3.07393e-07
-3.13098e-07
1.83983e-06
-3.66676e-07
1.8978e-06
-3.75167e-07
1.72249e-06
-3.94499e-07
1.78097e-06
-4.15707e-07
1.59391e-06
-3.87117e-07
1.64831e-06
-4.24034e-07
1.51108e-06
-3.94585e-07
1.29118e-06
-2.99289e-07
1.42213e-06
-3.88248e-07
1.32752e-06
-3.66625e-07
1.17853e-06
-1.76572e-07
1.20014e-06
-2.52251e-07
1.0863e-06
-2.59586e-08
1.09528e-06
-1.0831e-07
6.78935e-08
1.97683e-07
1.70027e-07
2.33522e-07
2.40729e-07
2.74676e-07
3.11351e-07
3.23099e-07
4.04386e-07
3.82729e-07
5.45224e-07
4.53305e-07
7.18823e-07
5.40021e-07
9.27163e-07
6.49439e-07
1.17988e-06
7.84054e-07
1.48135e-06
9.44982e-07
1.81583e-06
1.13106e-06
2.15618e-06
1.33826e-06
2.48355e-06
1.55542e-06
2.75518e-06
1.76078e-06
2.95214e-06
1.92925e-06
3.0893e-06
2.03228e-06
3.16243e-06
2.05981e-06
3.21059e-06
2.02986e-06
3.2758e-06
1.95638e-06
3.37091e-06
1.84962e-06
3.48516e-06
1.71681e-06
3.60468e-06
1.56319e-06
3.71858e-06
1.39415e-06
3.82116e-06
1.21397e-06
3.91081e-06
1.02931e-06
3.98883e-06
8.47347e-07
4.06843e-06
6.60219e-07
4.12735e-06
4.59381e-07
4.17445e-06
2.43368e-07
4.21062e-06
7.22866e-09
4.23143e-06
-2.72377e-07
4.19961e-06
-2.85726e-07
-2.8564e-07
1.96245e-06
-3.72095e-07
2.02267e-06
-3.73374e-07
1.84459e-06
-4.30337e-07
1.91114e-06
-4.41757e-07
1.70866e-06
-4.54871e-07
1.77364e-06
-4.80707e-07
1.56463e-06
-4.40668e-07
1.62475e-06
-4.84164e-07
1.47195e-06
-4.444e-07
1.23004e-06
-3.29165e-07
1.37246e-06
-4.33185e-07
1.26781e-06
-4.04372e-07
1.10957e-06
-1.90825e-07
1.1318e-06
-2.74458e-07
1.01294e-06
-2.93299e-08
1.02021e-06
-1.1555e-07
7.2499e-08
1.59941e-07
1.8711e-07
1.80813e-07
2.66506e-07
2.07944e-07
3.42486e-07
2.43776e-07
4.39208e-07
2.88487e-07
5.82915e-07
3.45207e-07
7.53713e-07
4.18558e-07
9.52279e-07
5.15003e-07
1.19008e-06
6.39267e-07
1.47234e-06
7.93023e-07
1.78407e-06
9.76665e-07
2.09879e-06
1.18836e-06
2.40071e-06
1.42101e-06
2.65512e-06
1.65542e-06
2.84761e-06
1.86528e-06
2.997e-06
2.02154e-06
3.08982e-06
2.10489e-06
3.15385e-06
2.11655e-06
3.23262e-06
2.07302e-06
3.34197e-06
1.98527e-06
3.4739e-06
1.86079e-06
3.61268e-06
1.70871e-06
3.74496e-06
1.5367e-06
3.86291e-06
1.35227e-06
3.96488e-06
1.15977e-06
4.05238e-06
9.65613e-07
4.13941e-06
7.76112e-07
4.204e-06
5.83235e-07
4.2647e-06
3.68976e-07
4.31964e-06
1.34129e-07
4.3742e-06
-1.3578e-07
4.39861e-06
-2.39128e-07
-2.32524e-07
2.09455e-06
-3.57676e-07
2.15633e-06
-3.4749e-07
1.9837e-06
-4.44698e-07
2.05815e-06
-4.47878e-07
1.84591e-06
-5.02646e-07
1.92414e-06
-5.20022e-07
1.69141e-06
-5.21551e-07
1.766e-06
-5.55331e-07
1.53021e-06
-4.98938e-07
1.59547e-06
-5.49437e-07
1.42513e-06
-4.97061e-07
1.16097e-06
-3.58305e-07
1.31397e-06
-4.79338e-07
1.19883e-06
-4.42214e-07
1.03424e-06
-2.04819e-07
1.0545e-06
-2.94679e-07
9.31479e-07
-3.11679e-08
9.38758e-07
-1.22795e-07
7.55624e-08
1.38255e-07
2.0374e-07
1.43513e-07
2.93681e-07
1.53865e-07
3.77919e-07
1.72748e-07
4.81475e-07
2.01747e-07
6.28545e-07
2.43056e-07
7.98559e-07
3.0054e-07
9.90221e-07
3.80762e-07
1.21477e-06
4.90404e-07
1.47921e-06
6.32416e-07
1.76819e-06
8.08863e-07
2.05502e-06
1.02036e-06
2.32588e-06
1.26312e-06
2.55319e-06
1.52288e-06
2.7305e-06
1.77251e-06
2.8805e-06
1.98178e-06
2.98445e-06
2.12693e-06
3.06424e-06
2.19453e-06
3.15841e-06
2.19077e-06
3.28714e-06
2.12783e-06
3.4418e-06
2.01731e-06
3.60401e-06
1.86937e-06
3.75935e-06
1.69422e-06
3.89824e-06
1.50125e-06
4.01757e-06
1.29944e-06
4.11689e-06
1.09512e-06
4.20704e-06
8.97799e-07
4.28211e-06
6.97747e-07
4.34988e-06
4.97692e-07
4.41661e-06
2.71779e-07
4.49682e-06
1.13114e-08
4.57893e-06
-1.63678e-07
-1.52721e-07
2.22932e-06
-3.12196e-07
2.28991e-06
-2.93182e-07
2.14101e-06
-4.40602e-07
2.22487e-06
-4.314e-07
2.01268e-06
-5.33274e-07
2.10955e-06
-5.44778e-07
1.85222e-06
-5.8889e-07
1.95132e-06
-6.19124e-07
1.67228e-06
-5.9838e-07
1.76288e-06
-6.45931e-07
1.48753e-06
-5.61344e-07
1.5639e-06
-6.25814e-07
1.37076e-06
-5.53848e-07
1.08232e-06
-3.86103e-07
1.24813e-06
-5.28617e-07
1.12287e-06
-4.82731e-07
9.51018e-07
-2.17039e-07
9.68279e-07
-3.11902e-07
8.47577e-07
-3.3428e-08
8.53652e-07
-1.2883e-07
7.75662e-08
1.33328e-07
2.18443e-07
1.2377e-07
3.21336e-07
1.16105e-07
4.16748e-07
1.15288e-07
5.28597e-07
1.25878e-07
6.81266e-07
1.49253e-07
8.53445e-07
1.8839e-07
1.04142e-06
2.49535e-07
1.25496e-06
3.4071e-07
1.50355e-06
4.66122e-07
1.77073e-06
6.29881e-07
2.02851e-06
8.35343e-07
2.26371e-06
1.08249e-06
2.45425e-06
1.36202e-06
2.6046e-06
1.64878e-06
2.74103e-06
1.91199e-06
2.8437e-06
2.12257e-06
2.93641e-06
2.25481e-06
3.04996e-06
2.30301e-06
3.2007e-06
2.27719e-06
3.38038e-06
2.18921e-06
3.57173e-06
2.04951e-06
3.75629e-06
1.87231e-06
3.92186e-06
1.67048e-06
4.06297e-06
1.45572e-06
4.17854e-06
1.23765e-06
4.27218e-06
1.02987e-06
4.35888e-06
8.20785e-07
4.43095e-06
6.16404e-07
4.50181e-06
4.1214e-07
4.5746e-06
1.93775e-07
4.74436e-06
-7.81057e-08
-7.63124e-08
2.37106e-06
-2.44927e-07
2.44445e-06
-2.26233e-07
2.32558e-06
-4.12949e-07
2.44468e-06
-4.12328e-07
2.23034e-06
-5.61372e-07
2.38872e-06
-5.89709e-07
2.07558e-06
-6.57478e-07
2.25095e-06
-7.19987e-07
1.87567e-06
-7.01608e-07
2.0403e-06
-7.83535e-07
1.65658e-06
-6.91015e-07
1.7867e-06
-7.75876e-07
1.44186e-06
-6.32428e-07
1.5338e-06
-7.17659e-07
1.31006e-06
-6.15753e-07
9.97583e-07
-4.15371e-07
1.17329e-06
-5.79e-07
1.03585e-06
-5.2095e-07
8.60002e-07
-2.23343e-07
8.75768e-07
-3.27623e-07
7.63034e-07
-3.46999e-08
7.62112e-07
-1.27862e-07
7.84444e-08
1.45119e-07
2.30616e-07
1.21379e-07
3.49255e-07
9.61102e-08
4.58278e-07
7.48473e-08
5.80144e-07
6.40291e-08
7.40259e-07
6.71503e-08
9.17535e-07
8.54182e-08
1.10526e-06
1.24785e-07
1.31123e-06
1.93464e-07
1.54681e-06
2.97578e-07
1.79406e-06
4.42837e-07
2.02308e-06
6.35312e-07
2.21846e-06
8.80575e-07
2.36424e-06
1.17249e-06
2.47542e-06
1.4912e-06
2.58285e-06
1.807e-06
2.67253e-06
2.0832e-06
2.77232e-06
2.28673e-06
2.90574e-06
2.39909e-06
3.07909e-06
2.42465e-06
3.29034e-06
2.3672e-06
3.5184e-06
2.24247e-06
3.73927e-06
2.06643e-06
3.93633e-06
1.85772e-06
4.10205e-06
1.63127e-06
4.23518e-06
1.39895e-06
4.33765e-06
1.17209e-06
4.4339e-06
9.54663e-07
4.50478e-06
7.46701e-07
4.57393e-06
5.44058e-07
4.66089e-06
3.25486e-07
4.88579e-06
-1.63848e-09
5.35102e-08
2.54825e-06
-1.82181e-07
2.65325e-06
-1.81705e-07
2.59846e-06
-3.9888e-07
2.76816e-06
-3.96321e-07
2.59403e-06
-6.18247e-07
2.83229e-06
-6.50737e-07
2.49277e-06
-8.02881e-07
2.78386e-06
-8.80531e-07
2.28536e-06
-9.02107e-07
2.60347e-06
-1.03737e-06
1.99824e-06
-9.12678e-07
2.30899e-06
-1.09328e-06
1.68174e-06
-8.38621e-07
1.93667e-06
-1.02996e-06
1.39571e-06
-7.1793e-07
1.55741e-06
-8.78841e-07
1.24836e-06
-6.90633e-07
9.0108e-07
-4.4063e-07
1.09551e-06
-6.38465e-07
9.42222e-07
-5.61913e-07
7.64643e-07
-2.25822e-07
7.75838e-07
-3.3876e-07
6.76149e-07
-3.12269e-08
6.66681e-07
-1.1834e-07
7.79696e-08
1.71748e-07
2.40609e-07
1.35346e-07
3.76442e-07
9.44511e-08
5.0187e-07
5.28018e-08
6.36193e-07
1.91042e-08
8.04181e-07
4.02546e-10
9.89793e-07
-4.81671e-09
1.18118e-06
9.77232e-09
1.38352e-06
5.274e-08
1.60935e-06
1.31098e-07
1.83996e-06
2.51781e-07
2.04156e-06
4.24413e-07
2.19625e-06
6.57539e-07
2.29184e-06
9.52978e-07
2.35313e-06
1.2948e-06
2.41495e-06
1.65912e-06
2.4726e-06
2.00698e-06
2.56527e-06
2.29032e-06
2.70664e-06
2.4859e-06
2.90788e-06
2.57035e-06
3.16312e-06
2.55188e-06
3.44072e-06
2.44484e-06
3.70964e-06
2.272e-06
3.94596e-06
2.05668e-06
4.14249e-06
1.81715e-06
4.29587e-06
1.57044e-06
4.41038e-06
1.3261e-06
4.50934e-06
1.09649e-06
4.57908e-06
8.80186e-07
4.6435e-06
6.76858e-07
4.73897e-06
4.65618e-07
5.09292e-06
1.17366e-07
2.75377e-06
-1.02761e-07
2.92558e-06
-1.19006e-07
2.96145e-06
-3.76103e-07
3.15449e-06
-3.75565e-07
3.0882e-06
-6.55092e-07
3.33794e-06
-6.46479e-07
3.09441e-06
-9.28569e-07
3.40563e-06
-9.61804e-07
2.95545e-06
-1.15416e-06
3.31029e-06
-1.23455e-06
2.6768e-06
-1.26874e-06
3.0569e-06
-1.4162e-06
2.28984e-06
-1.26434e-06
2.67677e-06
-1.47854e-06
1.84111e-06
-1.12106e-06
2.21004e-06
-1.39648e-06
1.40656e-06
-8.75462e-07
1.70221e-06
-1.17281e-06
1.2386e-06
-8.32936e-07
7.95489e-07
-4.60137e-07
1.05721e-06
-7.5265e-07
8.72654e-07
-6.38354e-07
6.6589e-07
-2.24969e-07
6.65412e-07
-3.38177e-07
5.91963e-07
-2.26193e-08
5.74054e-07
-1.00368e-07
7.5417e-08
2.09205e-07
2.4739e-07
1.65175e-07
4.01488e-07
1.10555e-07
5.46909e-07
4.96982e-08
6.96022e-07
-6.70665e-09
8.71957e-07
-4.83419e-08
1.06956e-06
-7.90283e-08
1.26799e-06
-9.12916e-08
1.47083e-06
-7.72264e-08
1.69101e-06
-2.86757e-08
1.90948e-06
6.17378e-08
2.08694e-06
2.0649e-07
2.20171e-06
4.19004e-07
2.2447e-06
7.04726e-07
2.248e-06
1.05815e-06
2.24108e-06
1.46872e-06
2.24202e-06
1.88973e-06
2.29873e-06
2.27353e-06
2.43537e-06
2.56157e-06
2.66739e-06
2.72635e-06
2.97128e-06
2.76219e-06
3.31016e-06
2.68243e-06
3.64322e-06
2.51119e-06
3.93918e-06
2.27869e-06
4.18204e-06
2.017e-06
4.36566e-06
1.74722e-06
4.49759e-06
1.48309e-06
4.59688e-06
1.23852e-06
4.66618e-06
1.00922e-06
4.72098e-06
8.02396e-07
4.82348e-06
5.92054e-07
5.29571e-06
2.61223e-07
-3.50397e-06
6.9396e-06
-2.01917e-07
-1.95143e-07
3.36002e-06
-3.09233e-07
-2.6409e-07
3.58604e-06
-6.24765e-07
3.81199e-06
-6.02231e-07
3.70154e-06
-9.50936e-07
3.97668e-06
-9.21672e-07
3.65067e-06
-1.26829e-06
3.9677e-06
-1.27861e-06
3.4164e-06
-1.51293e-06
3.74043e-06
-1.55786e-06
3.03541e-06
-1.6254e-06
3.34905e-06
-1.72933e-06
2.57037e-06
-1.62247e-06
2.88025e-06
-1.78747e-06
2.06064e-06
-1.4768e-06
2.37627e-06
-1.7098e-06
1.51812e-06
-1.15299e-06
1.84433e-06
-1.49592e-06
1.30661e-06
-1.08007e-06
6.98995e-07
-4.9316e-07
1.07898e-06
-9.56557e-07
8.46087e-07
-7.83157e-07
5.57171e-07
-2.08001e-07
5.54352e-07
-3.35023e-07
5.12941e-07
-7.5282e-10
4.83634e-07
-7.09856e-08
6.99075e-08
2.4889e-07
2.48719e-07
2.08067e-07
4.23114e-07
1.43795e-07
5.91558e-07
6.61817e-08
7.58077e-07
-1.20381e-08
9.43182e-07
-7.75807e-08
1.15533e-06
-1.33745e-07
1.36373e-06
-1.7438e-07
1.5716e-06
-1.91684e-07
1.79056e-06
-1.76448e-07
2.00249e-06
-1.21447e-07
2.16135e-06
-1.25203e-08
2.23954e-06
1.68766e-07
2.23128e-06
4.32495e-07
2.16853e-06
7.8425e-07
2.08369e-06
1.21555e-06
2.01246e-06
1.69818e-06
2.01852e-06
2.16975e-06
2.1449e-06
2.56377e-06
2.38608e-06
2.84267e-06
2.71335e-06
2.98409e-06
3.10051e-06
2.97166e-06
3.50463e-06
2.82089e-06
3.88231e-06
2.56792e-06
4.19812e-06
2.26245e-06
4.43391e-06
1.9486e-06
4.59559e-06
1.64908e-06
4.7003e-06
1.37957e-06
4.77131e-06
1.13338e-06
4.81455e-06
9.15526e-07
4.9155e-06