/*--------------------------------*- C++ -*----------------------------------*\
  =========                 |
  \\      /  F ield         | OpenFOAM: The Open Source CFD Toolbox
   \\    /   O peration     | Website:  https://openfoam.org
    \\  /    A nd           | Version:  dev
     \\/     M anipulation  |
\*---------------------------------------------------------------------------*/
FoamFile
{
    version     2.0;
    format      ascii;
    class       volScalarField;
    location    "2500";
    object      qr;
}
// * * * * * * * * * * * * * * * * * * * * * * * * * * * * * * * * * * * * * //

dimensions      [1 0 -3 0 0 0 0];

internalField   uniform 0;

boundaryField
{
    lowerOutlet
    {
        type            calculated;
        value           nonuniform List<scalar> 
144
(
1155.47
1159.29
1163.55
1168.22
1173.3
1178.8
1184.73
1191.11
1197.94
1205.25
1213.06
1221.39
1230.26
1239.7
1249.75
1260.44
1271.83
1283.95
1296.88
1310.67
1325.42
1341.19
1358.11
1376.31
1395.96
1417.23
1440.31
1465.46
1492.98
1523.26
1556.77
1594.1
1636.01
1672.13
1724.8
1785.61
1856.66
1940.72
2041.74
2165.43
2321.3
2525.54
2844.14
3168.2
3462.31
3810.76
4104.8
5087.67
-11605.5
3485.43
2831.08
2486.41
2255.61
2066.17
1940.04
1840
1758.67
1691.43
1634.58
1585.75
1543.2
1505.72
1472.4
1435.03
1408.71
1384.73
1362.75
1342.51
1323.78
1306.39
1290.18
1275.04
1260.86
1247.57
1235.08
1223.3
1212.18
1201.68
1191.74
1182.34
1173.43
1164.99
1157
1149.43
1142.26
1135.47
1129.06
1122.99
1117.27
1111.88
1106.81
1102.06
1097.62
1093.48
1089.64
1086.12
2100.3
2238.45
2417.66
2681.03
3001.6
3377.93
3721.4
4089.11
4751.68
4588.73
3779.78
2949.78
2558.79
2306.23
2142.84
1999.21
1887.34
1797.29
1723.56
1661.88
1988.8
3547.39
3901.2
4226.82
5487.89
4527.66
3265.22
2728.73
2420.78
2208.76
1609.29
3294.21
3633.59
3993.54
4453.33
5745.45
4132.18
3090.88
2638.91
2361.04
1697.56
1754.07
1819.7
1896.86
1563.77
1523.88
1488.59
1457.07
)
;
    }
    top
    {
        type            calculated;
        value           nonuniform List<scalar> 
100
(
1043.38
1044.96
1047.03
1048.99
1050.34
1051.97
1053.92
1055.61
1057.01
1058.11
1059.07
1059.84
1060.44
1060.89
1060.95
1059.57
1054.39
1043.18
1027.82
1016.44
1014.67
1024.61
1042.84
1060.83
1070.87
1075.22
1077.22
1078.03
1079.09
1080.8
1083.16
1086.61
1091.11
1096.51
1102.6
1107.95
1111.22
1113.23
1114.71
1115.97
1117.05
1117.99
1118.8
1119.49
1120.05
1120.48
1120.79
1120.97
1120.95
1120.79
1120.53
1120.19
1119.74
1119.2
1118.57
1117.85
1117.04
1116.12
1115.07
1113.9
1112.57
1111.09
1109.47
1107.79
1106.13
1104.51
1102.85
1101.12
1099.87
1098.68
1097.96
1097.52
1096.94
1095.28
1092.8
1090.13
1087.49
1084.83
1082.02
1079.01
1075.79
1072.38
1068.83
1065.07
1061.15
1057.03
1052.71
1048.28
1044.03
1040.12
1036.58
1033.37
1030.46
1027.88
1025.59
1023.68
1022.61
1026.88
1023.77
1020.78
)
;
    }
    sides
    {
        type            calculated;
        value           nonuniform List<scalar> 
100
(
1155.49
1158.56
1161.24
1163.54
1165.46
1166.99
1168.15
1168.96
1169.4
1169.51
1169.28
1168.73
1167.88
1166.74
1165.32
1163.64
1161.71
1159.55
1157.17
1154.58
1151.8
1148.85
1145.74
1142.49
1139.1
1135.59
1131.97
1128.26
1124.47
1120.61
1116.7
1112.73
1108.74
1104.72
1100.69
1096.65
1092.63
1088.63
1084.66
1080.72
1076.83
1073
1069.23
1065.53
1061.9
1058.35
1054.88
1051.5
1048.2
1045.03
1086.14
1089.11
1091.8
1094.2
1096.33
1098.17
1099.74
1101.04
1102.08
1102.86
1103.39
1103.69
1103.75
1103.58
1103.21
1102.62
1101.85
1100.88
1099.74
1098.44
1096.97
1095.36
1093.62
1091.74
1089.75
1087.65
1085.44
1083.15
1080.77
1078.31
1075.78
1073.18
1070.53
1067.82
1065.07
1062.28
1059.45
1056.58
1053.69
1050.78
1047.84
1044.88
1041.91
1038.92
1035.92
1032.91
1029.89
1026.87
1023.83
1020.82
)
;
    }
    front
    {
        type            empty;
    }
    back
    {
        type            empty;
    }
    roller
    {
        type            calculated;
        value           nonuniform List<scalar> 
144
(
5898.03
5356.89
3929.81
3128.35
1687.73
1412.58
1416.66
1355.61
1308.76
1283.25
6953.02
7760.92
7325.36
5638.66
5706.91
2980.67
2195.94
2292.89
1725.31
2025.49
1572.1
1495.86
1380.61
1432.7
1333.1
1322.53
1289.1
1304.29
5006.58
6266.75
2725.78
2073.8
2588.15
2484.03
1662.18
1529.22
1478.88
1464.02
1405.01
1282.13
1284.8
6660.72
7648.71
7562.32
4299.46
5302.18
4743.16
6187.71
4477.39
3216.02
2384.81
1766.63
2091.34
1509.29
1388.51
1326.89
1317.26
7226.13
7786.89
7025.75
2205.33
1613.11
1587.4
1519.38
1462.95
1553.21
1305.65
4509.27
4097.39
3770.87
3470.17
2702.47
1925.11
1961.61
1832.15
1535.28
1792.96
1688.54
1475.81
1658.91
1422.18
1399.72
1342
1365.19
1376.38
1313.59
1309.06
1282.34
7464.49
7719.81
6680.71
4887.87
4110.03
3711.04
3312.72
2951.47
1864.99
1812.83
2144.59
1569.14
1504.18
1450.82
1435.57
1360.87
1392.14
1343.72
1298.88
1295.22
1303.24
1298.34
1295.33
1293.06
1286.95
1285.33
1281.89
3506.79
2515.77
2340.96
2820.36
1993.52
1640.12
1916.3
1873.29
1551.84
1755.95
1721.03
1489.61
1631.74
1599.16
1370.04
1449.87
1352.04
1320.76
1328.51
1335.62
1312.97
1286.65
1291.89
1301.06
1288.82
1290.88
1283.04
1284.02
1281.94
)
;
    }
    burner
    {
        type            calculated;
        value           nonuniform List<scalar> 
16
(
-125951
-121255
-118430
-118606
-122285
-118938
-118133
-123612
-124700
-120366
-118103
-119520
-123482
-119589
-117986
-121062
)
;
    }
}


// ************************************************************************* //
