/*--------------------------------*- C++ -*----------------------------------*\
  =========                 |
  \\      /  F ield         | OpenFOAM: The Open Source CFD Toolbox
   \\    /   O peration     | Website:  https://openfoam.org
    \\  /    A nd           | Version:  dev
     \\/     M anipulation  |
\*---------------------------------------------------------------------------*/
FoamFile
{
    version     2.0;
    format      ascii;
    class       volScalarField;
    location    "2500";
    object      rAU;
}
// * * * * * * * * * * * * * * * * * * * * * * * * * * * * * * * * * * * * * //

dimensions      [-1 3 1 0 0 0 0];

internalField   nonuniform List<scalar> 
9851
(
0.00820005
0.0082665
0.00821347
0.00823271
0.00839295
0.00813746
0.00818958
0.00838767
0.00839879
0.00807151
0.00815537
0.00838295
0.00838373
0.0084118
0.00800911
0.00812829
0.0083873
0.00837627
0.00839503
0.00842124
0.00795127
0.00810374
0.00839743
0.00837636
0.0083802
0.00841031
0.0084258
0.00789805
0.00808172
0.00840754
0.00838162
0.00837179
0.00839535
0.00842049
0.00842781
0.00784838
0.00805927
0.00841652
0.00839137
0.00836714
0.00838087
0.00841167
0.00842562
0.0084291
0.00780212
0.00803867
0.00842258
0.00840423
0.00836872
0.00836969
0.00839837
0.00842167
0.00842804
0.00842987
0.00775854
0.00801925
0.00842586
0.00841455
0.00837495
0.00836359
0.0083831
0.00841443
0.00842675
0.00842952
0.00843047
0.00771755
0.00800153
0.00842856
0.00842287
0.00838613
0.0083608
0.00837084
0.00840193
0.00842378
0.00842922
0.00843059
0.00843083
0.00767876
0.00798378
0.00842939
0.0084285
0.00839985
0.00836365
0.00836219
0.0083876
0.00841697
0.00842838
0.00843059
0.00843145
0.00843096
0.00764196
0.00796683
0.008428
0.00843143
0.00841159
0.00837036
0.00835788
0.00837387
0.00840626
0.00842562
0.00843048
0.00843188
0.00843222
0.00843122
0.00760719
0.00795309
0.00842526
0.00843375
0.0084204
0.00838175
0.00835576
0.00836403
0.00839311
0.00842012
0.00842974
0.00843204
0.00843296
0.00843287
0.00843118
0.00757409
0.00793997
0.00842372
0.00843502
0.0084267
0.00839551
0.0083582
0.00835652
0.00838012
0.00841136
0.00842784
0.00843161
0.00843321
0.00843367
0.00843321
0.00843123
0.00754266
0.00792697
0.00842141
0.00843591
0.00843018
0.00840839
0.00836456
0.00835247
0.0083672
0.0084001
0.00842369
0.00843124
0.00843302
0.00843418
0.00843423
0.00843358
0.00843119
0.00751292
0.007918
0.00841765
0.00843669
0.0084337
0.00841806
0.00837584
0.00835032
0.00835791
0.00838704
0.00841671
0.00843041
0.00843286
0.00843404
0.00843479
0.00843457
0.00843382
0.00843108
0.00748473
0.00791125
0.00841523
0.00843711
0.00843594
0.00842482
0.00838957
0.00835236
0.00835112
0.00837341
0.00840695
0.00842771
0.00843328
0.00843414
0.00843481
0.00843531
0.00843491
0.00843398
0.00843094
0.00745823
0.0079
0.0084085
0.00843759
0.00843753
0.00842941
0.00840299
0.00835825
0.0083475
0.00836143
0.00839453
0.00842172
0.00843352
0.00843493
0.00843514
0.00843516
0.00843569
0.00843521
0.0084342
0.00843079
0.00743334
0.00788721
0.00839409
0.00843486
0.00843849
0.00843295
0.00841369
0.00836811
0.00834536
0.00835306
0.00838166
0.00841286
0.00843123
0.00843604
0.00843625
0.00843574
0.0084356
0.00843606
0.00843553
0.00843443
0.00843068
0.00741031
0.00787726
0.00837654
0.00842869
0.008439
0.00843653
0.00842127
0.00838096
0.0083464
0.00834696
0.00836891
0.00840257
0.00842579
0.00843597
0.00843754
0.00843712
0.00843601
0.00843585
0.00843637
0.00843577
0.00843458
0.00843054
0.00738918
0.0078677
0.00835771
0.00842477
0.00844067
0.0084387
0.00842752
0.00839431
0.00835076
0.00834324
0.00835803
0.0083907
0.00841873
0.00843374
0.00843824
0.00843889
0.00843782
0.00843627
0.00843613
0.00843663
0.00843597
0.00843474
0.00843035
0.0073702
0.0078583
0.00833665
0.00842087
0.00844133
0.00844003
0.00843199
0.00840617
0.00835866
0.00834077
0.00834963
0.00837886
0.00841004
0.00842947
0.00843772
0.00843974
0.00843985
0.00843813
0.00843628
0.00843647
0.00843694
0.00843627
0.00843488
0.0084302
0.0073537
0.00785689
0.00831506
0.00841731
0.00844208
0.00844117
0.00843489
0.008415
0.00836937
0.0083407
0.00834363
0.0083668
0.00840031
0.00842395
0.008436
0.00843961
0.0084409
0.00844046
0.00843822
0.00843649
0.00843677
0.00843719
0.00843649
0.00843507
0.00843021
0.00734099
0.00787394
0.00829896
0.00841414
0.00844283
0.00844227
0.00843716
0.00842097
0.00838075
0.00834394
0.0083397
0.00835623
0.0083894
0.0084174
0.008433
0.00843931
0.00844078
0.00844179
0.00844081
0.00843842
0.00843671
0.00843699
0.00843757
0.00843672
0.00843528
0.00843038
0.00732479
0.00789511
0.00830505
0.00841224
0.00844312
0.00844314
0.00843889
0.0084256
0.00839167
0.00834898
0.00833852
0.00834784
0.0083781
0.00840933
0.00842903
0.00843827
0.00844096
0.00844187
0.00844236
0.00844097
0.00843836
0.0084369
0.00843733
0.00843794
0.00843707
0.00843564
0.00842166
0.00711528
0.00791944
0.00831405
0.00841421
0.00844358
0.00844367
0.00844011
0.00842908
0.00840104
0.00835625
0.00833756
0.00834313
0.00836746
0.00839988
0.00842388
0.00843622
0.00844099
0.00844191
0.00844252
0.00844255
0.00844103
0.00843862
0.00843716
0.00843763
0.0084384
0.00843757
0.00843587
0.00810302
0.00730831
0.0079475
0.00832489
0.00841867
0.00844397
0.00844408
0.00844079
0.00843129
0.00840827
0.0083647
0.00833814
0.00833935
0.0083583
0.00839032
0.00841733
0.00843326
0.00844033
0.0084422
0.00844248
0.00844277
0.0084426
0.00844123
0.00843868
0.00843729
0.00843794
0.00843897
0.00843792
0.0083731
0.00839624
0.00732671
0.00797919
0.00833936
0.00842486
0.00844404
0.0084444
0.00844115
0.00843227
0.00841339
0.00837362
0.00834067
0.00833661
0.00835011
0.00838102
0.00841038
0.00842936
0.00843889
0.0084425
0.00844294
0.00844287
0.00844294
0.00844268
0.00844133
0.00843896
0.00843761
0.00843852
0.00843929
0.00843811
0.00842078
0.00843059
0.00733648
0.00801345
0.00835573
0.00843308
0.00844425
0.00844443
0.00844118
0.00843235
0.00841677
0.00838208
0.00834518
0.00833548
0.00834333
0.00837121
0.00840292
0.00842566
0.00843675
0.00844195
0.00844346
0.00844337
0.00844299
0.00844287
0.00844268
0.00844128
0.00843908
0.00843796
0.00843881
0.00843969
0.00843829
0.00843616
0.00843055
0.00735362
0.00805028
0.0083626
0.00844301
0.00844425
0.00844418
0.00844086
0.00843221
0.0084189
0.00838944
0.00835131
0.00833567
0.00833914
0.00836136
0.00839364
0.00842046
0.00843546
0.00844092
0.00844348
0.00844382
0.00844337
0.00844293
0.00844267
0.00844269
0.00844154
0.00843933
0.00843838
0.00843906
0.0084399
0.00843841
0.00843606
0.0084304
0.0073804
0.0080896
0.00837035
0.00844323
0.00844412
0.00844378
0.00844013
0.00843162
0.00841975
0.00839523
0.00835813
0.00833693
0.00833707
0.00835293
0.00838383
0.0084128
0.00843261
0.00844124
0.00844318
0.00844402
0.00844356
0.0084431
0.00844251
0.00844252
0.00844258
0.00844189
0.00843952
0.00843832
0.0084391
0.00843967
0.00843805
0.00843682
0.00843409
0.00742267
0.00814942
0.00837933
0.00844285
0.00844403
0.00844331
0.00843908
0.00843074
0.00841982
0.00839949
0.00836476
0.00833947
0.00833605
0.00834658
0.00837463
0.00840443
0.00842709
0.00844025
0.00844416
0.008444
0.00844373
0.0084433
0.00844276
0.00844213
0.00844226
0.00844268
0.00844186
0.00843935
0.00843815
0.00843879
0.0084398
0.00844002
0.00844555
0.00843963
0.00650388
0.00827554
0.00821335
0.00840712
0.00844271
0.00844366
0.00844259
0.00843781
0.0084295
0.00841936
0.00840217
0.00837071
0.008343
0.0083363
0.0083422
0.0083663
0.00839603
0.00842098
0.00843667
0.00844433
0.00844572
0.00844419
0.00844324
0.00844271
0.00844204
0.00844146
0.00844182
0.00844262
0.00844164
0.00843905
0.00843868
0.00844144
0.00844652
0.00843484
0.0085317
0.0082943
0.00829613
0.00655308
0.00828692
0.00824494
0.00843983
0.00844257
0.00844316
0.00844162
0.00843623
0.00842793
0.00841853
0.00840355
0.0083755
0.0083469
0.00833714
0.00833982
0.00834537
0.00838758
0.00841421
0.00843254
0.00844232
0.00844621
0.00844592
0.00844436
0.00844257
0.00844183
0.00844126
0.00844076
0.00844161
0.00844238
0.00844187
0.00844107
0.00844605
0.00845467
0.0084428
0.00845411
0.00826314
0.00829915
0.00848102
0.00830487
0.00831177
0.00831705
0.00661174
0.00830954
0.00827439
0.00843942
0.0084422
0.0084425
0.00844035
0.00843436
0.00842605
0.00841717
0.00840379
0.00837884
0.00835065
0.00833833
0.00833878
0.00833912
0.00837925
0.00840665
0.00842782
0.00843995
0.00844498
0.00844641
0.00844604
0.00844431
0.00844151
0.00844081
0.00844032
0.00844017
0.00844105
0.00844316
0.00844704
0.00845312
0.00846089
0.00844852
0.00828
0.00828922
0.0082928
0.00832406
0.00831995
0.00833147
0.00833565
0.00833883
0.00667514
0.00832803
0.00830104
0.00843916
0.00844181
0.00844167
0.00843881
0.0084322
0.00842379
0.0084153
0.00840313
0.00838072
0.00835372
0.00833956
0.0083385
0.00834782
0.00835824
0.00839841
0.00842194
0.00843684
0.00844374
0.00844532
0.00844583
0.00844564
0.00844342
0.00844018
0.00843953
0.00843925
0.00843965
0.0084424
0.00845165
0.00846028
0.00846702
0.00845071
0.00829434
0.00829602
0.00830915
0.00832116
0.00832378
0.00834349
0.00833771
0.00834908
0.00835466
0.00835658
0.00674558
0.00834261
0.0083178
0.00843928
0.00844128
0.00844068
0.00843721
0.00842982
0.00842119
0.00841292
0.00840177
0.00838117
0.00835573
0.00834061
0.00833833
0.00834415
0.0083509
0.00838987
0.00841474
0.00843076
0.00844197
0.00844444
0.00844473
0.00844459
0.00844436
0.00844197
0.00843871
0.00843806
0.00843811
0.00844214
0.00845262
0.00846424
0.00847287
0.00845521
0.0083003
0.00830015
0.00832616
0.00832865
0.00833348
0.00834187
0.00834098
0.00836001
0.00835357
0.00836416
0.0083693
0.0083714
0.00682407
0.00835471
0.00832754
0.0084387
0.00844048
0.00843982
0.0084355
0.00842731
0.00841833
0.00841005
0.00839939
0.00838061
0.00835639
0.00834111
0.00833808
0.0083412
0.00835696
0.00838068
0.00840593
0.00842643
0.00843721
0.00844332
0.00844394
0.00844349
0.00844281
0.00844264
0.00844022
0.00843721
0.00843642
0.00844034
0.00845176
0.00846428
0.00847576
0.0084617
0.00830519
0.00830775
0.008332
0.0083309
0.00834341
0.0083436
0.00834954
0.00835687
0.00835648
0.00837383
0.0083679
0.00837679
0.00838075
0.00838338
0.00691074
0.00836522
0.0083345
0.00843827
0.00843989
0.00843885
0.0084337
0.00842475
0.00841527
0.00840669
0.00839608
0.00837857
0.00835584
0.00834064
0.00833733
0.00833873
0.00835083
0.00837113
0.0083956
0.00841829
0.008434
0.0084408
0.00844281
0.00844264
0.00844142
0.00844059
0.00844045
0.00843828
0.00843664
0.00843831
0.00844853
0.0084621
0.00847428
0.00846112
0.00830952
0.00828917
0.0083287
0.00830875
0.00834198
0.00832562
0.00835694
0.00834824
0.00836192
0.00836723
0.00836982
0.00838545
0.00837965
0.00838766
0.00838982
0.00839264
0.00700448
0.00837392
0.00833788
0.00843751
0.00843908
0.00843774
0.00843195
0.0084222
0.00841207
0.00840293
0.00839195
0.00837475
0.00835336
0.00833855
0.00833524
0.00833575
0.00834457
0.00836113
0.00838384
0.00840812
0.00842683
0.00843634
0.00844022
0.0084411
0.00843999
0.00843869
0.00843775
0.00843748
0.00843716
0.00843924
0.00844445
0.00845579
0.00846805
0.00845609
0.00826132
0.0082107
0.0082765
0.00821689
0.00828597
0.00822494
0.00831274
0.00825592
0.00835468
0.00829836
0.00836919
0.00835392
0.00837774
0.00839548
0.00838655
0.00839508
0.00839707
0.0084001
0.00710824
0.00838131
0.00833079
0.00843678
0.00843803
0.00843645
0.00843026
0.00841973
0.00840876
0.00839886
0.00838711
0.0083696
0.00834864
0.00833445
0.00833134
0.0083313
0.0083366
0.00834902
0.00836878
0.008394
0.00841646
0.00842951
0.00843578
0.00843832
0.0084379
0.00843683
0.00843521
0.00843403
0.00843483
0.00843886
0.00844313
0.00844806
0.0084617
0.0084443
0.00819604
0.00817702
0.00817733
0.00812852
0.0081763
0.00811352
0.0081815
0.00811154
0.00821116
0.00814103
0.00829029
0.0081882
0.00835031
0.00827936
0.00835707
0.00840314
0.00836807
0.0083839
0.00840347
0.0084059
0.0072141
0.0083873
0.00832681
0.00843005
0.0084369
0.00843505
0.00842844
0.00841731
0.00840542
0.00839457
0.0083817
0.00836325
0.00834208
0.00832837
0.00832541
0.00832492
0.00832691
0.00833395
0.00834928
0.00837294
0.00839908
0.0084183
0.00842878
0.00843384
0.00843486
0.00843411
0.00843292
0.00843188
0.00843188
0.0084351
0.00844102
0.00844358
0.00844875
0.00843793
0.00814018
0.00801057
0.0080705
0.00797803
0.0080241
0.00790745
0.00801706
0.00788284
0.00803968
0.00789676
0.00808891
0.00796173
0.00817775
0.00805047
0.00827099
0.00816444
0.00827833
0.00839885
0.00829659
0.0083247
0.00840846
0.00840701
0.00731775
0.00839093
0.00832793
0.00842925
0.00843586
0.00843363
0.00842665
0.00841491
0.00840211
0.00839016
0.00837591
0.00835594
0.00833377
0.0083199
0.00831705
0.00828755
0.0083146
0.00831611
0.00832427
0.00834455
0.00837201
0.00839763
0.00841583
0.00842587
0.00843062
0.00843185
0.00843146
0.00843118
0.00843268
0.00843334
0.00843733
0.0084405
0.0084281
0.00841663
0.00717316
0.00698562
0.00787616
0.00777452
0.00777782
0.00763771
0.00772307
0.00757131
0.00772757
0.00756089
0.00777756
0.00754713
0.00787925
0.00763065
0.00802367
0.00781947
0.00814822
0.00799787
0.00814863
0.00835503
0.00816947
0.00820764
0.00841118
0.00838548
0.00741386
0.00839126
0.00832109
0.00843451
0.00843499
0.00843235
0.00842502
0.00841261
0.0083988
0.00838572
0.00836986
0.00834787
0.00832379
0.00830889
0.00830573
0.00824625
0.00825492
0.00829921
0.00830148
0.00831661
0.00834133
0.00836965
0.00839356
0.00841323
0.00842608
0.00843284
0.00843414
0.00843346
0.00843443
0.00843473
0.00843538
0.00843759
0.00840746
0.00837489
0.0080762
0.00751314
0.00718527
0.00751461
0.00741249
0.0074344
0.00731566
0.00735359
0.00718603
0.00731943
0.00712444
0.00734254
0.00714974
0.00747631
0.00728902
0.00773776
0.00746588
0.00797911
0.00769695
0.00798976
0.00826127
0.00802904
0.0080934
0.00840522
0.00833001
0.00747159
0.00837281
0.00831346
0.00843419
0.00843426
0.00843127
0.00842368
0.00841044
0.00839553
0.00838127
0.00836377
0.00833923
0.00831237
0.00829452
0.00829183
0.00825644
0.00821709
0.00826971
0.00829077
0.00830151
0.00832141
0.0083465
0.00837097
0.00839107
0.00841864
0.00843524
0.00844074
0.00843954
0.00843716
0.00843579
0.00843514
0.00843582
0.00839523
0.00833383
0.00824113
0.00722831
0.00718288
0.00731692
0.0072148
0.00719661
0.00711399
0.00706048
0.00693782
0.0069471
0.00695331
0.00714564
0.00698428
0.00715423
0.00702676
0.00726091
0.00714672
0.00747776
0.00725224
0.00770819
0.00746028
0.00779076
0.0081482
0.00784921
0.00791662
0.00837354
0.00821317
0.00737034
0.00822469
0.00830284
0.00843365
0.00843353
0.00843021
0.00842262
0.00840865
0.00839248
0.00837693
0.00835788
0.00833046
0.00829991
0.0082798
0.00827461
0.00826693
0.00824312
0.008265
0.00828279
0.00829161
0.0082853
0.00831452
0.00835635
0.00837596
0.00839366
0.00842485
0.00844284
0.00844709
0.00844279
0.00843779
0.00843525
0.00843407
0.00839001
0.00830697
0.00822083
0.00716002
0.00712391
0.00695112
0.00691228
0.0070461
0.00698987
0.00681555
0.00677668
0.00695526
0.00685362
0.00687436
0.00693366
0.00709734
0.00701178
0.00711546
0.00701241
0.00717974
0.00649863
0.00730632
0.00667651
0.00747562
0.00730259
0.00756314
0.00799104
0.00762789
0.00770651
0.00830279
0.00809526
0.00731809
0.00817197
0.00830279
0.00841116
0.00843221
0.00842902
0.00842165
0.00840729
0.00838976
0.00837291
0.00835244
0.00832213
0.00828703
0.00826262
0.00825675
0.0082578
0.00824743
0.00822224
0.0081835
0.00814301
0.0080805
0.00810074
0.00814278
0.00822444
0.00837872
0.00839466
0.00842437
0.0084456
0.00844986
0.0084437
0.00843722
0.00843381
0.00838622
0.00829326
0.00823198
0.00640254
0.00615308
0.00690895
0.00689011
0.00676506
0.00677141
0.00676686
0.00676018
0.00677053
0.00676088
0.00696848
0.00691298
0.006926
0.00685336
0.00692171
0.00683635
0.00614283
0.00656622
0.00642487
0.00677478
0.00693939
0.00681383
0.00730372
0.00706141
0.00734067
0.00780381
0.00740734
0.00748581
0.00816751
0.00790366
0.00733244
0.00807964
0.00834231
0.00839813
0.00839078
0.00842716
0.00842056
0.0084063
0.00838756
0.00836943
0.00834774
0.00831478
0.00827468
0.00824467
0.0082359
0.0082348
0.00822571
0.00819958
0.0081321
0.00806717
0.00801949
0.00795712
0.00787217
0.00797463
0.00808405
0.0080761
0.00839422
0.00842136
0.00844652
0.00845078
0.00844329
0.00843386
0.00838148
0.00828779
0.00821514
0.00788751
0.00673936
0.00646409
0.00680609
0.00682859
0.00677298
0.00679944
0.00676321
0.00675983
0.00687541
0.00685052
0.00678254
0.00671795
0.00675348
0.00668362
0.00679594
0.0067298
0.00685402
0.00680202
0.0069235
0.00688247
0.00696948
0.00697646
0.00711169
0.00701425
0.0071706
0.00758728
0.00723506
0.0073095
0.00795549
0.00768575
0.00701514
0.00776034
0.00842697
0.00836429
0.00842306
0.00841895
0.0084055
0.00838626
0.00836664
0.00834412
0.00830901
0.00826378
0.00822716
0.00821365
0.0082081
0.00818468
0.0081316
0.00806131
0.00799645
0.0079599
0.00796725
0.00797283
0.00791571
0.00784112
0.00774789
0.0080331
0.0083929
0.0084199
0.00844689
0.00845012
0.00843734
0.0083723
0.0082817
0.00820758
0.00820361
0.00706937
0.00706818
0.00687248
0.00690942
0.00682297
0.00684004
0.006763
0.006758
0.00681228
0.00677592
0.00667202
0.00662782
0.0066156
0.00655774
0.00666677
0.00661448
0.00677183
0.00675756
0.00687555
0.00692392
0.00696278
0.00701805
0.00702065
0.00707704
0.00705945
0.00705821
0.00711095
0.00739808
0.00715799
0.00705303
0.00755739
0.00741077
0.00756915
0.00750357
0.00839725
0.00837943
0.00841648
0.00840462
0.00838544
0.00836475
0.00834138
0.00830503
0.00825477
0.00821072
0.00819129
0.00817952
0.00814089
0.00806153
0.00796283
0.00788364
0.00784342
0.00783808
0.00786298
0.00791785
0.00789039
0.00778896
0.00767491
0.00798736
0.00839146
0.00842035
0.00844627
0.00844231
0.0084156
0.00827502
0.00820059
0.00822276
0.00706874
0.00670735
0.00692171
0.00691981
0.00686515
0.00689365
0.00674192
0.00672872
0.006516
0.00649444
0.00657459
0.0065342
0.00651603
0.00646395
0.00656299
0.00652014
0.00676053
0.00676588
0.00700326
0.00707101
0.00712902
0.00726327
0.00720002
0.00735698
0.00716543
0.00734824
0.00710417
0.00706741
0.00698753
0.00698045
0.00685128
0.00468121
0.00484199
0.00741955
0.00710042
0.00777746
0.00784325
0.00835369
0.0083368
0.00840369
0.00838474
0.00836345
0.00833925
0.00830228
0.00824781
0.00819555
0.00816916
0.00815215
0.00809919
0.00799873
0.00788112
0.0078039
0.0077729
0.00777338
0.00779311
0.00783144
0.00788691
0.00789468
0.0077473
0.00762111
0.0080086
0.00839135
0.00842132
0.00844132
0.00842205
0.00827781
0.00820146
0.00820937
0.00790739
0.00690549
0.00654234
0.00675576
0.00677057
0.00672939
0.00673944
0.00646922
0.00645415
0.00634553
0.00630892
0.00640843
0.00636955
0.00648793
0.00643854
0.00675433
0.00673585
0.00712087
0.00713019
0.00739626
0.00749473
0.0075019
0.00761934
0.00751606
0.00749701
0.00728906
0.00746776
0.00691007
0.00528699
0.0051056
0.00489856
0.0049138
0.00466818
0.00493534
0.00472075
0.00473433
0.00489438
0.00489945
0.00456063
0.00729252
0.0047173
0.00483236
0.00513466
0.00818166
0.00774501
0.00827675
0.00840235
0.00838549
0.00836255
0.00833761
0.00830048
0.00824288
0.00818205
0.00814782
0.00812701
0.00806496
0.00794757
0.00782154
0.00776063
0.00774355
0.00775502
0.00778474
0.00780063
0.00786385
0.00790829
0.00790705
0.00773657
0.00765342
0.0082477
0.0083926
0.00842202
0.00842181
0.00828192
0.00821707
0.00819154
0.00825526
0.00684786
0.00626242
0.00677526
0.00676147
0.00647817
0.00650442
0.00645192
0.00646003
0.00627225
0.0062477
0.00631723
0.00626828
0.00638797
0.00634975
0.00672009
0.00668487
0.00702002
0.00702583
0.00752771
0.00752248
0.0077231
0.00780793
0.00759285
0.007675
0.00737723
0.00586443
0.00592372
0.00550125
0.00563379
0.00577572
0.00573878
0.00527148
0.00514019
0.00537219
0.00538831
0.00497708
0.00454253
0.00454201
0.00466482
0.0048689
0.00495401
0.00463548
0.00488886
0.00565089
0.00515995
0.00455416
0.00459672
0.00818879
0.00546587
0.0063418
0.00713094
0.00830947
0.00838927
0.00836383
0.00833697
0.00829991
0.00824065
0.00817187
0.00812801
0.00810553
0.00803994
0.0079102
0.00778832
0.00774038
0.0077398
0.00776998
0.00782041
0.00781012
0.0078025
0.00793782
0.00796389
0.00793624
0.00775739
0.00793684
0.00836278
0.00839542
0.00841155
0.0083293
0.00821189
0.00817702
0.00833207
0.00766037
0.00653558
0.00627907
0.006531
0.00654265
0.00623378
0.00624207
0.00623308
0.00622927
0.00621843
0.00618034
0.00654326
0.00647411
0.00664126
0.00659397
0.00711415
0.00707263
0.00752125
0.00749696
0.00782971
0.00773089
0.00775917
0.00782898
0.00601014
0.00608741
0.00620415
0.0063143
0.00582169
0.00583571
0.00579013
0.00586089
0.00553214
0.0056265
0.00567439
0.00566602
0.00541884
0.00519751
0.00541104
0.00553659
0.00518807
0.00459181
0.00457236
0.00481027
0.00513231
0.00505093
0.00475512
0.004702
0.00492145
0.00455828
0.00457622
0.00716189
0.00750052
0.00790263
0.0053784
0.00624285
0.00826082
0.00837151
0.0083394
0.0083017
0.00824164
0.00816622
0.00811197
0.00808768
0.00802467
0.00788909
0.00777156
0.00773699
0.00775085
0.00780721
0.0078917
0.00797457
0.00771121
0.00794026
0.00802413
0.00803034
0.00797153
0.0078396
0.00818434
0.00836871
0.00839433
0.00838355
0.00818626
0.00814649
0.00830672
0.00826846
0.00647195
0.00624725
0.00630334
0.00634169
0.0062523
0.00626973
0.00610247
0.006082
0.0061505
0.00612793
0.00639563
0.00632704
0.00689111
0.0068101
0.00702162
0.00695987
0.00748066
0.00743978
0.00778521
0.00773668
0.00785572
0.0077733
0.00645346
0.00657539
0.00668751
0.00675609
0.00592347
0.00600913
0.0061288
0.00626643
0.00568313
0.0056869
0.00576536
0.00581371
0.00561292
0.00564626
0.00562779
0.0056403
0.00555498
0.0053817
0.00553407
0.00561136
0.00536194
0.0047163
0.00466997
0.00498218
0.00529367
0.00522518
0.00495382
0.00466994
0.00490597
0.00463312
0.00463296
0.00725272
0.00592509
0.0077595
0.00541427
0.00637023
0.00820712
0.00834942
0.00830778
0.00824601
0.00816569
0.00809937
0.00807254
0.00801722
0.00788002
0.00776815
0.00774118
0.00775678
0.00785925
0.00797787
0.00807468
0.0078399
0.00765921
0.00813524
0.00810141
0.00809206
0.00801361
0.00800335
0.00827891
0.00837289
0.00838119
0.00824683
0.00811736
0.00826976
0.00824385
0.00767934
0.00611109
0.00597296
0.00609232
0.00610572
0.00607104
0.00607621
0.00610434
0.00605026
0.00625977
0.00618594
0.00672287
0.00664288
0.00726829
0.00719252
0.0073829
0.0073234
0.00775893
0.00777278
0.00802514
0.00801164
0.00679476
0.00681914
0.00665434
0.00713145
0.00641746
0.00656756
0.00669235
0.00677784
0.00587236
0.00596015
0.00608712
0.00622826
0.00562843
0.00570533
0.00563111
0.00575708
0.00562428
0.00561447
0.00557761
0.00559426
0.0056266
0.00550988
0.00560491
0.00562919
0.00548613
0.00492398
0.00487421
0.00516732
0.0054162
0.00536731
0.00515775
0.00470804
0.00496222
0.00482441
0.00480741
0.00747699
0.00473082
0.00757325
0.00552994
0.00659979
0.00814796
0.00829414
0.0082563
0.00816962
0.00809239
0.00805773
0.00801223
0.00788148
0.00777132
0.00771653
0.00778785
0.00789568
0.00805586
0.00812641
0.00785292
0.00763281
0.00798205
0.00820862
0.00816329
0.0081427
0.00806091
0.0081458
0.00830434
0.00836718
0.0082795
0.00811856
0.00822692
0.00820727
0.00807417
0.00609853
0.00602319
0.00592107
0.00590434
0.00597372
0.00594339
0.00602029
0.00600102
0.00634384
0.00624464
0.00655617
0.00645581
0.00709588
0.00700114
0.00764554
0.00754531
0.00774808
0.00770351
0.00804263
0.00806471
0.00812317
0.00793989
0.00683241
0.006868
0.00687844
0.00742474
0.00637322
0.0065058
0.00660521
0.00666449
0.00582402
0.0059225
0.00605664
0.00618868
0.00558039
0.00565437
0.00559024
0.0057185
0.00559504
0.00557287
0.00554097
0.00555157
0.00564584
0.00559993
0.00563348
0.00561499
0.00557362
0.00514885
0.0051087
0.0053076
0.00551997
0.00547932
0.00531195
0.0048778
0.00515709
0.00505494
0.00503822
0.00781586
0.00399909
0.0078199
0.00581227
0.00691688
0.00805617
0.00823967
0.00818057
0.00809144
0.00804558
0.00801088
0.00789289
0.00778087
0.00770595
0.00779642
0.00794553
0.00811328
0.00813461
0.00802515
0.00757493
0.00797983
0.0082955
0.00825754
0.00820711
0.00818222
0.00813435
0.00822873
0.00832852
0.00828791
0.00764067
0.00818942
0.00721795
0.00805875
0.00760221
0.00577014
0.0057273
0.00584099
0.00580188
0.00597269
0.00589272
0.00616196
0.00607428
0.00665275
0.00654304
0.00689283
0.00677287
0.00741799
0.0073036
0.0079264
0.00784097
0.00803943
0.00799036
0.00795784
0.00816761
0.00592475
0.00524782
0.0069643
0.00592354
0.00670173
0.00673198
0.0067446
0.00677478
0.00631243
0.00641039
0.00647009
0.00649435
0.00580592
0.00592362
0.00605571
0.00615004
0.0055505
0.00562668
0.00557019
0.00572034
0.00556386
0.00553909
0.00552126
0.00552076
0.00562828
0.00565048
0.00563513
0.00559205
0.00563526
0.00534277
0.00531771
0.00541546
0.00560832
0.00557767
0.00543768
0.00512543
0.00545274
0.0052631
0.0052535
0.0080325
0.00342177
0.00800824
0.00613116
0.00724467
0.007969
0.00817013
0.00809635
0.00803764
0.00801137
0.0079148
0.00779711
0.00770937
0.0077981
0.00799944
0.0081501
0.00810392
0.00806644
0.00812537
0.007947
0.00834399
0.00832486
0.00828118
0.00823704
0.0082115
0.00821643
0.00827427
0.00830493
0.00734019
0.00816219
0.00644928
0.00802248
0.00795346
0.00584836
0.00586022
0.00575329
0.00570007
0.00594796
0.0058406
0.00618083
0.00605893
0.0064394
0.00631508
0.00698126
0.00685948
0.0072019
0.00711118
0.00772016
0.0076022
0.00811228
0.008077
0.00815377
0.0081366
0.0070487
0.00765233
0.00826153
0.00664932
0.00648261
0.00622276
0.00589708
0.00650741
0.00652728
0.00653587
0.00657116
0.00623169
0.0062865
0.00630472
0.00629618
0.00583497
0.0059413
0.00603247
0.00608419
0.00553899
0.00562484
0.00556667
0.00573284
0.00554406
0.00552024
0.00551835
0.00551096
0.005607
0.00567179
0.00563283
0.00558265
0.00567224
0.00552518
0.00552322
0.00551316
0.0056793
0.00565696
0.00556631
0.00536847
0.00571912
0.00545868
0.00544872
0.00814136
0.0028153
0.00791262
0.00647331
0.00746997
0.00787165
0.00809317
0.00803316
0.0080085
0.00793943
0.00781754
0.00772076
0.00780556
0.00802902
0.00817184
0.00808829
0.00809208
0.00820118
0.00834813
0.00835579
0.00835831
0.00832933
0.00828773
0.00825429
0.00823829
0.00825891
0.00828363
0.00772461
0.00815447
0.00690485
0.00796526
0.00792937
0.00750402
0.00570967
0.0057435
0.00593512
0.0058091
0.00617947
0.0060536
0.00644483
0.00630926
0.00672986
0.00658558
0.00722589
0.00709727
0.00748833
0.00738101
0.00799889
0.00790551
0.00818302
0.00816112
0.00798403
0.00819497
0.00715837
0.00787506
0.00719512
0.00722565
0.00642506
0.00652545
0.00600854
0.00665172
0.00628804
0.00630192
0.00630827
0.00634403
0.00612757
0.00613664
0.00612325
0.00609384
0.00582432
0.00589001
0.0059513
0.00598657
0.00554073
0.00562073
0.00557514
0.00570209
0.00554148
0.00551789
0.00553025
0.00551939
0.00560035
0.00568377
0.00565014
0.00559289
0.00570292
0.00570263
0.00572906
0.0056197
0.00573577
0.00572731
0.00572464
0.00557007
0.0059764
0.00565683
0.00561833
0.0081724
0.00229954
0.00759131
0.00671504
0.00761289
0.00776599
0.00802731
0.00800162
0.00795899
0.00784099
0.00774242
0.00781377
0.00804713
0.00818113
0.00807641
0.00809128
0.00828232
0.00834939
0.00834891
0.00836579
0.00834994
0.00831741
0.00828655
0.0082603
0.00825568
0.00826515
0.00810519
0.00815949
0.00773416
0.00795199
0.00788329
0.00779734
0.0058471
0.0058499
0.00587854
0.00575728
0.00617017
0.00602998
0.00643055
0.00629868
0.00671259
0.00656532
0.00699516
0.0068687
0.00743177
0.0073058
0.00774159
0.00757061
0.00814125
0.00811133
0.00799101
0.0082069
0.00718564
0.00776844
0.00832033
0.00615083
0.00722278
0.00729966
0.00743935
0.0062131
0.00631063
0.00618289
0.00643797
0.00607733
0.0060889
0.00609591
0.00613228
0.00599699
0.00598195
0.00595222
0.005917
0.00576313
0.00581747
0.00586615
0.0058811
0.00555175
0.00562386
0.00558545
0.00568106
0.00556523
0.00554069
0.0055561
0.00554599
0.00562093
0.00570275
0.00569618
0.00562283
0.00575131
0.00586956
0.00593328
0.00575456
0.0057925
0.0058156
0.00589624
0.00575797
0.0061497
0.00585513
0.00579819
0.0076179
0.00193629
0.00601372
0.00690098
0.00759704
0.00766366
0.00797672
0.00797195
0.00786981
0.00771882
0.0077285
0.00805407
0.00817936
0.00807785
0.00807902
0.00830751
0.00835246
0.0083374
0.00835391
0.00834903
0.00832212
0.00829954
0.00827009
0.00825103
0.0082508
0.00822782
0.00817476
0.00809333
0.00795037
0.00789451
0.00779438
0.00751363
0.00583119
0.00590044
0.00610777
0.00593256
0.00640265
0.00625085
0.00671548
0.00656063
0.00693369
0.00682735
0.00717839
0.00707552
0.00772811
0.00745951
0.00800657
0.0078791
0.00818995
0.00817321
0.00732925
0.0078694
0.00828141
0.00745395
0.00812195
0.00739598
0.0073896
0.00578952
0.00637138
0.00715597
0.0073772
0.00603659
0.0061271
0.00622513
0.00624933
0.00590207
0.00591436
0.00592302
0.00595965
0.00586872
0.00584753
0.00582021
0.00579033
0.00572481
0.00575917
0.00578637
0.00578832
0.00557232
0.00562512
0.0055992
0.00566355
0.00561356
0.00559056
0.005608
0.00559654
0.00568166
0.00575637
0.00578311
0.00568966
0.00583222
0.00604639
0.00614807
0.00591679
0.00587888
0.00594812
0.00609492
0.00588493
0.00627005
0.006083
0.00595815
0.00610805
0.00174191
0.00513834
0.00696525
0.00637782
0.00757064
0.00792415
0.00790694
0.00780491
0.00765013
0.00794806
0.00817233
0.0081355
0.00810252
0.00830698
0.00835967
0.00833346
0.00833143
0.00834382
0.00831396
0.00829542
0.0082712
0.00825209
0.00824092
0.00821512
0.00817663
0.00815277
0.0079886
0.00789628
0.00778816
0.00773279
0.00604469
0.00610696
0.00607683
0.0060071
0.00638712
0.00622583
0.00667024
0.00653911
0.00693234
0.00681605
0.00714793
0.00708926
0.00726285
0.00722558
0.00802428
0.00781251
0.00814282
0.00810449
0.00794414
0.0082055
0.00772005
0.00836369
0.0073028
0.00725119
0.00748182
0.0075436
0.0077175
0.00765642
0.00543153
0.0057731
0.00576826
0.00726012
0.00590822
0.0059873
0.00626424
0.00609807
0.00578255
0.00579615
0.00580715
0.00583996
0.00577723
0.00576444
0.00574849
0.00572971
0.00569207
0.00571683
0.00573675
0.00574337
0.00562524
0.00563717
0.0055637
0.00565822
0.00569976
0.00568592
0.00544029
0.00559526
0.00579796
0.00586634
0.0059283
0.00581592
0.005961
0.00626983
0.00637438
0.00612992
0.00593048
0.00589249
0.00615551
0.00600612
0.00635691
0.00630143
0.00616469
0.00529222
0.00152403
0.00407622
0.00689724
0.00565121
0.00747939
0.00786445
0.00785036
0.00771948
0.00789761
0.00816218
0.00815291
0.00819439
0.00832397
0.00836732
0.00834003
0.00831996
0.00832555
0.00830744
0.00828124
0.00826502
0.00825237
0.00823821
0.00818029
0.00809942
0.00819366
0.00804902
0.00789168
0.0077793
0.00771672