/*--------------------------------*- C++ -*----------------------------------*\
  =========                 |
  \\      /  F ield         | OpenFOAM: The Open Source CFD Toolbox
   \\    /   O peration     | Website:  https://openfoam.org
    \\  /    A nd           | Version:  dev
     \\/     M anipulation  |
\*---------------------------------------------------------------------------*/
FoamFile
{
    version     2.0;
    format      ascii;
    class       volScalarField;
    location    "2500";
    object      rDeltaT;
}
// * * * * * * * * * * * * * * * * * * * * * * * * * * * * * * * * * * * * * //

dimensions      [0 0 -1 0 0 0 0];

internalField   nonuniform List<scalar> 
9851
(
100
100
100
100
100
100
100
100
100
100
100
100
100
100
100
100
100
100
100
100
100
100
100
100
100
100
100
100
100
100
100
100
100
100
100
100
100
100
100
100
100
100
100
100
100
100
100
100
100
100
100
100
100
100
100
100
100
100
100
100
100
100
100
100
100
100
100
100
100
100
100
100
100
100
100
100
100
100
100
100
100
100
100
100
100
100
100
100
100
100
100
100
100
100
100
100
100
100
100
100
100
100
100
100
100
100
100
100
100
100
100
100
100
100
100
100
100
100
100
100
100
100
100
100
100
100
100
100
100
100
100
100
100
100
100
100
100
100
100
100
100
100
100
100
100
100
100
100
100
100
100
100
100
100
100
100
100
100
100
100
100
100
100
100
100
100
100
100
100
100
100
100
100
100
100
100
100
100
100
100
100
100
100
100
100
100
100
100
100
100
100
100
100
100
100
100
100
100
100
100
100
100
100
100
100
100
100
100
100
100
100
100
100
100
100
100
100
100
100
100
100
100
100
100
100
100
100
100
100
100
100
100
100
100
100
100
100
100
100
100
100
100
100
100
100
100
100
100
100
100
100
100
100
100
100
100
100
100
100
100
100
100
100
100
100
100
100
100
100
100
100
100
100
100
100
100
100
100
100
100
100
100
100
100
100
100
100
100
100
100
100
100
100
100
100
100
100
100
100
100
100
100
100
100
100
100
100
100
100
100
100
100
100
100
100
100
100
100
100
100
100
100
100
100
100
100
100
100
100
100
100
100
100
100
100
100
100
100
100
100
100
100
100
100
100
100
100
100
100
100
100
100
100
100
100
100
100
100
100
100
100
100
100
100
100
100
100
100
100
100
100
100
100
100
100
100
100
100
100
100
100
100
100
100
100
100
100
100
100
100
100
100
100
100
100
100
100
100
100
100
100
100
100
100
100
100
100
100
100
100
100
100
100
100
100
100
100
100
100
100
100
100
100
100
100
100
100
100
100
100
100
100
100
100
100
100
100
100
100
100
100
100
100
100
100
100
100
100
100
100
100
100
100
100
100
100
100
100
100
100
100
100
100
100
100
100
100
100
100
100
100
100
100
100
100
100
100
100
100
100
100
100
100
100
100
100
100
100
100
100
100
100
100
100
100
100
100
100
100
100
100
100
100
100
100
100
100
100
100
100
100
100
100
100
100
100
100
100
100
100
100
100
100
100
100
100
100
100
100
100
100
100
100
100
100
100
100
100
100
100
100
100
100
100
100
100
100
100
100
100
100
100
100
100
100
100
100
100
100
100
100
100
100
100
100
100
100
100
100
100
100
100
100
100
100
100
100
100
100
100
100
100
100
100
100
100
100
100
100
100
100
100
100
100
100
100
100
100
100
100
100
100
100
100
100
100
100
100
100
100
100
100
100
100
100
100
100
100
100
100
100
100
100
100
100
100
100
100
100
100
100
100
100
100
100
100
100
100
100
100
100
100
100
100
100
100
100
100
100
100
100
100
100
100
100
100
100
100
100
100
100
100
100
100
100
100
100
100
100
100
100
100
100
100
100
100
100
100
100
100
100
100
100
100
100
100
100
100
100
100
100
100
100
100
100
100
100
100
100
100
100
100
100
100
100
100
100
100
100
100
100
100
100
100
100
100
100
100
100
100
100
100
100
100
100
100
100
100
100
100
100
100
100
100
100
100
100
100
100
100
100
100
100
100
100
100
100
100
100
100
100
100
100
100
100
100
100
100
100
100
100
100
100
100
100
100
100
100
100
100
100
100
100
100
100
100
100
100
100
100
100
100
100
100
100
100
100
100
100
100
100
100
100
100
100
100
100
100
100
100
100
100
100
100
100
100
100
100
100
100
100
100
100
100
100
100
100
100
100
100
100
100
100
100
100
100
100
100
100
100
100
100
100
100
100
100
100
100
100
100
100
100
100
100
100
100
100
100
100
100
100
100
100
100
100
100
100
100
100
100
100
100
100
100
100
100
100
100
100
100
100
100
100
100
100
100
100
100
100
100
100
100
100
100
100
100
100
100
100
100
100
100
100
100
100
100
100
100
100
100
100
100
100
100
100
100
100
100
100
100
100
100
100
100
100
100
100
100
100
100
100
100
100
100
100
100
100
100
100
100
100
100
100
100
100
100
100
100
100
100
100
100
100
100
100
100
100
100
100
100
100
100
100
100
100
100
100
100
100
100
100
100
100
100
100
100
100
100
100
100
100
100
100
100
100
100
100
100
100
100
100
100
100
100
100
100
100
100
100
100
100
100
100
100
100
100
100
100
100
100
100
100
100
100
100
100
100
100
100
100
100
100
100
100
100
100
100
100
100
100
100
100
100
100
100
100
100
100
100
100
100
100
100
100
100
100
100
100
100
100
100
100
100
100
100
100
100
100
100
100
100
100
100
100
100
100
100
100
100
100
100
100
100
100
100
100
100
100
100
100
100
100
100
100
100
100
100
100
100
100
100
100
100
100
100
100
100
100
100
100
100
100
100
100
100
100
100
100
100
100
100
100
100
100
100
100
100
100
100
100
100
100
100
100
100
100
100
100
100
100
100
100
100
100
100
100
100
100
100
100
100
100
100
100
100
100
100
100
100
100
100
100
100
100
100
100
100
100
100
100
100
100
100
100
100
100
100
100
100
100
100
100
100
100
100
100
100
100
100
100
100
100
100
100
100
100
100
100
100
100
100
100
100
100
100
100
100
100
100
100
100
100
100
100
100
100
100
100
100
100
100
100
100
100
100
100
100
100
100
100
100
100
100
100
100
100
100
100
100
100
100
100
100
100
100
100
100
100
100
100
100
100
100
100
100
100
100
100
100
100
100
100
100
100
100
100
100
100
100
100
100
100
100
100
100
100
100
100
100
100
100
100
100
100
100
100
100
100
100
100
100
100
100
100
100
100
100
100
100
100
100
100
100
100
100
100
100
100
100
100
100
100
100
100
100
100
100
100
100
100
100
100
100
100
100
100
100
100
100
100
100
100
100
100
100
100
100
100
100
100
100
100
100
100
100
100
100
100
100
100
100
100
100
100
100
100
100
100
100
100
100
100
100
100
100
100
100
100
100
100
100
100
100
100
100
100
100
100
100
100
100
100
100
100
100
100
100
100
100
100
100
100
100
100
100
100
100
100
100
100
100
100
100
100
100
100
100
100
100
100
100
100
100
100
100
100
100
100
100
100
100
100
100
100
100
100
100
100
100
100
100
100
100
100
100
100
100
100
100
100
100
100
100
100
100
100
100
100
100
100
100
100
100
100
100
100
100
100
100
100
100
100
100
100
100
100
100
100
100
100
100
100
100
100
100
100
100
100
100
100
100
100
100
100
100
100
100
100
100
100
100
100
100
100
100
100
100
100
100
100
100
100
100
100
100
100
100
100
100
100
100
100
100
100
100
100
100
100
100
100
100
100
100
100
100
100
100
100
100
100
100
100
100
100
100
100
100
100
100
100
100
100
100
100
100
100
100
100
100
100
100
100
100
100
100
100
100
100
100
100
100
100
100
100
100
100
100
100
100
100
100
100
100
100
100
100
100
100
100
100
100
100
100
100
100
100
100
100
100
100
100
100
100
100
100
100
100
100
100
100
100
100
100
100
100
100
100
100
100
100
100
100
100
100
100
100
100
100
100
100
100
100
100
100
100
100
100
100
100
100
100
100
100
100
100
100
100
100
100
100
100
100
100
100
100
100
100
100
100
100
100
100
100
100
100
100
100
100
100
100
100
100
100
100
100
100
100
100
100
100
100
100
100
100
100
100
100
100
100
100
100
100
100
100
100
100
100
100
100
100
100
100
100
100
100
100
100
100
100
100
100
100
100
100
100
100
100
100
100
100
100
100
100
100
100
100
100
100
100
100
100
100
100
100
100
100
100
100
100
100
100
100
100
100
100
100
100
100
100
100
100
100
100
100
100
100
100
100
100
100
100
100
100
100
100
100
100
100
100
100
100
100
100
100
100
100
100
100
100
100
100
100
100
100
100
100
100
100
100
100
100
100
100
100
100
100
100
100
100
100
100
100
100
100
100
100
100
100
100
100
100
100
100
100
100
100
100
100
100
100
100
100
100
100
100
100
100
100
100
100
100
100
100
100
100
100
100
100
100
100
100
100
100
100
100
100
100
100
100
100
100
100
100
100
100
100
100
100
100
100
100
100
100
100
100
100
100
100
100
100
100
100
100
100
100
100
100
100
100
100
100
100
100
100
100
100
100
100
100
100
100
100
100
100
100
100
100
100
100
100
100
100
100
100
100
100
100
100
100
100
100
100
100
100
100
100
100
100
100
100
100
100
100
100
100
100
100
100
100
100
100
100
100
100
100
100
100
100
100
100
100
100
100
100
100
100
100
100
100
100
100
100
100
100
100
100
100
100
100
100
100
100
100
100
100
100
100
100
100
100
100
100
100
100
100
100
100
100
100
100
100
100
100
100
100
100
100
100
100
100
100
100
100
100
100
100
100
100
100
100
100
100
100
100
100
100
100
100
100
100
100
100
100
100
100
100
100
100
100
100
100
100
100
100
100
100
100
100
100
100
100
100
100
100
100
100
100
100
100
100
100
100
100
100
100
100
100
100
100
100
100
100
100
100
100
100
100
100
100
100
100
100
100
100
100
100
100
100
100
100
100
100
100
100
100
100
100
100
100
100
100
100
100
100
100
100
100
100
100
100
100
100
100
100
100
100
100
100
100
100
100
100
100
100
100
100
100
100
100
100
100
100
100
100
100
100
100
100
100
100
100
100
100
100
100
100
100
100
100
100
100
100
100
100
100
100
100
100
100
100
100
100
100
100
100
100
100
100
100
100
100
100
100
100
100
100
100
100
100
100
100
100
100
100
100
100
100
100
100
100
100
100
100
100
100
100
100
100
100
100
100
100
100
100
100
100
100
100
100
100
100
100
100
100
100
100
100
100
100
100
100
100
100
100
100
100
100
100
100
100
100
100
100
100
100
100
100
100
100
100
100
100
100
100
100
100
100
100
100
100
100
100
100
100
100
100
100
100
100
100
100
100
100
100
100
100
100
100
100
100
100
100
100
100
100
100
100
100
100
100
100
100
100
100
100
100
100
100
100
100
100
100
100
100
100
100
100
100
100
100
100
100
100
100
100
100
100
100
100
100
100
100
100
100
100
100
100
100
100
100
100
100
100
100
100
100
100
100
100
100
100
100
100
100
100
100
100
100
100
100
100
100
100
100
100
100
100
100
100
100
100
100
100
100
100
100
100
100
100
100
100
100
100
100
100
100
100
100
100
100
100
100
100
100
100
100
100
100
100
100
100
100
100
100
100
100
100
100
100
100
100
100
100
100
100
100
100
100
100
100
100
100
100
100
100
100
100
100
100
100
100
100
100
100
100
100
121.159
103.113
100
100
100
100
100
100
100
100
100
100
100
100
100
100
100
100
100
100
100
100
100
100
100
100
100
100
100
100
100
100
100
100
100
100
100
100
100
100
100
100
100
100
100
100
100
100
100
100
100
100
100
100
100
100
100
100
100
100
100
100
100
100
100
100
100
100
100
100
100
100
100
100
100
100
100
100
100
100
100
100
100
100
100
100
100
100
100
100
100
100
100
100
100
100
100
106.586
146.743
125.874
100
100
100
100
100
100
100
100
100
100
100
100
100
100
100
100
100
100
100
100
100
100
100
100
100
100
100
100
100
100
100
100
100
100
100
100
100
100
100
100
100
100
100
100
100
100
100
100
100
100
100
100
100
100
100
100
100
100
100
100
100
100
100
100
100
100
100
100
100
100
100
100
100
100
100
100
100
100
100
100
100
100
100
100
100
100
100
100
100
100
100
100
100
100
100
100
100
129.036
168.852
144.17
100
117.23
100
100
100
100
100
100
100
100
100
100
100
100
100
100
100
100
100
100
100
100
100
100
100
100
100
100
100
100
100
100
100
100
100
100
100
100
100
100
100
100
100
100
100
100
100
100
100
100
100
100
100
100
100
100
100
100
100
100
100
100
100
100
100
100
100
100
100
100
100
100
100
100
100
100
100
100
102.432
100
100
100
108.019
102.853
100
100
100
100
100
100
100
100
101.967
106.706
103.996
100
100
100
100
141.711
191.268
154.009
100.086
128.669
100
100
100
100
100
100
100
100
100
100
100
100
100
100
100
100
100
100
100
100
100
100
100
100
100
100
100
100
100
100
100
100
100
100
100
100
100
100
100
100
100
100
100
100
100
100
100
100
100
100
100
100
100
100
100
100
100
100
100
100
100
100
100
100
100.431
101.4
101.349
100
100
100
104.178
100
100
100
100
112.203
104.389
115.749
106.022
104.176
110.996
123.869
118.408
105.104
103.938
112.445
113.774
108.887
107.145
108.607
111.047
114.415
119.279
115.427
100
100
107.463
105.778
140.136
131.062
156.719
108.838
128.914
100
100
100
100
100
100
100
100
100
100
100
100
100
100
100
100
100
100
100
100
100
100
100
100
100
100
100
100
100
100
100
100
100
100
100
100
100
100
100
100
100
100
100
100
100
100
100
100
100
100
100
100
100
100
100
100
100
100
100
100
109.934
106.862
100
102.936
108.348
110.345
111.466
111.425
100
103.565
108.913
114.162
105.665
103.463
100.482
101.217
128.225
118.094
132.147
120.192
121.895
128.702
143.041
136.523
120.109
116.433
125.654
128.39
122.551
119.469
122.264
123.022
128.111
131.302
128.188
105.51
109.958
123.425
125.322
167.81
265.934
227.527
129.844
167.283
100
100
100
100
100
100
100
100
100
100
100
100
100
100
100
100
100
100
100
100
100
100
100
100
100
100
100
100
100
100
100
100
100
100
100
100
100
100
100
100
100
100
100
100
100
100
100
100
100
100
100
101.086
100
100
100
100
100
100
100
100
100
122.384
119.03
108.748
114.235
118.945
121.642
123.077
123.269
107.539
113.684
119.649
125.48
119.527
117.426
114.783
112.953
148
135.505
152.913
138.159
137.744
145.747
163.757
154.285
135.236
132.015
143.785
145.282
137.811
132.938
137.09
136.305
141.414
146.036
141.757
129.202
141.387
141.365
146.129
205.709
271.355
223.221
163.328
192.945
100
100
100
100
100
100
100
100
100
100
100
100
100
100
100
100
100
100
100
100
100
100
100
100
100
100
100
100
100
100
100
100
100
100
100
100
100
100
100
100
100
100
100
100
100
100
100
100
100
100
103.762
103.002
105.62
102.391
100
100
103.823
103.748
102.272
100
105.351
103.891
136.47
133.15
120.732
127.638
130.911
134.745
136.832
137.125
119.297
125.975
132.531
139.01
137.826
135.956
133.471
130.518
169.924
158.236
176.36
161.707
158.85
173.455
200.782
186.682
158.104
150.524
166.417
173.739
155.519
146.541
152.413
151.638
160.696
165.189
155.503
152.726
166.614
158.698
163.09
200.598
227.781
183.824
183.031
194.01
100
100
100
100
100
100
100
100
100
100
100
100
100
100
100
100
100
100
100
100
100
100
100
100
100
100
100
100
100
100
100
100
100
100
100
100
100
100
100
100
100
100
100
100
100
100
100
100
100
100
100
109.792
108.178
109.976
106.29
102.766
103.008
110.552
111.046
112.871
108.477
115.253
112.276
153.161
149.92
135.182
143.759
145.26
150.468
153.667
153.953
134.698
141.709
148.697
155.969
162.288
160.525
157.683
154.592
206.381
185.187
212.343
192.315
191.617
209.776
233.572
223.286
185.134
175.457
197.248
205.087
181.271
160.984
167.308
168.195
183.934
186.159
171.409
172.284
182.163
171.466
178.273
178.732
168.163
136.418
189.617
183.831
100
100
100
100
100
100
100
100
100
100
100
100
100
100
100
100
100
100
100
100
100
100
100
100
100
100
100
100
100
100
100
100
100
100
100
100
100
100
100
100
100
100
100
100
100
100
100
100
100
102.392
100
100
100
116.204
113.495
115.256
111.555
110.814
111.416
118.182
119.379
125.946
119.72
126.966
121.944
173.573
170.29
153.512
163.601
163.289
169.878
174.53
174.853
155.011
161.908
168.87
177.065
193.756
190.385
186.853
183.002
226.598
223.968
237.462
230.222
221.34
233.456
254.471
239.993
217.159
205.609
228.483
231.611
208.571
175.846
179.472
187.248
209.723
211.288
188.911
184.879
189.761
184.479
189.793
158.861
100
100
187.04
173.37
100
100
100
100
100
100
100
100
100
100
100
100
100
100
100
100
100
100
100
100
100
100
100
100
100
100
100
100
100
100
100
100
100
100
100
100
100
100
100
100
100
100
100
100
100
100
100
100
100
100
107.552
102.77
100
100
123.8
120.033
122.18
118.103
120.352
120.71
126.594
128.753
142.75
133.772
140.9
133.857
198.193
194.654
176.46
187.49
185.883
194.018
199.578
200.263
181.108
186.412
192.123
201.527
227.268
224.105
218.597
212.856
262.575
254.113
276.165
263.001
237.862
251.359
164.104
283.864
234.041
234.704
238.27
244.425
236.034
191.307
194.808
211.703
240.347
242.633
212.922
192.745
191.172
197.199
199.208
141.832
109.476
129.106
180.942
161.633
100
100
100
100
100
100
100
100
100
100
100
100
100
100
100
100
100
100
100
100
100
100
100
100
100
100
100
100
100
100
100
100
100
100
100
100
100
100
100
100
100
100
100
100
100
100
100
100
100
100
112.976
106.441
100
102.267
133.104
128.069
130.11
124.767
131.489
130.738
136.782
139.532
164.009
151.62
158.889
148.977
226.48
222.656
205.11
215.821
212.624
223.632
228.837
229.284
209.347
212.456
215.348
225.409
263.156
262.521
255.754
251.334
303.385
293.581
318.308
161.861
280.292
164.386
187.79
329.495
282.639
245.275
152.936
157.476
249.006
213.699
210.447
244.944
254.843
258.467
243.675
197.487
188.786
210.567
207.519
142.219
430.527
156.177
174.555
153.832
100
100
100
100
100
100
100
100
100
100
100
100
100
100
100
100
100
100
100
100
100
100
100
100
100
100
100
100
100
100
100
100
100
100
100
100
100
100
100
100
100
100
100
100
100
100
100
100
100
100
118.106
110.223
100
106.403
142.483
136.451
139.804
132.349
143.989
141.538
147.544
150.462
191.163
175.225
185.574
169.605
257.197
252.504
238.857
247.094
236.126
248.601
258.256
259.116
249.113
251.843
252.015
261.527
300.42
298.07
291.393
285.721
348.475
335.231
365.076
185.522
327.669
190.338
215.051
380.648
333.289
154.914
181.626
186.456
156.593
233.433
228.581
256.012
158.485
161.693
256.628
200.04
186.745
223.833
215.986
134.019
199.994
100
167.247
145.368
100
100
100
100
100
100
100
100
100
100
100
100
100
100
100
100
100
100
100
100
100
100
100
100
100
100
100
100
100
100
100
100
100
100
100
100
100
100
100
100
100
100
100
100
100
100
100
100
100
100
100
100
124.026
115.151
100.994
111.212
152.497
146.427
150.356
140.975
159.369
153.387
158.767
162.793
225.114
207.029
223.073
198.909
279.928
276.364
273.047
276.66
267.759
287.683
299.498
290.491
283.566
284.535
284.332
294.755
343.437
339.66
332.196
325.349
390.75
382.573
408.639
211.554
383.275
219.566
242.202
430.622
391.731
184.291
214.137
218.289
185.582
252.107
246.477
163.733
186.396
188.665
278.547
295.651
200.488
183.349
237.028
219.838
115.373
100
100
159.653
134.462
100
100
100
100
100
100
100
100
100
100
100
100
100
100
100
100
100
100
100
100
100
100
100
100
100
100
100
100
100
100
100
100
100
100
100
100
100
100
100
100
100
100
100
100
100
100
100
100
100
100
100
100
131.3
121.254
105.586
117.693
164.513
157.982
161.881
151.062
180.694
169.119
170.886
178.27
262.421
245.241
268.636
241.201
315.666
315.025
295.341
307.3
302.704
317.793
175.013
312.386
322.476
322.513
321.714
333.542
383.972
379.062
370.409
363.042
427.873
236.173
438.289
248.518
449.279
218.131
244.851
249.141
219.68
267.654
259.46
187.596
221.193
222.196
174.277
343.548
201.542
178.414
245.973
224.032
100
100
100
152.567
116.851
100
100
100
100
100
100
100
100
100
100
100
100
100
100
100
100
100
100
100
100
100
100
100
100
100
100
100
100
100
100
100
100
100
100
100
100
100
100
100
100
100
100
100
100
100
100
100
100
100
100
100
100
100
100
100
140.193
129.031
110.445
124.165
179.697
170.87
175.249
162.095
212.61
192.19
187.671
202.777
295.087
285.869
309.676
285.007
182.752
345.166
325.31
325.115
342.706
352.577
195.479
350.854
359.487
359.401
357.88
370.795
249.694
250.963
284.183
301.143
267.858
219.252
253.5
252.384
196.398
405.007
199.36
173.805
247.736
223.786
100
100
100
142.576
108.267
100
100
100
100
100
100
100
100
100
100
100
100
100
100
100
100
100
100
100
100
100
100
100
100
100
100
100
100
100
100
100
100
100
100
100
100
100
100
100
100
100
100
100
100
100
100
100
100
100
100
100
100
103.508
100
100
149.904
137.341
116.523
130.747
199.703
186.834
191.98
174.969
253.983
226.323
214.829
240.582
323.366
313.977
320.208
319.551
202.172
379.708
355.584
189.585
361.831
380.397
387.527
218.472
395.06
169.245
345.27
273.746
300.817
247.354
226.527
458.504
197.195
167.19
244.087
222.636
100
111.74
119.144
134.28
102.769
100
100
100
100
100
100
100
100
100
100
100
100
100
100
100
100
100
100
100
100
100
100
100
100
100
100
100
100
100
100
100
100
100
100
100
100
100
100
100
100
100
100
100
100
100
100
100
100
100
100
100
100
100
109.491
100
100
160.028
145.294
124.42
139.707
229.06
208.662
214.29
191.157
292.803
266.645
253.488
281.569
337.947
184.995
331.277
224.078
412.6
391.523
208.037
406.528
240.135
435.647
192.107
402.944
161.694
343.181
252.85
191.823
159.821
251.817
286.737
217.202
100
115.549
147.277
127.502
104.815
100
100
100
100
100
100
100
100
100
100
100
100
100
100
100
100
100
100
100
100
100
100
100
100
100
100
100
100
100
100
100
100
100
100
100
100
100
100
100
100
100
100
100
100
100
100
100
100
100
100
100
100
100
100
100
115.557
102.544
100
171.43
155.169
131.997
148.745
266.549
237.74
241.941
212.556
319.335
301.931
294.367
314.748
376.083
189.029
205.777
243.293
423.837
229.512
445.291
223.145
451.695
186.107
397.558
186.589
151.859
254.226
281.936
325.203
208.686
120.557
118.191
173.851
123.389
116.431
100
100
100
100
100
100
100
100
100
100
100
100
100
100
100
100
100
100
100
100
100
100
100
100
100
100
100
100
100
100
100
100
100
100
100
100
100
100
100
100
100
100
100
100
100
100
100
100
100
100
100
100
100
100
100
100
121.996
107.372
103.888
186.191
166.792
140.004
158.11
299.817
269.946
271.199
240.367
339.416
318.968
324.018
321.505
419.464
196.037
211.208
229.564
247.942
250.193
216.997
443.391
176.233
145.349
153.357
323.941
371.296
196.498
253.042
142.357
118.034
192.163
125.383
131.185
100
100
100
100
100
100
100
100
100
100
100
100
100
100
100
100
100
100
100
100
100
100
100
100
100
100
100
100
100
100
100
100
100
100
100
100
100
100
100
100
100
100
100
100
100
100
100
100
100
100
100
100
100
101.432
100.004
100
100
128.427
112.87
109.667
206.467
179.907
147.417
167.554
321.362
298.5
295.889
268.168
346.401
320.069
192.997
456.237
219.348
235.52
249.822
243.651
167.085
141.704
177.574
379.716
413.034
188.496
234.145
289.352
163.398
111.374
207.109
135.418
144.483
100
100
100
100
100
100
100
100
100
100
100
100
100
100
100
100
100
100
100
100
100
100
100
100
100
100
100
100
100
100
100
100
100
100
100
100
100
100
100
100
100
100
100
100
100
100
100
100
100
100
100
100
100
100
105.863
105.422
100
100
136.075
119.248
114.171
230.371
195.026
155.317
177.974
332.563
320.403
318.904
294.113
384.315
189.859
214.356
243.835
256.88
162.175
146.841
207.589
432.248
184.799
231.3
274.046
335.085
186.652
101.955
212.284
144.182
158.628
100
100
100
100
100
100
100
100
100
100
100
100
100
100
100
100
100
100
100
100
100
100
100
100
100
100
100
100
100
100
100
100
100
100
100
100
100
100
100
100
100
100
100
100
100
100
100
100
100
100
100
100
100
100
100
111.487
109.12
102.528
100.659
143.559
124.583
119.182
256.252
213.807
163.939
191.048
344.192
378.058
335.385
334.391
316.18
424.757
210.697
234.636
265.702
163.546
153.171
236.096
185.449
228.123
270.195
324.086
381.234
203.972
100
212.478
152.276
171.865
100
100
100
100
100
100
100
100
100
100
100
100
100
100
100
100
100
100
100
100
100
100
100
100
100
100
100
100
100
100
100
100
100
100
100
100
100
100
100
100
100
100
100
100
103.242
100
100
100
100
100
100
100
100
100
100
100
116.287
111.852
105.626
149.074
129.04
124.878
281.029
235.001
171.048
205.379
206.395
415.683
339.075
340.837
333.65
462.432
230.74
252.923
168.365
158.101
189.026
227.369
265.783
318.454
373.958
217.701
100
211.584
159.668
183.177
100
100
100
100
100
100
100
100
100
100
100
100
100
100
100
100
100
100
100
100
100
100
100
100
100
100
100
100
100
100
100
100
100
100
100
100
100
100
100
100
100
100
100
100
108.653
103.668
100
100
100
100
100
100
100
100
100
100
100
100
119.139
114.888
154.957
134.943
128.479
303.755
256.509
177.064
219.562
229.522
204.177
446.677
351.347
376.737
341.189
249.072
171.543
162.064
190.567
228.172
264.962
312.902
366.045
224.132
100.116
207.26
165.64
191.229
100
100
100
100
100
100
100
100
100
100
100
100
100
100
100
100
100
100
100
100
100
100
100
100
100
100
100
100
100
100
100
100
100
100
100
100
100
100
100
100
100
100
100
100
100
109.601
103.622
100
100
100
100
100
100
100
100
100
100
100
100
100
122.037
116.5
161.638
139.87
131.397
323.302
277.559
186.387
238.623
248.592
221.196
475.198
209.715
408.027
349.728
174.838
165.626
195.619
225.936
265.22
311.377
359.43
225.036
109.934
194.93
169.775
192.791
100
100
100
100
100
100
100
100
100
100
100
100
100
100
100
100
100
100
100
100
100
100
100
100
100
100
100
100
100
100
100
100
100
100
100
100
100
100
100
100
100
100
100
100
109.692
103.159
100
100
100
100
100
100
100
100
100
100
100
100
100
100
124.337
116.802
166.186
143.467
134.02
336.851
299.637
195.065
257.632
264.447
236.382
381.03
227.208
434.783
366.27
176.81
168.225
197.806
232.487
263.518
311.118
356.38
205.039
161.056
219.071
169.549
182.991
100
100
100
100
100
100
100
100
100
100
100
100
100
100
100
100
100
100
100
100
100
100
100
100
100
100
100
100
100
100
100
100
100
100
100
100
100
100
100
100
100
100
100
100
100
109.133
102.086
100
100
100
100
100
100
100
100
100
100
100
100
100
100
100
125.014
116.032
169.268
146.481
134.942
346.781
319.457
203.836
275.31
249.612
410.67
211.321
242.864
457.581
179.458
168.58
202.906
232.933
270.13
310.424
355.064
218.688
346.049
278.904
164.308
172.832
100
100
100
100
100
100
100
100
100
100
100
100
100
100
100
100
100
100
100
100
100
100
100
100
100
100
100
100
100
100
100
100
100
100
100
100
100
100
100
100
100
100
100
100
100
107.954
100
100
100
100
100
100
100
100
100
100
100
100
100
100
100
100
100
124.341
114.741
172.481
148.485
134.753
354.198
333.691
213.177
288.24
436.407
228.632
378.622
254.923
179.42
166.654
205.813
239.092
272.415
316.302
355.121
213.851
841.772
307.462
152.936
155.824
100
100
100
100
100
100
100
100
100
100
100
100
100
100
100
100
100
100
100
100
100
100
100
100
100
100
100
100
100
100
100
100
100
100
100
100
100
100
100
100
100
100
100
100
100
104.956
100
100
100
100
100
100
100
100
100
100
100
100
100
100
100
100
102.809
123.109
112.259
175.234
149.67
134.153
364.638
335.753
220.165
291.702
455.658
244.402
408.539
209.17
179.989
160.113
205.07
249.899
279.187
320.799
359.173
171.419
168.796
100
140.203
138.703
100
100
100
100
100
100
100
100
100
100
100
100
100
100
100
100
100
100
100
100
100
100
100
100
100
100
100
100
100
100
100
100
100
100
100
100
100
100
100
100
100
100
100
100
100
100
100
100
100
100
100
100
100
100
100
100
100
100
100
100
100
100
100
110.574
121.28
178.554
150.682
133.483
322.162
226.565
293.755
255.878
436.228
224.886
341.892
174.535
149.115
204.419
243.832
289.667
327.905
364.353
122.453
100
100
126.744
114.837
100
100
100
100
100
100
100
100
100
100
100
100
100
100
100
100
100
100
100
100
100
100
100
100
100
100
100
100
100
100
100
100
100
100
100
100
100
100
100
100
100
100
100
100
100
100
100
100
100
100
100
100
100
100
100
100
100
100
100
100
100
100
100
107.249
103.675
120.275
183.817
152.213
133.647
327.138
236.508
302.674
454.955
240.045
366.868
347.024
163.071
135.094
192.243
232.108
151.384
286.296
337.915
371.638
100
100
100
110.245
100
100
100
100
100
100
100
100
100
100
100
100
100
100
100
100
100
100
100
100
100
100
100
100
100
100
100
100
100
100
100
100
100
100
100
100
100
100
100
100
100
100
100
100
100
100
100
100
100
100
100
100
100
100
100
100
100
100
100
100
100
100.309
100
101.107
100.246
100.396
117.213
114.092
188.11
154.078
131.588
340.786
245.559
307.357
250.638
392.55
372.505
358.868
150.117
121.909
220.502
179.351
282.716
178.683
337.973
380.815
100
100
100
100
100
100
100
100
100
100
100
100
100
100
100
100
100
100
100
100
100
100
100
100
100
100
100
100
100
100
100
100
100
100
100
100
100
100
100
100
100
100
100
100
100
100
100
100
100
100
100
100
100
100
100
100
100
100
100
100
100
100
100
101.413
102.118
104.423
107.408
104.927
109.218
111.037
109.381
129.119
189.32
153.516
362.731
245.324
297.056
412.253
399.831
388.616
207.392
137.617
115.294
199.163
166.686
248.02
329.461
209.935
384.286
100
100
100
100
100
100
100
100
100
100
100
100
100
100
100
100
100
100
100
100
100
100
100
100
100
100
100
100
100
100
100
100
100
100
100
100
100
100
100
100
100
100
100
100
100
100
100
100
100
100
100
100
100
100
100
100
100
100
100
100
100
100
100
103.483
103.081
109.218
109.938
113
116.462
114.79
119.88
126.378
123.258
151.659
187.319
238.904
287.846
320.485
421.308
418.511
221.558
127.631
114.144
193.764
152.671
298.268
150.182
381.569
237.38
100
100
100
104.076
100
100
100
100
100
100
100
100
100
100
100
100
100
100
100
100
100
100
100
100
100
100
100
100
100
100
100
100
100
100
100
100
100
100
100
100
100
100
100
100
100
100
100
100
100
100
100
100
100
100
100
100
100
100
100
100
101.512
100
102.378
101.846
111.205
110.724
119.159
119.792
124.391
128.484
128.155
134.242
148.889
145.201
183.267
231.255
277.141
310.58
344.001
441.965
235.61
123.928
117.36
211.743
184.405
143.113
355.203
177.914
258.246
431.92
100
100
100
100.489
100
100
100
100
100
100
100
100
100
100
100
100
100
100
100
100
100
100
100
100
100
100
100
100
100
100
100
100
100
100
100
100
100
100
100
100
100
100
100
100
100
100
100
100
100
100
100
100
100
100
100
100
100
100
100
100
100
104.594
107.323
109.801
108.694
120.804
120.486
131.885
132.519
139.648
144.441
147.472
154.715
177.907
221.761
263.035
303.073
334.535
371.694
246.492
123.626
123.994
204.504
170.207
135.028
407.035
208.771
313.119
145.121
100
100
100
100
100
100
100
100
100
100
100
100
100
100
100
100
100
100
100
100
100
100
100
100
100
100
100
100
100
100
100
100
100
100
100
100
100
100
100
100
100
100
100
100
100
100
100
100
100
100
100
102.573
100
100
100
100
100
100
100
100
100
100
102.132
112.029
115.445
119.654
118.008
133.399
133.383
148.34
149.02
161.06
166.332
176.689
185.173
217.44
258.775
289.951
327.375
364.139
396.022
130.07
119.228
198.067
155.044
134.165
238.534
373.723
177.247
213.925
259.424
100
100
100
100
100
100
100
100
100
100
100
100
100
100
100
100
100
100
100
100
100
100
100
100
100
100
100
100
100
100
100
100
100
100
100
100
100
100
100
100
100
100
100
100
100
100
100
100
100
100
100
100
100
109.661
100
100
100
100
100
100
100
100
100
100
100.575
107.275
123.019
126.934
132.636
130.605
149.689
149.703
170.248
170.807
192.546
197.832
226.79
266.865
292.784
315.516
355.971
389.99
137.543
103.332
186.609
145.684
144.486
431.383
211.351
316.912
207.162
150.891
100
100
100
100
100
100
100
100
100
100
100
100
100
100
100
100
100
100
100
100
100
100
100
100
100
100
100
100
100
100
100
100
100
100
100
100
100
100
100
100
100