/*--------------------------------*- C++ -*----------------------------------*\
  =========                 |
  \\      /  F ield         | OpenFOAM: The Open Source CFD Toolbox
   \\    /   O peration     | Website:  https://openfoam.org
    \\  /    A nd           | Version:  dev
     \\/     M anipulation  |
\*---------------------------------------------------------------------------*/
FoamFile
{
    version     2.0;
    format      ascii;
    class       volScalarField;
    location    "2500";
    object      T;
}
// * * * * * * * * * * * * * * * * * * * * * * * * * * * * * * * * * * * * * //

dimensions      [0 0 0 1 0 0 0];

internalField   nonuniform List<scalar> 
9851
(
300.094
300.135
300.116
300.14
300.204
300.105
300.115
300.257
300.215
300.088
300.124
300.29
300.294
300.188
300.075
300.113
300.279
300.36
300.297
300.158
300.063
300.092
300.263
300.38
300.376
300.264
300.147
300.055
300.097
300.256
300.391
300.431
300.362
300.225
300.131
300.054
300.08
300.231
300.373
300.466
300.438
300.331
300.208
300.119
300.047
300.087
300.224
300.369
300.489
300.499
300.417
300.288
300.19
300.107
300.047
300.074
300.194
300.352
300.483
300.536
300.492
300.387
300.265
300.173
300.101
300.043
300.081
300.188
300.344
300.465
300.556
300.549
300.463
300.344
300.246
300.157
300.096
300.042
300.078
300.179
300.332
300.46
300.578
300.59
300.536
300.424
300.315
300.221
300.146
300.088
300.039
300.068
300.184
300.307
300.45
300.574
300.62
300.594
300.5
300.388
300.289
300.208
300.141
300.088
300.037
300.07
300.182
300.301
300.442
300.562
300.639
300.641
300.567
300.469
300.363
300.273
300.201
300.137
300.08
300.036
300.065
300.175
300.287
300.425
300.555
300.649
300.672
300.641
300.543
300.438
300.34
300.256
300.191
300.128
300.08
300.037
300.065
300.159
300.275
300.392
300.545
300.649
300.697
300.684
300.611
300.506
300.41
300.323
300.246
300.184
300.125
300.078
300.036
300.066
300.171
300.271
300.405
300.55
300.646
300.712
300.72
300.67
300.578
300.475
300.385
300.304
300.235
300.174
300.121
300.075
300.035
300.07
300.172
300.255
300.401
300.527
300.638
300.719
300.747
300.717
300.644
300.543
300.446
300.366
300.293
300.227
300.167
300.115
300.072
300.033
300.072
300.161
300.246
300.398
300.5
300.628
300.726
300.766
300.758
300.698
300.608
300.514
300.426
300.35
300.279
300.219
300.162
300.113
300.07
300.033
300.07
300.161
300.276
300.383
300.488
300.627
300.726
300.78
300.79
300.749
300.671
300.58
300.486
300.409
300.338
300.271
300.212
300.159
300.112
300.07
300.031
300.068
300.168
300.268
300.365
300.508
300.616
300.724
300.788
300.814
300.793
300.728
300.639
300.546
300.464
300.39
300.325
300.261
300.205
300.155
300.11
300.069
300.032
300.074
300.178
300.283
300.395
300.508
300.611
300.717
300.795
300.831
300.827
300.778
300.699
300.609
300.523
300.45
300.381
300.317
300.254
300.198
300.15
300.108
300.067
300.031
300.069
300.164
300.275
300.393
300.5
300.607
300.706
300.798
300.844
300.854
300.822
300.753
300.665
300.58
300.507
300.435
300.37
300.304
300.251
300.194
300.149
300.106
300.066
300.031
300.081
300.188
300.285
300.397
300.495
300.597
300.702
300.796
300.853
300.877
300.858
300.802
300.722
300.639
300.558
300.491
300.422
300.358
300.297
300.246
300.188
300.145
300.106
300.066
300.032
300.078
300.178
300.295
300.406
300.499
300.593
300.692
300.789
300.861
300.895
300.89
300.847
300.777
300.696
300.614
300.539
300.478
300.413
300.354
300.291
300.239
300.187
300.142
300.103
300.067
300.031
300.087
300.194
300.303
300.403
300.504
300.593
300.69
300.786
300.865
300.908
300.916
300.886
300.826
300.748
300.669
300.596
300.529
300.468
300.404
300.341
300.285
300.236
300.184
300.141
300.103
300.066
300.032
300.08
300.204
300.304
300.41
300.504
300.596
300.692
300.785
300.869
300.921
300.938
300.922
300.871
300.8
300.72
300.647
300.579
300.516
300.456
300.393
300.338
300.281
300.232
300.184
300.14
300.103
300.067
300.032
300.084
300.209
300.31
300.42
300.509
300.598
300.694
300.786
300.868
300.929
300.959
300.95
300.913
300.848
300.772
300.696
300.626
300.562
300.503
300.445
300.39
300.328
300.274
300.228
300.181
300.14
300.101
300.067
300.032
300.103
300.228
300.335
300.422
300.517
300.606
300.697
300.788
300.871
300.937
300.975
300.978
300.949
300.891
300.82
300.746
300.677
300.612
300.551
300.496
300.438
300.383
300.328
300.274
300.226
300.178
300.139
300.101
300.069
300.032
300.108
300.229
300.34
300.433
300.522
300.611
300.699
300.789
300.876
300.945
300.989
301.002
300.982
300.936
300.87
300.795
300.724
300.661
300.602
300.545
300.487
300.431
300.371
300.322
300.267
300.22
300.18
300.139
300.105
300.07
300.035
300.115
300.23
300.341
300.44
300.525
300.615
300.705
300.796
300.883
300.951
301.001
301.021
301.01
300.976
300.915
300.843
300.77
300.707
300.647
300.592
300.536
300.477
300.426
300.37
300.317
300.271
300.219
300.181
300.143
300.105
300.072
300.036
300.109
300.249
300.359
300.445
300.529
300.619
300.709
300.8
300.889
300.961
301.014
301.039
301.039
301.009
300.96
300.892
300.821
300.754
300.692
300.631
300.58
300.524
300.475
300.415
300.369
300.314
300.264
300.219
300.18
300.144
300.109
300.074
300.037
300.126
300.267
300.358
300.456
300.539
300.624
300.718
300.807
300.899
300.97
301.026
301.056
301.062
301.042
300.999
300.935
300.869
300.796
300.733
300.678
300.625
300.574
300.52
300.47
300.412
300.359
300.306
300.261
300.221
300.184
300.148
300.113
300.076
300.019
300.04
300.123
300.258
300.367
300.46
300.547
300.632
300.724
300.813
300.905
300.981
301.038
301.072
301.084
301.07
301.034
300.981
300.912
300.845
300.782
300.723
300.667
300.616
300.563
300.51
300.456
300.402
300.352
300.306
300.263
300.226
300.189
300.152
300.106
300.06
300.08
300.019
300.04
300.137
300.271
300.378
300.465
300.554
300.64
300.731
300.823
300.913
300.992
301.051
301.087
301.103
301.097
301.069
301.021
300.956
300.89
300.824
300.764
300.71
300.658
300.606
300.554
300.503
300.45
300.4
300.352
300.308
300.268
300.232
300.194
300.142
300.16
300.101
300.128
300.121
300.061
300.082
300.02
300.042
300.141
300.265
300.381
300.469
300.559
300.648
300.739
300.832
300.923
301.004
301.066
301.105
301.124
301.122
301.1
301.059
301.001
300.936
300.87
300.808
300.751
300.7
300.65
300.599
300.549
300.497
300.446
300.398
300.355
300.313
300.275
300.237
300.18
300.201
300.15
300.103
300.142
300.125
300.064
300.085
300.021
300.044
300.136
300.267
300.384
300.469
300.559
300.653
300.745
300.84
300.933
301.017
301.081
301.123
301.145
301.146
301.129
301.094
301.042
300.98
300.915
300.853
300.795
300.742
300.692
300.642
300.594
300.544
300.495
300.443
300.397
300.36
300.321
300.282
300.221
300.245
300.173
300.197
300.164
300.107
300.147
300.13
300.067
300.09
300.022
300.047
300.146
300.283
300.383
300.466
300.561
300.658
300.752
300.849
300.945
301.031
301.097
301.141
301.165
301.17
301.156
301.127
301.081
301.024
300.96
300.897
300.838
300.784
300.733
300.684
300.637
300.589
300.539
300.493
300.444
300.403
300.368
300.328
300.268
300.291
300.221
300.245
300.187
300.211
300.17
300.112
300.154
300.136
300.071
300.094
300.023
300.05
300.145
300.277
300.374
300.469
300.563
300.661
300.757
300.857
300.956
301.045
301.114
301.16
301.186
301.192
301.183
301.157
301.117
301.065
301.004
300.942
300.882
300.826
300.774
300.725
300.678
300.632
300.579
300.532
300.492
300.447
300.41
300.375
300.316
300.34
300.27
300.296
300.236
300.262
300.195
300.221
300.178
300.119
300.162
300.144
300.075
300.1
300.025
300.053
300.146
300.281
300.376
300.47
300.56
300.662
300.762
300.863
300.966
301.059
301.131
301.18
301.207
301.215
301.208
301.186
301.151
301.104
301.047
300.986
300.926
300.868
300.815
300.765
300.718
300.674
300.63
300.572
300.525
300.494
300.458
300.419
300.37
300.395
300.325
300.357
300.29
300.322
300.248
300.279
300.205
300.235
300.189
300.126
300.172
300.154
300.079
300.106
300.027
300.056
300.138
300.276
300.374
300.467
300.558
300.663
300.765
300.868
300.974
301.072
301.148
301.2
301.228
301.238
301.232
301.213
301.182
301.14
301.088
301.03
300.97
300.911
300.856
300.805
300.757
300.712
300.67
300.624
300.569
300.52
300.495
300.476
300.436
300.477
300.399
300.457
300.366
300.435
300.32
300.388
300.27
300.326
300.22
300.261
300.204
300.135
300.187
300.168
300.084
300.114
300.029
300.06
300.132
300.273
300.366
300.461
300.556
300.663
300.766
300.871
300.981
301.084
301.165
301.219
301.25
301.261
301.256
301.239
301.212
301.174
301.126
301.072
301.014
300.955
300.899
300.845
300.796
300.749
300.71
300.665
300.618
300.572
300.531
300.515
300.537
300.623
300.552
300.719
300.556
300.78
300.517
300.778
300.437
300.679
300.337
300.516
300.251
300.35
300.236
300.146
300.217
300.192
300.09
300.122
300.031
300.065
300.125
300.26
300.355
300.451
300.548
300.66
300.766
300.874
300.986
301.094
301.18
301.238
301.271
301.284
301.28
301.264
301.239
301.205
301.162
301.112
301.056
300.998
300.941
300.887
300.835
300.787
300.745
300.704
300.66
300.62
300.58
300.593
300.76
300.92
300.934
301.336
301.175
301.773
301.284
302.127
301.191
302.194
300.941
301.847
300.617
301.295
300.357
300.716
300.349
300.164
300.321
300.273
300.097
300.134
300.033
300.069
300.119
300.248
300.345
300.438
300.537
300.654
300.764
300.876
300.991
301.104
301.195
301.257
301.292
301.307
301.304
301.29
301.265
301.233
301.194
301.149
301.097
301.041
300.984
300.928
300.874
300.824
300.779
300.742
300.701
300.653
300.632
300.713
301.264
301.09
301.716
302.304
302.48
303.253
303.154
304.258
303.549
305.042
303.457
305.355
302.727
304.979
301.684
303.743
300.788
302.027
300.797
300.214
300.726
300.583
300.105
300.16
300.036
300.073
300.114
300.238
300.335
300.428
300.525
300.644
300.76
300.875
300.994
301.112
301.208
301.274
301.312
301.329
301.328
301.316
301.295
301.267
301.231
301.186
301.136
301.083
301.026
300.969
300.914
300.863
300.815
300.776
300.731
300.699
300.679
300.936
302.948
302.691
303.606
303.988
304.742
305.319
306.312
306.485
307.808
307.195
308.981
307.302
309.495
306.498
309.247
304.676
308.03
302.243
305.371
302.257
300.404
302.03
301.594
300.116
300.249
300.038
300.079
300.111
300.232
300.327
300.42
300.514
300.629
300.751
300.871
300.994
301.117
301.22
301.29
301.332
301.351
301.355
301.348
301.335
301.313
301.28
301.237
301.186
301.128
301.07
301.012
300.956
300.902
300.851
300.807
300.775
300.742
300.735
301.168
303.632
306.476
306.976
305.371
305.991
307.191
308.002
308.985
310.017
310.463
311.659
311.271
312.417
311.357
312.549
310.827
312.352
309.178
311.68
305.715
309.874
305.627
301.073
305.053
304.058
300.148
300.597
300.04
300.088
300.113
300.229
300.32
300.413
300.505
300.615
300.741
300.862
300.99
301.118
301.228
301.305
301.352
301.377
301.392
301.405
301.418
301.416
301.386
301.329
301.261
301.193
301.126
301.061
301
300.943
300.889
300.84
300.803
300.766
300.795
301.354
304.064
307.35
307.709
309.741
310.173
308.681
309.267
310.877
311.618
312.569
313.234
313.156
313.661
313.205
313.556
313.04
313.387
312.802
313.223
312.174
312.946
310.148
312.417
310.022
302.888
309.381
308.043
300.274
301.682
300.041
300.136
300.123
300.238
300.321
300.408
300.499
300.601
300.727
300.852
300.982
301.115
301.231
301.317
301.374
301.417
301.464
301.538
301.636
301.709
301.708
301.618
301.472
301.328
301.213
301.126
301.053
300.988
300.929
300.876
300.833
300.804
300.815
301.423
304.328
307.979
307.735
310.508
310.81
313.107
313.461
312.217
312.71
313.756
314.202
314.018
314.329
313.802
313.944
313.443
313.307
313.172
312.818
313.114
312.704
313.071
312.896
312.519
313.115
312.478
306.221
312.183
311.359
300.825
304.211
300.124
300.715
300.132
300.254
300.334
300.407
300.496
300.587
300.71
300.838
300.971
301.106
301.232
301.326
301.398
301.476
301.605
301.827
302.122
302.378
302.495
302.423
302.165
301.79
301.465
301.254
301.127
301.041
300.973
300.914
300.863
300.822
300.834
301.424
304.335
309.875
310.983
311.574
313.728
313.961
315.242
315.541
314.587
314.93
314.621
314.903
314.032
314.104
313.011
312.675
312.075
311.231
311.712
310.419
312.026
310.468
312.681
311.33
313.166
312.549
313.233
309.931
313.23
313.083
303.114
308.355
301.347
303.615
300.248
300.344
300.411
300.495
300.577
300.695
300.817
300.959
301.095
301.228
301.332
301.421
301.547
301.795
302.224
302.745
303.165
303.382
303.385
303.178
302.772
302.19
301.626
301.296
301.126
301.028
300.957
300.898
300.86
300.848
301.401
304.267
309.822
314.307
314.31
314.073
314.249
315.809
316.056
315.745
316.037
315.181
315.461
314.2
314.329
312.424
312.314
310.52
310.028
309.184
308.158
308.843
307.38
309.485
307.871
310.866
309.057
312.593
310.718
312.859
312.625
313.233
313.538
307.357
311.833
300.926
304.287
300.323
300.416
300.507
300.575
300.68
300.797
300.939
301.084
301.218
301.334
301.441
301.621
302.006
302.653
303.374
303.906
304.189
304.263
304.147
303.82
303.269
302.525
301.759
301.325
301.118
301.011
300.94
300.885
300.87
301.328
304.069
309.668
314.264
313.826
316.569
316.642
316.254
316.434
316.331
316.622
315.012
315.322
314.507
314.74
312.333
312.424
309.767
309.722
307.453
307.065
306.134
305.157
306.559
305.279
307.798
306.753
309.09
308.14
310.895
309.242
311.409
313.753
312.141
312.659
313.469
309.35
313.203
300.491
303.675
300.401
300.524
300.572
300.665
300.778
300.917
301.065
301.209
301.332
301.455
301.684
302.202
303.059
303.946
304.563
304.883
305.013
305.006
304.836
304.418
303.712
302.778
301.834
301.323
301.098
300.991
300.919
300.902
301.208
303.692
309.339
315.334
316.687
317.007
317.421
317.65
316.902
317.171
315.658
316.007
313.266
313.651
312.629
312.925
309.795
309.994
306.934
306.986
304.564
304.312
304.016
302.952
305.688
304.429
307.429
306.696
308.687
308.858
309.633
309.274
309.203
310.814
309.921
313.103
313.839
313.561
311.625
310.504
310.145
312.1
309.834
313.797
313.699
312.856
300.359
303.147
300.52
300.575
300.656
300.762
300.895
301.042
301.192
301.326
301.459
301.725
302.357
303.402
304.45
305.123
305.434
305.588
305.669
305.695
305.542
305.047
304.144
302.964
301.849
301.3
301.076
300.967
300.925
301.101
303.208
308.758
315.06
318.026
317.908
317.806
318.023
317.057
317.388
316.362
316.714
314.065
314.497
311.095
311.552
310.306
310.678
307.152
307.44
304.263
304.365
302.428
302.228
303.029
301.937
305.703
304.262
309.155
308.299
307.818
309.687
310.344
311.045
310.817
309.572
309.604
309.818
310.145
309.751
312.695
313.28
310.955
310.22
309.962
311.518
312.943
308.363
311.177
313.687
313.641
300.134
308.198
304.037
301.39
300.609
300.656
300.747
300.871
301.019
301.168
301.314
301.458
301.74
302.45
303.655
304.852
305.519
305.763
305.873
306.015
306.203
306.374
306.298
305.713
304.563
303.073
301.811
301.266
301.047
300.956
301.034
302.628
308.008
314.474
318.247
318.197
318.376
317.687
317.973
315.817
316.246
314.939
315.38
312.039
312.549
308.701
309.221
307.806
308.229
304.579
304.866
302.174
302.205
301.504
301.359
302.713
301.627
307.103
306.137
305.206
304.11
310.982
310.568
309.318
308.507
311.013
311.812
312.217
312.199
310.531
309.93
310.8
311.613
310.035
312.199
312.894
310.558
310.149
310.294
311.02
312.954
311.15
313.443
313.51
301.073
300.028
300.106
307.866
303.669
300.667
300.738
300.851
300.994
301.143
301.291
301.447
301.736
302.476
303.803
305.143
305.781
305.926
305.956
306.005
306.227
306.617
307.024
307.054
306.341
304.889
303.049
301.738
301.212
301.013
301.024
302.074
306.928
313.701
318.173
317.952
318.188
317.415
317.768
316.658
317.054
314.125
314.652
313.073
313.598
309.78
310.372
306.182
306.743
305.236
305.681
302.333
302.56
301.305
301.276
301.258
301.16
303.219
302.332
301.814
301.472
307.551
306.442
305.3
304.188
311.85
311.102
309.861
308.838
312.646
313.239
313.047
313.342
312.077
310.916
312.36
313.349
310.906
311.673
312.452
310.502
310.817
310.727
310.796
312.882
311.038
313.124
313.332
300.739
300.018
300.05
307.498
303.128
300.738
300.837
300.966
301.118
301.265
301.422
301.711
302.463
303.846
305.328
305.969
306.042
305.94
305.826
305.926
306.404
307.086
307.712
307.77
306.828
305.008
302.907
301.617
301.145
301.046
301.659
305.575
312.644
317.892
318.086
316.985
317.252
316.132
316.574
315.168
315.665
312.244
312.873
310.985
311.612
307.364
308.031
303.769
304.327
302.885
303.29
301.276
301.341
301.119
301.036
301.35
301.305
301.299
301.293
303.232
302.47
301.975
301.756
307.671
306.443
305.237
304.144
312.298
310.057
311.221
308.837
314.168
314.385
313.455
314.163
313.882
312.441
314.2
314.976
312.314
311.252
311.966
310.705
312.021
311.633
310.815
312.761
310.87
312.769
313.13
300.374
300.013
300.031
307.034
302.254
300.824
300.942
301.088
301.239
301.391
301.653
302.395
303.827
305.405
306.113
306.149
305.892
305.416
305.027
305.386
306.594
307.708
308.499
308.385
307.017
304.846
302.633
301.461
301.118
301.424
304.32
311.299
317.212
318.214
316.579
317.034
315.715
316.164
314.657
315.2
313.489
314.086
310.214
310.959
308.734
309.466
304.94
305.626
301.88
302.233
301.458
301.632
300.954
300.922
301.347
301.12
301.7
301.705
301.703
301.642
303.262
302.654
302.372
302.332
307.527
306.235
305.056
304.091
312.364
309.944
311.03
308.564
315.335
315.243
313.514
314.59
315.622
314.288
316.05
316.216
314.092
311.069
311.551
311.253
313.643
312.988
311.04
312.634
310.697
312.361
312.915
300.188
300.01
300.022
306.349
301.571
300.925
301.062
301.207
301.362
301.585
302.243
303.728
305.403
306.221
306.254
305.854
305.024
304.044
304.048
305.204
307.05
308.597
309.358
308.635
306.824
304.443
302.248
301.316
301.38
303.387
309.768
316.202
318.173
317.002
315.429
315.799
314.36
314.92
313.094
313.747
311.691
312.406
307.993
308.841
306.372
307.163
302.719
303.315
301.066
301.192
300.929
300.977
300.906
300.815
302.448
302.201
301.484
301.88
302.389
302.524
302.581
302.576
303.411
303.119
303.107
303.286
307.194
305.946
304.926
304.216
312.153
309.585
310.651
308.153
316.239
315.723
313.349
314.702
316.979
316.207
317.591
317.168
316.017
311.067
311.337
312.231
315.5
314.637
311.554
312.517
310.502
311.982
312.695
300.083
300.008
300.018
305.601
300.888
301.027
301.183
301.324
301.526
302.061
303.487
305.337
306.291
306.361
305.866
304.756
303.358
303.048
303.902
305.709
308.243
309.862
309.82
308.464
306.241
303.776
301.818
301.443
302.766
308.225
314.973
317.948
317.431
315.132
315.655
314.128
314.653
312.847
313.518
311.34
312.118
309.686
310.522
305.62
306.504
304.022
304.791
301.375
301.632
300.782
300.816
300.77
300.761
301.168
300.959
300.831
303.705
303.333
302.212
302.812
303.558
303.805
303.899
303.889
303.958
303.997
304.313
304.79
306.846
305.787
305.082
304.887
311.826
309.162
310.297
307.815
316.831
315.929
313.137
314.635
318.007
317.956
318.754
317.908
317.907
311.215
311.272
313.551
317.393
316.427
312.404
312.39
310.258
311.67
312.446
300.052
300.006
300.014
304.509
300.56
301.137
301.3
301.462
301.893
303.138
305.146
306.31
306.462
305.931
304.66
302.947
302.388
302.922
304.492
307.419
310.033
310.731
309.754
307.738
305.26
302.974
301.669
302.513
306.845
313.652
317.39
317.536
315.634
313.764
314.188
312.538
313.194
311
311.801
309.249
310.145
307.408
308.328
303.255
304.077
302.001
302.553
300.876
300.965
300.689
300.693
300.727
300.697
301.597
301.113
301.07
300.827
305.308
304.763
303.217
304.039
305.248
305.572
305.662
305.616
304.992
305.449
306.142
306.831
306.739
306.05
305.907
306.073
311.61
308.923
310.223
307.84
317.166
315.998
313.105
314.583
318.854
319.323
319.694
318.426
319.559
311.503
311.248
315.077
319.187
318.204
313.496
312.255
309.905
311.451
312.172
300.036
300.004
300.012
303.647
300.353
301.249
301.424
301.728
302.771
304.756
306.279
306.548
306.044
304.67
302.801
301.995
302.247
303.404
306.323
309.883
311.331
310.816
309.004
306.433
303.953
302.22
302.544
305.881
312.346
316.646
317.478
316.208
313.131
313.746
312.009
312.58
310.506
311.295
308.753
309.657
306.847
307.808
304.958
305.884
301.583
302.003
301.098
301.295
300.711
300.74
300.656
300.652
300.738
300.7
300.671
302.399
301.651
301.439
300.951
307.158
306.389
304.326
305.416
307.417
307.731
307.795
307.636
306.718
307.564
308.487
309.307
307.17
307.061
307.273
308.047
311.73
309.117
310.611
308.437
317.415
316.13
313.438
314.749
319.583
320.429
320.571
318.876
320.887
312.059
311.31
316.691
320.753
319.848
314.725
312.106
309.562
311.282
311.888
300.035
300.003
300.017
303.015
300.314
301.361
301.624
302.377
304.268
306.144
306.595
306.191
304.739
302.812
301.808
301.828
302.536
304.921
309.079
311.437
311.606
310.253
307.561
304.784
302.932
302.753
305.631
311.136
315.809
317.287
316.546
313.604
311.161
311.714
309.786
310.53
308.08
308.958
306.225
307.17
304.352
305.279
302.635
303.438
300.943
301.092
300.782
300.847
300.653
300.663
300.633
300.63
300.621
300.765
300.697
300.642
300.662
303.24
302.249
301.876
301.151
309.082
308.057
305.445
306.807
309.904
310.136
310.135
309.802
309.053
310.165
311.2
312.032
308.326
308.67
309.468
310.596
312.367
309.938
311.718
309.833
317.775
316.551
314.404
315.373
320.257
321.416
321.443
319.47
322.04
312.703
311.371
318.224
322.069
321.215
315.884
311.933
309.259
311.121
311.581
300.06
300.007
300.061
302.748
300.355
301.503
302.098
303.635
305.842
306.595
306.347
304.914
302.874
301.763
301.597
301.944
303.555
307.261
311.113
311.931
311.404
309.066
306.167
303.957
303.282
305.755
310.48
314.915
316.926
316.629
314.338
310.142
310.791
308.832
309.476
307.247
308.083
305.481
306.372
303.664
304.579
302.131
302.83
301.319
301.651
300.737
300.787
300.678
300.703
300.626
300.632
300.627
300.622
300.611
300.603
300.841
300.711
300.639
300.67
304.102
302.881
302.242
301.389
310.983
309.65
306.432
308.085
312.536
312.652
312.543
311.96
311.855
313.066
314.088
314.852
310.2
311.041
312.227
313.579
313.796
311.642
313.694
311.888
318.484
317.523
316.228
316.741
321.093
322.414
322.43
320.428
323.116
313.329
311.452
319.486
323.113
322.27
316.853
311.741
309.09
310.911
311.243
300.163
300.09
300.329
302.787
300.681
301.785
303.133
305.21
306.539
306.486
305.155
303.017
301.777
301.49
301.608
302.502
305.183
309.7
311.8
312
310.781
308.33
305.697
304.325
306.23
310.466
314.26
316.469
316.576
314.778
310.461
307.603
308.201
306.164
306.901
304.523
305.377
302.899
303.685
301.724
302.215
301.129
301.373
300.861
300.967
300.664
300.688
300.636
300.649
300.598
300.594
300.589
300.638
300.623
300.653
300.625
300.936
300.749
300.66
300.709
304.834
303.409
302.522
301.612
312.832
311.17
307.265
309.249
315.19
315.222
314.902
314.102
314.915
316.091
317.013
317.621
312.795
313.989
315.392
316.803
316.083
313.881
316.194
314.669
319.772
319.22
318.752
318.835
322.226
323.506
323.612
321.88
324.104
313.849
311.486
320.495
324.003
323.15
317.649
311.545
309.137
310.644
310.85
300.625
300.932
301.319
303.317
301.461
302.425
304.67
306.32
306.566
305.433
303.259
301.83
301.469
301.455
301.849
303.444
306.959
310.908
311.994
311.888
310.521
308.171
306.444
307.264
310.72
314.097
316.079
316.387
314.95
311.042
304.649
304.782
305.285
303.317
304.042
302.098
302.636
301.375
301.686
300.989
301.148
300.808
300.882
300.72
300.757
300.626
300.643
300.608
300.622
300.603
300.594
300.571
300.58
300.706
300.682
300.791
300.727
301.056
300.818
300.741
300.805
305.404
303.8
302.703
301.788
314.757
312.755
308.054
310.44
317.821
317.783
317.302
316.28
318.075
319.124
319.926
320.434
315.834
317.271
318.769
320.113
318.846
316.773
319.315
317.822
321.561
321.433
321.647
321.43
323.612
324.578
324.817
323.57
324.971
314.249
311.523
321.301
324.75
323.782
318.315
311.329
309.682
310.383
310.364
302.962
307.892
307.292
306.302
305.929
303.564
305.966
306.565
305.736
303.557
301.956
301.486
301.409
301.525
302.299
304.492
308.22
311.332
312.034
311.856
310.639
309.306
309.542
311.533
314.168
315.854
316.147
314.913
311.305
305.03
301.551
302.845
301.66
302.281
301.526
301.854
301.101
301.28
300.887
300.976
300.776
300.824
300.712
300.742
300.664
300.686
300.604
300.617
300.563
300.576
300.659
300.609
300.578
300.618
300.885
300.846
301.108
300.987
301.21
300.935
300.932
301.002
305.872
304.071
302.905
301.976
316.787
314.507
309.069
311.85
320.547
320.433
319.754
318.551
321.231
322.197
322.936
323.289
319.159
320.678
322.161
323.449
322.166
320.2
322.928
321.4
323.603
323.815
324.77
324.203
324.985
325.449
325.709
325.176
325.545
314.729
311.589
321.882
325.159
324.229
318.943
310.97
310.283
310.106
309.965
308.288
312.012
311.042
309.164
309.584
304.965
306.459
306.035
303.944
302.161
301.554
301.415
301.414
301.698
302.801
305.225
308.805
311.485
312.073
312.063
311.69
311.933
312.972
314.473
315.675
315.866
314.683
311.242
305.228
301.45
301.347
300.967
301.039
301.168
300.943
301.036
300.826
300.875
300.759
300.79
300.71
300.734
300.668
300.69
300.628
300.647
300.552
300.582
300.567
300.552
300.542
300.847
300.713
300.621
300.752
301.251
301.197
301.716
301.521
301.422
301.138
301.311
301.381
306.464
304.392
303.355
302.338
318.935
316.427
310.381
313.49
323.347
323.074
322.266
320.878
324.467
325.308
325.913
326.113
322.836
324.306
325.637
326.735
325.509
323.96
326.304
325.212
325.44
325.798
326.693
326.23
325.879
325.884
326.007
326.028
325.718
315.14
311.755
322.42
325.265
324.405
319.364
310.549
310.582
309.957
309.659
311.15
312.975
312.876
310.487
311.098
305.911
306.198
304.475
302.406
301.727
301.463
301.41
301.464
301.892
303.128
305.542
309.02
311.526
312.188
312.603
313.108
313.759
314.563
315.423
315.44
314.104
310.74
305.029
301.48
300.862
300.909
300.829
300.85
300.863
300.799
300.827
300.753
300.775
300.713
300.734
300.674
300.695
300.636
300.658
300.606
300.616
300.524
300.534
300.617
300.561
300.531
300.546
301.272
301.004
300.777
301.127
301.92
301.845
302.759
302.466
301.792
301.519
301.995
302.057
307.437
305.06
304.148
303.02
321.237
318.597
312.061
315.453
326.113
325.732
324.787
323.293
327.569
328.21
328.58
328.688
326.504
327.635
328.509
329.15
327.152
327.18
327.587
328.087
326.16
326.324
326.729
326.509
326.049
325.899
325.938
326.062
325.625
315.564
311.973
322.75
325.134
324.226
319.863
310.038
310.552
310.001
309.589
312.019
311.357
313.42
310.906
311.636
306.114
305.027
302.805
301.92
301.622
301.45
301.42
301.509
301.998
303.259
305.643
309.027
311.422
312.372
313.059
313.71
314.393
314.918
314.64
313.032
309.462
304.382
301.407
300.878
300.794
300.805
300.806
300.807
300.789
300.789
300.755
300.771
300.719
300.737
300.683
300.703
300.646
300.668
300.609
300.629
300.562
300.594
300.536
300.522
300.515
300.513
300.761
300.599
300.577
302.07
301.619
301.174
301.896
303.06
302.946
304.366
303.948
302.465
302.192
303.148
303.193
308.772
306.067
305.384
304.122
323.783
321.146
314.349
317.93
328.651
328.22
327.301
325.779
329.571
329.847
329.962
329.991
328.82
329.371
329.764
330.029
326.783
328.007
327.016
328.387
326.069
326.009
325.995
325.864
325.825
325.674
325.32
325.526
325.295
315.944
312.368
322.902
324.522
323.885
320.44
309.832
310.353
310.137
309.638
312.414
307.565
313.685
310.974
311.818
305.474
303.26
302.185
301.825
301.599
301.452
301.423
301.528
302.035
303.29
305.569
308.448
310.848
312.193
313.043
313.638
313.832
313.14
311.272
307.566
303.435
301.276
300.888
300.816
300.781
300.776
300.79
300.774
300.766
300.759
300.729
300.744
300.693
300.71
300.657
300.678
300.62
300.644
300.584
300.608
300.524
300.547
300.551
300.53
300.515
300.505
300.506
301.106
300.716
300.655
303.361
302.681
301.996
303.144
304.826
304.647
306.619
306.03
303.558
303.311
304.925
304.954
310.725
307.599
307.41
305.953
326.548
324.202
317.588
321.158
329.961
329.733
329.243
328.245
330.173
330.269
330.296
330.313
328.531
328.797
329.042
329.257
321.388
327.275
321.835
327.583
325.166
325.219
321.135
320.743
324.768
325.041
324.398
324.811
324.445
316.79
312.843
322.768
324.176
323.424
320.987
309.889
310.447
310.522
309.866
313.069
308.678
314.314
311.222
312.308
304.234
302.431
302.055
301.824
301.589
301.446
301.406
301.528
302.035
303.186
305.007
307.104
309.212
310.735
311.509
311.464
310.602
308.614
305.357
302.474
301.146
300.898
300.835
300.792
300.763
300.761
300.776
300.752
300.748
300.737
300.705
300.721
300.67
300.685
300.634
300.657
300.601
300.624
300.537
300.564
300.506
300.519
300.597
300.55
300.514
300.501
300.503
301.815
300.976
300.821
305.221
304.265
303.282
304.847
307.315
307.055
309.517
308.682
305.292
305.07
307.454
307.507
313.731
310.083
310.827
308.871
328.913
327.629
322.025
325.139
330.304
330.21
330.04
329.756
329.371
329.51
329.669
329.914
322.543
322.814
323.106
323.265
315.822
322.241
316.098
322.635
320.137
320.46
315.491
315.253
319.718
324.021
319.439
320.343
323.87
317.543
313.692
322.303
323.122
322.174
320.547
310.182
310.926
311.149
310.556
314.137
383.226
316.105
311.951
313.32
303.131
302.23
302.061
301.849
301.566
301.417
301.382
301.513
301.951
302.811
304.028
305.459
306.808
307.704
307.868
307.17
305.552
303.344
301.72
301.047
300.906
300.859
300.814
300.77
300.763
300.747
300.747
300.733
300.731
300.718
300.684
300.699
300.65
300.664
300.617
300.639
300.557
300.584
300.519
300.536
300.492
300.504
300.687
300.593
300.52
300.494
300.501
302.957
301.469
301.121
307.6
306.322
304.881
306.837
310.552
310.168
312.926
311.765
307.963
307.678
310.812
310.962
318.279
314.148
316.368
313.322
329.974
329.77
327.295
328.93
330.064
330.056
330.127
330.288
323.43
323.542
323.71
323.896
316.805
316.961
317.157
317.275
308.982
316.357
309.144
316.567
314.753
314.916
308.818
308.674
314.479
319.331
314.221
314.638
319.223
318.18
314.556
320.896
319.007
318.707
319.59
310.924
311.799
312.353
311.544
314.856
662.224
326.11
313.048
314.384
302.671
302.219
302.134
301.847
301.514
301.384
301.363
301.467
301.761
302.269
302.958
303.715
304.292
304.448
304.053
303.123
301.993
301.27
300.991
300.92
300.88
300.842
300.799
300.75
300.752
300.74
300.733
300.735
300.715
300.716
300.7
300.665
300.679
300.633
300.65
300.577
300.603
300.54
300.557
300.502
300.521
300.482
300.492
300.483
300.486
300.841
300.662
300.535
300.504
304.313
302.284
301.572
310.342
308.687
306.587
308.919
314.445
313.842
316.662
315.095
311.842
311.295
314.943
315.337
324.455
320.231
324.286
319.945
330.194
330.37
330.21
330.55
324.101
324.359
329.423
330.38
317.423
317.541
317.721
317.922
309.556
309.655
309.76