/*--------------------------------*- C++ -*----------------------------------*\
  =========                 |
  \\      /  F ield         | OpenFOAM: The Open Source CFD Toolbox
   \\    /   O peration     | Website:  https://openfoam.org
    \\  /    A nd           | Version:  dev
     \\/     M anipulation  |
\*---------------------------------------------------------------------------*/
FoamFile
{
    version     2.0;
    format      ascii;
    class       volVectorField;
    location    "2500";
    object      U;
}
// * * * * * * * * * * * * * * * * * * * * * * * * * * * * * * * * * * * * * //

dimensions      [0 1 -1 0 0 0 0];

internalField   nonuniform List<vector> 
9851
(
(0.00540258 0.0077738 0)
(0.0133263 0.00699601 0)
(0.00541112 0.0210805 5.20346e-27)
(0.019208 0.00578975 0)
(0.0146314 0.0213782 -6.82248e-28)
(0.00476991 0.0312023 7.27789e-27)
(0.0242518 0.00490458 -2.50903e-27)
(0.0212575 0.0207548 0)
(0.0141877 0.0322715 0)
(0.00410944 0.0398214 -6.31308e-28)
(0.0284359 0.00417023 -1.30468e-27)
(0.0261284 0.0187347 -8.10773e-27)
(0.0220206 0.0331136 0)
(0.0127669 0.0408807 -1.38344e-27)
(0.0037042 0.0476181 0)
(0.0320772 0.0035395 -1.32403e-27)
(0.0299796 0.0161691 7.12274e-28)
(0.0281977 0.0328266 -3.94041e-27)
(0.02106 0.0425559 -1.99116e-27)
(0.0113573 0.048426 0)
(0.003393 0.054791 0)
(0.0354545 0.00302545 0)
(0.0333921 0.0136496 2.16897e-27)
(0.0328467 0.0312852 -1.51545e-27)
(0.0283104 0.0438786 -4.91929e-27)
(0.0191586 0.049983 0)
(0.0103693 0.0554491 5.34875e-27)
(0.00313567 0.0614281 -4.9247e-27)
(0.0386289 0.00263161 0)
(0.0365382 0.0115133 0)
(0.0363434 0.0288707 0)
(0.0342418 0.044175 -2.19456e-27)
(0.0267917 0.0520215 0)
(0.0173901 0.056659 2.78057e-27)
(0.00958858 0.0620026 1.40409e-26)
(0.00291748 0.0676689 -5.0178e-27)
(0.0415878 0.00234972 0)
(0.0394536 0.00988693 -2.10971e-28)
(0.0390797 0.0259516 -1.37954e-27)
(0.0388025 0.0432235 0)
(0.0336832 0.0538276 -1.46009e-27)
(0.0245476 0.0585276 -1.21961e-27)
(0.0160472 0.0629779 6.73062e-27)
(0.008911 0.0681813 8.51587e-27)
(0.00273187 0.0734836 4.97958e-27)
(0.0442951 0.00213672 -1.092e-28)
(0.0422358 0.00876643 0)
(0.0414692 0.0229912 -1.13079e-27)
(0.042167 0.0411824 -3.19941e-28)
(0.0394537 0.0547279 -1.63511e-27)
(0.0316687 0.0608432 -1.46802e-27)
(0.0225458 0.0644585 -2.38747e-27)
(0.0149454 0.0689995 0)
(0.00834062 0.0739478 9.41887e-27)
(0.0025716 0.0790049 2.54981e-27)
(0.046787 0.00196173 0)
(0.0448624 0.00793776 -1.27848e-28)
(0.0437595 0.0203276 0)
(0.0446838 0.0384244 6.63297e-28)
(0.044018 0.0544315 -2.50965e-27)
(0.0382761 0.0630188 0)
(0.0292103 0.0665649 -2.9006e-27)
(0.020953 0.070217 1.53967e-27)
(0.0139916 0.074648 5.13315e-28)
(0.00784307 0.07944 0)
(0.00242704 0.0842146 -2.91158e-27)
(0.0490652 0.00181164 1.22322e-27)
(0.0473039 0.00726538 0)
(0.0459994 0.0182016 5.98318e-28)
(0.0466485 0.0352427 -3.43797e-28)
(0.0474592 0.0529787 -1.88957e-27)
(0.0439798 0.0644989 -1.18504e-27)
(0.0358646 0.069092 0)
(0.0270354 0.071939 -4.00251e-28)
(0.0196269 0.0756868 1.56334e-27)
(0.0131631 0.0800413 -3.57709e-27)
(0.00739851 0.0846335 -7.28955e-28)
(0.00229581 0.0891737 2.52695e-27)
(0.0510882 0.00167448 1.00936e-27)
(0.0495333 0.00670719 0)
(0.0481927 0.0166074 -2.68195e-27)
(0.0483748 0.0320218 7.15528e-28)
(0.0499662 0.0506068 -3.91818e-28)
(0.0485899 0.0649207 0)
(0.0421926 0.0716314 -1.66156e-27)
(0.0332399 0.0741819 4.13291e-28)
(0.0252647 0.0771462 4.49766e-27)
(0.0184786 0.0809045 -2.46852e-27)
(0.0124378 0.0851747 0)
(0.00699575 0.0895794 2.8787e-27)
(0.00217189 0.0938875 2.49987e-27)
(0.05287 0.00154914 0)
(0.0515287 0.00622696 -1.75367e-28)
(0.0502648 0.0153608 -2.80307e-27)
(0.0500942 0.0290409 3.55065e-27)
(0.0518163 0.0476476 0)
(0.0521522 0.0641766 0)
(0.0478262 0.0736496 1.72146e-27)
(0.0394671 0.0768419 -1.71748e-27)
(0.0309604 0.0790401 3.74288e-27)
(0.0237674 0.0821644 -3.69351e-27)
(0.0174596 0.0859351 0)
(0.0117697 0.0900879 3.70207e-28)
(0.00661423 0.0942991 -1.41588e-27)
(0.00205739 0.0983674 0)
(0.054429 0.00143829 0)
(0.0532709 0.00579755 -1.94243e-28)
(0.0521568 0.0143167 0)
(0.0517974 0.0265415 -4.80273e-42)
(0.0532682 0.0443663 -2.11295e-28)
(0.0547965 0.0623864 0)
(0.0525381 0.0747527 8.88698e-28)
(0.0455196 0.0796235 3.04212e-27)
(0.0367431 0.0814074 -1.74618e-27)
(0.029035 0.0838182 -3.32374e-27)
(0.0224315 0.0870615 -2.93225e-27)
(0.0165224 0.0907753 0)
(0.0111344 0.0947844 -1.88399e-27)
(0.00626193 0.0987587 9.95424e-32)
(0.00194896 0.102651 0)
(0.055785 0.00133125 0)
(0.0548128 0.00540255 0)
(0.0538899 0.0133624 2.51299e-27)
(0.053414 0.0245128 -3.51379e-27)
(0.0545221 0.0410534 0)
(0.0566882 0.0598065 4.59165e-27)
(0.0562706 0.0747606 0)
(0.0510938 0.0821153 3.47031e-28)
(0.0425846 0.0841854 3.60855e-27)
(0.0343603 0.0858486 -1.74333e-27)
(0.0273727 0.0885224 -3.34633e-27)
(0.0212284 0.0917796 1.56171e-27)
(0.0156536 0.0954053 -2.60367e-27)
(0.0105462 0.0992128 -1.40596e-27)
(0.00592649 0.103054 1.3453e-27)
(0.00183909 0.106727 -1.16734e-27)
(0.0569067 0.00122031 -2.45819e-28)
(0.0561657 0.00502526 -2.34203e-28)
(0.0554224 0.0124456 2.42238e-27)
(0.0549629 0.0228908 0)
(0.0557311 0.0379232 0)
(0.0580496 0.0567401 9.39153e-27)
(0.0590831 0.0736686 0)
(0.0559018 0.0838766 0)
(0.0483525 0.0871799 0)
(0.0397825 0.0882853 7.51437e-28)
(0.0323362 0.0902705 1.65295e-28)
(0.02591 0.0930922 8.06526e-28)
(0.0201328 0.0963284 -1.49468e-27)
(0.0148444 0.0997889 2.62468e-27)
(0.00998503 0.10351 -2.7079e-27)
(0.00558863 0.107134 -4.01342e-27)
(0.00173092 0.110591 -1.12601e-27)
(0.0577364 0.001104 0)
(0.0573025 0.00464678 -2.57268e-28)
(0.0567095 0.0115793 -2.85161e-27)
(0.0563723 0.0216019 -4.78003e-28)
(0.0568949 0.035127 0)
(0.059077 0.0534381 4.53522e-27)
(0.0611079 0.0716383 0)
(0.0598062 0.0846504 -6.1764e-27)
(0.0538137 0.0900176 0)
(0.0452778 0.0911282 -2.19665e-28)
(0.0373645 0.0923458 2.62599e-27)
(0.0305951 0.0946496 1.06033e-27)
(0.0245877 0.0975363 7.79142e-28)
(0.0191131 0.100658 3.03891e-27)
(0.0140687 0.104045 5.45762e-27)
(0.00943131 0.107595 -5.8171e-27)
(0.00525714 0.111001 3.0892e-28)
(0.00161973 0.114256 0)
(0.0582714 0.000986203 -8.61796e-27)
(0.0581577 0.00422307 3.40726e-27)
(0.0577826 0.0107988 -2.54505e-27)
(0.0575967 0.0205337 3.47902e-27)
(0.0579757 0.032711 -5.09528e-28)
(0.0599071 0.0500502 -2.6036e-28)
(0.0625021 0.0689355 -2.60067e-28)
(0.0628225 0.0843482 -6.33583e-42)
(0.0586621 0.0923454 -1.00319e-27)
(0.0507748 0.0942226 1.94754e-27)
(0.0424735 0.0948081 1.50681e-27)
(0.0353061 0.0964559 2.10995e-27)
(0.0290428 0.0989537 3.23529e-31)
(0.0233574 0.101808 0)
(0.0181396 0.104855 1.66851e-27)
(0.0133132 0.108114 5.15989e-27)
(0.00888334 0.111472 0)
(0.00491974 0.114676 4.05176e-27)
(0.00150559 0.117701 0)
(0.0584939 0.000872489 -1.96067e-26)
(0.0586852 0.00379153 -6.58417e-27)
(0.0586113 0.0101753 -4.90874e-27)
(0.0586293 0.0195179 3.41722e-27)
(0.0589551 0.0306438 0)
(0.0606499 0.0467596 5.19667e-27)
(0.063474 0.0658259 -5.45553e-28)
(0.065024 0.083024 1.13093e-26)
(0.0627472 0.0938243 0)
(0.0560483 0.0973248 0)
(0.0476597 0.0976479 1.26115e-31)
(0.0400581 0.0985812 0)
(0.0335004 0.100572 -5.32074e-27)
(0.0276038 0.103152 1.53663e-27)
(0.0221904 0.10595 3.4748e-27)
(0.0171917 0.108896 -1.28729e-27)
(0.0125634 0.11199 7.3708e-27)
(0.0083274 0.115175 6.46133e-27)
(0.00456682 0.118131 0)
(0.00138423 0.120938 0)
(0.0583919 0.000759527 1.29688e-28)
(0.0588949 0.00341659 -1.05026e-26)
(0.0591352 0.00963185 5.03008e-31)
(0.0593915 0.0184698 4.75618e-27)
(0.059806 0.0289488 0)
(0.0613113 0.0436767 5.53216e-27)
(0.0641475 0.0624872 1.14487e-27)
(0.0665443 0.0808581 4.99169e-27)
(0.0659843 0.0943264 -2.71889e-28)
(0.06089 0.100069 0)
(0.0528453 0.100792 5.49814e-27)
(0.044873 0.10105 -3.2329e-27)
(0.037966 0.102441 2.0428e-27)
(0.031857 0.10466 -2.64783e-27)
(0.0262463 0.107233 -5.10739e-28)
(0.0210622 0.109977 -6.54348e-28)
(0.0162515 0.112765 4.2088e-27)
(0.011798 0.115706 2.51519e-27)
(0.00774589 0.118673 0)
(0.00418721 0.121385 0)
(0.00125199 0.123923 0)
(0.0579432 0.000653557 9.84297e-29)
(0.0587792 0.00306942 -1.12372e-26)
(0.0593218 0.00903557 1.98579e-26)
(0.0598432 0.0174579 0)
(0.0605034 0.0275543 -3.38785e-27)
(0.0618275 0.0408662 -2.40913e-27)
(0.0646033 0.0590634 5.99769e-28)
(0.0675533 0.0781045 5.8599e-28)
(0.0684093 0.0937968 -5.67902e-28)
(0.065102 0.1022 -2.74072e-28)
(0.0578951 0.10402 5.39377e-27)
(0.0497405 0.103868 -5.56286e-27)
(0.0424652 0.104587 1.13804e-26)
(0.0361118 0.106365 3.08106e-27)
(0.0303206 0.108656 -8.16489e-27)
(0.0249468 0.111242 0)
(0.0199414 0.113845 -5.95965e-28)
(0.0152958 0.116485 -4.04262e-27)
(0.0110029 0.119248 4.77977e-31)
(0.00712347 0.121976 1.38324e-28)
(0.00377678 0.124386 -2.78292e-27)
(0.00110692 0.12665 0)
(0.0571612 0.000555378 0)
(0.0583194 0.00275025 2.3928e-26)
(0.0591456 0.0084248 -7.01017e-27)
(0.0599986 0.016535 5.45631e-27)
(0.0609432 0.0262622 -9.51586e-27)
(0.0622311 0.0383876 -5.08662e-27)
(0.0648934 0.0556247 -1.39365e-31)
(0.0681893 0.0749876 -1.23226e-27)
(0.0701032 0.092335 5.94549e-28)
(0.0685493 0.103445 -5.7269e-28)
(0.0626556 0.107103 0)
(0.0546156 0.106955 -5.17107e-28)
(0.0470124 0.107027 5.62088e-27)
(0.0403642 0.108283 -3.46998e-27)
(0.0344035 0.110256 1.5552e-27)
(0.0288599 0.112622 -2.76899e-27)
(0.0236635 0.115118 0)
(0.0188119 0.117579 -3.48284e-27)
(0.0143041 0.120062 -1.85197e-27)
(0.0101565 0.122604 8.83479e-27)
(0.00644406 0.125042 -6.65505e-27)
(0.00332721 0.127137 -2.24259e-27)
(0.000942068 0.129082 0)
(0.0560197 0.000465624 0)
(0.0575216 0.00245914 0)
(0.0586453 0.00783541 1.21489e-26)
(0.0598298 0.0156395 0)
(0.0610996 0.0249286 7.98938e-31)
(0.0625272 0.0362144 1.34989e-27)
(0.065036 0.0522866 -5.29058e-27)
(0.0685105 0.0716479 6.14612e-27)
(0.0711976 0.0901409 4.03146e-27)
(0.0712087 0.103744 1.79837e-27)
(0.0668976 0.109714 -5.73049e-28)
(0.0594372 0.110219 0)
(0.0515954 0.109749 0)
(0.0446437 0.110424 -9.09409e-28)
(0.0384763 0.112038 -3.25112e-27)
(0.0327882 0.114145 0)
(0.0274387 0.116493 1.39941e-27)
(0.022377 0.118879 0)
(0.0176406 0.121208 0)
(0.0132468 0.123474 0)
(0.00923325 0.125753 3.00914e-27)
(0.00569921 0.127864 -1.50441e-27)
(0.00282263 0.129598 0)
(0.000754957 0.131179 0)
(0.0545024 0.000391013 1.12833e-29)
(0.0563478 0.00220423 -2.6676e-26)
(0.0577839 0.00731 -1.47535e-26)
(0.0593067 0.0147414 -9.458e-27)
(0.0609355 0.0235718 -4.17774e-27)
(0.0626295 0.0342696 -1.23627e-26)
(0.0650443 0.0491365 5.57982e-27)
(0.0685642 0.0682107 6.18101e-27)
(0.0718542 0.0874253 4.01961e-27)
(0.0731075 0.103082 -2.51663e-27)
(0.0705254 0.111624 1.20066e-27)
(0.0640391 0.113438 -5.6895e-28)
(0.0562097 0.112745 -5.27329e-28)
(0.0489648 0.112791 0)
(0.0425606 0.113974 -8.56868e-28)
(0.0367229 0.115821 0)
(0.0312401 0.117986 -1.23925e-27)
(0.0260166 0.120279 2.21086e-27)
(0.0210465 0.122582 1.99567e-27)
(0.0164001 0.124685 0)
(0.0121055 0.126699 2.71552e-27)
(0.0082171 0.128666 3.74518e-27)
(0.00486785 0.130425 1.91821e-27)
(0.00224934 0.13173 -3.95815e-28)
(0.000539294 0.132902 -7.53343e-29)
(0.0526331 0.000308681 -1.18795e-29)
(0.0547991 0.0019991 2.74892e-26)
(0.056559 0.00686247 -2.87446e-26)
(0.0583883 0.0138634 -2.30052e-30)
(0.0603812 0.0222465 7.39477e-27)
(0.0624337 0.0324666 -1.21597e-26)
(0.0648803 0.046249 -7.99908e-27)
(0.0683879 0.0647479 -9.47735e-27)
(0.0721019 0.0843715 2.39515e-27)
(0.0742988 0.101586 5.27862e-27)
(0.0733811 0.112687 5.96193e-27)
(0.0682637 0.116363 7.16602e-27)
(0.0607754 0.115917 -5.56455e-28)
(0.0533333 0.115392 -1.01407e-27)
(0.0466783 0.116068 6.71575e-27)
(0.0406738 0.117622 7.48477e-27)
(0.0350583 0.119618 2.73816e-27)
(0.0297023 0.121795 0)
(0.0245486 0.124047 3.94861e-28)
(0.0196472 0.126132 -3.2391e-27)
(0.0150657 0.128 3.35244e-27)
(0.0108563 0.129733 0)
(0.0070784 0.131349 3.43736e-27)
(0.00392618 0.132674 -1.63048e-27)
(0.00158804 0.133498 -1.78828e-29)
(0.000284695 0.134168 0)
(0.050404 0.000233047 -3.46615e-29)
(0.0529039 0.00187828 -1.48339e-26)
(0.0549539 0.0064781 2.97681e-26)
(0.0570917 0.013045 1.11389e-26)
(0.0594261 0.0209627 2.09604e-30)
(0.0618506 0.0307435 1.28448e-26)
(0.0644655 0.0436639 -1.51981e-26)
(0.0679681 0.0613456 -2.4527e-26)
(0.0719605 0.0810929 1.34977e-26)
(0.0749986 0.0994905 -1.10786e-26)
(0.0754887 0.112794 1.27172e-26)
(0.0719701 0.11879 6.2249e-27)
(0.0651969 0.119122 0)
(0.0577148 0.118206 8.1649e-27)
(0.0508486 0.118336 7.23148e-27)
(0.0446519 0.119533 6.81746e-27)
(0.0389018 0.121351 1.50194e-31)
(0.0334258 0.123427 2.43147e-27)
(0.0281322 0.125605 0)
(0.0230187 0.127682 -6.60368e-27)
(0.0181469 0.12958 1.03795e-27)
(0.0136058 0.131174 0)
(0.00945232 0.132554 -2.4099e-27)
(0.00579019 0.133751 -1.95444e-27)
(0.00284141 0.134586 4.81184e-34)
(0.000821549 0.134819 0)
(2.45916e-05 0.135013 0)
(0.0478466 0.000183304 1.26796e-33)
(0.0506474 0.00182876 -1.4955e-26)
(0.0529228 0.00620098 -1.31831e-26)
(0.0554066 0.0123243 1.42609e-26)
(0.0580524 0.0197215 -3.27108e-27)
(0.0608558 0.0290746 -2.19656e-26)
(0.0637358 0.0413452 2.71944e-27)
(0.0672729 0.0580984 -5.73882e-27)
(0.0714764 0.0777098 1.49796e-26)
(0.0752178 0.0968824 2.03448e-26)
(0.0768238 0.112035 -1.11036e-26)
(0.0749875 0.120395 -5.2776e-27)
(0.0693548 0.122165 -1.66398e-26)
(0.0620568 0.121171 6.37383e-27)
(0.0550531 0.120779 1.02323e-27)
(0.0486821 0.121554 9.01587e-28)
(0.0427914 0.123156 6.541e-27)
(0.0371969 0.125133 -1.2958e-27)
(0.0317816 0.127264 0)
(0.0265029 0.129328 -6.45384e-28)
(0.0213804 0.131284 0)
(0.0164997 0.132909 2.15719e-34)
(0.0119804 0.134163 -3.12634e-27)
(0.00785789 0.135151 0)
(0.00431521 0.135859 -4.62031e-34)
(0.00157073 0.136101 0)
(-7.52715e-05 0.135593 1.49383e-28)
(-0.000323319 0.135235 -3.62364e-28)
(0.0449852 0.000192866 6.3929e-29)
(0.0480229 0.00183832 0)
(0.0505556 0.00605759 -1.5584e-26)
(0.0532909 0.0116749 1.47343e-26)
(0.0562676 0.0185415 2.29256e-26)
(0.0594285 0.0274701 -1.0179e-26)
(0.0626357 0.0392348 0)
(0.0662753 0.055064 -1.17601e-26)
(0.0706437 0.0743191 1.32914e-26)
(0.0748912 0.0938811 7.65999e-28)
(0.0775485 0.110605 5.84942e-27)
(0.0772776 0.121245 -1.10981e-26)
(0.0730592 0.124803 -2.12495e-26)
(0.0663351 0.124206 0)
(0.0592653 0.123338 -1.09841e-27)
(0.052774 0.123672 0)
(0.0467481 0.125008 7.90851e-27)
(0.0410354 0.126877 0)
(0.0355059 0.12899 1.12852e-27)
(0.0300833 0.13108 0)
(0.0247652 0.133069 5.82902e-28)
(0.0195889 0.134774 6.0949e-28)
(0.0146858 0.136093 -1.67467e-29)
(0.0101401 0.136991 -2.57797e-28)
(0.00603277 0.137494 2.49574e-28)
(0.00258808 0.137627 -5.75051e-27)
(8.02763e-05 0.137117 -3.41574e-33)
(-0.00108917 0.13588 7.40858e-33)
(-0.000708064 0.134655 0)
(0.0418316 0.000264253 -1.51936e-26)
(0.0450439 0.00193876 0)
(0.0478631 0.00600142 1.47446e-26)
(0.0508084 0.0110767 -1.50843e-26)
(0.0541045 0.0174322 -2.71197e-27)
(0.0575669 0.0259505 3.31046e-26)
(0.0611184 0.037289 0)
(0.0649335 0.0522757 -1.13059e-26)
(0.0694468 0.0709865 6.71157e-27)
(0.0741034 0.090662 -1.12029e-26)
(0.0777467 0.108582 -1.624e-26)
(0.0787321 0.1211 0)
(0.0761776 0.126846 -5.47293e-27)
(0.0703466 0.127115 0)
(0.063469 0.126012 1.62015e-26)
(0.0568815 0.125882 -2.06656e-27)
(0.0507691 0.126909 8.97075e-28)
(0.0449584 0.128642 7.56795e-28)
(0.0393236 0.130738 6.86343e-27)
(0.0337711 0.132898 7.36014e-27)
(0.0282868 0.134942 0)
(0.0228721 0.13673 -6.51066e-34)
(0.0176174 0.138171 5.82297e-28)
(0.0126404 0.139171 0)
(0.00803373 0.139592 0)
(0.00392296 0.139539 0)
(0.000592148 0.139 -9.1578e-27)
(-0.00166387 0.137559 1.18654e-28)
(-0.00233877 0.135454 2.9312e-27)
(-0.00121282 0.13317 2.54809e-27)
(0.0384302 0.000366396 6.81056e-29)
(0.0418033 0.00214465 -3.07037e-26)
(0.0448163 0.00597468 -1.5371e-26)
(0.0480319 0.0105839 4.60062e-31)
(0.0515492 0.016406 -1.53325e-26)
(0.0553031 0.024534 -9.95145e-31)
(0.0591573 0.0354901 1.92664e-26)
(0.0632039 0.049736 0)
(0.0678753 0.0677689 0)
(0.0728864 0.0873438 -7.02218e-28)
(0.0772827 0.105991 -2.76096e-26)
(0.0794631 0.120244 1.62912e-26)
(0.0785635 0.128123 2.9435e-30)
(0.0740238 0.129754 4.50734e-26)
(0.0675955 0.128723 -2.99686e-27)
(0.0610138 0.128144 4.44268e-27)
(0.0548462 0.12886 -3.85999e-27)
(0.0489501 0.130425 8.62788e-27)
(0.0432286 0.132488 1.49044e-26)
(0.037575 0.134725 6.53189e-27)
(0.0319416 0.136864 7.42948e-28)
(0.0263447 0.138783 0)
(0.0207916 0.140354 5.09956e-28)
(0.0154099 0.141533 -6.42871e-28)
(0.0103087 0.142079 0)
(0.00560288 0.141941 0)
(0.00147641 0.141252 -1.80389e-28)
(-0.00173553 0.139862 0)
(-0.00366478 0.137438 0)
(-0.0038681 0.134155 3.53263e-27)
(-0.00182156 0.130625 3.49284e-27)
(0.0348246 0.000496368 6.76658e-29)
(0.0383108 0.00245472 1.5195e-26)
(0.0414796 0.00598453 -1.56338e-26)
(0.0449703 0.0102133 -1.54574e-26)
(0.0486189 0.0155124 -3.32066e-26)
(0.0526237 0.0232587 0)
(0.056751 0.0338472 1.93599e-26)
(0.0610459 0.0474398 1.50442e-26)
(0.0658988 0.0647174 0)
(0.0712265 0.0840013 -1.37192e-26)
(0.0762101 0.102986 -8.46092e-27)
(0.0796953 0.118786 1.62797e-26)
(0.0801026 0.128406 1.55019e-26)
(0.0771771 0.131868 3.50897e-26)
(0.071474 0.131287 1.07283e-26)
(0.0651601 0.130435 -1.91847e-26)
(0.0589817 0.130776 4.20064e-27)
(0.0530552 0.132197 6.55779e-27)
(0.0472547 0.134217 8.04289e-27)
(0.041513 0.136527 0)
(0.0357516 0.138802 -4.33097e-28)
(0.0299793 0.140896 6.77435e-27)
(0.0241866 0.142642 3.46077e-28)
(0.0184503 0.143991 1.80542e-27)
(0.0128917 0.144766 0)
(0.00761548 0.144802 4.13671e-27)
(0.00278297 0.144025 3.2529e-28)
(-0.00134721 0.142548 -1.42608e-28)
(-0.0044789 0.140086 -1.75445e-26)
(-0.0059743 0.136501 -1.00269e-26)
(-0.00565495 0.13177 0)
(-0.00251589 0.126851 0)
(0.0310846 0.000665655 6.18621e-29)
(0.0345956 0.00289762 3.17422e-29)
(0.0378725 0.00609321 2.96761e-26)
(0.0415626 0.00993942 -1.53994e-26)
(0.0453792 0.0148183 -1.66503e-27)
(0.0495131 0.0221696 -1.58486e-26)
(0.053892 0.0323935 3.50601e-27)
(0.0584297 0.045385 -1.55055e-26)
(0.0634826 0.0618666 1.50838e-26)
(0.0691052 0.0807074 0)
(0.074615 0.099749 0)
(0.079201 0.116638 -1.60711e-26)
(0.0808654 0.127954 -1.70742e-26)
(0.0795701 0.133269 -1.93673e-26)
(0.0751306 0.13361 -1.82767e-26)
(0.0692091 0.132704 2.08793e-26)
(0.0631379 0.13268 1.81514e-26)
(0.0572477 0.133909 7.8301e-27)
(0.0514091 0.13589 0)
(0.0455854 0.138267 0)
(0.039721 0.140709 -4.94695e-28)
(0.0337876 0.143004 7.79885e-27)
(0.0278078 0.145 -1.74985e-31)
(0.0217865 0.146561 2.99897e-27)
(0.0158363 0.147568 -2.19583e-27)
(0.0100354 0.147894 -3.97907e-27)
(0.00450188 0.147285 6.39803e-27)
(-0.00045248 0.145812 -6.12682e-28)
(-0.00469386 0.143325 9.81009e-27)
(-0.00772855 0.139655 2.07122e-31)
(-0.00880862 0.134618 -3.061e-31)
(-0.00761062 0.128252 0)
(-0.00345302 0.121728 1.81048e-26)
(0.0273106 0.000884503 4.33685e-29)
(0.0307582 0.0034212 -1.41475e-26)
(0.0340661 0.00630081 -2.67204e-28)
(0.0378466 0.00977365 1.51457e-26)
(0.0418176 0.0143673 -1.43356e-26)
(0.0460098 0.0213157 -1.59297e-26)
(0.0505738 0.0311584 3.0147e-27)
(0.0553366 0.0435847 -4.05666e-27)
(0.0606002 0.0592508 -2.59123e-26)
(0.066495 0.07752 1.23327e-26)
(0.0724769 0.0963976 1.41472e-26)
(0.0778965 0.113849 -1.92021e-26)
(0.0810922 0.126925 -1.69067e-26)
(0.0811321 0.1337 -3.5739e-26)
(0.0782838 0.135537 -3.72024e-26)
(0.0730067 0.13469 1.61769e-26)
(0.0672846 0.134555 2.90508e-26)
(0.0614834 0.135557 0)
(0.0556794 0.137472 1.44241e-26)
(0.0498306 0.139922 2.94861e-27)
(0.043889 0.142532 1.71051e-26)
(0.037833 0.145058 -8.10743e-28)
(0.0316655 0.147323 4.50306e-28)
(0.0254051 0.149139 -9.05729e-35)
(0.0191061 0.150429 3.34673e-27)
(0.012869 0.151094 -3.61572e-36)
(0.00672817 0.150881 -5.72031e-27)
(0.000903327 0.1496 -4.79053e-28)
(-0.00432255 0.147207 0)
(-0.00875357 0.143495 -1.12332e-28)
(-0.0117443 0.138476 2.43167e-26)
(-0.0123906 0.131575 3.14242e-26)
(-0.00971612 0.123258 1.45619e-26)
(-0.00209445 0.11693 -1.08183e-26)
(-0.0059314 0.116324 -2.32217e-26)
(0.023584 0.0011923 0)
(0.0268772 0.00395447 0)
(0.0301904 0.00661619 -2.80164e-26)
(0.0339302 0.00975105 1.46849e-26)
(0.0379503 0.0141555 -1.44411e-26)
(0.0421615 0.020748 0)
(0.0468148 0.0301603 -1.85547e-26)
(0.0517671 0.0420512 1.25879e-26)
(0.0572246 0.0569044 2.50825e-26)
(0.0633752 0.0744969 -1.18956e-26)
(0.0697847 0.0930263 1.33202e-26)
(0.0759424 0.110689 0)
(0.0806271 0.125178 -3.6035e-27)
(0.0819235 0.133359 -3.55019e-26)
(0.0807226 0.136607 -3.74987e-26)
(0.0766482 0.136532 -1.53956e-27)
(0.0713286 0.136202 -5.47792e-27)
(0.0657726 0.137037 1.97529e-26)
(0.0600841 0.138957 -1.94336e-26)
(0.0542314 0.141486 6.59556e-27)
(0.0482272 0.144289 1.56806e-26)
(0.0420497 0.147048 9.73872e-28)
(0.0357328 0.14959 -3.14943e-28)
(0.0292899 0.151759 1.10808e-28)
(0.0227236 0.153378 7.81778e-27)
(0.0160761 0.154403 -7.30241e-28)
(0.00942521 0.154631 -3.26739e-28)
(0.00289569 0.153829 0)
(-0.00334418 0.151752 0)
(-0.00897321 0.148214 -5.4272e-28)
(-0.0135402 0.142951 -1.48453e-26)
(-0.0163675 0.136221 -9.57394e-27)
(-0.0162681 0.127221 -4.54064e-27)
(-0.0102321 0.117487 -4.20605e-27)
(-0.0136747 0.1194 0)
(-0.00221911 0.112885 5.95501e-27)
(-0.00657319 0.112475 -7.94177e-27)
(0.0199921 0.00157642 -3.56889e-30)
(0.0230536 0.00446799 1.23773e-26)
(0.0262933 0.00707975 1.31055e-26)
(0.029873 0.00993031 -1.40024e-26)
(0.0338435 0.0141734 1.48516e-26)
(0.0380206 0.0204925 -1.55158e-26)
(0.0426552 0.0294391 1.40448e-26)
(0.0477438 0.040801 0)
(0.0533514 0.0548596 3.89441e-31)
(0.0597192 0.071693 -5.08092e-27)
(0.066519 0.0897209 -2.00212e-26)
(0.0733155 0.107311 7.62229e-27)
(0.079084 0.122503 0)
(0.0821685 0.132399 2.31962e-33)
(0.0823694 0.136724 -1.87002e-26)
(0.0798667 0.137788 -1.97606e-26)
(0.0753411 0.137626 -1.50492e-27)
(0.0700476 0.138282 -2.61374e-27)
(0.0645834 0.140199 -4.46749e-31)
(0.0588116 0.142887 5.45942e-27)
(0.05279 0.145898 0)
(0.0465405 0.148925 -2.81469e-26)
(0.0400967 0.151767 2.2905e-31)
(0.0334656 0.154243 8.8167e-27)
(0.0266727 0.156248 1.91257e-30)
(0.0197297 0.157675 2.00036e-27)
(0.0126158 0.158432 -2.95201e-27)
(0.00544706 0.158201 4.10013e-28)
(-0.00162995 0.15679 3.41013e-28)
(-0.00851673 0.153743 -1.37021e-26)
(-0.0147591 0.148892 1.60136e-26)
(-0.0194884 0.141439 -3.05481e-27)
(-0.0194522 0.131015 9.24677e-28)
(-0.021871 0.134332 -7.62253e-27)
(-0.017614 0.121269 -5.22061e-27)
(-0.0214784 0.130342 -5.1933e-27)
(-0.0211301 0.123651 -3.45894e-28)
(-0.0112355 0.113881 2.26859e-27)
(-0.0154253 0.115744 3.04018e-27)
(-0.00228499 0.10851 9.22193e-31)
(-0.00723584 0.108123 0)
(0.0166349 0.00194102 -4.64798e-34)
(0.0193997 0.00498822 -1.1125e-26)
(0.0224559 0.00767014 1.20613e-26)
(0.0258031 0.0103205 1.31179e-26)
(0.029569 0.0144125 -7.13494e-29)
(0.0336436 0.0205559 1.55877e-26)
(0.0381634 0.0290432 0)
(0.0432907 0.0398694 1.37811e-26)
(0.0489934 0.0531579 -3.26302e-27)
(0.0555103 0.0691659 -2.04054e-26)
(0.0626526 0.0865612 -3.4727e-26)
(0.0699911 0.103844 -2.0923e-26)
(0.0767152 0.119357 1.56884e-26)
(0.0817249 0.130643 1.67425e-26)
(0.0833579 0.136121 -1.92969e-27)
(0.0823843 0.138201 -2.02639e-26)
(0.0791538 0.138597 -2.25188e-26)
(0.0743599 0.139211 -4.1463e-26)
(0.0691795 0.141099 2.65132e-26)
(0.0636365 0.144004 1.30681e-26)
(0.0576453 0.147331 2.67072e-29)
(0.0512999 0.150668 -2.02482e-26)
(0.0447107 0.153796 -4.00191e-27)
(0.0379388 0.156641 7.59019e-27)
(0.0309598 0.159052 0)
(0.0237542 0.160935 -1.99068e-27)
(0.0163697 0.162152 -2.54576e-27)
(0.00868667 0.16257 4.94374e-28)
(0.000883455 0.161924 -6.94956e-28)
(-0.00705903 0.159744 -1.45166e-27)
(-0.0146914 0.15541 -2.98696e-26)
(-0.0216485 0.148993 2.7734e-26)
(-0.0237957 0.137374 8.29734e-28)
(-0.0257828 0.141628 -9.99661e-27)
(-0.0244933 0.133064 -9.66689e-27)
(-0.0198182 0.117731 9.056e-28)
(-0.0249003 0.126609 -5.37936e-27)
(-0.0239758 0.120166 0)
(-0.0123815 0.109673 -9.83846e-27)
(-0.0172945 0.111639 -4.43122e-27)
(-0.00247711 0.103658 -6.52415e-27)
(-0.00794611 0.10323 0)
(0.0135818 0.00228141 8.69558e-27)
(0.0160164 0.00560249 -2.74299e-29)
(0.0187811 0.00833144 -1.08549e-26)
(0.0218297 0.0108873 1.67313e-28)
(0.0252676 0.0148784 1.0833e-28)
(0.0291186 0.0209379 1.23035e-28)
(0.0334197 0.0290216 1.50293e-26)
(0.0384492 0.0392949 -1.494e-27)
(0.0441677 0.0518512 1.59364e-26)
(0.0507564 0.0669845 0)
(0.0581596 0.0836303 0)
(0.0659687 0.100395 -1.97174e-26)
(0.0735651 0.115909 -8.10437e-27)
(0.0799531 0.127764 8.24292e-27)
(0.0837298 0.134729 0)
(0.0842075 0.137843 -1.9926e-27)
(0.0823164 0.138928 -2.15583e-26)
(0.0786355 0.139787 -4.58366e-26)
(0.0738264 0.141665 -2.11873e-26)
(0.068567 0.14486 -2.2537e-26)
(0.062682 0.148518 -3.80011e-27)
(0.0563038 0.152254 -1.49231e-29)
(0.0495681 0.155812 2.09552e-26)
(0.0426103 0.15899 0)
(0.0354738 0.161797 -9.97312e-28)
(0.028082 0.164115 4.88528e-27)
(0.0203796 0.165919 -2.38738e-27)
(0.0124344 0.166926 1.70706e-27)
(0.00417153 0.167005 -1.958e-27)
(-0.00441625 0.165865 -1.39795e-27)
(-0.0135744 0.162766 0)
(-0.0223488 0.156519 -3.18036e-26)
(-0.0269944 0.145264 5.06967e-27)
(-0.028463 0.15025 5.12162e-27)
(-0.0271687 0.136426 -2.10945e-26)
(-0.0294891 0.140414 -1.08731e-26)
(-0.0282659 0.130054 -1.14271e-26)
(-0.0221168 0.113676 1.36678e-26)
(-0.0281031 0.123325 0)
(-0.026912 0.116235 -8.2818e-28)
(-0.0136583 0.104914 5.30118e-27)
(-0.0191442 0.106988 4.7868e-27)
(-0.00268192 0.0983141 -1.70878e-64)
(-0.00865438 0.0978206 0)
(0.0109006 0.00261674 -6.943e-27)
(0.0129567 0.00627813 8.22206e-27)
(0.0153197 0.00903719 0)
(0.0180108 0.0116733 -1.02405e-26)
(0.0210479 0.0156305 -1.20456e-26)
(0.0245363 0.0216521 -3.37508e-28)
(0.0285157 0.0294138 0)
(0.0332922 0.0391294 -1.50004e-26)
(0.0389091 0.0509839 -1.68311e-27)
(0.04548 0.0652276 1.58262e-26)
(0.05303 0.0810163 0)
(0.0612319 0.0970667 0)
(0.0696186 0.112265 0)
(0.0771771 0.124326 4.29711e-27)
(0.0829491 0.132335 -1.67649e-26)
(0.0854676 0.136685 1.68843e-26)
(0.0849092 0.138499 0)
(0.0825217 0.139793 -4.43023e-26)
(0.0785055 0.141803 -4.54506e-26)
(0.0736549 0.14526 5.28496e-31)
(0.0680006 0.14938 -2.77973e-26)
(0.0616477 0.15363 3.49088e-27)
(0.0547919 0.157635 1.11513e-26)
(0.0476517 0.161203 0)
(0.040293 0.16438 0)
(0.0327432 0.167163 1.0502e-26)
(0.0248955 0.169428 -2.6073e-27)
(0.0166761 0.171087 5.15682e-27)
(0.00810926 0.172 1.53439e-27)
(-0.00108245 0.171929 -4.80532e-27)
(-0.0110168 0.170131 0)
(-0.0217663 0.165892 -1.03148e-26)
(-0.0287452 0.154443 -4.75186e-28)
(-0.0296301 0.160083 -1.07665e-26)
(-0.0313911 0.144802 0)
(-0.0329897 0.149709 0)
(-0.0313154 0.134001 -2.2889e-26)
(-0.0340464 0.138457 0)
(-0.0319551 0.127036 -1.33534e-26)
(-0.0245665 0.109059 1.01476e-26)
(-0.0315677 0.119576 -7.21559e-27)
(-0.0299832 0.111732 5.93684e-27)
(-0.0149231 0.0996184 -1.14214e-26)
(-0.0210135 0.101758 -1.5514e-26)
(-0.00290075 0.0924815 -1.55564e-26)
(-0.00934396 0.0919068 -1.44574e-26)
(0.00867222 0.00292021 -2.66162e-27)
(0.010284 0.0069491 -6.62917e-27)
(0.0121887 0.00984612 -7.93279e-27)
(0.0144222 0.0127158 6.68882e-28)
(0.0169567 0.0166981 -1.06927e-26)
(0.019982 0.0227153 -2.47137e-26)
(0.0235426 0.0302406 0)
(0.0279231 0.0394251 1.41756e-26)
(0.0332858 0.0505986 -3.06094e-26)
(0.0397203 0.063966 0)
(0.0472842 0.0788205 -7.88734e-27)
(0.0557614 0.0939744 4.07963e-27)
(0.0648153 0.108527 1.0544e-26)
(0.0735036 0.120469 1.30002e-26)
(0.0808809 0.128893 -2.63717e-26)
(0.0856716 0.134439 0)
(0.0871202 0.137114 -2.29745e-26)
(0.0861068 0.138838 -4.57635e-26)
(0.0832346 0.141317 -2.3439e-26)
(0.0789899 0.145145 4.45891e-27)
(0.0736204 0.149767 -4.73528e-26)
(0.0673699 0.154531 -2.63671e-26)
(0.0604719 0.159088 -2.36903e-26)
(0.0531221 0.16321 -3.32083e-26)
(0.045528 0.16683 0)
(0.0377848 0.169941 2.65023e-27)
(0.029859 0.17267 4.45706e-26)
(0.021528 0.174907 -2.50928e-27)
(0.0126626 0.176615 -2.8202e-27)
(0.00348508 0.177528 4.61972e-27)
(-0.00692647 0.177335 -2.82333e-27)
(-0.018721 0.174526 4.70815e-27)
(-0.028803 0.164674 -9.86038e-27)
(-0.0289189 0.170742 2.49594e-28)
(-0.033961 0.154862 -4.89895e-28)
(-0.0347392 0.160576 2.03836e-27)
(-0.0364281 0.14339 -6.55369e-29)
(-0.0383527 0.14879 -2.38738e-28)
(-0.035576 0.13137 -2.29434e-26)
(-0.0388399 0.136259 5.85044e-28)
(-0.0360138 0.12356 -9.26812e-28)
(-0.0271038 0.103861 -4.64757e-27)
(-0.0352764 0.11522 -5.49503e-27)
(-0.0331575 0.106598 5.19413e-27)
(-0.0161736 0.0937788 -3.68666e-27)
(-0.022857 0.0959483 -5.60536e-26)
(-0.00309068 0.0861808 1.94595e-64)
(-0.0100372 0.0854868 0)
(0.00700495 0.00316645 0)
(0.00807323 0.00764895 -4.97127e-27)
(0.0094454 0.0108428 -6.5045e-27)
(0.0111315 0.013973 -1.47122e-26)
(0.0130954 0.018053 -9.16491e-27)
(0.0155619 0.0241378 -9.97272e-27)
(0.0186004 0.0315111 -2.36515e-26)
(0.0224597 0.0402286 -6.48391e-28)
(0.0273986 0.0507474 1.39619e-26)
(0.0335417 0.0632682 -1.55615e-26)
(0.0409676 0.077147 0)
(0.0495626 0.0912534 -4.99224e-27)
(0.0591046 0.104851 8.44566e-27)
(0.0688438 0.116269 2.21157e-26)
(0.0777546 0.124752 9.91161e-31)
(0.0846763 0.131009 5.12427e-27)
(0.0885492 0.134592 -1.99841e-26)
(0.0893365 0.136949 -2.28391e-26)
(0.0877698 0.140033 0)
(0.0843676 0.144374 -5.2241e-26)
(0.0794491 0.149588 -2.63886e-26)
(0.0733782 0.155125 -4.97718e-26)
(0.0664424 0.160402 -1.80718e-27)
(0.0589057 0.165127 -4.87906e-26)
(0.0510265 0.169216 -9.5806e-27)
(0.0430349 0.172726 0)
(0.0349824 0.17571 5.4412e-26)
(0.0266191 0.178412 -6.32583e-27)
(0.0179002 0.180661 4.04213e-27)
(0.00881553 0.182509 -3.1066e-27)
(-0.00163825 0.184046 -2.13054e-27)
(-0.0148763 0.183943 0)
(-0.0267175 0.175711 1.91184e-27)
(-0.0261373 0.182104 -6.86319e-28)
(-0.0345165 0.166338 -1.74176e-26)
(-0.0344572 0.172958 -9.87796e-27)
(-0.0397466 0.154641 -1.30141e-28)
(-0.0407748 0.161142 5.61125e-27)
(-0.0417256 0.141705 -6.02089e-27)
(-0.0440698 0.147715 6.43718e-27)
(-0.0402663 0.128263 -2.51544e-26)
(-0.0441206 0.133614 2.54609e-26)
(-0.0404188 0.119542 -4.37988e-27)
(-0.0296856 0.0980784 -1.00085e-26)
(-0.0392383 0.110273 -7.16616e-27)
(-0.0364673 0.100788 -1.26902e-26)
(-0.017277 0.0873767 4.76448e-26)
(-0.0247606 0.089651 2.40845e-26)
(-0.0032733 0.0794632 0)
(-0.0105286 0.0785389 -1.90408e-26)
(0.00601729 0.00334392 9.87984e-29)
(0.00646208 0.00837606 1.67078e-27)
(0.00717503 0.0119913 -5.00147e-27)
(0.00820253 0.0154217 -5.65202e-27)
(0.00956032 0.0196977 -6.89592e-27)
(0.0113829 0.025917 -8.20575e-27)
(0.0137965 0.0332234 -2.20759e-26)
(0.0170203 0.0415756 -2.45157e-26)
(0.0213718 0.0514891 0)
(0.0270363 0.0632104 9.25226e-29)