/*--------------------------------*- C++ -*----------------------------------*\
  =========                 |
  \\      /  F ield         | OpenFOAM: The Open Source CFD Toolbox
   \\    /   O peration     | Website:  https://openfoam.org
    \\  /    A nd           | Version:  dev
     \\/     M anipulation  |
\*---------------------------------------------------------------------------*/
FoamFile
{
    version     2.0;
    format      ascii;
    class       volScalarField;
    location    "2500";
    object      a;
}
// * * * * * * * * * * * * * * * * * * * * * * * * * * * * * * * * * * * * * //

dimensions      [0 -1 0 0 0 0 0];

internalField   nonuniform List<scalar> 
9456
(
0.100011
0.100011
0.100011
0.100011
0.100011
0.100011
0.100011
0.100011
0.100011
0.100011
0.10001
0.100011
0.100011
0.100011
0.100011
0.10001
0.10001
0.100011
0.100011
0.100011
0.100011
0.10001
0.10001
0.10001
0.100011
0.100011
0.100011
0.100011
0.10001
0.10001
0.10001
0.10001
0.100011
0.100011
0.100011
0.100011
0.100009
0.10001
0.10001
0.10001
0.10001
0.100011
0.100011
0.100011
0.100011
0.100009
0.100009
0.10001
0.10001
0.10001
0.10001
0.100011
0.100011
0.100011
0.100011
0.100009
0.100009
0.100009
0.10001
0.10001
0.10001
0.10001
0.100011
0.100011
0.100011
0.100011
0.100009
0.100009
0.100009
0.100009
0.10001
0.10001
0.10001
0.10001
0.100011
0.100011
0.100011
0.100011
0.100009
0.100009
0.100009
0.100009
0.100009
0.10001
0.10001
0.10001
0.10001
0.100011
0.100011
0.100011
0.100011
0.100008
0.100009
0.100009
0.100009
0.100009
0.100009
0.10001
0.10001
0.10001
0.10001
0.100011
0.100011
0.100011
0.100011
0.100008
0.100008
0.100009
0.100009
0.100009
0.100009
0.100009
0.10001
0.10001
0.10001
0.10001
0.100011
0.100011
0.100011
0.100011
0.100008
0.100008
0.100008
0.100009
0.100009
0.100009
0.100009
0.100009
0.10001
0.10001
0.10001
0.10001
0.100011
0.100011
0.100011
0.100011
0.100008
0.100008
0.100008
0.100008
0.100009
0.100009
0.100009
0.100009
0.100009
0.10001
0.10001
0.10001
0.10001
0.100011
0.100011
0.100011
0.100011
0.100007
0.100008
0.100008
0.100008
0.100008
0.100009
0.100009
0.100009
0.100009
0.100009
0.10001
0.10001
0.10001
0.10001
0.100011
0.100011
0.100011
0.100011
0.100007
0.100007
0.100008
0.100008
0.100008
0.100008
0.100009
0.100009
0.100009
0.100009
0.100009
0.10001
0.10001
0.10001
0.10001
0.100011
0.100011
0.100011
0.100011
0.100007
0.100007
0.100007
0.100008
0.100008
0.100008
0.100008
0.100008
0.100009
0.100009
0.100009
0.100009
0.10001
0.10001
0.10001
0.10001
0.100011
0.100011
0.100011
0.100011
0.100007
0.100007
0.100007
0.100007
0.100008
0.100008
0.100008
0.100008
0.100008
0.100009
0.100009
0.100009
0.100009
0.10001
0.10001
0.10001
0.10001
0.100011
0.100011
0.100011
0.100011
0.100006
0.100007
0.100007
0.100007
0.100007
0.100008
0.100008
0.100008
0.100008
0.100008
0.100009
0.100009
0.100009
0.100009
0.10001
0.10001
0.10001
0.10001
0.100011
0.100011
0.100011
0.100011
0.100006
0.100006
0.100007
0.100007
0.100007
0.100007
0.100008
0.100008
0.100008
0.100008
0.100008
0.100009
0.100009
0.100009
0.100009
0.10001
0.10001
0.10001
0.10001
0.100011
0.100011
0.100011
0.100011
0.100006
0.100006
0.100006
0.100007
0.100007
0.100007
0.100007
0.100008
0.100008
0.100008
0.100008
0.100008
0.100009
0.100009
0.100009
0.100009
0.10001
0.10001
0.10001
0.10001
0.100011
0.100011
0.100011
0.100011
0.100006
0.100006
0.100006
0.100006
0.100007
0.100007
0.100007
0.100007
0.100008
0.100008
0.100008
0.100008
0.100008
0.100009
0.100009
0.100009
0.100009
0.10001
0.10001
0.10001
0.10001
0.100011
0.100011
0.100011
0.100011
0.100006
0.100006
0.100006
0.100006
0.100006
0.100007
0.100007
0.100007
0.100007
0.100008
0.100008
0.100008
0.100008
0.100008
0.100009
0.100009
0.100009
0.100009
0.10001
0.10001
0.10001
0.10001
0.100011
0.100011
0.100011
0.100011
0.100005
0.100006
0.100006
0.100006
0.100006
0.100006
0.100007
0.100007
0.100007
0.100007
0.100008
0.100008
0.100008
0.100008
0.100008
0.100009
0.100009
0.100009
0.100009
0.10001
0.10001
0.10001
0.10001
0.100011
0.100011
0.100011
0.100011
0.100005
0.100005
0.100006
0.100006
0.100006
0.100006
0.100006
0.100007
0.100007
0.100007
0.100007
0.100008
0.100008
0.100008
0.100008
0.100008
0.100009
0.100009
0.100009
0.100009
0.10001
0.10001
0.10001
0.10001
0.100011
0.100011
0.100011
0.100011
0.100005
0.100005
0.100005
0.100006
0.100006
0.100006
0.100006
0.100006
0.100007
0.100007
0.100007
0.100007
0.100008
0.100008
0.100008
0.100008
0.100008
0.100009
0.100009
0.100009
0.100009
0.10001
0.10001
0.10001
0.10001
0.100011
0.100011
0.100011
0.100011
0.100005
0.100005
0.100005
0.100005
0.100006
0.100006
0.100006
0.100006
0.100006
0.100007
0.100007
0.100007
0.100007
0.100008
0.100008
0.100008
0.100008
0.100008
0.100009
0.100009
0.100009
0.100009
0.10001
0.10001
0.10001
0.10001
0.100011
0.100011
0.100011
0.100011
0.100004
0.100005
0.100005
0.100005
0.100005
0.100006
0.100006
0.100006
0.100006
0.100006
0.100007
0.100007
0.100007
0.100007
0.100008
0.100008
0.100008
0.100008
0.100008
0.100009
0.100009
0.100009
0.100009
0.10001
0.10001
0.10001
0.10001
0.100011
0.100011
0.100011
0.100011
0.100004
0.100004
0.100005
0.100005
0.100005
0.100005
0.100006
0.100006
0.100006
0.100006
0.100006
0.100007
0.100007
0.100007
0.100007
0.100008
0.100008
0.100008
0.100008
0.100008
0.100009
0.100009
0.100009
0.100009
0.10001
0.10001
0.10001
0.10001
0.100011
0.100011
0.100011
0.100011
0.100004
0.100004
0.100004
0.100005
0.100005
0.100005
0.100005
0.100006
0.100006
0.100006
0.100006
0.100006
0.100007
0.100007
0.100007
0.100007
0.100008
0.100008
0.100008
0.100008
0.100008
0.100009
0.100009
0.100009
0.100009
0.10001
0.10001
0.10001
0.10001
0.100011
0.100011
0.100011
0.100011
0.100004
0.100004
0.100004
0.100004
0.100005
0.100005
0.100005
0.100005
0.100006
0.100006
0.100006
0.100006
0.100006
0.100007
0.100007
0.100007
0.100007
0.100008
0.100008
0.100008
0.100008
0.100008
0.100009
0.100009
0.100009
0.100009
0.10001
0.10001
0.10001
0.10001
0.100011
0.100011
0.100011
0.100011
0.100011
0.100004
0.100004
0.100004
0.100004
0.100004
0.100005
0.100005
0.100005
0.100005
0.100006
0.100006
0.100006
0.100006
0.100006
0.100007
0.100007
0.100007
0.100007
0.100008
0.100008
0.100008
0.100008
0.100008
0.100009
0.100009
0.100009
0.100009
0.10001
0.10001
0.10001
0.10001
0.100011
0.100011
0.100011
0.100011
0.100011
0.100011
0.100011
0.100011
0.100003
0.100004
0.100004
0.100004
0.100004
0.100004
0.100005
0.100005
0.100005
0.100005
0.100006
0.100006
0.100006
0.100006
0.100006
0.100007
0.100007
0.100007
0.100007
0.100008
0.100008
0.100008
0.100008
0.100008
0.100009
0.100009
0.100009
0.100009
0.10001
0.10001
0.10001
0.10001
0.100011
0.10001
0.100011
0.100011
0.100011
0.100011
0.100011
0.100011
0.100003
0.100003
0.100004
0.100004
0.100004
0.100004
0.100004
0.100005
0.100005
0.100005
0.100005
0.100006
0.100006
0.100006
0.100006
0.100006
0.100007
0.100007
0.100007
0.100007
0.100008
0.100008
0.100008
0.100008
0.100008
0.100009
0.100009
0.100009
0.100009
0.10001
0.10001
0.10001
0.10001
0.10001
0.100011
0.10001
0.100011
0.100011
0.100011
0.100011
0.100011
0.100011
0.100003
0.100003
0.100003
0.100004
0.100004
0.100004
0.100004
0.100004
0.100005
0.100005
0.100005
0.100005
0.100006
0.100006
0.100006
0.100006
0.100006
0.100007
0.100007
0.100007
0.100007
0.100008
0.100008
0.100008
0.100008
0.100008
0.100009
0.100009
0.100009
0.100009
0.10001
0.10001
0.10001
0.10001
0.10001
0.10001
0.100011
0.10001
0.100011
0.100011
0.100011
0.100011
0.100011
0.100011
0.100003
0.100003
0.100003
0.100003
0.100004
0.100004
0.100004
0.100004
0.100004
0.100005
0.100005
0.100005
0.100005
0.100006
0.100006
0.100006
0.100006
0.100006
0.100007
0.100007
0.100007
0.100007
0.100008
0.100008
0.100008
0.100008
0.100008
0.100009
0.100009
0.100009
0.100009
0.10001
0.10001
0.10001
0.10001
0.10001
0.10001
0.10001
0.100011
0.10001
0.100011
0.100011
0.100011
0.100011
0.100011
0.100011
0.100002
0.100003
0.100003
0.100003
0.100003
0.100004
0.100004
0.100004
0.100004
0.100004
0.100005
0.100005
0.100005
0.100005
0.100006
0.100006
0.100006
0.100006
0.100006
0.100007
0.100007
0.100007
0.100007
0.100008
0.100008
0.100008
0.100008
0.100008
0.100009
0.100009
0.100009
0.100009
0.10001
0.10001
0.10001
0.10001
0.10001
0.10001
0.10001
0.10001
0.100011
0.10001
0.100011
0.100011
0.100011
0.100011
0.100011
0.100011
0.100002
0.100002
0.100003
0.100003
0.100003
0.100003
0.100004
0.100004
0.100004
0.100004
0.100004
0.100005
0.100005
0.100005
0.100005
0.100006
0.100006
0.100006
0.100006
0.100006
0.100007
0.100007
0.100007
0.100007
0.100008
0.100008
0.100008
0.100008
0.100008
0.100009
0.100009
0.100009
0.100009
0.100009
0.10001
0.10001
0.10001
0.10001
0.10001
0.10001
0.10001
0.10001
0.100011
0.10001
0.100011
0.100011
0.100011
0.100011
0.100011
0.100011
0.100002
0.100002
0.100002
0.100003
0.100003
0.100003
0.100003
0.100004
0.100004
0.100004
0.100004
0.100004
0.100005
0.100005
0.100005
0.100005
0.100006
0.100006
0.100006
0.100006
0.100006
0.100007
0.100007
0.100007
0.100007
0.100008
0.100008
0.100008
0.100008
0.100009
0.100009
0.100009
0.100009
0.100009
0.10001
0.10001
0.10001
0.10001
0.10001
0.10001
0.10001
0.10001
0.10001
0.10001
0.100011
0.10001
0.100011
0.100011
0.100011
0.100011
0.100011
0.100011
0.100002
0.100002
0.100002
0.100002
0.100003
0.100003
0.100003
0.100003
0.100004
0.100004
0.100004
0.100004
0.100004
0.100005
0.100005
0.100005
0.100005
0.100006
0.100006
0.100006
0.100006
0.100006
0.100007
0.100007
0.100007
0.100007
0.100008
0.100008
0.100008
0.100009
0.10001
0.100009
0.10001
0.100012
0.10001
0.100011
0.10001
0.100011
0.10001
0.100011
0.10001
0.100011
0.10001
0.10001
0.10001
0.10001
0.100011
0.100011
0.100011
0.100011
0.100011
0.100011
0.100011
0.100011
0.100001
0.100002
0.100002
0.100002
0.100002
0.100003
0.100003
0.100003
0.100003
0.100004
0.100004
0.100004
0.100004
0.100004
0.100005
0.100005
0.100005
0.100005
0.100006
0.100006
0.100006
0.100006
0.100006
0.100007
0.100007
0.100007
0.100007
0.100008
0.100009
0.100013
0.10002
0.100027
0.100017
0.100011
0.100014
0.100022
0.100014
0.10002
0.100013
0.100018
0.100012
0.100016
0.100011
0.100014
0.100011
0.100012
0.100011
0.100011
0.100011
0.100011
0.100011
0.100011
0.100011
0.100011
0.100011
0.100011
0.100001
0.100001
0.100002
0.100002
0.100002
0.100002
0.100003
0.100003
0.100003
0.100003
0.100004
0.100004
0.100004
0.100004
0.100004
0.100005
0.100005
0.100005
0.100005
0.100006
0.100006
0.100006
0.100006
0.100006
0.100007
0.100007
0.100007
0.100009
0.100014
0.100034
0.100083
0.100172
0.100254
0.100044
0.100142
0.100035
0.100075
0.100031
0.100064
0.100027
0.100055
0.100022
0.100044
0.100017
0.100032
0.100013
0.100022
0.100011
0.100015
0.100011
0.100012
0.100011
0.100011
0.100011
0.100011
0.100011
0.100011
0.100001
0.100001
0.100001
0.100002
0.100002
0.100002
0.100002
0.100003
0.100003
0.100003
0.100003
0.100004
0.100004
0.100004
0.100004
0.100004
0.100005
0.100005
0.100005
0.100005
0.100006
0.100006
0.100006
0.100006
0.100006
0.100007
0.100008
0.100012
0.100034
0.100124
0.100416
0.101076
0.102169
0.101094
0.10307
0.100174
0.100425
0.100145
0.100354
0.100125
0.100297
0.100104
0.100257
0.100078
0.100204
0.100051
0.100143
0.10003
0.100084
0.100017
0.100041
0.100012
0.100019
0.100012
0.100011
0.100012
0.100011
0.100011
0.100011
0.100001
0.100001
0.100001
0.100001
0.100002
0.100002
0.100002
0.100002
0.100003
0.100003
0.100003
0.100003
0.100004
0.100004
0.100004
0.100004
0.100004
0.100005
0.100005
0.100005
0.100005
0.100006
0.100006
0.100006
0.100006
0.100007
0.100009
0.100023
0.100096
0.100444
0.101773
0.105482
0.112133
0.108448
0.122947
0.106468
0.116764
0.100899
0.102378
0.100737
0.101946
0.100641
0.101617
0.100543
0.101417
0.100412
0.101138
0.100261
0.100803
0.100135
0.100467
0.100054
0.10021
0.100019
0.100064
0.100018
0.100011
0.100015
0.100013
0.100011
0.100011
0.100001
0.100001
0.100001
0.100001
0.100001
0.100002
0.100002
0.100002
0.100002
0.100003
0.100003
0.100003
0.100003
0.100004
0.100004
0.100004
0.100004
0.100004
0.100005
0.100005
0.100005
0.100005
0.100006
0.100006
0.100006
0.100007
0.100013
0.100051
0.100273
0.101398
0.106004
0.118637
0.142706
0.147572
0.16975
0.137604
0.173004
0.132012
0.163483
0.105187
0.113629
0.104256
0.111301
0.10366
0.109331
0.103121
0.108083
0.102373
0.106514
0.101526
0.104633
0.100798
0.102773
0.100297
0.101282
0.100066
0.100364
0.100054
0.100012
0.100035
0.100021
0.100011
0.100011
0.1
0.100001
0.100001
0.100001
0.100001
0.100001
0.100002
0.100002
0.100002
0.100002
0.100003
0.100003
0.100003
0.100003
0.100004
0.100004
0.100004
0.100004
0.100004
0.100005
0.100005
0.100005
0.100005
0.100006
0.100006
0.100009
0.100024
0.100125
0.100721
0.103779
0.115755
0.146791
0.195471
0.260952
0.201146
0.255694
0.199017
0.239917
0.195287
0.236909
0.126939
0.15751
0.123333
0.151982
0.120323
0.145431
0.117367
0.14005
0.113186
0.133275
0.10874
0.124522
0.104778
0.115273
0.101833
0.107548
0.100368
0.102234
0.100268
0.100014
0.100142
0.100055
0.100011
0.100011
0.1
0.1
0.100001
0.100001
0.100001
0.100001
0.100001
0.100002
0.100002
0.100002
0.100002
0.100003
0.100003
0.100003
0.100003
0.100004
0.100004
0.100004
0.100004
0.100004
0.100005
0.100005
0.100005
0.100005
0.100006
0.100012
0.100051
0.100304
0.101758
0.108729
0.132432
0.183023
0.255909
0.337414
0.356352
0.395526
0.279353
0.322345
0.279148
0.324909
0.283666
0.331073
0.192639
0.237451
0.189542
0.239457
0.184648
0.237989
0.176111
0.234236
0.160611
0.221874
0.142757
0.200123
0.125032
0.167651
0.110384
0.136999
0.102195
0.112357
0.10143
0.100018
0.100662
0.100189
0.100011
0.100012
0.1
0.1
0.100001
0.100001
0.100001
0.100001
0.100001
0.100002
0.100002
0.100002
0.100002
0.100003
0.100003
0.100003
0.100003
0.100004
0.100004
0.100004
0.100004
0.100004
0.100005
0.100005
0.100005
0.100007
0.10002
0.100113
0.100727
0.103981
0.117533
0.153641
0.217588
0.304747
0.387334
0.441769
0.437309
0.457572
0.367749
0.409264
0.377056
0.423042
0.393389
0.440982
0.291627
0.342911
0.299018
0.357053
0.30244
0.367609
0.299315
0.375074
0.282479
0.372227
0.251658
0.35538
0.201062
0.31518
0.14801
0.236745
0.111924
0.155422
0.106959
0.100015
0.10294
0.100882
0.1002
0.100011
0.100012
0.100017
0.1
0.1
0.100001
0.100001
0.100001
0.100001
0.100001
0.100002
0.100002
0.100002
0.100002
0.100003
0.100003
0.100003
0.100003
0.100004
0.100004
0.100004
0.100004
0.100004
0.100005
0.100005
0.100009
0.100037
0.100245
0.10164
0.108401
0.130402
0.176852
0.251961
0.341113
0.399221
0.435358
0.464156
0.448824
0.474191
0.471575
0.454475
0.470841
0.472479
0.489207
0.496174
0.511052
0.414755
0.465431
0.435567
0.492676
0.451525
0.518188
0.460533
0.540143
0.453552
0.553981
0.433535
0.546587
0.383336
0.519829
0.266962
0.449909
0.152914
0.295197
0.207922
0.111645
0.133252
0.100461
0.100046
0.100267
0.104209
0.119333
0.124604
0.102631
0.100011
0.100012
0.100013
0.100028
0.1
0.1
0.100001
0.100001
0.100001
0.100001
0.100001
0.100002
0.100002
0.100002
0.100002
0.100003
0.100003
0.100003
0.100003
0.100004
0.100004
0.100004
0.100004
0.100004
0.100005
0.100011
0.100062
0.100529
0.103347
0.115426
0.145608
0.19888
0.278879
0.356363
0.394979
0.417189
0.425719
0.402011
0.435459
0.398933
0.479998
0.463194
0.491415
0.488107
0.510767
0.50645
0.533881
0.527641
0.52509
0.53697
0.555767
0.567569
0.586266
0.60195
0.615616
0.638606
0.63852
0.675893
0.635782
0.70712
0.513854
0.588621
0.642085
0.696917
0.388133
0.502976
0.608515
0.666718
0.582461
0.283391
0.189507
0.308461
0.409889
0.179565
0.101514
0.10013
0.100779
0.112891
0.150042
0.167692
0.108037
0.100012
0.100014
0.100018
0.100064
0.1
0.1
0.100001
0.100001
0.100001
0.100001
0.100001
0.100002
0.100002
0.100002
0.100002
0.100003
0.100003
0.100003
0.100003
0.100004
0.100004
0.100004
0.100004
0.100005
0.100015
0.100105
0.10096
0.106249
0.124822
0.162284
0.220308
0.299368
0.357219
0.385881
0.385407
0.313798
0.363517
0.310421
0.362964
0.318995
0.445551
0.406474
0.496395
0.476683
0.514694
0.490055
0.535436
0.50381
0.562462
0.553036
0.595916
0.584512
0.633818
0.621606
0.674811
0.662593
0.719531
0.706573
0.728138
0.749404
0.753594
0.747871
0.67794
0.728779
0.75911
0.523401
0.618767
0.723897
0.752105
0.695707
0.434339
0.29834
0.435643
0.549231
0.281686
0.104508
0.100374
0.10229
0.134607
0.251451
0.215574
0.121649
0.100012
0.100033
0.100019
0.100172
0.1
0.1
0.100001
0.100001
0.100001
0.100001
0.100001
0.100002
0.100002
0.100002
0.100002
0.100003
0.100003
0.100003
0.100003
0.100004
0.100004
0.100004
0.100005
0.100018
0.10017
0.101619
0.110042
0.135595
0.179493
0.240603
0.312299
0.353937
0.370802
0.349105
0.255896
0.211971
0.188655
0.277475
0.240794
0.273518
0.23322
0.365919
0.318705
0.454911
0.412373
0.462561
0.415125
0.471655
0.416396
0.562063
0.521957
0.596424
0.548388
0.637083
0.586724
0.681906
0.631938
0.738874
0.724376
0.703475
0.67157
0.770562
0.76964
0.762346
0.750728
0.764403
0.7834
0.787567
0.646944
0.723776
0.788653
0.809143
0.778364
0.561044
0.429723
0.566535
0.66548
0.410576
0.112216
0.101072
0.106258
0.182281
0.377934
0.329092
0.152086
0.100013
0.100076
0.100034
0.100471
0.1
0.1
0.100001
0.100001
0.100001
0.100001
0.100001
0.100002
0.100002
0.100002
0.100002
0.100003
0.100003
0.100003
0.100003
0.100004
0.100004
0.100005
0.100023
0.100246
0.10254
0.114738
0.146461
0.195309
0.258354
0.318386
0.347949
0.354493
0.311281
0.20874
0.13888
0.149576
0.130887
0.198547
0.17038
0.189457
0.158409
0.270147
0.227374
0.365749
0.316676
0.361353
0.309663
0.357415
0.300394
0.487023
0.421283
0.515484
0.436962
0.556916
0.47166
0.641362
0.603996
0.515024
0.730467
0.701095
0.667835
0.631075
0.782837
0.773521
0.757001
0.729248
0.803185
0.802215
0.794486
0.745038
0.799316
0.819006
0.833707
0.827284
0.678781
0.560122
0.683095
0.76189
0.541221
0.130032
0.10296
0.115826
0.268526
0.507946
0.458429
0.212475
0.100017
0.100193
0.100073
0.101268
0.1
0.1
0.100001
0.100001
0.100001
0.100001
0.100001
0.100002
0.100002
0.100002
0.100002
0.100003
0.100003
0.100003
0.100003
0.100004
0.100006
0.10003
0.100365
0.103634
0.120034
0.157047
0.20924
0.271816
0.319549
0.340487
0.335802
0.277171
0.178092
0.126096
0.106354
0.104617
0.114234
0.107851
0.136779
0.122731
0.129452
0.116377
0.180878
0.150134
0.263075
0.219638
0.25018
0.206748
0.238026
0.191543
0.362464
0.294863
0.384485
0.305635
0.427454
0.342911
0.591893
0.546605
0.412769
0.45847
0.696869
0.660831
0.622445
0.582226
0.782288
0.75863
0.728168
0.693423
0.815753
0.805494
0.789469
0.816558
0.843418
0.828133
0.840844
0.84814
0.772806
0.676989
0.776588
0.829865
0.65988
0.167925
0.107554
0.136954
0.392416
0.628652
0.581288
0.314696
0.100027
0.100487
0.100165
0.103201
0.1
0.1
0.100001
0.100001
0.100001
0.100001
0.100001
0.100002
0.100002
0.100002
0.100002
0.100003
0.100003
0.100003
0.100004
0.100009
0.100045
0.100535
0.105255
0.125717
0.166905
0.22215
0.282403
0.318068
0.331941
0.315586
0.247288
0.160143
0.118459
0.102184
0.100963
0.100408
0.102621
0.101384
0.108804
0.104709
0.106156
0.103014
0.124281
0.112538
0.169554
0.142876
0.158672
0.135668
0.156073
0.132537
0.23926
0.190608
0.270711
0.215179
0.376248
0.334023
0.267308
0.302628
0.540292
0.497757
0.371775
0.411362
0.655837
0.616434
0.576011
0.53472
0.761555
0.728885
0.693089
0.655129
0.816779
0.796663
0.766111
0.857818
0.862471
0.827683
0.839842
0.854539
0.839602
0.77231
0.84464
0.870796
0.758277
0.237844
0.118246
0.182396
0.518634
0.731494
0.690574
0.442468
0.100042
0.101177
0.100329
0.107875
0.1
0.1
0.100001
0.100001
0.100001
0.100001
0.100001
0.100002
0.100002
0.100002
0.100002
0.100003
0.100003
0.100005
0.100015
0.100079
0.100822
0.107425
0.131881
0.175878
0.232918
0.288003
0.315115
0.322146
0.29462
0.221344
0.147889
0.113614
0.101859
0.100134
0.10015
0.100177
0.100101
0.100454
0.100264
0.101524
0.100804
0.101215
0.100657
0.104938
0.102402
0.119821
0.110134
0.117766
0.109349
0.123849
0.112654
0.173319
0.143199
0.215916
0.176846
0.335174
0.300829
0.242924
0.270689
0.492853
0.451646
0.345931
0.381382
0.616076
0.576351
0.53641
0.496477
0.732891
0.69785
0.661861
0.625444
0.803528
0.773964
0.74333
0.876958
0.869586
0.81573
0.833384
0.854942
0.881763
0.843451
0.889661
0.891715
0.834277
0.354632
0.142734
0.264177
0.635983
0.814328
0.783142
0.568055
0.100046
0.1027
0.100586
0.118951
0.1
0.1
0.100001
0.100001
0.100001
0.100001
0.100001
0.100002
0.100002
0.100002
0.100003
0.100004
0.100008
0.100031
0.100163
0.101385
0.110458
0.1384
0.183989
0.241512
0.290679
0.311273
0.311863
0.274059
0.199694
0.138477
0.11024
0.101414
0.100088
0.100043
0.100025
0.100076
0.10005
0.100152
0.100105
0.100376
0.100231
0.10051
0.100327
0.101399
0.100821
0.104843
0.102538
0.106759
0.103797
0.115261
0.108225
0.148434
0.128175
0.210856
0.189098
0.174521
0.158623
0.312953
0.282591
0.231041
0.255295
0.456941
0.418472
0.33267
0.365762
0.588239
0.550432
0.512433
0.474502
0.712013
0.679689
0.64628
0.611708
0.789362
0.76231
0.734071
0.885908
0.872151
0.809716
0.83337
0.853356
0.90575
0.893044
0.91778
0.902933
0.890147
0.489262
0.195669
0.395975
0.740147
0.879058
0.859205
0.686258
0.100057
0.106306
0.101159
0.1452
0.1
0.1
0.100001
0.100001
0.100001
0.100001
0.100001
0.100002
0.100002
0.100003
0.100005
0.100017
0.100072
0.100363
0.102514
0.114899
0.145223
0.191339
0.248081
0.291056
0.307002
0.300547
0.25495
0.182447
0.130934
0.107731
0.101058
0.100085
0.100019
0.100015
0.100029
0.100021
0.100055
0.100039
0.100103
0.100076
0.10021
0.100143
0.100383
0.100255
0.100886
0.100577
0.102252
0.101392
0.104722
0.102886
0.113372
0.107311
0.148044
0.136567
0.124599
0.205148
0.18686
0.17148
0.15788
0.301919
0.273693
0.225292
0.248115
0.437027
0.400659
0.326351
0.358307
0.57572
0.538715
0.501444
0.464266
0.704617
0.673804
0.641378
0.607148
0.785434
0.761051
0.736463
0.891245
0.87626
0.814756
0.850819
0.862533
0.920245
0.926476
0.936266
0.912022
0.930695
0.621236
0.29222
0.54374
0.83061
0.928943
0.921102
0.793953
0.100089
0.115416
0.10261
0.202224
0.1
0.1
0.100001
0.100001
0.100001
0.100001
0.100001
0.100002
0.100003
0.100009
0.100037
0.100173
0.100848
0.104726
0.120801
0.152299
0.198125
0.253434
0.290278
0.302208
0.288775
0.23787
0.169263
0.125036
0.105873
0.10075
0.10007
0.100012
0.100014
0.100011
0.100023
0.100018
0.100048
0.100033
0.100088
0.100066
0.100166
0.100117
0.100334
0.100222
0.100756
0.100499
0.101817
0.101164
0.104318
0.102687
0.113156
0.1072
0.146488
0.136526
0.120341
0.128396
0.203442
0.185982
0.170799
0.157605
0.296757
0.269693
0.22306
0.245111
0.427691
0.392214
0.323572
0.354635
0.571226
0.534141
0.496614
0.459239
0.710482
0.681506
0.648869
0.612787
0.797113
0.77856
0.756982
0.901945
0.895054
0.840507
0.88828
0.891826
0.933299
0.950226
0.953215
0.928878
0.960973
0.7491
0.437661
0.686788
0.908238
0.967931
0.971878
0.890988
0.100185
0.13773
0.105671
0.304351
0.1
0.1
0.100001
0.100001
0.100001
0.100001
0.100002
0.100004
0.100018
0.100086
0.100417
0.101939
0.109013
0.127791
0.159736
0.204888
0.257929
0.288934
0.29699
0.277104
0.223083
0.159139
0.120603
0.104497
0.100596
0.100054
0.10001
0.100008
0.100012
0.10001
0.100019
0.100015
0.100036
0.100026
0.10008
0.100054
0.100144
0.100105
0.100293
0.10019
0.100692
0.10045
0.101695
0.101074
0.104271
0.102657
0.122065
0.118104
0.112444
0.109445
0.106593
0.146189
0.136372
0.129118
0.204721
0.187729
0.172747
0.159555
0.294922
0.26877
0.223816
0.245096
0.422499
0.387643
0.326077
0.35529
0.574199
0.534479
0.495061
0.456905
0.730276
0.697607
0.659767
0.618615
0.828001
0.809934
0.784311
0.929168
0.934159
0.881778
0.937096
0.938555
0.953957
0.971091
0.976156
0.96118
0.9868
0.865847
0.594164
0.820915
0.974509
1.00087
1.01466
0.976026
0.1036
0.183598
0.127849
0.451284
0.1
0.1
0.100001
0.100001
0.100001
0.100002
0.100007
0.100037
0.100195
0.100968
0.104342
0.115115
0.135391
0.167318
0.211621
0.260925
0.286555
0.291517
0.266149
0.210904
0.151471
0.11721
0.103515
0.100453
0.100043
0.100009
0.100007
0.100007
0.100009
0.100007
0.100011
0.100017
0.100013
0.10003
0.100022
0.100064
0.100042
0.10013
0.100089
0.100262
0.100164
0.100648
0.100409
0.101661
0.101033
0.104521
0.10278
0.124208
0.120271
0.11457
0.110326
0.107476
0.147905
0.137735
0.132105
0.211089
0.193858
0.178488
0.164735
0.299073
0.274165
0.230277
0.251275
0.420698
0.38679
0.343129
0.369824
0.576382
0.535153
0.496432
0.460724
0.750578
0.710679
0.667793
0.625022
0.866928
0.841752
0.807753
0.975567
0.989587
0.926043
0.986355
0.992705
0.988514
0.996642
1.01205
1.012
1.01607
0.968782
0.741596
0.939856
1.03106
1.03502
1.05749
1.04916
0.242913
0.313374
0.378994
0.639098
0.1
0.1
0.100001
0.100001
0.100002
0.100012
0.10007
0.100432
0.102145
0.108608
0.122311
0.143404
0.174955
0.218026
0.262885
0.284053
0.285912
0.256051
0.201187
0.145834
0.114672
0.102814
0.100349
0.100035
0.100008
0.100006
0.100006
0.100008
0.100007
0.100007
0.100009
0.100014
0.100011
0.100025
0.100018
0.100052
0.100036
0.100121
0.100081
0.100247
0.10015
0.100631
0.100388
0.101704
0.101024
0.106319
0.104454
0.103051
0.127825
0.124128
0.117094
0.111954
0.108503
0.152436
0.14151
0.137135
0.225183
0.206099
0.189002
0.173689
0.317427
0.292594
0.246274
0.268824
0.427974
0.397884
0.387045
0.413161
0.584795
0.548532
0.516643
0.488461
0.768036
0.726783
0.687781
0.653278
0.902845
0.871544
0.836903
1.03756
1.0472
0.968871
1.04134
1.04746
1.04081
1.0367
1.07832
1.07819
1.05969
1.05588
0.888101
1.04883
1.08794
1.0862
1.12081
1.11843
0.245755
0.609475
0.620369
0.84249
0.1
0.1
0.100001
0.100002
0.100016
0.100131
0.1008
0.104257
0.114133
0.130051
0.151724
0.182668
0.224184
0.264017
0.281364
0.279892
0.246815
0.193371
0.141586
0.112782
0.102308
0.100277
0.100029
0.100007
0.100006
0.100006
0.100006
0.100008
0.100007
0.100006
0.100009
0.100012
0.10001
0.100022
0.100016
0.100045
0.100031
0.100106
0.100069
0.100237
0.100139
0.100629
0.100379
0.101824
0.10108
0.10703
0.105178
0.104446
0.103047
0.133215
0.12911
0.120607
0.11421
0.109839
0.160069
0.147817
0.144186
0.248543
0.225037
0.204376
0.18621
0.359592
0.331106
0.274798
0.302597
0.462732
0.438077
0.464094
0.495059
0.624375
0.600658
0.580734
0.56236
0.803385
0.774192
0.750999
0.734034
0.945692
0.923271
0.905424
1.10562
1.12035
1.03219
1.14701
1.13479
1.14547
1.11521
1.2106
1.20219
1.15542
1.14041
1.02944
1.14723
1.16921
1.19883
1.24806
1.20051
0.211731
0.806626
0.619929
0.991191
0.1
0.1
0.100002
0.100022
0.100187
0.101461
0.106947
0.12042
0.138126
0.160145
0.190424
0.230094
0.264551
0.278441
0.2735
0.238203
0.186787
0.138093
0.111277
0.101928
0.100224
0.100024
0.100007
0.100005
0.100006
0.100006
0.100006
0.100006
0.100006
0.100007
0.100007
0.100008
0.100011
0.100009
0.100019
0.100014
0.10004
0.100027
0.100093
0.100062
0.100231
0.100133
0.100664
0.100377
0.102031
0.101154
0.108252
0.106002
0.104953
0.103559
0.139973
0.13533
0.125179
0.11731
0.1118
0.170529
0.156415
0.152808
0.280178
0.249645
0.223767
0.201534
0.429029
0.391067
0.315218
0.352689
0.543227
0.521337
0.569384
0.611927
0.722613
0.713932
0.704873
0.691827
0.893016
0.885744
0.883487
0.883979
1.03037
1.03257
1.04176
1.24019
1.25488
1.15939
1.29135
1.28261
1.27184
1.2654
1.30399
1.29054
1.28822
1.21461
1.1347
1.2158
1.25846
1.30061
1.28656
1.26434
0.146782
0.895531
0.5699
1.08303
0.1
0.100002
0.100026
0.100279
0.10204
0.110212
0.126789
0.14637
0.168633
0.198009
0.2354
0.264259
0.275164
0.266667
0.229927
0.180824
0.134988
0.11004
0.101601
0.100183
0.10002
0.100006
0.100005
0.100005
0.100006
0.100006
0.100006
0.100006
0.100006
0.100007
0.100007
0.100008
0.10001
0.100009
0.100017
0.100013
0.100035
0.100024
0.100087
0.100054
0.100227
0.100128
0.100688
0.100389
0.102976
0.102021
0.101318
0.109813
0.106943
0.105779
0.104094
0.148218
0.143272
0.131176
0.121461
0.114432
0.183258
0.166766
0.162997
0.31775
0.278118
0.246093
0.218829
0.520921
0.467739
0.364345
0.4152
0.67309
0.646864
0.694963
0.753988
0.887223
0.887622
0.881806
0.865018
1.0496
1.05872
1.06814
1.07705
1.17686
1.18452
1.19245
1.31448
1.35778
1.3074
1.38916
1.38934
1.32103
1.31348
1.36776
1.37685
1.3226
1.2663
1.20243
1.26512
1.28873
1.36136
1.35604
1.28995
0.128949
0.965374
0.5732
1.15518
0.100002
0.100027
0.100319
0.102773
0.112998
0.133204
0.154368
0.177101
0.205855
0.240827
0.263554
0.271458
0.259282
0.221751
0.175021
0.131864
0.108895
0.10141
0.10015
0.100017
0.100006
0.100005
0.100005
0.100005
0.100006
0.100006
0.100006
0.100006
0.100006
0.100007
0.100006
0.100007
0.10001
0.100008
0.100015
0.100012
0.100032
0.100022
0.10008
0.100049
0.100219
0.100121
0.100779
0.100409
0.10322
0.102329
0.101891
0.101228
0.111869
0.108221
0.106725
0.104643
0.158495
0.153382
0.138901
0.126859
0.117889
0.197969
0.178723
0.175086
0.361183
0.310123
0.271815
0.238135
0.630583
0.557896
0.420988
0.488526
0.838863
0.802452
0.847238
0.925188
1.08297
1.08559
1.08308
1.06057
1.19858
1.20376
1.20877
1.2136
1.32269
1.34852
1.35731
1.41419
1.43529
1.39779
1.86811
1.88247
1.42225
1.38086
1.41697
1.42555
1.40394
1.29069
1.24377
1.28723
1.35173
1.41672
1.41677
1.35059
0.390012
1.04365
0.845214
1.2237
0.100025
0.100339
0.103118
0.115723
0.13869
0.162068
0.185239
0.213444
0.244545
0.262187
0.267098
0.251356
0.213533
0.16915
0.128721
0.107773
0.101168
0.100124
0.100015
0.100005
0.100005
0.100005
0.100005
0.100005
0.100006
0.100006
0.100006
0.100006
0.100006
0.100007
0.100006
0.100007
0.100009
0.100008
0.100014
0.100011
0.100029
0.100019
0.100073
0.100045
0.100214
0.100118
0.101025
0.101332
0.100641
0.100427
0.103664
0.102603
0.101966
0.114407
0.109733
0.107911
0.105389
0.171308
0.165558
0.148309
0.133526
0.122212
0.21508
0.192617
0.189391
0.41787
0.349486
0.304577
0.260855
0.768284
0.672126
0.492547
0.583006
1.0243
0.98048
1.0489
1.10963
1.21744
1.21888
1.21554
1.20703
1.36046
1.36252
1.34569
1.33917
1.39356
1.8925
1.87995
1.87238
1.87235
1.86176
2.21862
2.21289
1.84381
1.42147
1.82802
1.83359
1.79143
1.36543
1.2929
1.3227
1.41921
1.78122
1.77043
1.40859
0.17976
1.12572
0.967313
1.25366
0.100304
0.103259
0.117213
0.143638
0.1688
0.192836
0.220357
0.246948
0.260321
0.262275
0.24291
0.205247
0.163123
0.125551
0.106621
0.100979
0.100101
0.100012
0.100005
0.100004
0.100005
0.100005
0.100005
0.100005
0.100006
0.100006
0.100006
0.100006
0.100006
0.100006
0.100006
0.100007
0.100006
0.100007
0.100008
0.100007
0.100012
0.10001
0.100025
0.100017
0.100068
0.10004
0.100221
0.100113
0.101485
0.101046
0.100709
0.100432
0.10412
0.102856
0.102212
0.117515
0.11156
0.109341
0.106251
0.186427
0.179666