/*--------------------------------*- C++ -*----------------------------------*\
  =========                 |
  \\      /  F ield         | OpenFOAM: The Open Source CFD Toolbox
   \\    /   O peration     | Website:  https://openfoam.org
    \\  /    A nd           | Version:  dev
     \\/     M anipulation  |
\*---------------------------------------------------------------------------*/
FoamFile
{
    version     2.0;
    format      ascii;
    class       volScalarField;
    location    "2500";
    object      alphat;
}
// * * * * * * * * * * * * * * * * * * * * * * * * * * * * * * * * * * * * * //

dimensions      [1 -1 -1 0 0 0 0];

internalField   nonuniform List<scalar> 
9456
(
0.000146392
0.000151051
0.000143665
0.000140913
0.000176539
0.000130418
0.000130299
0.000186674
0.000167451
0.00012377
0.000126031
0.000182353
0.000188936
0.000146154
0.000121669
0.00012259
0.000168751
0.000203316
0.000175527
0.000133582
0.000120418
0.000121088
0.000151201
0.00020451
0.000197961
0.000152038
0.000127843
0.000119502
0.000120569
0.000141295
0.000199869
0.000210065
0.000177333
0.000137751
0.000124685
0.0001189
0.000120264
0.000133689
0.000185802
0.000219288
0.000200166
0.000153871
0.000130558
0.000122741
0.000118467
0.000119705
0.000128583
0.000166481
0.00021916
0.000215881
0.000174642
0.000139429
0.000126832
0.000121291
0.000118152
0.000118729
0.000125211
0.000152413
0.000213684
0.000224561
0.000198281
0.000152724
0.000131892
0.000124245
0.000120238
0.000117927
0.000117815
0.00012346
0.000142415
0.000199217
0.000231762
0.000216169
0.000170836
0.000139191
0.00012791
0.000122438
0.000119451
0.000117739
0.000117134
0.000122583
0.000135355
0.000180704
0.000231457
0.000228856
0.000191598
0.000150487
0.000131995
0.000125017
0.000121191
0.000118906
0.000117605
0.000116658
0.000122031
0.000131077
0.000162236
0.000226538
0.000234938
0.000212735
0.000165556
0.0001381
0.000128036
0.000123039
0.000120099
0.000118463
0.000117498
0.000116525
0.000121632
0.000128241
0.000152456
0.000214932
0.000241387
0.00022736
0.000183668
0.000147333
0.000131627
0.000125152
0.000121523
0.000119371
0.000118113
0.000117411
0.000116624
0.000120811
0.000126244
0.000144673
0.000197056
0.000242431
0.000237926
0.000203498
0.000159694
0.000136572
0.000127674
0.00012322
0.000120387
0.000118791
0.000117847
0.000117343
0.000116734
0.000119704
0.000124868
0.000138682
0.000179936
0.000239198
0.000243698
0.000221357
0.000175336
0.000143902
0.000130865
0.00012499
0.000121532
0.000119512
0.000118323
0.000117637
0.000117289
0.000116808
0.000118761
0.000123905
0.000134654
0.000164693
0.000230702
0.000249102
0.000235701
0.000192352
0.000153945
0.000134879
0.000127123
0.000123087
0.000120388
0.00011884
0.000117961
0.000117469
0.000117245
0.000116838
0.000118013
0.000123148
0.000131827
0.00015654
0.000217263
0.000252062
0.000244749
0.000209953
0.00016663
0.000140608
0.000129925
0.000124642
0.000121371
0.000119462
0.000118321
0.000117671
0.000117338
0.000117212
0.000116833
0.000117469
0.000122558
0.000129736
0.000149806
0.000200452
0.000250972
0.000251511
0.000226131
0.000181274
0.00014861
0.000133182
0.000126513
0.000122723
0.000120211
0.000118756
0.00011791
0.000117446
0.000117232
0.000117184
0.00011681
0.000117128
0.000122143
0.000128183
0.000144576
0.000185689
0.000246104
0.000254037
0.000240655
0.000197129
0.00015862
0.0001376
0.000128806
0.0001242
0.000121123
0.000119308
0.000118208
0.000117582
0.000117265
0.000117145
0.000117161
0.000116787
0.000116977
0.000121854
0.000127086
0.000140687
0.000173242
0.000236083
0.000258447
0.000249387
0.000212354
0.000170902
0.000143869
0.00013157
0.00012578
0.000122277
0.000119984
0.000118595
0.000117774
0.000117328
0.00011712
0.000117076
0.000117143
0.00011675
0.000116903
0.000121521
0.000126343
0.000137972
0.000164202
0.000223779
0.000258783
0.0002554
0.000227841
0.000184294
0.000151847
0.000135188
0.000127727
0.000123631
0.000120841
0.000119111
0.000118048
0.000117434
0.000117121
0.000117
0.000117021
0.000117128
0.000116722
0.000116881
0.000121289
0.000126064
0.000136027
0.00015864
0.000210077
0.000257494
0.000259291
0.000240252
0.000198533
0.000161547
0.000139952
0.000130245
0.000125043
0.000121788
0.000119722
0.000118414
0.000117609
0.000117162
0.000116949
0.000116905
0.000116977
0.000117119
0.00011669
0.000116905
0.000121191
0.000125992
0.000134736
0.000154051
0.000196847
0.000253013
0.000261741
0.000250769
0.000212563
0.000172755
0.000146147
0.000133041
0.00012681
0.000123019
0.000120489
0.000118886
0.000117866
0.000117257
0.000116935
0.000116814
0.000116833
0.000116945
0.000117108
0.000116652
0.000117029
0.000121226
0.000126084
0.000133969
0.000150448
0.000186024
0.000244076
0.000264763
0.000257729
0.000224642
0.000185123
0.000153769
0.000136676
0.000128732
0.000124339
0.000121287
0.000119442
0.000118221
0.000117433
0.00011698
0.000116757
0.000116711
0.000116778
0.000116916
0.000117101
0.000116615
0.000117253
0.000121424
0.000126288
0.00013365
0.000148138
0.000177266
0.000233612
0.000265278
0.000262309
0.00023696
0.000197275
0.000162699
0.000141576
0.000131233
0.00012573
0.000122431
0.000120145
0.000118678
0.000117701
0.00011709
0.000116759
0.000116628
0.000116629
0.000116734
0.000116899
0.000117095
0.000116599
0.00011758
0.000121735
0.000126578
0.00013364
0.00014634
0.000170528
0.000222433
0.000264577
0.000265533
0.000247268
0.000209322
0.000172822
0.000147265
0.000134114
0.000127534
0.000123618
0.000120907
0.000119215
0.00011806
0.000117285
0.000116824
0.00011659
0.000116521
0.000116571
0.000116706
0.000116889
0.000117093
0.000116611
0.000118009
0.000122155
0.000126983
0.000133719
0.000144829
0.000165886
0.000211249
0.0002613
0.000267222
0.000256366
0.000220764
0.000183423
0.000154345
0.000137616
0.000129586
0.000124909
0.000121932
0.000119878
0.00011851
0.000117557
0.000116955
0.000116617
0.000116455
0.00011645
0.000116538
0.000116693
0.000116887
0.000117094
0.000116668
0.000118534
0.000122658
0.000127425
0.00013395
0.00014362
0.000161907
0.000200603
0.000254503
0.000270205
0.000262844
0.000230865
0.000194199
0.00016231
0.000142237
0.000131955
0.000126463
0.00012304
0.000120604
0.000119015
0.000117906
0.00011716
0.000116702
0.000116456
0.000116365
0.000116412
0.000116526
0.000116693
0.000116896
0.000117099
0.000116777
0.000119156
0.000123217
0.000127924
0.000134339
0.000142682
0.000158663
0.000191728
0.000245868
0.000271458
0.00026712
0.000241238
0.000204615
0.000171017
0.00014754
0.000134775
0.000128238
0.000124232
0.000121516
0.000119636
0.000118326
0.000117434
0.000116858
0.000116514
0.000116348
0.000116328
0.0001164
0.00011654
0.000116712
0.000116919
0.000117113
0.000116945
0.000119831
0.000123842
0.00012845
0.00013472
0.000141871
0.000156044
0.000184555
0.000236291
0.000271559
0.000270573
0.000250559
0.000214642
0.000180467
0.000153657
0.000138221
0.000130281
0.000125599
0.000122568
0.00012031
0.000118814
0.000117786
0.000117086
0.000116637
0.000116388
0.000116304
0.000116327
0.000116424
0.000116586
0.000116758
0.000116968
0.000117137
0.000117192
0.000120559
0.000124528
0.000128996
0.000135012
0.000141361
0.000154105
0.000178956
0.000226604
0.000270138
0.000272871
0.000258969
0.0002243
0.00018977
0.00016092
0.000142319
0.000132606
0.000127206
0.000123651
0.000121161
0.000119421
0.000118213
0.000117391
0.000116831
0.000116496
0.000116334
0.000116305
0.000116372
0.000116491
0.00011668
0.00011685
0.000117053
0.000117179
0.000117533
0.00012134
0.000125259
0.000129569
0.000135247
0.00014109
0.000152659
0.000174475
0.000217177
0.000265769
0.000275195
0.000266343
0.000233655
0.000199054
0.00016854
0.000147278
0.000135257
0.000128921
0.00012489
0.000122144
0.000120087
0.000118713
0.000117763
0.000117094
0.000116665
0.000116429
0.000116339
0.000116363
0.000116488
0.000116626
0.000116838
0.000117013
0.000117194
0.000117228
0.000117286
0.000117941
0.000122137
0.000126009
0.000130181
0.000135498
0.000141002
0.00015155
0.000170644
0.000208309
0.00025926
0.000278229
0.000271026
0.00024233
0.000208397
0.000176641
0.000152658
0.000138619
0.000130859
0.000126279
0.000123158
0.000120917
0.000119317
0.000118204
0.000117426
0.000116891
0.000116581
0.000116433
0.000116421
0.000116499
0.000116694
0.000116861
0.00011709
0.00011717
0.000117245
0.000117331
0.000117316
0.000117431
0.000117259
0.000117353
0.000118431
0.000122907
0.00012675
0.000130834
0.000135712
0.000141055
0.000150675
0.000167569
0.00020054
0.000251502
0.000279319
0.000275486
0.000251602
0.000217176
0.00018531
0.000158753
0.000142197
0.000133212
0.000127843
0.000124301
0.000121844
0.000120007
0.000118708
0.000117823
0.000117191
0.000116778
0.000116583
0.000116528
0.000116609
0.000116741
0.00011702
0.000117232
0.000117301
0.000117444
0.000117408
0.000117462
0.000117545
0.000117599
0.000117285
0.000117449
0.000119043
0.000123657
0.000127478
0.000131438
0.000136052
0.000141224
0.000149935
0.000165126
0.00019393
0.000243084
0.000279172
0.000279153
0.000260269
0.000225847
0.000193677
0.000165738
0.000146323
0.000135578
0.000129557
0.000125597
0.00012281
0.000120805
0.000119324
0.000118271
0.000117556
0.000117049
0.000116773
0.000116702
0.000116737
0.000116942
0.000117146
0.000117518
0.000117552
0.000117772
0.000117542
0.000117707
0.000117686
0.000117632
0.000117777
0.000117841
0.000117325
0.000117577
0.00011973
0.000124377
0.000128168
0.000132032
0.000136503
0.00014141
0.000149307
0.000163121
0.000188394
0.000234439
0.000277696
0.000281323
0.000268918
0.000234934
0.000201953
0.000172908
0.000151254
0.000138392
0.000131387
0.000126987
0.000123902
0.000121684
0.000119982
0.000118778
0.000117962
0.000117386
0.000117053
0.000116895
0.000116967
0.000117099
0.000117465
0.000117774
0.000117931
0.000118215
0.000117913
0.000118151
0.000117871
0.000118101
0.00011799
0.000117862
0.000118103
0.000118167
0.000117379
0.000117745
0.00012039
0.000125065
0.000128848
0.00013264
0.000136897
0.000141552
0.00014877
0.000161436
0.000183693
0.000225811
0.000273708
0.000284912
0.000275424
0.000243568
0.00021063
0.000180471
0.000156563
0.000141731
0.000133487
0.000128485
0.000125063
0.000122599
0.00012074
0.000119394
0.000118427
0.000117784
0.000117384
0.000117222
0.000117182
0.000117396
0.000117694
0.000118298
0.00011842
0.000118751
0.000118428
0.000118729
0.000118375
0.000118698
0.000118261
0.000118581
0.000118405
0.000118166
0.000118547
0.000118591
0.000117446
0.000117969
0.000120879
0.000125633
0.000129467
0.000133223
0.000137309
0.00014178
0.000148317
0.000160003
0.000179668
0.000217475
0.000267676
0.00028904
0.000280849
0.00025252
0.00021886
0.000188576
0.000162627
0.000145333
0.00013572
0.000130087
0.000126336
0.000123594
0.000121588
0.00012003
0.000118971
0.000118253
0.000117792
0.000117553
0.000117557
0.000117708
0.000118089
0.000118594
0.000119004
0.000119378
0.000119075
0.000119431
0.000119056
0.000119459
0.000118957
0.000119392
0.000118789
0.000119216
0.000118964
0.000118551
0.00011914
0.000119131
0.00011754
0.000115282
0.000121195
0.000126018
0.00012994
0.000133732
0.000137715
0.000142015
0.000148074
0.000158772
0.000176261
0.000209809
0.000260443
0.000290648
0.000286719
0.000262185
0.000227022
0.000196395
0.000169419
0.000149634
0.00013818
0.00013186
0.000127665
0.000124693
0.000122462
0.00012081
0.000119613
0.000118792
0.00011829
0.000117972
0.000117914
0.000118086
0.00011852
0.000119283
0.000119666
0.000120069
0.000119834
0.000120239
0.000119896
0.000120372
0.000119865
0.000120399
0.000119739
0.00012029
0.000119504
0.00012007
0.000119712
0.000113172
0.00011977
0.000109963
9.88775e-05
9.71976e-05
0.000121356
0.000126237
0.000130252
0.000134102
0.000138028
0.000142229
0.000147978
0.000157775
0.000173479
0.000203061
0.00025232
0.000289971
0.000290704
0.000271987
0.000236134
0.000204131
0.000176317
0.000154624
0.000141142
0.000133756
0.000129082
0.000125847
0.000123426
0.000121622
0.000120283
0.00011942
0.000118852
0.000118535
0.000118367
0.00011857
0.000119018
0.000119724
0.000120402
0.00012082
0.000120673
0.000121142
0.000120862
0.000121394
0.000120929
0.000121531
0.000120861
0.000121516
0.000120646
0.000121331
0.000120307
0.000120982
0.000120417
9.54478e-05
0.000106722
9.3373e-05
8.35721e-05
8.27556e-05
0.000121357
0.000126298
0.000130378
0.000134297
0.000138218
0.000142389
0.000147805
0.000156954
0.000171212
0.000197192
0.000243643
0.000288629
0.000294197
0.000280949
0.000245491
0.00021249
0.000183529
0.000159983
0.000144545
0.00013578
0.000130625
0.000127049
0.000124476
0.000122459
0.00012107
0.000120061
0.000119468
0.000119142
0.000119035
0.000119304
0.000119911
0.000120933
0.000121248
0.000121632
0.000121559
0.000122054
0.000121901
0.000122452
0.000122126
0.00012275
0.000122184
0.000122873
0.00012205
0.000122773
0.00012168
0.00012243
0.000117232
0.000114517
0.000103761
8.14845e-05
9.12369e-05
8.02304e-05
7.15576e-05
7.1259e-05
0.000121163
0.000126185
0.000130295
0.000134255
0.000138252
0.000142481
0.000147749
0.000156314
0.000169337
0.000192129
0.000234725
0.000285184
0.000299786
0.000288379
0.000254663
0.000220717
0.000191301
0.00016598
0.000148349
0.000138083
0.00013231
0.000128357
0.00012557
0.000123421
0.000121855
0.000120806
0.000120075
0.000119769
0.000119785
0.000119673
0.000119881
0.000120506
0.000121871
0.000122149
0.000122298
0.000122385
0.000122854
0.000123069
0.000123292
0.000123645
0.000123526
0.000124026
0.000123491
0.000124098
0.000122378
0.000121983
0.000112163
0.000110517
0.000101339
9.97863e-05
8.91078e-05
7.04264e-05
7.86862e-05
6.9666e-05
6.18003e-05
6.18284e-05
0.000120747
0.000125843
0.000129926
0.00013399
0.000138086
0.000142475
0.000147715
0.000155844
0.000167786
0.000187887
0.000226199
0.000278179
0.000304284
0.000295925
0.000265539
0.000228946
0.00019889
0.00017261
0.000152744
0.000140739
0.00013407
0.000129746
0.00012673
0.000124458
0.000122729
0.000121544
0.000120794
0.000120415
0.000120163
0.000119796
0.000118325
0.000115218
0.000111315
0.000121946
0.000118245
0.000123006
0.000121861
0.000123785
0.000120372
0.000124303
0.000119982
0.00012454
0.000122889
0.000119179
0.000120038
0.000109631
0.000110574
9.84428e-05
9.79163e-05
8.74974e-05
8.69225e-05
7.71722e-05
6.10613e-05
6.82781e-05
6.08141e-05
5.38681e-05
5.39538e-05
0.000120187
0.000125312
0.000129244
0.000133364
0.000137738
0.000142298
0.000147684
0.000155401
0.000166405
0.000184337
0.000218364
0.000270146
0.00030516
0.0003024
0.000277082
0.000238501
0.000206549
0.000179351
0.00015769
0.000143791
0.000135912
0.000131243
0.000127889
0.000125552
0.000123679
0.000122395
0.000121486
0.00012101
0.000120372
0.000118331
0.000112499
0.000104045
9.71292e-05
9.3113e-05
8.49456e-05
0.000117862
0.000108025
0.000120581
0.000112799
0.000113081
0.000110855
0.000115513
0.000111143
0.000115254
0.000115076
0.000108629
0.000111634
9.83988e-05
0.000100463
8.59605e-05
8.66036e-05
7.59587e-05
7.5499e-05
6.71647e-05
5.30679e-05
5.92137e-05
5.35923e-05
4.75481e-05
4.7227e-05
0.000120131
0.000124995
0.000128876
0.000132556
0.000136976
0.000141929
0.000147605
0.000154971
0.000165246
0.000181361
0.000211316
0.000261514
0.000303606
0.000306602
0.000288025
0.000248867
0.000214916
0.000186473
0.000163007
0.000147204
0.000138006
0.000132816
0.000129207
0.000126597
0.000124717
0.000123221
0.000122291
0.000121309
0.000119529
0.000114304
0.00011333
0.000134815
0.000146616
9.82205e-05
0.00014999
8.894e-05
0.000114382
9.87817e-05
8.58592e-05
0.000104867
9.04122e-05
0.000104982
9.57283e-05
0.000104447
0.00010006
0.000105809
9.96432e-05
9.91794e-05
9.83032e-05
8.72866e-05
8.90836e-05
7.48799e-05
7.57519e-05
6.60024e-05
6.56474e-05
5.81277e-05
4.6924e-05
5.08021e-05
4.67525e-05
4.24639e-05
4.19855e-05
0.000120501
0.000125525
0.000128803
0.00013202
0.00013584
0.000141422
0.000147492
0.000154622
0.000164495
0.000178843
0.000205088
0.000252196
0.000301622
0.000312077
0.00029796
0.000259244
0.000223556
0.000194153
0.000168986
0.000151042
0.000140391
0.000134393
0.000130572
0.000127818
0.00012576
0.000124124
0.000122721
0.000121141
0.000116873
0.000115708
0.000144574
0.000200178
0.000303309
0.000225268
0.000358109
0.000186107
0.000303848
0.000150355
0.000259668
8.84349e-05
0.000104086
8.77004e-05
9.77596e-05
8.90126e-05
9.32952e-05
9.15103e-05
9.02453e-05
9.61141e-05
8.85493e-05
8.55352e-05
8.98633e-05
7.43314e-05
7.77426e-05
6.57544e-05
6.6279e-05
5.75916e-05
5.81539e-05
5.08371e-05
4.21318e-05
4.37494e-05
4.01047e-05
3.85741e-05
3.83762e-05
0.000121805
0.0001266
0.000129661
0.00013211
0.000135683
0.000141072
0.000147458
0.000154416
0.000163887
0.00017681
0.000199773
0.000242691
0.000297392
0.000318401
0.000306854
0.000270921
0.000232375
0.000201877
0.000175582
0.000155469
0.000143144
0.000136105
0.000131932
0.000129047
0.000126965
0.000125131
0.000123071
0.000119727
0.00011538
0.000135339
0.00020028
0.000349662
0.000489585
0.000546809
0.000418507
0.000505201
0.00037322
0.000458641
0.000330173
0.000421729
0.000130829
0.000220709
0.000114388
0.000182719
0.000103615
0.000142481
9.65254e-05
0.000124964
9.22491e-05
0.000109436
8.85293e-05
9.85163e-05
7.34837e-05
9.19949e-05
6.00574e-05
7.58744e-05
5.11555e-05
5.38158e-05
4.64289e-05
3.76817e-05
4.02212e-05
3.60718e-05
3.64094e-05
3.56801e-05
0.000124792
0.000131326
0.000134397
0.000134637
0.000136715
0.000141294
0.000147612
0.000154389
0.000163183
0.00017554
0.00019541
0.000233675
0.000288965
0.000321815
0.00031513
0.000284121
0.000242588
0.000209772
0.000182501
0.000160457
0.000146241
0.000138025
0.000133389
0.000130294
0.000128131
0.000126068
0.000123064
0.000116661
0.000120252
0.000180989
0.000320488
0.00051524
0.000594514
0.000573766
0.000547354
0.000559035
0.000508575
0.000537297
0.000470968
0.000508288
0.000438333
0.000476281
0.000290968
0.000386767
0.000246931
0.000349098
0.000202199
0.000306481
0.000162821
0.000262468
0.000128412
0.000215308
0.000108941
0.000162499
9.61323e-05
0.000122356
7.6844e-05
0.000100531
4.63051e-05
7.1999e-05
4.0114e-05
3.46652e-05
3.42025e-05
3.09299e-05
3.52403e-05
3.38496e-05
0.000139271
0.000146863
0.000145714
0.000142122
0.000143329
0.000148285
0.000154782
0.000162753
0.000174937
0.00019203
0.000225499
0.000279523
0.000321098
0.000321192
0.000296789
0.000254064
0.000218521
0.000189826
0.00016603
0.000149693
0.000140208
0.000134861
0.000131613
0.000129284
0.000127037
0.000122019
0.000115732
0.0001415
0.000236723
0.00045315
0.000609236
0.000633001
0.000593506
0.000549662
0.000524272
0.000525007
0.000517308
0.000524858
0.000486355
0.000494186
0.000457286
0.000466096
0.000407427
0.000444732
0.000374666
0.000411971
0.00033457
0.000380897
0.000298725
0.000349811
0.000258149
0.000318559
0.000201247
0.000284209
0.000139962
0.000231004
0.000101414
0.000156933
5.96382e-05
9.89433e-05
4.14719e-05
3.26518e-05
3.31298e-05
3.0054e-05
3.13047e-05
3.67094e-05
3.53701e-05
3.44015e-05
0.000153044
0.000162824
0.000158303
0.000150129
0.000150893
0.000155964
0.0001631
0.0001741
0.000189679
0.000218488
0.000269949
0.000318592
0.000326591
0.000308726
0.000265761
0.000227875
0.00019772
0.000172235
0.000153717
0.000142713
0.000136408
0.0001328
0.00013045
0.000127805
0.000120212
0.000120829
0.000189487
0.000352205
0.000574313
0.000662439
0.000642989
0.000602167
0.000578098
0.000550677
0.000595715
0.000512513
0.000527152
0.000497298
0.000500927
0.000473367
0.000477585
0.000449774
0.000457531
0.00043057
0.000440324
0.000403147
0.000417847
0.000377844
0.000394779
0.000354207
0.000373228
0.000330735
0.000353634
0.000295109
0.000333889
0.000248063
0.000303961
0.000164971
0.000255222
8.90932e-05
0.000167003
0.000122135
5.4679e-05
6.53173e-05
3.26794e-05
3.26408e-05
3.15557e-05
3.24033e-05
5.71323e-05
6.34601e-05
3.05708e-05
3.91794e-05
3.90431e-05
3.82308e-05
3.52032e-05
0.000167565
0.000179763
0.000169735
0.000158411
0.000159174
0.000164414
0.000173627
0.000188687
0.000212765
0.000259949
0.000315646
0.000333472
0.000319518
0.000278312
0.000237528
0.000205967
0.000179029
0.000158353
0.000145548
0.000138227
0.000134045
0.000131317
0.000127676
0.000119537
0.000142537
0.000252872
0.00047741
0.000654187
0.000684179
0.000652282
0.000614345
0.000624752
0.000640355
0.000691393
0.000641468
0.000680087
0.000534935
0.000586187
0.000491325
0.000507268
0.000472272
0.000489872
0.000456612
0.00047716
0.000427319
0.000439116
0.000407658
0.000426057
0.000391057
0.000413653
0.000373664
0.000399216
0.000355399
0.0003849
0.00033689
0.000371099
0.000279921
0.000309494
0.00032626
0.000348649
0.000212485
0.000260527
0.000308938
0.000318029
0.000287187
0.000151103
9.417e-05
0.000155131
0.000212346
8.1431e-05
2.92201e-05
3.36483e-05
3.23616e-05
4.60729e-05
6.04617e-05
6.91784e-05
3.73435e-05
4.29385e-05
4.49441e-05
3.72086e-05
3.45302e-05
0.000184719
0.000197233
0.000178911
0.0001669
0.000167612
0.000174452
0.000188088
0.000208386
0.00025025
0.000310015
0.000339347
0.000329153
0.000292592
0.000248384
0.000214433
0.000186499
0.000163548
0.0001488
0.000140123
0.000135555
0.000132378
0.000126761
0.000124308
0.00018606
0.000348196
0.000593651
0.000707836
0.000699611
0.000657242
0.000633801
0.000664536
0.000727101
0.000706862
0.000726142
0.000685791
0.000709389
0.00062638
0.000662006
0.000523009
0.000573992
0.00051403
0.000560481
0.000509737
0.000543581
0.000446188
0.000474786
0.000441776
0.000470413
0.000430372
0.000464903
0.000418521
0.000455668
0.000403993
0.000443663
0.000365532
0.000386492
0.000405533
0.000427486
0.000332117
0.000353822
0.000375074
0.000257844
0.000292035
0.00034086
0.000346194
0.00032057
0.000212776
0.000143613
0.000204522
0.000257724
0.000126122
3.1208e-05
3.37861e-05
3.09323e-05
5.53021e-05
0.000105487
8.27308e-05
5.32343e-05
5.35595e-05
4.02278e-05
5.13008e-05
3.72223e-05
0.000204549
0.000214219
0.000185151
0.000174677
0.000177041
0.000187602
0.000205914
0.000241742
0.000300456
0.000341446
0.000337336
0.000306914
0.000260719
0.000223723
0.000194358
0.000169759
0.000152345
0.000142672
0.000136739
0.000132955
0.000124833
0.000132622
0.000234511
0.000456472
0.00068487
0.000746686
0.000709643
0.000664759
0.000660754
0.000707101
0.000746151
0.000661878
0.000628522
0.000713433
0.000699316
0.000678014
0.000652591
0.000662985
0.000681227
0.000602982
0.000632439
0.000575256
0.000598861
0.000542572
0.000570753
0.000501835
0.000524884
0.000487637
0.000504897
0.000478147
0.000490036
0.000473153
0.00047917
0.000446458
0.000463429
0.000472964
0.000476868
0.000396523
0.000418188
0.000438868
0.000456466
0.00036237
0.000385334
0.000408057
0.00029391
0.000324586
0.000370717
0.000378411
0.000351972
0.000253734
0.00019156
0.000246183
0.000293776
0.000175308
4.51449e-05
3.41919e-05
3.52648e-05
6.67198e-05
0.000153073
0.000125893
5.56685e-05
7.2465e-05
4.41479e-05
6.24828e-05
4.03201e-05
0.000227169
0.000228157
0.000188844
0.000182889
0.000189017
0.000205387
0.00023471
0.000289936
0.000339799
0.000344304
0.000320713
0.000273619
0.000233707
0.000202891
0.000176434
0.000157157
0.000145117
0.000138635
0.000133235
0.000121811
0.000147292
0.000287805
0.000563391
0.000753845
0.000764473
0.000709612
0.000675372
0.000694146
0.000747975
0.000756645
0.000432799
0.000441804
0.000318256
0.00059625
0.000519374
0.000521777
0.000428747
0.000633221
0.000596573
0.000631883
0.000641848
0.000591536
0.000593059
0.000545256
0.000533887
0.000525858
0.000539594
0.000503564
0.000512188
0.000490715
0.000468255
0.000479911
0.000423732
0.000450099
0.00046825
0.000472704
0.000475576
0.00047728
0.000428863
0.000448015
0.000460872
0.000466529
0.000394805
0.000417472
0.000437966
0.000327606
0.000357483
0.000402985
0.000409275
0.000385021
0.000291256
0.000235426
0.000286303
0.000329031
0.000218934
5.11386e-05
3.60271e-05
5.0024e-05
9.54716e-05
0.000197366
0.000169832
7.17478e-05
0.000117056
5.09046e-05
8.33057e-05
4.22694e-05
0.000251554
0.000229471
0.000193395
0.000193298
0.000205321
0.000229284
0.000279801
0.000336491
0.000352386
0.000334157
0.00028724
0.00024435
0.000211711
0.000184331
0.000162044
0.000148893
0.000140367
0.000133227
0.000118244
0.000163265
0.000351219
0.000657292
0.000799306
0.000781616
0.00071682
0.000693973
0.000736629
0.000792229
0.000748112
0.000337332
0.00017134
0.00015729
0.000204509
0.000163976
0.00032354
0.000249336
0.000252284
0.000200134
0.000445817
0.000337061
0.000575699
0.000527334
0.000499804
0.00043891
0.000408912
0.000333427
0.000504398
0.000467009
0.000445328
0.000410851
0.000421672
0.00038234
0.000474546
0.000464491
0.000374739
0.000409333
0.000468133
0.000469086
0.000466885
0.00045871
0.000452485
0.000459865
0.000460953
0.000461023
0.000424595
0.000442351
0.000451906
0.000361498
0.000389795
0.000429365
0.000430615
0.000412989
0.000328922
0.000276394
0.00032503
0.000364013
0.000261717
5.63749e-05
4.75963e-05
4.93786e-05
0.000137073
0.000240433
0.00021235
0.00010372
0.000116873
5.61965e-05
9.43022e-05
4.5547e-05
0.000271069
0.00022273
0.000201147
0.00020702
0.000226576
0.000270492
0.000332933
0.000360631
0.000346183
0.000302438
0.00025603
0.00022139
0.00019242
0.00016893
0.000152217
0.000142995
0.000132371
0.000113161
0.000187797
0.000421944
0.000737334
0.000835543
0.000795346
0.000725256
0.000718802
0.000780292
0.000835229
0.000715629
0.000302129
0.000132157
0.000107206
9.99785e-05
0.000119763
0.000108266
0.000165651
0.000138093
0.000136968
0.000116116
0.000209393
0.000170251
0.000350796
0.000263588
0.000255238
0.000208933
0.000208279
0.000172094
0.000336859
0.000259628
0.000312029
0.00025453
0.000359749
0.000332085
0.00027716
0.000306046
0.00043834
0.00042965
0.000333254
0.000359164
0.000458124
0.000450476
0.000438927
0.000423763
0.000454055
0.000453319
0.000449905
0.00044222
0.000442601
0.000447094
0.000445714
0.000392707
0.000414357
0.000438892
0.000432796
0.000428712
0.000364085
0.00031694
0.000361135
0.000393544
0.000303307
7.54437e-05
4.75985e-05
5.75933e-05
0.000179831
0.000282596
0.000254825
0.000144689
6.59395e-05
5.18976e-05
5.54897e-05
5.22256e-05
0.000278038
0.000219026
0.000211089
0.000226372
0.000261988
0.000326856
0.000366478
0.000357228
0.000318869
0.000269141
0.000231731
0.000202015
0.000175918
0.000158013
0.000145189
0.000129544
0.00011131
0.000216763
0.00050288
0.000799594
0.000866497
0.000802765
0.000739501
0.00075197
0.000845535
0.000874368
0.000668586
0.000284499
0.00013341
9.99729e-05
0.000102671
9.7181e-05
9.79697e-05
9.65773e-05
9.61086e-05
0.000105138
9.91668e-05
9.81511e-05
9.46017e-05
0.000117204
0.000104924
0.000174424
0.000140244
0.000137763
0.000115447
0.000117514
0.000100068
0.00019908
0.000150149
0.000218116
0.000174978
0.000307709
0.000283199
0.000236832
0.000259992
0.000405098
0.000383307
0.000298556
0.000319168
0.000430854
0.000416205
0.000399173
0.000380185
0.000441957
0.000434644
0.000423244
0.000408997
0.000439124
0.000435253
0.000427666
0.000413583
0.00042464
0.000428904
0.000417509
0.000424745
0.000392538
0.000354028
0.00038935
0.000411414
0.000341702
0.000110772
4.84865e-05
7.99817e-05
0.000221852
0.000322316
0.000295488
0.000187412
2.52431e-05
4.42998e-05
2.56926e-05
4.54489e-05
0.000270546
0.000224344
0.000227429
0.000255198
0.000316298
0.000368278
0.000367629
0.000335847
0.000283547
0.000242809
0.000212356
0.000185247
0.000163316
0.000148784
0.000122998
0.000114899
0.000261733
0.000588776
0.000852387
0.000882826
0.00080573
0.000759042
0.000795877
0.000895807
0.000898165
0.000607443
0.000271706
0.000131185
0.000103345
9.89486e-05
0.000100143
9.61457e-05
9.75491e-05
9.31008e-05
9.45279e-05
9.2795e-05
9.2288e-05
9.12949e-05
9.10312e-05
9.30806e-05
9.1617e-05
0.000103406
9.64559e-05
9.14756e-05
8.86056e-05
9.02499e-05
8.38334e-05
0.000138133
0.000108554
0.00020082
0.000178112
0.000163034
0.00014405
0.000278161
0.000258256
0.000219732
0.000238909
0.000359703
0.000339461
0.000277185
0.000295187
0.000393236
0.000377282
0.000361619
0.000345475
0.000416253
0.000402357
0.000388187
0.000374566
0.000421939
0.000410304
0.00039662
0.000419408
0.000415827
0.000406407
0.000390482
0.00040504
0.000408483
0.000383419
0.000404913
0.000414069
0.000373293
0.000153665
5.99151e-05
0.000120504
0.000262983
0.000356677
0.000332165
0.000228914
1.0098e-05
3.73549e-05
1.17083e-05
4.82343e-05
0.000259744
0.0002337
0.000253389
0.000305744
0.000366577
0.000379172
0.00035321
0.000299581
0.000254984
0.000222663
0.000195848
0.000170448
0.000149201
0.000115307
0.000131808
0.000324088
0.00067351
0.000888303
0.000897758
0.000813026
0.000779501
0.000842627
0.000937053
0.00091755
0.00053946
0.000258359
0.000129518
0.00010649
0.000101469
0.000103239
9.89725e-05
0.000100235
9.60545e-05
9.76278e-05
9.24376e-05
9.42041e-05
9.08595e-05
9.12832e-05
8.92285e-05
8.87605e-05
8.93041e-05
8.95191e-05
8.84013e-05
8.89822e-05
8.34855e-05
8.45978e-05
8.20566e-05
7.77482e-05
0.00013042
0.000114733
9.67487e-05
0.000190642
0.000174251
0.000158432
0.000143091
0.000259229
0.000241523
0.000207171
0.000224175
0.000328902
0.000312291
0.000264257
0.000278189
0.000361291
0.000347895
0.00033407
0.00032011
0.000383062
0.000370103
0.000357231
0.00034535
0.000392173
0.000377597
0.000363478
0.000407243
0.000392514
0.000373823
0.000355279
0.000374385
0.000409505
0.000400633
0.000406064
0.000400025
0.000394084
0.000197478
8.67873e-05
0.000168235
0.000301114
0.000382291
0.000361933
0.000268807
3.80644e-06
3.66426e-05
7.23843e-06
6.32248e-05
0.000253905
0.000254324
0.000295191
0.00036274
0.000390716
0.000370632
0.000316938
0.000268623
0.000234962
0.00020509
0.000179456
0.000145546
0.000111138
0.000169789
0.000415854
0.000758633
0.000921289
0.000910234
0.000822471
0.000802851
0.000887518
0.000977197
0.000916714
0.000468693
0.000240895
0.000128355
0.000109446
0.000105575
0.000101667
0.0001031
9.89893e-05
0.000100311
9.61295e-05
9.76346e-05
9.23579e-05
9.43783e-05
8.89895e-05
9.03146e-05
8.74296e-05
8.78208e-05
8.62795e-05
8.70669e-05
8.53086e-05
8.56016e-05
7.92107e-05
8.14837e-05
8.19998e-05
7.74197e-05
0.000128419
0.000114801
9.16516e-05
0.000103431
0.000189983
0.000174492
0.000159077
0.000144038
0.000250008
0.000235431
0.000205342
0.000220512
0.000306069
0.000292069
0.00026476
0.000276905
0.000334683
0.000325234
0.000316538
0.000307727
0.00035085
0.000340667
0.000333394
0.000328123
0.000357412
0.000343507
0.000334107
0.00038131
0.000359152
0.000338164
0.000320599
0.000337462
0.000394845
0.000403862
0.000391741
0.000372485
0.000401179
0.000240898
0.0001344
0.000215676
0.000334441
0.000395332
0.000381065
0.000305421
2.0697e-06
4.69582e-05