/*--------------------------------*- C++ -*----------------------------------*\
  =========                 |
  \\      /  F ield         | OpenFOAM: The Open Source CFD Toolbox
   \\    /   O peration     | Website:  https://openfoam.org
    \\  /    A nd           | Version:  dev
     \\/     M anipulation  |
\*---------------------------------------------------------------------------*/
FoamFile
{
    version     2.0;
    format      ascii;
    class       volScalarField;
    location    "2500";
    object      CO2;
}
// * * * * * * * * * * * * * * * * * * * * * * * * * * * * * * * * * * * * * //

dimensions      [0 0 0 0 0 0 0];

internalField   nonuniform List<scalar> 
9456
(
1.58137e-35
5.35033e-35
2.19109e-35
1.001e-34
1.18258e-34
2.44635e-35
1.41027e-34
2.53545e-34
1.19076e-34
6.72749e-36
9.73366e-35
4.37526e-34
2.88171e-34
6.87504e-35
2.42756e-36
1.83719e-34
6.32514e-34
6.65129e-34
3.0809e-34
2.89366e-35
2.97324e-36
1.71018e-34
1.01994e-33
1.20948e-33
6.49374e-34
1.64709e-34
1.98831e-35
9.97856e-37
3.02211e-34
1.60321e-33
1.82755e-33
1.37052e-33
5.96569e-34
7.48042e-35
1.13915e-35
9.65537e-37
2.63702e-34
1.98307e-33
2.76792e-33
2.0372e-33
1.27947e-33
3.00654e-34
4.0524e-35
1.05717e-35
7.64628e-37
2.39251e-34
2.62826e-33
4.45312e-33
4.02258e-33
2.19292e-33
1.06823e-33
1.86812e-34
4.34302e-35
5.59741e-36
7.66834e-37
6.6024e-34
2.71694e-33
5.23343e-33
6.33298e-33
3.52503e-33
1.8516e-33
6.37717e-34
1.58943e-34
2.81692e-35
4.7058e-36
2.64371e-37
1.19555e-33
2.72047e-33
7.92373e-33
9.78108e-33
6.58414e-33
3.57987e-33
1.26295e-33
4.64234e-34
1.2525e-34
2.52928e-35
6.06246e-36
3.66183e-37
1.26434e-33
5.63915e-33
1.13096e-32
1.24358e-32
1.19671e-32
5.53624e-33
3.24677e-33
1.02408e-33
3.72847e-34
8.69021e-35
2.5284e-35
4.20267e-36
1.84158e-37
1.1945e-33
7.23882e-33
1.53743e-32
2.05556e-32
1.81794e-32
1.01066e-32
5.34518e-33
2.57653e-33
6.94039e-34
3.08842e-34
8.45146e-35
1.29304e-35
4.19531e-36
6.39696e-37
1.36005e-33
5.09397e-33
2.02121e-32
2.77136e-32
2.68679e-32
2.0379e-32
7.80978e-33
4.24095e-33
2.15755e-33
6.06567e-34
2.54344e-34
4.9412e-35
1.71856e-35
5.71884e-36
3.67056e-37
1.02386e-33
5.63356e-33
1.97777e-32
3.3999e-32
4.35705e-32
3.19529e-32
1.53257e-32
6.76529e-33
3.66165e-33
1.72293e-33
5.00991e-34
2.16859e-34
5.86036e-35
2.72159e-35
6.24263e-36
3.84185e-36
8.5299e-34
4.25381e-33
2.45101e-32
5.18092e-32
6.45479e-32
5.00152e-32
3.26846e-32
1.53243e-32
6.14519e-33
3.55113e-33
1.15289e-33
7.01651e-34
1.94408e-34
7.7059e-35
4.88776e-35
3.40475e-35
2.92707e-35
1.10577e-33
5.14957e-33
1.96721e-32
5.68436e-32
8.71379e-32
7.71963e-32
5.05252e-32
2.75151e-32
1.28715e-32
6.27623e-33
2.56473e-33
1.5503e-33
8.47019e-34
4.11493e-34
3.18292e-34
2.77938e-34
4.54241e-34
6.10641e-34
1.59158e-33
5.7963e-33
1.69398e-32
5.79262e-32
1.14365e-31
1.12242e-31
8.01965e-32
4.59861e-32
2.53125e-32
1.29603e-32
7.52005e-33
2.8715e-33
1.56312e-33
1.35065e-33
1.27764e-33
2.44466e-33
4.04289e-33
6.7731e-33
6.24223e-33
1.75574e-33
8.18435e-33
2.68511e-32
5.84658e-32
1.45769e-31
1.59473e-31
1.18794e-31
7.43095e-32
4.05779e-32
2.02865e-32
1.30505e-32
8.49484e-33
4.58559e-33
4.4354e-33
3.80974e-33
1.2732e-32
3.25075e-32
5.74864e-32
1.11634e-31
9.00065e-32
7.74578e-33
2.38261e-32
4.84226e-32
6.48834e-32
1.71725e-31
2.10072e-31
1.77703e-31
1.0329e-31
6.67066e-32
3.8799e-32
2.18879e-32
1.47238e-32
1.11874e-32
1.51988e-32
2.7314e-32
4.92175e-32
1.61405e-31
4.20402e-31
1.06145e-30
2.19469e-30
1.80452e-30
2.10139e-32
4.16882e-32
7.88076e-32
1.01338e-31
2.36259e-31
2.91488e-31
2.30841e-31
1.78641e-31
9.96922e-32
6.01118e-32
3.41611e-32
2.51207e-32
2.77128e-32
4.53186e-32
1.2812e-31
2.66969e-31
1.02405e-30
3.55518e-30
6.08333e-30
1.68184e-29
2.35317e-29
1.76281e-29
2.02972e-31
1.79801e-31
1.94655e-31
1.50324e-31
2.55359e-31
4.14792e-31
3.85803e-31
2.41772e-31
1.62345e-31
1.00424e-31
6.5833e-32
4.14577e-32
6.42315e-32
1.66489e-31
4.24723e-31
1.93636e-30
4.80155e-30
1.69957e-29
5.44961e-29
1.01385e-28
2.11115e-28
2.2679e-28
2.28758e-28
6.02594e-31
9.05443e-31
8.37591e-31
3.30432e-31
3.11957e-31
5.7242e-31
5.60142e-31
3.79182e-31
2.1112e-31
1.59798e-31
1.19142e-31
1.092e-31
1.58121e-31
5.98734e-31
2.52796e-30
9.134e-30
2.80144e-29
8.37931e-29
2.86807e-28
7.07177e-28
1.17293e-27
2.91002e-27
3.52343e-27
1.36335e-27
3.97872e-30
5.4586e-30
3.1422e-30
1.46991e-30
5.87501e-31
8.37903e-31
7.46334e-31
6.17315e-31
3.44471e-31
2.29845e-31
1.84464e-31
2.16529e-31
4.35824e-31
1.73044e-30
1.02635e-29
4.38959e-29
1.55505e-28
3.71754e-28
1.57952e-27
5.38663e-27
1.30948e-26
1.90253e-26
3.45761e-26
3.90097e-26
1.86373e-26
1.65696e-29
2.06974e-29
1.29537e-29
4.74104e-30
2.108e-30
1.32747e-30
1.15616e-30
9.17824e-31
6.12605e-31
3.58985e-31
2.79652e-31
4.74138e-31
1.39701e-30
5.10331e-30
2.30236e-29
1.74616e-28
8.33167e-28
2.35263e-27
7.04577e-27
2.52284e-26
8.66172e-26
1.69998e-25
3.99544e-25
3.75821e-25
3.10772e-25
1.54172e-25
6.10455e-29
9.14771e-29
4.34506e-29
2.11777e-29
8.16464e-30
2.84843e-30
1.73509e-30
1.39699e-30
9.66562e-31
5.85144e-31
6.83425e-31
1.15731e-30
5.17178e-30
1.90588e-29
9.32691e-29
4.68092e-28
3.32307e-27
1.40876e-26
3.33649e-26
1.14289e-25
3.81967e-25
1.29181e-24
1.84374e-24
5.83296e-24
4.7801e-24
3.90754e-24
3.37969e-24
1.08523e-28
3.33138e-28
2.01817e-28
1.00147e-28
3.11464e-29
8.27288e-30
4.08391e-30
1.96508e-30
1.53601e-30
1.13438e-30
1.28508e-30
4.57439e-30
1.54869e-29
8.10603e-29
3.38044e-28
1.81892e-27
9.9037e-27
5.74304e-26
2.40178e-25
7.54357e-25
1.87065e-24
5.04526e-24
1.97417e-23
3.2639e-23
7.70698e-23
5.77932e-23
5.16803e-23
1.82024e-23
5.48692e-28
1.12942e-27
7.23639e-28
3.22562e-28
1.19424e-28
3.48336e-29
1.01239e-29
3.83384e-30
2.49685e-30
2.06404e-30
3.23525e-30
1.20407e-29
6.1407e-29
2.44818e-28
1.42572e-27
6.41234e-27
3.69185e-26
2.08719e-25
8.29385e-25
4.46284e-24
1.30194e-23
3.71423e-23
9.99112e-23
2.73267e-22
4.33812e-22
9.67545e-22
6.28805e-22
2.27342e-22
1.56411e-22
1.9617e-27
3.34796e-27
2.2472e-27
1.03816e-27
4.05877e-28
1.14673e-28
3.30615e-29
1.00927e-29
6.37852e-30
6.34582e-30
1.23238e-29
4.17682e-29
1.41118e-28
1.08547e-27
4.59255e-27
2.41485e-26
1.31387e-25
7.06199e-25
3.79355e-24
1.56828e-23
8.08697e-23
2.88196e-22
6.62689e-22
1.19994e-21
3.87483e-21
8.35565e-21
8.5102e-21
4.1516e-21
1.86438e-21
1.1446e-21
4.12718e-27
8.31005e-27
8.23571e-27
3.8342e-27
1.67914e-27
4.68883e-28
1.14777e-28
3.77274e-29
2.05896e-29
1.66354e-29
3.96226e-29
1.46901e-28
5.17937e-28
2.71582e-27
2.16105e-26
8.57664e-26
4.17342e-25
1.86212e-24
1.15841e-23
6.12428e-23
2.53198e-22
1.23753e-21
4.17003e-21
8.25425e-21
1.36358e-20
4.80436e-20
8.48944e-20
6.71055e-20
3.50559e-20
1.8391e-20
3.38579e-21
1.5527e-26
3.34712e-26
2.56783e-26
1.27842e-26
6.87946e-27
1.91973e-27
4.79975e-28
1.13174e-28
5.90642e-29
6.42483e-29
1.24937e-28
4.7012e-28
1.70941e-27
8.87336e-27
5.82948e-26
3.73574e-25
1.49688e-24
8.23107e-24
4.04873e-23
1.98885e-22
1.02277e-21
3.50441e-21
1.93118e-20
5.34119e-20
1.22275e-19
2.17626e-19
4.32169e-19
6.54858e-19
4.64236e-19
3.11395e-19
1.2277e-19
1.95953e-20
8.68159e-26
1.25623e-25
7.81966e-26
3.94062e-26
2.25071e-26
8.14085e-27
1.7894e-27
6.06337e-28
3.27113e-28
2.52735e-28
4.53517e-28
1.49209e-27
6.46619e-27
2.77759e-26
1.33202e-25
9.91741e-25
6.59153e-24
3.90571e-23
1.98005e-22
1.05648e-21
5.05077e-21
2.22562e-20
6.65617e-20
2.8485e-19
8.00397e-19
1.37907e-18
3.21793e-18
5.09138e-18
7.78221e-18
3.28975e-18
1.45099e-18
5.71808e-19
8.00099e-20
3.01371e-25
3.83904e-25
2.77185e-25
1.62684e-25
6.1686e-26
2.82631e-26
6.0117e-27
1.80849e-27
1.13486e-27
1.12427e-27
1.70869e-27
4.32446e-27
1.96619e-26
8.84056e-26
4.26498e-25
2.648e-24
1.75679e-23
1.10413e-22
7.70419e-22
4.58169e-21
1.82482e-20
1.0094e-19
3.7401e-19
1.27617e-18
3.44649e-18
1.37247e-17
2.20033e-17
2.60591e-17
4.99223e-17
5.64712e-17
2.21602e-17
1.04156e-17
6.97388e-19
2.04166e-19
1.7896e-18
1.06443e-24
1.33987e-24
8.42193e-25
5.0217e-25
2.32406e-25
9.1803e-26
2.78845e-26
7.24944e-27
4.7789e-27
3.60604e-27
5.20473e-27
1.68831e-26
5.77724e-26
2.68979e-25
1.38135e-24
8.4951e-24
4.46004e-23
3.54814e-22
2.1054e-21
1.54207e-20
9.11759e-20
4.517e-19
1.82366e-18
6.27056e-18
1.92793e-17
7.12539e-17
1.42925e-16
1.71564e-16
2.54636e-16
4.05306e-16
4.2818e-16
1.39333e-16
1.6674e-17
6.83332e-17
9.8337e-18
6.7083e-17
4.50416e-17
6.83714e-19
5.8871e-18
8.29487e-24
7.28068e-24
3.769e-24
1.52476e-24
7.44376e-25
2.84584e-25
1.19931e-25
3.44538e-26
2.17066e-26
1.59716e-26
2.19047e-26
5.25522e-26
1.7788e-25
7.72942e-25
4.14956e-24
2.02928e-23
1.54707e-22
1.05219e-21
6.33356e-21
4.55164e-20
3.09071e-19
1.77862e-18
8.87958e-18
3.22823e-17
1.04922e-16
3.2091e-16
7.92253e-16
1.4368e-15
2.37459e-15
3.33861e-15
3.82617e-15
2.08453e-15
2.35481e-16
1.19997e-15
2.94224e-16
5.14179e-17
3.14306e-16
2.32182e-16
2.6489e-18
2.27872e-17
5.64937e-23
3.83115e-23
1.45157e-23
6.12242e-24
2.41115e-24
8.51737e-25
3.59635e-25
1.81808e-25
8.97729e-26
6.74421e-26
7.30229e-26
1.37845e-25
5.45367e-25
2.11632e-24
1.17805e-23
6.75173e-23
3.58331e-22
2.72459e-21
2.18764e-20
1.12343e-19
9.39013e-19
6.38831e-18
3.50152e-17
1.56519e-16
6.23772e-16
1.55264e-15
4.18441e-15
1.08624e-14
1.95718e-14
3.10872e-14
4.18624e-14
2.85941e-14
5.0986e-15
2.32042e-14
1.23771e-15
5.90883e-15
1.20002e-15
2.00267e-16
1.1101e-15
9.22414e-16
1.44515e-17
1.07088e-16
5.20557e-22
2.74528e-22
9.05099e-23
2.80881e-23
7.42757e-24
3.10683e-24
8.34756e-25
5.83834e-25
3.85823e-25
3.12516e-25
3.15764e-25
5.11982e-25
1.86673e-24
5.64614e-24
2.65493e-23
1.90943e-22
1.1471e-21
5.59111e-21
5.86796e-20
4.52646e-19
2.38942e-18
2.01228e-17
1.29706e-16
6.35931e-16
2.43963e-15
9.36978e-15
2.86549e-14
7.40367e-14
1.55497e-13
2.71323e-13
3.90903e-13
3.97676e-13
9.73723e-14
4.19578e-13
2.997e-14
1.4527e-13
7.17491e-15
3.88823e-14
7.01374e-15
8.13793e-16
6.44518e-15
4.87024e-15
4.13657e-17
3.28508e-16
3.90373e-21
2.05688e-21
6.5651e-22
1.36736e-22
3.86424e-23
1.08184e-23
3.27293e-24
1.60739e-24
1.55142e-24
9.28762e-25
1.13222e-24
1.83389e-24
5.27768e-24
2.28733e-23
8.12677e-23
5.11383e-22
3.13771e-21
1.97529e-20
1.27107e-19
1.23647e-18
1.00977e-17
6.37965e-17
4.35588e-16
2.50087e-15
1.28454e-14
5.7702e-14
1.99774e-13
5.04794e-13
1.19603e-12
2.15268e-12
3.41681e-12
4.4671e-12
1.58546e-12
5.94957e-12
6.46151e-13
2.66586e-12
1.9894e-13
9.49034e-13
4.33878e-14
2.44505e-13
4.24977e-14
3.15553e-15
3.63688e-14
2.58985e-14
1.04319e-16
1.55437e-15
2.66851e-20
1.37555e-20
4.5142e-21
1.13632e-21
1.58108e-22
4.95349e-23
1.51799e-23
5.49778e-24
5.10136e-24
4.63282e-24
3.08936e-24
6.39117e-24
1.52169e-23
5.6157e-23
2.92445e-22
1.54079e-21
8.46748e-21
5.97244e-20
3.22404e-19
2.58685e-18
2.96329e-17
2.23671e-16
1.35375e-15
1.04464e-14
6.48474e-14
3.2933e-13
1.32175e-12
3.84663e-12
7.84631e-12
1.75524e-11
2.58763e-11
3.97344e-11
1.98669e-11
6.44567e-11
1.01803e-11
3.643e-11
4.15376e-12
1.68511e-11
1.26279e-12
5.96864e-12
2.65734e-13
1.51025e-12
2.51078e-13
1.5036e-14
2.02017e-13
1.33251e-13
3.92409e-16
6.40592e-15
1.62461e-19
1.01707e-19
3.27155e-20
9.45914e-21
1.0804e-21
2.09298e-22
6.87006e-23
3.37485e-23
1.31485e-23
1.69158e-23
1.4756e-23
1.72294e-23
5.35386e-23
1.57229e-22
8.04059e-22
3.29467e-21
2.33473e-20
1.48197e-19
1.13696e-18
7.55939e-18
6.85417e-17
7.55242e-16
5.16026e-15
4.15582e-14
2.99151e-13
1.66265e-12
7.72517e-12
2.70901e-11
6.62451e-11
1.02977e-10
1.90007e-10
2.89235e-10
1.90249e-10
5.49829e-10
1.21789e-10
3.77755e-10
6.30709e-11
2.20819e-10
2.5754e-11
1.02647e-10
7.77916e-12
3.64334e-11
1.58227e-12
9.08095e-12
1.43563e-12
6.97515e-14
1.08564e-12
6.59685e-13
1.25314e-15
2.68151e-14
9.10065e-19
6.07056e-19
2.13068e-19
6.75925e-20
9.39002e-21
1.16012e-21
3.22133e-22
1.27553e-22
6.81839e-23
4.22539e-23
5.7884e-23
7.54822e-23
1.71787e-22
5.15569e-22
2.15841e-21
1.05144e-20
5.20648e-20
3.45903e-19
2.65031e-18
2.52597e-17
2.29323e-16
1.87538e-15
1.90171e-14
1.62583e-13
1.27522e-12
7.57324e-12
3.94648e-11
1.62377e-10
4.96491e-10
1.02214e-09
1.0444e-09
1.82338e-09
1.45978e-09
3.86342e-09
1.10942e-09
3.07144e-09
7.21442e-10
2.1848e-09
3.76342e-10
1.28825e-09
1.55027e-10
6.06956e-10
4.68418e-11
2.18019e-10
9.19066e-12
5.35238e-11
8.01013e-12
3.24746e-13
5.72009e-12
3.4018e-12
5.22935e-15
1.22704e-13
4.77124e-18
3.19692e-18
1.36039e-18
4.85279e-19
8.65436e-20
9.44595e-21
1.70637e-21
4.55998e-22
2.99454e-22
2.28372e-22
1.72706e-22
2.18178e-22
4.81474e-22
1.77331e-21
4.62968e-21
2.6493e-20
1.37604e-19
8.68655e-19
6.33408e-18
5.84586e-17
5.2604e-16
5.70191e-15
6.29288e-14
6.10139e-13
5.08102e-12
3.1195e-11
1.79463e-10
8.36629e-10
3.03952e-09
8.16413e-09
1.42705e-08
6.60835e-09
9.7151e-09
2.70289e-08
8.08822e-09
2.06077e-08
6.26015e-09
1.69193e-08
4.11128e-09
1.21592e-08
2.17983e-09
7.30563e-09
9.16772e-10
3.53307e-09
2.77925e-10
1.29221e-09
5.28135e-11
3.15295e-10
4.49515e-11
1.63997e-12
3.21725e-11
1.88046e-11
2.29306e-14
5.94682e-13
1.89364e-17
2.01536e-17
7.84284e-18
2.94033e-18
5.05353e-19
8.67524e-20
1.02717e-20
1.88059e-21
9.32455e-22
8.34046e-22
6.74569e-22
8.88803e-22
1.50846e-21
5.03239e-21
1.79841e-20
6.07446e-20
3.48101e-19
1.86424e-18
1.43479e-17
1.44989e-16
1.36008e-15
1.62554e-14
1.96322e-13
2.14312e-12
1.90388e-11
1.18938e-10
7.28246e-10
3.78889e-09
1.58359e-08
5.08278e-08
1.20981e-07
1.86402e-07
8.76177e-08
2.6747e-08
5.17041e-08
1.32899e-07
4.35873e-08
1.0887e-07
3.40209e-08
8.98243e-08
2.27841e-08
6.5884e-08
1.24417e-08
4.09986e-08
5.40337e-09
2.06342e-08
1.66255e-09
7.79249e-09
3.13269e-10
1.94105e-09
2.71501e-10
8.65576e-12
1.91813e-10
1.07694e-10
1.06399e-13
2.97116e-12
7.23185e-17
9.05462e-17
4.48062e-17
1.65274e-17
3.50128e-18
8.82422e-19
8.94184e-20
1.16004e-20
2.94899e-21
2.86196e-21
3.04482e-21
3.47986e-21
4.93979e-21
1.35031e-20
5.89868e-20
2.52117e-19
8.21726e-19
4.24663e-18
3.478e-17
3.08365e-16
3.5825e-15
4.20791e-14
5.52761e-13
6.82921e-12
6.48986e-11
4.19466e-10
2.70311e-09
1.50898e-08
7.1535e-08
2.69503e-07
7.67036e-07
1.65746e-06
2.47764e-06
3.57527e-07
1.35338e-06
2.68935e-07
6.75886e-07
2.27168e-07
5.61918e-07
1.80534e-07
4.70916e-07
1.25612e-07
3.58288e-07
7.18411e-08
2.34396e-07
3.26471e-08
1.24142e-07
1.04466e-08
4.9238e-08
1.98717e-09
1.25738e-08
1.71917e-09
4.67867e-11
1.17463e-09
6.23506e-10
4.99364e-13
1.48417e-11
1.82226e-16
3.16656e-16
2.02545e-16
6.52134e-17
2.87722e-17
5.72273e-18
9.45858e-19
1.27468e-19
2.25003e-20
8.73431e-21
9.57036e-21
1.29665e-20
2.0022e-20
4.97552e-20
1.73234e-19
5.97503e-19
2.75826e-18
1.13515e-17
8.53352e-17
7.2044e-16
7.24646e-15
1.04371e-13
1.46186e-12
1.90981e-11
2.11312e-10
1.41624e-09
9.00848e-09
5.3922e-08
2.78089e-07
1.21487e-06
4.22009e-06
1.08988e-05
2.17798e-05
1.0933e-05
3.07446e-05
1.67817e-06
4.20986e-06
1.38708e-06
3.51867e-06
1.18642e-06
2.95057e-06
9.75279e-07
2.55786e-06
7.1246e-07
2.01688e-06
4.2905e-07
1.38158e-06
2.04716e-07
7.6602e-07
6.81419e-08
3.18139e-07
1.30918e-08
8.34112e-08
1.10752e-08
2.51323e-10
7.22585e-09
3.54795e-09
2.30794e-12
7.20979e-11
5.68985e-16
9.16611e-16
7.24346e-16
3.68926e-16
1.37015e-16
3.32907e-17
4.8211e-18
8.87001e-19
1.07224e-19
4.00443e-20
2.9851e-20
3.61359e-20
5.87033e-20
1.78579e-19
4.98963e-19
2.17635e-18
8.32522e-18
3.7502e-17
1.70785e-16
1.41766e-15
1.64925e-14
2.441e-13
3.70596e-12
5.18481e-11
5.81492e-10
4.27276e-09
2.66038e-08
1.70425e-07
9.4771e-07
4.6148e-06
1.84064e-05
5.63895e-05
0.000123836
8.48804e-05
0.000232136
6.51965e-05
0.000169506
9.03883e-06
2.39763e-05
7.46218e-06
1.97951e-05
6.51294e-06
1.65736e-05
5.52489e-06
1.45537e-05
4.16927e-06
1.16806e-05
2.59948e-06
8.20596e-06
1.29436e-06
4.71633e-06
4.50406e-07
2.05762e-06
8.71945e-08
5.56382e-07
7.12537e-08
1.30069e-09
4.36334e-08
1.93761e-08
1.00603e-11
3.26601e-10
1.32546e-15
2.70506e-15
2.25605e-15
1.26629e-15
5.95041e-16
1.27851e-16
3.21882e-17
5.20295e-18
9.27893e-19
1.81455e-19
1.27005e-19
1.01122e-19
1.88033e-19
4.57895e-19
1.57651e-18
5.13161e-18
2.06077e-17
8.95178e-17
4.45334e-16
2.96728e-15
3.46371e-14
5.63916e-13
8.79286e-12
1.34433e-10
1.62652e-09
1.28955e-08
7.36201e-08
4.79362e-07
2.85001e-06
1.48114e-05
6.32124e-05
0.000194059
0.000441796
0.000489034
0.000723597
0.000383255
0.000756459
0.00032698
0.000656599
5.27337e-05
0.000138811
4.36894e-05
0.000116029
3.77618e-05
9.64557e-05
3.22168e-05
8.37003e-05
2.44475e-05
6.73577e-05
1.56656e-05
4.78172e-05
8.13428e-06
2.85362e-05
2.95712e-06
1.31282e-05
5.7627e-07
3.65306e-06
4.46942e-07
6.26334e-09
2.52806e-07
9.90737e-08
3.78362e-11
1.27347e-09
3.43194e-15
7.3248e-15
6.71421e-15
4.56805e-15
1.83662e-15
7.56196e-16
1.72944e-16
3.58645e-17
6.01318e-18
7.50901e-19
3.87265e-19
3.06898e-19
5.59653e-19
1.6321e-18
4.01463e-18
1.71882e-17
4.6857e-17
2.03188e-16
9.80831e-16
6.98254e-15
7.21369e-14
1.12264e-12
2.06553e-11
3.17689e-10
3.99355e-09
3.31507e-08
1.9124e-07
1.27156e-06
7.65545e-06
4.03023e-05
0.000167365
0.000493814
0.00100676
0.00171205
0.00105755
0.0016531
0.00103482
0.00147903
0.000997538
0.00144882
0.000276825
0.000596239
0.000241638
0.000541318
0.000211058
0.000474484
0.00018019
0.000417851
0.000136495
0.000346207
9.03255e-05
0.00025449
4.92816e-05
0.00015802
1.88213e-05
7.79601e-05
3.69466e-06
2.29746e-05
2.65596e-06
2.71431e-08
1.35757e-06
4.58455e-07
9.55689e-11
3.18464e-09
5.17339e-15
1.61201e-14
1.88085e-14
1.22943e-14
8.37158e-15
2.51031e-15
9.6343e-16
1.88108e-16
3.24659e-17
4.22277e-18
1.01304e-18
9.80415e-19
1.6976e-18
3.39512e-18
1.35498e-17
3.98949e-17
1.7275e-16
5.66492e-16
2.99933e-15
1.73861e-14
1.53811e-13
2.10087e-12
3.93002e-11
7.44795e-10
9.1342e-09
7.0877e-08
4.79041e-07
3.18153e-06
1.87345e-05
9.33077e-05
0.00034577
0.000885898
0.00167417
0.00258409
0.00279337
0.00325601
0.00191472
0.00240107
0.00191468
0.00243104
0.00196963
0.00250583
0.000972892
0.00145905
0.000942658
0.00148475
0.000891284
0.00147011
0.000798872
0.00142774
0.000633421
0.00129116
0.000445199
0.0010554
0.000259704
0.000707224
0.000107415
0.000384948
2.25891e-05
0.000128011
1.46753e-05
7.25073e-08
6.72045e-06
1.83342e-06
1.57225e-10
4.58127e-09
2.50318e-14
4.53222e-14
3.99211e-14
2.13368e-14
1.11057e-14
2.82441e-15
8.4693e-16
1.24832e-16
2.80497e-17
4.90914e-18
2.70699e-18
3.98596e-18
1.13613e-17
3.40366e-17
1.1413e-16
3.96023e-16
1.68776e-15
7.19118e-15
4.55045e-14
3.4877e-13
3.97378e-12
6.94794e-11
1.38947e-09
2.09687e-08
1.52725e-07
1.14716e-06
7.68827e-06
4.23483e-05
0.000186879
0.000573222
0.00126562
0.00223033
0.00317685
0.00383098
0.00376243
0.00401725
0.00292527
0.00341693
0.00303763
0.00358333
0.00323509
0.00380483
0.00206351
0.00264713
0.00214834
0.00281273
0.00218515
0.00293372
0.00214647
0.00301587
0.00195637
0.00297816
0.0016141
0.00278059
0.0010646
0.00231879
0.000500958
0.00145097
0.00012368
0.000579709
7.20415e-05
4.40016e-08
3.03248e-05
9.00538e-06
1.96879e-06
0
9.47728e-09
6.06981e-08
6.38108e-14
9.59885e-14
7.3077e-14
3.91767e-14
1.1877e-14
2.50232e-15
7.36051e-16
1.31807e-16
1.50236e-17
8.18188e-18
9.06954e-18
2.50176e-17
9.51867e-17
2.62026e-16
1.15524e-15
3.87418e-15
2.02901e-14
1.22632e-13
8.47426e-13
7.84909e-12
1.20078e-10
2.46266e-09
3.85467e-08
3.40071e-07
2.57207e-06
1.74011e-05
8.91143e-05
0.000323027
0.000822717
0.00164862
0.00265054
0.0033274
0.003758
0.00411047
0.00392942
0.00422651
0.00419693
0.00397124
0.00417737
0.00419473
0.00440592
0.00449215
0.00468255
0.00349202
0.00410776
0.00373931
0.00444327
0.00392552
0.00475647
0.0040271
0.00502304
0.00393668
0.0051866
0.00369155
0.00507902
0.00309886
0.00473463
0.00178316
0.00388207
0.00055396
0.00209771
0.0011407
0.000120782
0.000346923
4.61783e-06
3.60769e-07
2.63835e-06
4.34839e-05
0.000201239
0.000256517
2.70696e-05
5.35119e-10
8.58154e-09
2.29771e-08
1.69574e-07
1.22871e-13
1.62797e-13
1.20592e-13
4.17417e-14
9.93203e-15
1.99215e-15
5.45005e-16
5.69825e-17
2.44319e-17
2.56427e-17
6.53285e-17
2.0348e-16
8.69502e-16
2.51697e-15
1.14038e-14
5.73691e-14
3.3926e-13
2.15863e-12
1.6688e-11
2.04904e-10
4.23876e-09
6.76204e-08
6.26316e-07
5.64109e-06
3.56308e-05
0.000163368
0.000484232
0.00106057
0.00194888
0.00283042
0.00327862
0.00354525
0.00365502
0.00337395
0.00377584
0.00334204
0.00430496
0.00410602
0.00444025
0.00440138
0.00468409
0.00463161
0.00497944
0.00490246
0.00485683
0.00501577
0.00524313
0.0054092
0.00562735
0.00585159
0.00599556
0.00632369
0.00627652
0.00680191
0.00622336
0.00719356
0.00465811
0.00559888
0.00629549
0.00703656
0.00315522
0.00452301
0.00585226
0.00661003
0.00551381
0.00196704
0.000943615
0.00224739
0.00340944
0.000837782
1.55146e-05
1.22384e-06
7.90934e-06
0.000133822
0.000524031
0.000711138
8.32091e-05
1.96708e-09
2.67166e-08
7.35266e-08
5.4775e-07
2.08316e-13
2.22356e-13
1.45546e-13
3.86919e-14
7.68471e-15
1.33957e-15
3.03367e-16
6.57314e-17
5.42125e-17
1.45949e-16
5.9289e-16
1.84622e-15
7.43777e-15
3.41368e-14
1.64886e-13
9.5147e-13
5.71379e-12
3.80762e-11
3.64994e-10
6.45004e-09
1.13702e-07
1.10373e-06
1.03483e-05
6.66871e-05
0.000263053
0.0006617
0.00129483
0.00218163
0.00283907
0.00317319
0.00316641
0.00234307
0.00292551
0.00230914
0.00292207
0.00241258
0.00389794
0.00343321
0.00450972
0.00427145
0.00474147
0.00443788
0.00500922
0.004615
0.00534925
0.00523192
0.00578205
0.00564189
0.00627486
0.00612448
0.00681093
0.00666239
0.00739876
0.00724122
0.00747157
0.00778095
0.0078576
0.00778937
0.00676941
0.00746734
0.00790168
0.00477291
0.00597634
0.00738698
0.00776936
0.00699258
0.00369733
0.00213469
0.0037126
0.00509183
0.00194908
4.64685e-05
3.73485e-06
2.34584e-05
0.000361103
0.00161533
0.0012246
0.00022484
6.5236e-09
2.29398e-07
8.17984e-08
1.65971e-06
3.10743e-13
2.97663e-13
1.30017e-13
3.15988e-14
5.01105e-15
8.64055e-16
1.669e-16
1.17108e-16
2.71593e-16
1.3918e-15
6.00749e-15
1.98495e-14
9.85647e-14
4.7441e-13
2.68046e-12
1.55583e-11
9.41441e-11
6.94608e-10
9.40375e-09
1.52776e-07
1.82751e-06
1.75025e-05
0.000107377
0.000377726
0.000846232
0.00151674
0.00232406
0.0028002
0.00299419
0.00273714
0.00167884
0.00120237
0.000943103
0.00193823
0.00152419
0.00189674
0.00144504
0.00295615
0.00241053
0.00401143
0.00350271
0.00410703
0.00353412
0.00422728
0.00355239
0.00535907
0.00485416
0.00580723
0.00520341
0.00633661
0.00570275
0.00692794
0.00629206
0.00767901
0.00749376
0.00722303
0.00681093
0.008077
0.008083
0.0079942
0.0078459
0.00795546
0.00823847
0.00831983
0.00633918
0.00736662
0.00829564
0.00858224
0.00812864
0.0052378
0.00364225
0.00530475
0.00657877
0.00341685
0.000126168
1.09012e-05
6.42396e-05
0.000865033
0.00303689
0.00247716
0.000543299
2.14387e-08
6.77842e-07
2.41692e-07
4.7482e-06
4.32454e-13
3.52123e-13
1.13775e-13
2.14017e-14
2.76377e-15
5.0828e-16
2.44075e-16
5.18233e-16
2.54714e-15
1.3779e-14
5.59952e-14
2.68606e-13
1.35573e-12
7.48052e-12
4.2509e-11
2.43947e-10
1.51075e-09
1.39306e-08
2.11345e-07
2.66725e-06
2.75127e-05
0.000157606
0.000493836
0.00101735
0.00171161
0.00239078
0.00272934
0.00280198
0.0022947
0.00115005
0.000405989
0.000524945
0.00032368
0.0010613
0.000751984
0.000965278
0.000627387
0.00185706
0.00138171
0.00295083
0.00238406
0.00289746
0.00229889
0.00285652
0.00219191
0.00443316
0.00362312
0.00480463
0.00383067
0.00533528
0.00426741
0.00641983
0.00593806
0.00481109
0.00758398
0.00720303
0.00676985
0.00629263
0.00826802
0.00815157
0.00793921
0.00757952
0.00851838
0.00852755
0.00843407
0.00765096
0.00841579
0.00874771
0.00895882
0.00883664
0.00675036
0.0052224
0.00680283
0.00787692
0.00498525
0.000310852
3.02865e-05
0.00016266
0.00179754
0.00457432
0.00397419
0.00118494
6.80918e-08
1.89858e-06
6.67072e-07
1.29283e-05
5.49933e-13
3.38461e-13
8.12227e-14
1.16371e-14
1.43019e-15
5.05319e-16
9.32212e-16
5.54084e-15
3.3235e-14
1.65106e-13
7.22436e-13
3.87227e-12
2.0295e-11
1.14709e-10
6.36568e-10
3.60001e-09
2.44656e-08
2.89532e-07
3.96757e-06
3.93538e-05
0.000214161
0.000607475
0.00116965
0.00186184
0.00240119
0.00264181
0.00258298
0.00190519
0.000817931
0.000269677
6.54543e-05
4.73334e-05
0.000149258
8.14933e-05
0.000392263
0.000240574
0.000315296
0.000174805
0.000871088
0.000537908
0.00177271
0.00129286
0.00162417
0.00114597
0.00149029
0.000977161
0.00293012
0.00213709
0.00320578
0.00227398
0.00372812
0.00271478
0.0057878
0.00521078
0.00355336
0.00411342
0.00715656
0.00668628
0.00618791
0.00567017
0.0082794
0.00797528
0.00757703
0.007122
0.00871984
0.00859344
0.00838742
0.00865113
0.00906051
0.00889967
0.00908325
0.0091625
0.00802125
0.00671709
0.00806558
0.00883478
0.00648749
0.000706531
7.71523e-05
0.000379972
0.00319265
0.00607739
0.00546863
0.00230065
1.72196e-07
4.93509e-06
1.62816e-06
3.26122e-05
6.07251e-13
2.62766e-13
4.61577e-14
5.76316e-15
1.12168e-15
1.4986e-15
1.00291e-14
7.45418e-14
4.83328e-13
1.88776e-12
1.03307e-11
5.34645e-11
3.02915e-10
1.66082e-09
8.88414e-09
5.13249e-08
4.40856e-07
5.80212e-06
5.66113e-05
0.00027455
0.000713686
0.0013116
0.00197932
0.00238352
0.00254177
0.00234894
0.00157152
0.000626703
0.000189701
2.21835e-05
9.82048e-06
4.1072e-06
2.72551e-05
1.42352e-05
9.33909e-05
4.95074e-05
6.56876e-05
3.19782e-05
0.000259442
0.000134082
0.00074353
0.000457576
0.000622037
0.000377545
0.000594085
0.000342755
0.00151353
0.000970356
0.00187385
0.00124521
0.00311229
0.00261032
0.00183535
0.00224254
0.00513642
0.00460119
0.00306166
0.00353994
0.00663105
0.0061194
0.00559872
0.00507254
0.00802661
0.00759962
0.00713118
0.00663521
0.00875645
0.00849963
0.00810356
0.00926154
0.00936571
0.00891875
0.00910063
0.0092849
0.00896558
0.00799729
0.0090259
0.00944207
0.00779459
0.00145033
0.000185767
0.000851506
0.00468503
0.0074201
0.00686281
0.00375908
2.94046e-07
1.19853e-05
3.24564e-06
7.98442e-05
6.09034e-13
1.61331e-13
2.21262e-14
3.42138e-15
2.5018e-15
1.64084e-14
1.39519e-13
9.93172e-13
4.87859e-12
2.64745e-11
1.38378e-10
7.85798e-10
4.28876e-09
2.24275e-08
1.17488e-07
7.8724e-07
8.80463e-06
7.95529e-05
0.000339638
0.000810389
0.00143062
0.00204172
0.00234834
0.00242789
0.00210903
0.00128677
0.000497765
0.000139626
1.88563e-05
1.30398e-06
1.45602e-06
1.7524e-06
9.73151e-07
4.64176e-06
2.66176e-06
1.60118e-05
8.34484e-06
1.27838e-05
6.83798e-06
5.24995e-05
2.54631e-05
0.000210193
0.000107704
0.00018684
9.83895e-05
0.000250816
0.000132651
0.000783059
0.000457068
0.00125136
0.000819615
0.00262516
0.00222156
0.00155444
0.00187136
0.00454556
0.00403344
0.00274448
0.00316978
0.00612642
0.00561259
0.0051007
0.00459418
0.00766869
0.00720821
0.00673418
0.00625496
0.00861074
0.00822722
0.00782562
0.00957399
0.00950201
0.00879743
0.00905136
0.00932219
0.0095905
0.00899445
0.00968955
0.00977963
0.00884732
0.00273211
0.000435003
0.00171629
0.00613863
0.00854742
0.0080938
0.00526507
3.38345e-07
2.73414e-05
5.81404e-06
0.000190947
5.20735e-13
8.51745e-14
1.14279e-14
5.35103e-15
2.41692e-14
2.38843e-13
1.86594e-12
1.30592e-11
6.56944e-11
3.61741e-10
1.9948e-09
1.08986e-08
5.63513e-08
2.83615e-07
1.63146e-06
1.46108e-05
0.000111107
0.000408199
0.000897636
0.00152573
0.0020715
0.0023036
0.00230829
0.00187598
0.00105187
0.000399253
0.000104998
1.43417e-05
8.31633e-07
3.74317e-07
1.94971e-07
7.12056e-07
4.48309e-07
1.50823e-06
1.02294e-06
3.86258e-06
2.33163e-06
5.25669e-06
3.34153e-06
1.4636e-05
8.53178e-06
5.10012e-05
2.66774e-05
7.07323e-05
3.96616e-05
0.000159836
8.59006e-05
0.000512091
0.000296265
0.00119138
0.000951023
0.00079201
0.000619803
0.00235496
0.00200202
0.00141548
0.00168938
0.00409824
0.00362213
0.00257653
0.00297021
0.00576735
0.00527555
0.00478732
0.00430679
0.00740833
0.00697485
0.00652615
0.00606379
0.00845526
0.00809405
0.00771145
0.0097354
0.00957335
0.0087401
0.00907786
0.00933547
0.00997097
0.0097183
0.0101264
0.00997652
0.00965118
0.00428572
0.000980683
0.00317374
0.00748626
0.00946073
0.00914202
0.00674651
4.53422e-07
6.35204e-05
1.15524e-05
0.000455828
3.59398e-13
4.58749e-14
1.24697e-14
3.42835e-14
3.47941e-13
3.34599e-12
2.69652e-11
1.53721e-10
9.20691e-10
4.93353e-09
2.72594e-08
1.39619e-07
6.95167e-07
3.64124e-06
2.61946e-05
0.000156895
0.000479779
0.000976683
0.00159847
0.00207494
0.00225409
0.00217787
0.00166138
0.000866047
0.000320384
7.92071e-05
1.07243e-05
8.02662e-07
1.32856e-07
9.19165e-08
2.37301e-07
1.48214e-07
5.00787e-07
3.36698e-07
1.00348e-06
7.22063e-07
2.11737e-06
1.41134e-06
3.91381e-06
2.58097e-06
9.16931e-06
5.93603e-06
2.34653e-05
1.44581e-05
4.92077e-05
3.0009e-05
0.00013955
7.61297e-05
0.000506453
0.000384139
0.000257541
0.00112362
0.0009234
0.000756645
0.000610324
0.00221654
0.00189151
0.00134627
0.00160162
0.00383919
0.00339229
0.00249129
0.00286587
0.00558822
0.0051057
0.00462601
0.00415567
0.00731037
0.00688913
0.00644662
0.0059837
0.0084146
0.00807955
0.00773312
0.00985101
0.00967065
0.00882566
0.00932875
0.00949409
0.0102178
0.0102289
0.0104339
0.0101497
0.0102569
0.00588392
0.0020015
0.00490088
0.00870033
0.0101874
0.0100206
0.00815271
7.73976e-07
0.000154613
2.60208e-05
0.00104143
2.37543e-13
4.29304e-14
5.13749e-14
4.71658e-13
4.93924e-12
4.59452e-11
3.07208e-10
2.19004e-09
1.1952e-08
6.68537e-08
3.42592e-07
1.69648e-06
8.49528e-06
4.86078e-05
0.000217868
0.000554103
0.00104953
0.00165755
0.00206598
0.00219871
0.00204303
0.0014711
0.000724644
0.000258695
6.01198e-05
7.57415e-06
6.51864e-07
5.75367e-08
7.74151e-08
4.60026e-08
1.71801e-07
1.16812e-07
4.2263e-07
2.74731e-07
8.37672e-07
6.14939e-07
1.66002e-06
1.14938e-06
3.39517e-06
2.23458e-06
7.79008e-06
5.12103e-06
1.88531e-05
1.20395e-05
4.48899e-05
2.78937e-05
0.000137046
7.48509e-05
0.00048868
0.000382941
0.000212184
0.000296816
0.00110355
0.000913006
0.000748751
0.000607052
0.00214996
0.00184181
0.00131966
0.00156515
0.00370098
0.00326997
0.00245511
0.00281554
0.00550504
0.0050199
0.00453802
0.00407064
0.0073615
0.0069486
0.00649207
0.00600067
0.00857084
0.00829035
0.00796055
0.0100419
0.00995867
0.00916143
0.00981579
0.0098985
0.010448
0.01061
0.0107192
0.0104269
0.0107249
0.00750947
0.0036262
0.00666626
0.00977498
0.0107714
0.0107595
0.00946701
1.74465e-06
0.000379171
5.6898e-05
0.00212506
2.31611e-13
1.0524e-13
5.81912e-13
6.84726e-12
6.71065e-11
6.73838e-10
4.29579e-09
2.81493e-08
1.58965e-07
8.35321e-07
4.13852e-06
1.94488e-05
9.22462e-05
0.000290432
0.000632343
0.00112238
0.00170668
0.00205019
0.00213877
0.00191013
0.00130754
0.000616426
0.000212374
4.592e-05
6.02616e-06
4.93535e-07
4.18375e-08
1.66558e-08
5.77598e-08
3.448e-08
1.30828e-07
8.64407e-08
2.98313e-07
1.9431e-07
7.58786e-07
4.86064e-07
1.42514e-06
1.01053e-06
2.96763e-06
1.89321e-06
7.11995e-06
4.6052e-06
1.75564e-05