/*--------------------------------*- C++ -*----------------------------------*\
  =========                 |
  \\      /  F ield         | OpenFOAM: The Open Source CFD Toolbox
   \\    /   O peration     | Website:  https://openfoam.org
    \\  /    A nd           | Version:  dev
     \\/     M anipulation  |
\*---------------------------------------------------------------------------*/
FoamFile
{
    version     2.0;
    format      ascii;
    class       volScalarField;
    location    "2500";
    object      G;
}
// * * * * * * * * * * * * * * * * * * * * * * * * * * * * * * * * * * * * * //

dimensions      [1 0 -3 0 0 0 0];

internalField   nonuniform List<scalar> 
9456
(
3415.21
3419.45
3420.41
3423.21
3424.67
3426.14
3426.47
3428.44
3430.4
3432.38
3429.24
3431.71
3434.18
3436.65
3439.14
3431.54
3434.48
3437.44
3440.43
3443.42
3446.44
3433.38
3436.78
3440.22
3443.69
3447.2
3450.73
3454.28
3434.75
3438.61
3442.51
3446.45
3450.45
3454.5
3458.58
3462.69
3435.68
3439.98
3444.32
3448.72
3453.19
3457.73
3462.34
3466.98
3471.67
3436.18
3440.9
3445.67
3450.51
3455.43
3460.45
3465.55
3470.73
3475.97
3481.26
3436.27
3441.39
3446.56
3451.82
3457.18
3462.65
3468.23
3473.92
3479.71
3485.56
3491.47
3435.95
3441.45
3447.02
3452.68
3458.45
3464.35
3470.38
3476.55
3482.86
3489.27
3495.77
3502.33
3435.24
3441.11
3447.06
3453.1
3459.26
3465.56
3472.02
3478.64
3485.43
3492.38
3499.46
3506.63
3513.88
3434.17
3440.38
3446.68
3453.08
3459.61
3466.3
3473.16
3480.21
3487.45
3494.89
3502.51
3510.29
3518.18
3526.16
3432.75
3439.28
3445.92
3452.66
3459.53
3466.57
3473.81
3481.26
3488.92
3496.82
3504.95
3513.28
3521.8
3530.44
3539.2
3431.01
3437.83
3444.77
3451.83
3459.04
3466.41
3473.99
3481.8
3489.86
3498.18
3506.77
3515.62
3524.71
3534.01
3543.47
3553.05
3428.95
3436.05
3443.28
3450.64
3458.14
3465.82
3473.72
3481.87
3490.29
3499
3508.01
3517.33
3526.95
3536.85
3546.99
3557.31
3567.77
3426.61
3433.96
3441.46
3449.09
3456.86
3464.83
3473.03
3481.48
3490.22
3499.28
3508.68
3518.42
3528.51
3538.95
3549.71
3560.75
3572.01
3583.42
3424
3431.59
3439.33
3447.2
3455.23
3463.46
3471.92
3480.66
3489.69
3499.06
3508.8
3518.92
3529.43
3540.36
3551.68
3563.36
3575.37
3587.63
3600.08
3421.14
3428.95
3436.91
3445.01
3453.27
3461.73
3470.43
3479.41
3488.71
3498.36
3508.39
3518.85
3529.74
3541.08
3552.89
3565.16
3577.84
3590.9
3604.26
3617.82
3418.05
3426.05
3434.22
3442.52
3450.99
3459.66
3468.57
3477.78
3487.3
3497.2
3507.49
3518.23
3529.45
3541.16
3553.39
3566.16
3579.44
3593.21
3607.41
3621.95
3636.75
3414.75
3422.93
3431.28
3439.77
3448.42
3457.27
3466.38
3475.77
3485.5
3495.61
3506.13
3517.11
3528.6
3540.62
3553.22
3566.4
3580.19
3594.58
3609.52
3624.97
3640.82
3656.97
3411.25
3419.59
3428.11
3436.76
3445.58
3454.6
3463.87
3473.43
3483.33
3493.61
3504.32
3515.51
3527.22
3539.5
3552.39
3565.93
3580.14
3595.04
3610.62
3626.86
3643.67
3660.97
3678.61
3407.58
3416.07
3424.73
3433.53
3442.49
3451.65
3461.06
3470.77
3480.81
3491.24
3502.11
3513.46
3525.35
3537.83
3550.96
3564.78
3579.33
3594.65
3610.76
3627.65
3645.3
3663.63
3682.53
3701.82
3403.75
3412.36
3421.16
3430.08
3439.17
3448.46
3457.99
3467.82
3477.98
3488.53
3499.52
3511
3523.03
3535.67
3548.97
3563
3577.81
3593.45
3609.97
3627.4
3645.73
3664.93
3684.95
3705.63
3726.83
3399.77
3408.5
3417.41
3426.44
3435.64
3445.03
3454.67
3464.59
3474.85
3485.49
3496.57
3508.15
3520.28
3533.03
3546.46
3560.63
3575.63
3591.51
3608.33
3626.16
3645.03
3664.95
3685.88
3707.77
3730.5
3753.85
3395.66
3404.49
3413.5
3422.63
3431.92
3441.41
3451.13
3461.13
3471.46
3482.17
3493.32
3504.96
3517.15
3529.97
3543.47
3557.74
3572.85
3588.88
3605.9
3624.01
3643.27
3663.73
3685.4
3708.26
3732.29
3757.35
3783.11
3391.45
3400.35
3409.45
3418.66
3428.03
3437.59
3447.38
3457.44
3467.82
3478.58
3489.77
3501.44
3513.67
3526.51
3540.05
3554.36
3569.52
3585.62
3602.76
3621.03
3640.53
3661.35
3683.57
3707.19
3732.25
3758.72
3786.4
3814.91
3387.13
3396.11
3405.27
3414.56
3423.99
3433.6
3443.44
3453.55
3463.97
3474.76
3485.96
3497.65
3509.87
3522.71
3536.24
3550.54
3565.7
3581.81
3598.98
3617.31
3636.92
3657.94
3680.49
3704.64
3730.47
3758.03
3787.26
3817.94
3849.63
3382.73
3391.76
3400.99
3410.32
3419.8
3429.47
3439.34
3449.48
3459.92
3470.72
3481.92
3493.59
3505.8
3518.6
3532.08
3546.33
3561.43
3577.49
3594.61
3612.92
3632.54
3653.61
3676.3
3700.74
3727.08
3755.42
3785.79
3818.17
3852.32
3887.71
3378.25
3387.33
3396.6
3405.98
3415.5
3425.19
3435.1
3445.25
3455.69
3466.48
3477.67
3489.31
3501.47
3514.21
3527.62
3541.78
3556.78
3572.73
3589.74
3607.94
3627.47
3648.47
3671.13
3695.64
3722.2
3751.01
3782.16
3815.74
3851.76
3889.96
3929.74
3373.71
3382.82
3392.13
3401.54
3411.09
3420.8
3430.72
3440.87
3451.31
3462.08
3473.24
3484.83
3496.92
3509.58
3522.89
3536.92
3551.79
3567.58
3584.42
3602.44
3621.79
3642.62
3665.13
3689.52
3716.04
3744.98
3776.55
3810.88
3848.14
3888.4
3931.41
3976.43
3369.12
3378.26
3387.59
3397.02
3406.59
3416.31
3426.23
3436.37
3446.8
3457.53
3468.64
3480.17
3492.18
3504.74
3517.92
3531.81
3546.51
3562.1
3578.72
3596.5
3615.59
3636.16
3658.4
3682.53
3708.81
3737.58
3769.16
3803.82
3841.78
3883.32
3928.55
3977.38
4028.71
3364.5
3373.65
3382.99
3392.44
3402.01
3411.73
3421.64
3431.77
3442.16
3452.85
3463.9
3475.35
3487.27
3499.71
3512.76
3526.48
3540.98
3556.35
3572.71
3590.2
3608.97
3629.18
3651.06
3674.8
3700.68
3729.05
3760.31
3794.82
3832.97
3875.13
3921.66
3972.73
4028.95
4071.75
4073.17
3359.84
3368.99
3378.34
3387.79
3397.36
3407.07
3416.96
3427.07
3437.42
3448.06
3459.04
3470.41
3482.22
3494.53
3507.42
3520.96
3535.24
3550.37
3566.44
3583.6
3602
3621.8
3643.21
3666.46
3691.82
3719.62
3750.29
3784.25
3822.05
3864.2
3911.2
3963.62
4011.97
4007.31
4072.77
4038.02
4070.32
4103.15
4104.41
3355.16
3364.31
3373.66
3383.1
3392.65
3402.35
3412.22
3422.29
3432.59
3443.18
3454.08
3465.35
3477.05
3489.22
3501.94
3515.29
3529.34
3544.19
3559.96
3576.77
3594.75
3614.09
3634.97
3657.64
3682.36
3709.46
3739.36
3772.49
3809.46
3850.95
3897.66
3950.35
4001.61
3994.58
4032.91
4103.58
4066.01
4100.61
4136.79
4137.83
3350.46
3359.6
3368.94
3378.37
3387.91
3397.58
3407.41
3417.44
3427.69
3438.21
3449.03
3460.2
3471.77
3483.8
3496.35
3509.49
3523.3
3537.87
3553.31
3569.74
3587.29
3606.13
3626.45
3648.46
3672.44
3698.73
3727.71
3759.82
3795.66
3835.96
3881.61
3933.59
3986.71
3977.6
4026.3
4018.43
4059.98
4136.53
4095.6
4132.91
4172.88
4173.65
3345.76
3354.89
3364.21
3373.61
3383.12
3392.77
3402.56
3412.54
3422.74
3433.18
3443.91
3454.98
3466.42
3478.29
3490.66
3503.59
3517.15
3531.43
3546.54
3562.57
3579.67
3597.99
3617.71
3639.04
3662.23
3687.59
3715.54
3746.5
3780.98
3819.76
3863.74
3914.08
3967.83
3956.98
4009.44
3999.34
4052.38
4043.44
4088.62
4171.81
4127.04
4167.43
4211.69
4212.17
3341.07
3350.17
3359.46
3368.84
3378.32
3387.92
3397.67
3407.6
3417.73
3428.1
3438.74
3449.69
3461
3472.72
3484.9
3497.61
3510.92
3524.91
3539.67
3555.31
3571.95
3589.73
3608.84
3629.45
3651.81
3676.21
3703.03
3732.72
3765.74
3802.75
3844.7
3892.71
3945.74
3933.68
3988.3
3976.4
4033.27
4021.96
4079.89
4069.73
4118.98
4209.71
4160.56
4204.41
4253.58
4253.77
3336.38
3345.45
3354.71
3364.06
3373.5
3383.06
3392.76
3402.63
3412.69
3422.97
3433.51
3444.35
3455.53
3467.09
3479.09
3491.58
3504.64
3518.33
3532.75
3547.99
3564.16
3581.41
3599.88
3619.77
3641.29
3664.71
3690.38
3718.7
3750.14
3785.31
3824.99
3870.3
3921.52
3908.85
3963.88
3950.75
4009.62
3996.43
4058.24
4045.54
4109
4097.42
4151.29
4250.54
4196.38
4244.15
4298.99
4298.78
3331.7
3340.74
3349.97
3359.27
3368.67
3378.18
3387.83
3397.63
3407.62
3417.82
3428.26
3438.99
3450.03
3461.43
3473.24
3485.52
3498.32
3511.72
3525.79
3540.63
3556.35
3573.06
3590.91
3610.07
3630.75
3653.18
3677.69
3704.64
3734.45
3767.68
3805.05
3847.48
3896.28
3883.38
3937.31
3923.62
3982.57
3968.15
4031.75
4017.1
4084.42
4070.14
4139.86
4126.62
4185.71
4294.65
4234.72
4286.96
4348.26
4347.62
3327.05
3336.04
3345.23
3354.49
3363.85
3373.3
3382.89
3392.63
3402.54
3412.65
3422.99
3433.59
3444.5
3455.74
3467.37
3479.43
3491.98
3505.09
3518.83
3533.28
3548.54
3564.72
3581.96
3600.4
3620.24
3641.7
3665.06
3690.66
3718.86
3750.15
3785.15
3824.7
3870.76
3857.97
3909.86
3896.03
3953.4
3938.49
4001.77
3985.9
4054.73
4038.43
4111.88
4095.81
4172.59
4157.43
4222.39
4342.47
4275.89
4333.25
4402
4400.91
3322.42
3331.37
3340.51
3349.73
3359.03
3368.43
3377.95
3387.61
3397.44
3407.46
3417.7
3428.18
3438.95
3450.04
3461.48
3473.33
3485.64
3498.47
3511.88
3525.95
3540.77
3556.43
3573.07
3590.81
3609.83
3630.33
3652.57
3676.84
3703.49
3732.91
3765.61
3802.27
3845.5
3832.92
3882.34
3868.73
3923.53
3908.6
3969.73
3953.47
4021.45
4003.96
4078.55
4060.39
4140.7
4122.58
4207.3
4189.96
4261.58
4394.6
4320.23
4383.51
4460.88
4459.27
3317.82
3326.72
3335.82
3344.98
3354.22
3363.56
3373.02
3382.61
3392.35
3402.27
3412.4
3422.77
3433.4
3444.32
3455.59
3467.23
3479.3
3491.85
3504.94
3518.65
3533.04
3548.21
3564.26
3581.34
3599.57
3619.14
3640.28
3663.27
3688.41
3716.06
3746.62
3780.58
3820.78
3808.84
3855.32
3842.03
3893.84
3879.28
3937.21
3921.07
3986.23
3968.47
4041.58
4022.29
4103.22
4082.98
4170.95
4150.49
4244.21
4224.36
4303.6
4451.56
4368.15
4438.26
4525.63
4523.35
3313.25
3322.11
3331.15
3340.26
3349.44
3358.72
3368.1
3377.61
3387.27
3397.09
3407.11
3417.35
3427.85
3438.62
3449.71
3461.15
3472.99
3485.27
3498.05
3511.4
3525.38
3540.07
3555.57
3571.99
3589.47
3608.15
3628.24
3649.99
3673.69
3699.64
3728.21
3759.78
3794.73
3829.08
3816.53
3864.94
3850.82
3905.17
3889.57
3950.81
3933.35
4002.83
3983.44
4062.11
4040.82
4128.76
4106.15
4202.73
4179.57
4283.57
4260.83
4348.79
4514
4420.11
4498.16
4597.18
4594.07
3308.72
3317.52
3326.51
3335.56
3344.68
3353.89
3363.21
3372.64
3382.21
3391.93
3401.85
3411.97
3422.32
3432.94
3443.85
3455.09
3466.71
3478.73
3491.21
3504.21
3517.8
3532.03
3547
3562.8
3579.56
3597.41
3616.49
3637.05
3659.36
3683.7
3710.4
3739.8
3772.14
3810.92
3798.34
3837.07
3823.79
3874.26
3859.26
3916.24
3899.52
3964.24
3945.37
4019.45
3998.27
4082.97
4059.46
4155.13
4129.85
4236.11
4209.84
4325.72
4299.58
4397.53
4582.8
4476.65
4563.94
4676.68
4672.51
3304.22
3312.97
3321.91
3330.9
3339.96
3349.1
3358.34
3367.69
3377.17
3386.8
3396.61
3406.61
3416.83
3427.3
3438.04
3449.09
3460.48
3472.26
3484.45
3497.12
3510.33
3524.12
3538.59
3553.81
3569.88
3586.93
3605.07
3624.5
3645.48
3668.27
3693.21
3720.65
3750.62
3786.42
3774.55
3817.23
3804.18
3844.7
3830.71
3883.19
3867.26
3926.96
3909.04
3977.41
3957.02
4035.99
4012.87
4104.09
4078.12
4182.31
4154.02
4271.21
4241.32
4370.88
4340.71
4450.17
4658.91
4538.43
4636.49
4765.53
4760.01
3299.75
3308.46
3317.34
3326.27
3335.27
3344.35
3353.51
3362.78
3372.17
3381.7
3391.39
3401.27
3411.36
3421.68
3432.26
3443.13
3454.31
3465.85
3477.78
3490.14
3502.98
3516.37
3530.36
3545.03
3560.46
3576.76
3594.03
3612.42
3632.13
3653.45
3676.72
3702.32
3730.07
3763.08
3751.68
3791.53
3778.95
3823
3809.1
3851.91
3837.2
3891.61
3874.74
3937.24
3918.08
3990.23
3968.25
4052.37
4027.2
4125.38
4096.75
4210.28
4178.64
4308.06
4274
4419.19
4384.29
4507.28
4743.51
4606.3
4716.8
4865.49
4858.21
3295.33
3303.99
3312.82
3321.69
3330.62
3339.63
3348.71
3357.9
3367.2
3376.63
3386.22
3395.97
3405.93
3416.1
3426.52
3437.21
3448.19
3459.51
3471.18
3483.24
3495.75
3508.75
3522.3
3536.45
3551.3
3566.91
3583.37
3600.81
3619.37
3639.33
3661.04
3684.76
3710.24
3736.43
3766.67
3754.63
3795.45
3782.02
3827.41
3812.38
3858.52
3842.8
3899.46
3881.33
3947
3926.32
4002.67
3978.84
4068.58
4041.14
4146.87
4115.35
4239.04
4203.79
4346.78
4308.05
4471.1
4430.71
4569.57
4837.96
4681.13
4805.87
4978.75
4969.13
3291.02
3299.57
3308.33
3317.15
3326.02
3334.95
3343.96
3353.06
3362.27
3371.6
3381.07
3390.71
3400.53
3410.57
3420.83
3431.34
3442.13
3453.22
3464.65
3476.44
3488.64
3501.27
3514.4
3528.08
3542.37
3557.35
3573.09
3589.67
3607.21
3625.97
3646.23
3668.03
3691.33
3715.11
3744.13
3732.53
3768.92
3756.3
3797.72
3783.38
3829.73
3813.51
3863.66
3846.46
3905.89
3885.77
3955.48
3932.3
4014.11
3987.27
4084.25
4053.38
4168.54
4133.15
4268.8
4229.27
4387.79
4343.9
4527.14
4480.4
4637.87
4944.18
4763.77
4904.95
5108.13
5095.14
3295.25
3303.89
3312.65
3321.46
3330.32
3339.25
3348.27
3357.38
3366.61
3375.98
3385.49
3395.18
3405.07
3415.17
3425.52
3436.12
3447.01
3458.21
3469.74
3481.63
3493.93
3506.67
3519.91
3533.69
3548.08
3563.14
3578.96
3595.63
3613.35
3632.27
3652.48
3673.88
3695.52
3716.05
3743.81
3732.02
3769.52
3756.33
3797.8
3782.58
3829.28
3811.84
3866.29
3847.45
3909.41
3887.01
3960.8
3934.59
4022.53
3991.82
4097.54
4061.88
4189.14
4148.07
4299.32
4253.61
4431.51
4381.3
4588.03
4533.78
4712.81
5064.91
4855.09
4974.99
5001.65
5258.01
5210.41
5196.23
3299.57
3308.2
3316.94
3325.73
3334.59
3343.52
3352.55
3361.67
3370.93
3380.32
3389.88
3399.62
3409.58
3419.75
3430.18
3440.86
3451.84
3463.13
3474.75
3486.73
3499.11
3511.93
3525.23
3539.07
3553.52
3568.65
3584.59
3601.41
3619.21
3638.2
3658.14
3678.18
3697.22
3719.77
3710.14
3742.06
3730.48
3768.09
3754.59
3795.2
3779.46
3825.42
3807.2
3865.5
3844.91
3908.84
3883.92
3961.57
3931.77
4026.27
3990.96
4106.64
4065.15
4206.59
4158.65
4328.99
4275.22
4477.57
4419.07
4655.35
4561.61
4593.95
4789.7
4758.47
5061.16
5177.65
5153.68
4946.19
4913.44
4832.51
5032.54
5386.47
5383.34
5287.96
5272.73
3303.86
3312.47
3321.2
3329.98
3338.83
3347.76
3356.79
3365.93
3375.2
3384.63
3394.23
3404.03
3414.04
3424.29
3434.79
3445.56
3456.61
3467.97
3479.66
3491.7
3504.14
3517
3530.33
3544.21
3558.73
3574.02
3590.1
3607.07
3625.13
3644.04
3663.08
3681.05
3701.3
3693.39
3718.17
3709.08
3739.4
3728.28
3764.87
3751.57
3790.31
3774.71
3818.71
3800.48
3860.46
3838.68
3903.07
3876.33
3956.55
3923.69
4024.01
3984.35
4110.22
4062.54
4220.01
4164.03
4365.48
4334.76
4304.67
4273.45
4530.42
4496.38
4380.42
4428.94
4463.77
4625.39
4727.27
4691.98
4591.55
4799.95
5125.66
5251.58
5225.13
5000.53
4965.59
4879.14
5093.8
5479.09
5475.57
5372.4
5355.05
3308.12
3316.71
3325.42
3334.19
3343.03
3351.96
3360.99
3370.14
3379.44
3388.9
3398.54
3408.39
3418.47
3428.78
3439.35
3450.18
3461.3
3472.72
3484.45
3496.53
3508.99
3521.85
3535.2
3549.16
3563.89
3579.39
3595.78
3613.18
3631.4
3649.75
3667.09
3682.68
3700.82
3693.44
3716.53
3708.16
3736.2
3725.84
3760.51
3747.71
3783.89
3768.92
3810.2
3792.5
3851.98
3829.99
3893.25
3865.81
3947
3912.35
4016.96
3974.2
4108.97
4056.51
4242.9
4211.57
4181.05
4150.46
4347.54
4314.4
4281.1
4556.46
4520.36
4394.47
4446.59
4483.93
4657.09
4765.81
4729.34
4620.97
4844.22
5194.19
5331.17
5301.52
5058.69
4929.39
5021.64
5159.19
5580.08
5463.4
5575.99
5443.68
3312.34
3320.92
3329.61
3338.36
3347.19
3356.11
3365.14
3374.31
3383.62
3393.11
3402.8
3412.7
3422.84
3433.21
3443.84
3454.73
3465.9
3477.35
3489.1
3501.18
3513.62
3526.49
3539.95
3554.17
3569.24
3585.25
3602.21
3619.96
3637.79
3654.74
3670.11
3687.15
3681.12
3700.56
3693.64
3715.37
3707.71
3733.23
3723.83
3755.57
3743.75
3776.85
3763.13
3801.07
3784.76
3841.36
3819.84
3881.03
3853.64
3934.72
3899.11
4007.43
3962.14
4121.03
4092.01
4064.43
4037.62
4248.03
4215.02
4182.54
4150.63
4359.21
4323.6
4288.14
4583.2
4544.23
4408.89
4464.1
4504.54
4691.53
4807.62
4768.44
4652.1
4892.38
5267.23
5416.78
5383.59
5121.6
4983.82
5083.06
5229.42
5690.47
5562.09
5685.58
5539.51
3316.54
3325.09
3333.75
3342.49
3351.3
3360.21
3369.24
3378.41
3387.75
3397.28
3407.01
3416.96
3427.15
3437.58
3448.26
3459.2
3470.39
3481.85
3493.59
3505.65
3518.08
3531.09
3544.88
3559.6
3575.37
3592.05
3609.45
3626.87
3643.49
3658.57
3672.94
3688.06
3682.26
3700.71
3694.21
3714.9
3707.85
3731.1
3722.61
3751.12
3740.53
3770.7
3758.57
3793.16
3778.72
3830.12
3810.13
3868.2
3842.23
3921.77
3886.85
4012.22
3987.97
3951.09
4119.64
4089.69
4061.12
4033.79
4252.99
4218.17
4183.95
4150.62
4370.87
4332.79
4295.11
4611
4568.71
4423.39
4481.93
4525.62
4727.38
4852.68
4810.08
4684.45
4943.86
5345.69
5509.08
5472.04
5190.39
5042.79
5150.42
5305.74
5811.57
5669.4
5805.7
5643.28
3320.69
3329.21
3337.85
3346.56
3355.35
3364.25
3373.28
3382.47
3391.83
3401.38
3411.16
3421.16
3431.4
3441.88
3452.6
3463.56
3474.76
3486.2
3497.91
3509.96
3522.58
3536
3550.46
3566.05
3582.56
3599.67
3616.72
3632.96
3647.81
3661.85
3677.66
3672.16
3689.1
3683.32
3701.29
3695.08
3715.15
3708.48
3730.04
3722.29
3747.96
3738.53
3766.4
3755.71
3787.64
3774.94
3820.62
3802.68
3857.62
3833.68
3911.39
3877.99
4007.81
3983.45
3935.02
3956.39
4118.45
4087.6
4058.28
4030.43
4257.91
4221.26
4185.5
4150.89
4382.66
4342.11
4302.17
4639.82
4594.01
4438.22
4500.31
4547.37
4765.13
4900.8
4854.23
4718.28
4999.13
5430.89
5608.6
5567.48
5265.81
5106.59
5223.17
5389.73
5944.96
5786.6
5937.83
5756.18
3324.81
3333.28
3341.89
3350.57
3359.35
3368.23
3377.26
3386.46
3395.84
3405.44
3415.26
3425.31
3435.6
3446.12
3456.86
3467.83
3479
3490.41
3502.13
3514.4
3527.5
3541.76
3557.21
3573.59
3590.44
3607.14
3622.96
3637.54
3651.27
3664.56
3678.72
3673.23
3690.1
3684.34
3702.14
3696.03
3715.74
3709.21
3729.9
3722.6
3746.27
3737.74
3764.04
3754.41
3784.46
3772.94
3814.1
3797.97
3850.52
3828.27
3915.38
3897.44
3866.61
3881.17
4004.08
3979.45
3931.89
3953.17
4117.66
4085.97
4056.02
4027.71
4262.97
4224.62
4187.42
4151.6
4394.76
4351.67
4309.52
4669.82
4620.21
4453.5
4519.34
4569.87
4804.9
4951.97
4900.94
4753.78
5058.58
5524.43
5716.54
5672.12
5348.41
5175.57
5302.43
5483.03
6092.73
5915.26
6084.08
5879.72
3328.88
3337.3
3345.88
3354.53
3363.28
3372.15
3381.18
3390.38
3399.8
3409.43
3419.3
3429.4
3439.73
3450.28
3461.03
3471.98
3483.12
3494.56
3506.52
3519.36
3533.45
3548.78
3565.04
3581.65
3598
3613.37
3627.63
3641.07
3654.11
3668.9
3663.71
3679.67
3674.23
3690.96
3685.24
3702.93
3696.86
3716.23
3709.77
3730.08
3722.98
3745.68
3737.62
3762.86
3753.75
3782.37
3771.49
3810.06
3795.01
3845.63
3824.42
3912.4
3894.65
3864.14
3878.56
4001.05
3976.23
3929.31
3950.58
4117.37
4084.9
4054.35
4025.62
4268.43
4228.42
4189.8
4152.8
4407.23
4361.68
4317.37
4701.19
4647.5
4469.39
4539.24
4593.29
4846.93
5006.63
4950.79
4791.19
5122.73
5628.97
5834.99
5789.55
5439.1
5250.41
5389.16
5586.91
6257.43
6057.33
6247.19
6015.89
3332.89
3341.27
3349.8
3358.41
3367.13
3375.99
3385.02
3394.24
3403.68
3413.36
3423.28
3433.43
3443.8
3454.36
3465.1
3476.02
3487.23
3498.94
3511.57
3525.49
3540.71
3556.82
3573.2
3589.21
3604.13
3618.03
3631.2
3643.99
3656.45
3669.86
3664.68
3680.52
3675.14
3691.68
3686.03
3703.53
3697.51
3716.48
3710.08
3730.11
3723.13
3745.34
3737.48
3761.8
3752.93
3780.31
3769.77
3807.02
3792.5
3848.84
3837.11
3826.59
3817.13
3909.89
3892.24
3861.87
3876.24
3998.67
3973.68
3927.02
3948.36
4117.58
4084.33
4053.19
4024.02
4274.35
4232.65
4192.57
4154.34
4420.3
4372.21
4325.61
4734.11
4676.04
4486.03
4560.13
4617.81
4891.7
5065.33
5004.05
4830.73
5192.07
5748.2
5967.76
5924.29
5539.83
5331.87
5484.94
5704.55
6441.85
6215.47
6429.67
6168.18
3336.83
3345.16
3353.65
3362.22
3370.9
3379.75
3388.78
3398.02
3407.51
3417.24
3427.21
3437.41
3447.8
3458.37
3469.1
3480.12
3491.62
3504.07
3517.85
3532.94
3548.89
3565.03
3580.68
3595.19
3608.71
3621.61
3634.17
3646.48
3660.56
3655.64
3670.74
3665.61
3681.27
3675.96
3692.27
3686.7
3703.93
3698
3716.45
3710.16
3729.83
3723
3744.71
3737.04
3760.31
3751.66
3777.7
3767.45
3808.64
3800.96
3789.55
3846.79
3835.12
3824.63
3815.27
3907.59
3889.97
3859.7
3874.03
3996.77
3971.59
3924.85
3946.34
4118.13
4084.09
4052.34
4022.73
4280.58
4237.11
4195.53
4156.06
4433.91
4383.11
4334.11
4768.69
4705.98
4503.45
4581.87
4643.48
4939.31
5128.43
5060.87
4872.59
5267.36
5884.57
6120.91
6082.73
5653.25
5421.35
5591.83
5838.93
6649.5
6392.46
6634.86
6342.95
3340.72
3348.98
3357.41
3365.93
3374.58
3383.41
3392.45
3401.73
3411.27
3421.06
3431.09
3441.33
3451.74
3462.34
3473.2
3484.56
3496.86
3510.5
3525.44
3541.2
3557.09
3572.39
3586.5
3599.66
3612.29
3624.63
3636.78
3648.7
3661.5
3656.57
3671.54
3666.48
3681.91
3676.68
3692.72
3687.26
3704.14
3698.34
3716.17
3710.04
3729.22
3722.56
3743.67
3736.22
3758.27
3749.91
3774.35
3764.48
3806.82
3799.12
3783.91
3790.15
3844.6
3832.96
3822.53
3813.21
3905.33
3887.7
3857.48
3871.78
3995.15
3969.74
3922.73
3944.4
4118.85
4084.04
4051.69
4021.63
4286.95
4241.65
4198.53
4157.81
4448
4394.26
4342.67
4805.17
4737.45
4521.32
4604.05
4670.2
4989.95
5196.8
5122.04
4917.1
5349.6
6043.8
6302.88
6271.83
5782
5520.26
5712.07
5994.45
6884.41
6592.56
6865.12
6549.7
3344.52
3352.72
3361.08
3369.54
3378.16
3386.98
3396.04
3405.37
3414.97
3424.83
3434.92
3445.22
3455.71
3466.45
3477.71
3489.9
3503.4
3518.17
3533.72
3549.34
3564.28
3578.02
3590.86
3603.21
3615.35
3627.34
3639.16
3650.77
3662.37
3657.51
3672.26
3667.28
3682.46
3677.32
3693.05
3687.69
3704.18
3698.53
3715.64
3709.74
3728.26
3721.81
3742.21
3735.03
3755.64
3747.66
3781.91
3774.03
3768.83
3764.02
3759.57
3804.77
3797.11
3788.09
3842.16
3830.55
3820.2
3810.93
3903.07
3885.35
3855.07
3869.4
3993.71
3968.02
3920.57
3942.46
4119.63
4084.08
4051.17
4020.66
4293.25
4246.06
4201.43
4159.54
4462.25
4405.4
4351.1
4843.77
4770.44
4539.18
4626.33
4697.72
5044.3
5271.12
5188.12
4964.58
5439.73
6233.26
6524.99
6502.31
5929.74
5630.5
5848.91
6177.56
7158.93
6823.52
7132.27
6802.7
3348.24
3356.35
3364.63
3373.04
3381.63
3390.45
3399.55
3408.94
3418.63
3428.58
3438.78
3449.19
3459.86
3471.06
3483.17
3496.53
3511.11
3526.42
3541.74
3556.33
3569.74
3582.27
3594.37
3606.3
3618.14
3629.84
3641.37
3654.51
3658.37
3649.91
3663.17
3672.91
3668.01
3682.9
3677.87
3693.25
3688.02
3704.07
3698.59
3714.9
3709.25
3726.97
3720.79
3740.31
3733.45
3752.43
3744.92
3779.67
3771.69
3766.62
3761.93
3757.59
3802.52
3794.92
3785.78
3839.42
3827.84
3817.57
3808.36
3900.71
3882.82
3852.38
3866.78
3992.37
3966.35
3918.17
3940.32
4120.47
4084.21
4050.73
4019.76
4299.35
4250.33
4204.29
4161.31
4476.32
4416.32
4359.29
4884.29
4804.32
4556.8
4648.23
4725.32
5102.37
5352.06
5259.33
5014.57
5539.3
6461.98
6801.67
6786.85
6101.29
5754.38
6005.56
6395.24
7614.04
7113.01
7544.37
7136.78
3351.85
3359.86
3368.06
3376.41
3384.98
3393.82
3402.99
3412.48
3422.29
3432.4
3442.76
3453.41
3464.58
3476.62
3489.86
3504.24
3519.27
3534.28
3548.53
3561.63
3573.88
3585.74
3597.47
3609.15
3620.74
3632.19
3643.41
3659.18
3655.36
3650.78
3663.91
3673.49
3668.68
3683.27
3678.35
3693.33
3688.26
3703.8
3698.51
3713.97
3708.6
3725.4
3719.56
3737.99
3731.52
3751.56
3747.9
3741.7
3777.2
3769.12
3764.19
3759.66
3755.48
3800.02
3792.51
3783.21
3836.27
3824.75
3814.56
3805.42
3898.04
3879.91
3849.24
3863.72
3991.04
3964.57
3915.14
3937.65
4121.37
4084.37
4050.21
4018.66
4305.27
4254.49
4207.07
4162.95
4490.11
4426.92
4367.13
4926.03
4838.31
4573.91
4669.27
4752.41
5163.72
5440.5
5336
5066.42
5649.46
6739.67
7159.73
7143.43
6301.53
5893.85
6184.87
6654.88
8502.78
7569.65
8403.9
7622.96
3355.33
3363.25
3371.35
3379.65
3388.21
3397.1
3406.37
3416.03
3426.06
3436.39
3447.06
3458.23
3470.24
3483.35
3497.52
3512.26
3526.94
3540.86
3553.67
3565.67
3577.31
3588.84
3600.35
3611.82
3623.18
3634.4
3645.42
3659.97
3656.21
3651.7
3664.61
3674
3669.29
3683.55
3678.75
3693.32
3688.4
3703.4
3698.31
3712.89
3707.82
3723.57
3718.13
3735.28
3729.27
3749.47
3745.91
3740.57
3737.51
3774.48
3766.32
3761.58
3757.24
3753.23
3797.19
3789.83
3780.35
3832.5
3821.12
3811.06
3802.06
3894.72
3876.35
3845.42
3859.99
3989.41
3962.38
3911
3933.9
4122.01
4084.1
4049.06
4016.73
4310.83
4258.2
4209.19
4163.66
4503.35
4436.8
4374.01
4968.57
4872.15
4589.94
4688.66
4778.56
5228.57
5536.68
5417.78
5119.98
5771.14
7077.14
7635.79
7590.35
6536.42
6050.36
6390.5
6963.02
9475.94
8331.57
9388.99
8296.1
3358.68
3366.47
3374.48
3382.73
3391.32
3400.32
3409.8
3419.75
3430.08
3440.78
3451.99
3463.98
3476.99
3490.94
3505.38
3519.72
3533.3
3545.85
3557.62
3569.05
3580.4
3591.74
3603.07
3614.34
3625.51
3636.52
3649.11
3652.59
3644.76
3660.74
3657.05
3665.3
3674.47
3669.87
3683.76
3679.1
3693.21
3688.46
3702.87
3698.01
3711.67
3706.93
3721.53
3716.52
3732.22
3726.74
3747.23
3743.82
3738.56
3735.62
3771.51
3763.32
3758.79
3754.65
3750.83
3794.01
3786.82
3777.23
3828.03
3816.88
3807.03
3798.27
3890.32
3871.81
3840.81
3855.38
3986.84
3959.18
3905.29
3928.48
4121.45
4082.36
4046.24
4012.98
4315.12
4260.22
4209.17
4161.82
4515.07
4444.56
4378.16
5011.15
4904.59
4603.52
4704.38
4802.07
5295.35
5640.06
5502.41
5172.89
5903.2
7483.53
8239.94
8130.78
6807.94
6223.04
6621.18
7320.72
10325
9218.04
10268.5
9083.09
3361.87
3369.51
3377.43
3385.66
3394.35
3403.6
3413.44
3423.79
3434.55
3445.82
3457.84
3470.76
3484.49
3498.63
3512.62
3525.88
3538.15
3549.72
3560.96
3572.13
3583.31
3594.49
3605.65
3616.74
3627.73
3638.58
3653.5
3650.05
3645.68
3661.52
3657.89
3665.99
3674.95
3670.47
3683.96
3679.45
3693.04
3688.49
3702.25
3697.63
3710.36
3705.95
3719.34
3714.81
3731.04
3728.51
3724.02
3744.86
3741.63
3736.47
3733.7
3768.32
3760.15
3755.85
3751.92
3748.27
3790.48
3783.51
3773.83
3822.89
3812.04
3802.49
3794.05
3884.5
3866.04
3835.38
3849.75
3982.4
3954.21
3897.71
3920.89
4118.01
4077.56
4040.31
4006.2
4316.08
4258.4
4204.89
4155.4
4523.38
4447.96
4377.2
5051.78
4928.61
4612.46
4714.82
4815.77
5362.66
5749.12
5585.59
5221.83
6044.3
7957.15
8940.12
8748.71
7112.97
6408.98
6871.43
7723.87
11072.5
10102.2
11071.1
9921.48
3364.86
3372.34
3380.17
3388.47
3397.43
3407.14
3417.49
3428.34
3439.71
3451.77
3464.62
3478.16
3492.01
3505.64
3518.57
3530.59
3541.95
3553.02
3564.02
3575.03
3586.07
3597.09
3608.09
3619.03
3629.88
3640.67
3654.4
3651
3646.67
3662.29
3658.74
3666.68
3675.44
3671.07
3684.16
3679.81
3692.86
3688.51
3701.57
3697.21
3709
3704.96
3717.07
3713.02
3729.24
3726.83
3722.98
3720.87
3742.37
3739.35
3734.3
3731.73
3764.92
3756.81
3752.74
3749.02
3745.58
3786.58
3779.89
3770.19
3817.03
3806.6
3797.47
3789.44
3877.1
3858.93
3829.06
3842.99
3975.13
3946.72
3887.87
3910.55
4109.82
4068.04
4029.86
3995.22
4311.56
4250.92
4194.86
4143.18
4522.4
4441.38
4368.42
5089.34
4970.86
4623.11
4708.44
4804.02
5426.93
5863.73
5683.82
5286.7
6185.81
8491.57
9707.69
9432.84
7445.15
6608.38
7139.12
8170.73
12137.5
10999.4
12101.2
10821.1
3367.61
3374.92
3382.74
3391.31
3400.82
3411.16
3422.11
3433.61
3445.74
3458.57
3471.93
3485.49
3498.78
3511.38
3523.16
3534.33
3545.23
3556.06
3566.92
3577.8
3588.69
3599.57
3610.43
3621.25
3632.03
3642.78
3647.66
3655.31
3651.97
3663.08
3659.61
3667.39
3675.95
3671.68
3684.4
3680.19
3692.71
3688.57
3700.89
3696.82
3707.67
3704
3716.27
3719.46
3714.48
3711.25
3727.4
3725.16
3721.46
3739.79
3736.98
3732.08
3729.7
3761.3
3753.27
3749.47
3745.99
3742.78
3782.34
3775.95
3766.26
3810.44
3800.57
3791.97
3784.42
3867.85
3850.33
3821.82
3835.05
3964.05
3935.94
3874.88
3896.62
4095.87
4052.86
4014.01
3979.24
4301.09
4238.79
4181.07
4127.76
4542.5
4422.54
4352.67
5095.27
4946.62
4624.24
4699.84
4795.16
5444.7
5993.59
5658.24
5262.79
6246.31
9102.69
10546.3
10178.4
7803.33
6586.98
7126.91
8657.98
13536.5
12033.9
13452.4
11833.8
3370.06
3377.22
3385.27
3394.48
3404.76
3415.82
3427.48
3439.73
3452.56
3465.78
3479.07
3492.03
3504.32
3515.85
3526.84
3537.58
3548.26
3558.96
3569.68
3580.43
3591.18
3601.94
3612.69
3623.43
3634.16
3646.58
3648.7
3649.74
3642.32
3656.25
3652.97
3663.88
3660.5
3668.12
3676.5
3672.33
3684.68
3680.61
3692.61
3688.68
3700.27
3696.48
3706.44
3703.16
3718.1
3715.06
3713.37
3709.59
3725.54
3723.48
3719.94
3737.13
3734.54
3729.81
3727.65
3757.45
3749.54
3746.05
3742.84
3739.88
3777.74
3771.71
3762.05
3802.94
3793.85
3785.93
3778.94
3855.94
3839.63
3813.4
3825.54
3948.39
3921.1
3857.85
3878.47
4079.17
4035.23
3995.77
3960.47
4287.64
4226.42
4168.9
4115.28
4524.24
4414.59
4344.79
5086.37
4936.95
4616.26
4691.71
4786.79
5435.55
5973.04
5647.89
5252.61
6237.65
9753.05
11487.2
11001.7
7801.19
6576.25
7116.26
8670.76
14525.1
13274.8
14609.4
13007
3372.12
3379.37
3388.1
3398.24
3409.4
3421.26
3433.69
3446.57
3459.69
3472.75
3485.39
3497.38
3508.68
3519.49
3530.07
3540.61
3551.15
3561.72
3572.32
3582.93
3593.57
3604.22
3614.88
3625.57
3636.3
3650.83
3647.67
3654.01
3643.37
3657.22
3664.72
3661.43
3668.89
3677.09
3673.02
3685.02
3681.1
3692.6
3688.86
3699.76
3696.23
3705.37
3702.47
3716.74
3713.9
3712.37
3707.78
3711.34
3709.1
3723.66
3721.79
3718.42
3734.4
3732.05
3727.51
3725.57
3753.36
3745.62
3742.49
3739.6
3736.91
3772.74
3767.12
3757.55
3794.04
3786.12
3779.13
3772.89
3840.42
3825.91
3803.14
3813.58
3929.02
3901.97
3837.9
3858.85
4066.33
4021.93
3981.73
3945.39
4279.91
4218.83
4161.48
4107.97
4515.45
4407.1
4337.43
5077.59
4928.07
4608.51
4684.49
4779.36
5426.23
5962.05
5637.79
5243.09
6227.66
10426.8
9534.55
12614.3
11941.6
7790.85
6564.83
7104.19
8659.63
15769.9
14631.4
16156.2
14360.6
3373.78
3381.69
3391.55
3402.79
3414.89
3427.55
3440.56
3453.64
3466.51
3478.86
3490.56
3501.63
3512.27
3522.71
3533.1
3543.49
3553.91
3564.35
3574.82
3585.32
3595.85
3606.41
3617.02
3627.7
3638.52
3655.08
3651.95
3648.81
3658.23
3644.48
3665.6
3662.42
3669.72
3677.76
3673.78
3685.46
3681.66
3692.7
3689.14
3699.38
3696.12
3704.53
3707.09
3701.98
3715.42
3712.76
3710.4
3708.33
3721.78
3720.1
3716.92
3731.63
3729.53
3725.22
3723.49
3749.03
3741.5
3738.79
3736.25
3733.87
3767.29
3762.18
3752.73
3782.85
3776.78
3771.15
3766.01
3820.97
3808.5
3789.94
3798.22
3905.93
3882.01
3821.58
3844.38
4059.14
4014.84
3974.77
3903.57
3938.65
4272.7
4211.75
4154.53
4101.15
4507.44
4400.47
4330.94
5069.67
4920.32
4601.59
5417.64
5951.23
5628.68
5234.72
6217.85
10465.6
9521.23
13846.4
12015.1
7778.32
6554.03
7092.4
8645.64
18211
16306.1
18482.3
16024.8
3375.32
3384.61
3395.86
3408.26
3421.26
3434.48
3447.6
3460.32
3472.43
3483.86
3494.72
3505.2
3515.49
3525.74
3535.98
3546.25
3556.54
3566.86
3577.21
3587.6
3598.03
3608.53
3619.11
3629.83
3640.78
3645.62
3659.29
3656.2
3653.1
3649.97
3666.55
3663.46
3670.62
3678.52
3674.62
3686.01
3682.33
3692.96
3689.56
3699.19
3696.17
3704.61
3705.99
3703.57
3706.52
3701.76
3714.13
3711.67
3709.52
3707.63
3719.92
3718.42
3715.47
3728.84
3726.99
3722.93
3721.42
3744.41
3737.15
3734.94
3732.81
3730.78
3761.21
3756.79
3747.52
3768.4
3764.8
3761.25
3757.84
3801.23
3789.08
3773.21
3779.26
3868.97
3796.15
3815.16
3837.75
4052.42
4008.22
3968.25
3896.85
3932.28
4266.34
4205.51
4148.43
4095.12
4500.54
5941.46
10453.4
9505.13
15176
13575.6
12001.2
7765.7
8631.3
20957
18526.6
21466.1
18015.2
3377.38
3388.49
3401.23
3414.68
3428.26
3441.53
3454.19
3466.1
3477.28
3487.94
3498.26
3508.42
3518.53
3528.63
3538.74
3548.87