/*--------------------------------*- C++ -*----------------------------------*\
  =========                 |
  \\      /  F ield         | OpenFOAM: The Open Source CFD Toolbox
   \\    /   O peration     | Website:  https://openfoam.org
    \\  /    A nd           | Version:  dev
     \\/     M anipulation  |
\*---------------------------------------------------------------------------*/
FoamFile
{
    version     2.0;
    format      ascii;
    class       volScalarField;
    location    "2500";
    object      H2O;
}
// * * * * * * * * * * * * * * * * * * * * * * * * * * * * * * * * * * * * * //

dimensions      [0 0 0 0 0 0 0];

internalField   nonuniform List<scalar> 
9456
(
1.50717e-35
5.09927e-35
2.08827e-35
9.54034e-35
1.12709e-34
2.33156e-35
1.34409e-34
2.41648e-34
1.13489e-34
6.41182e-36
9.27692e-35
4.16996e-34
2.74649e-34
6.55244e-35
2.31365e-36
1.75098e-34
6.02834e-34
6.33919e-34
2.93633e-34
2.75788e-35
2.83373e-36
1.62993e-34
9.72082e-34
1.15273e-33
6.18904e-34
1.5698e-34
1.89501e-35
9.51034e-37
2.88031e-34
1.52798e-33
1.74179e-33
1.30621e-33
5.68576e-34
7.12942e-35
1.0857e-35
9.20231e-37
2.51329e-34
1.89002e-33
2.63804e-33
1.94161e-33
1.21944e-33
2.86546e-34
3.86225e-35
1.00756e-35
7.28749e-37
2.28025e-34
2.50493e-33
4.24416e-33
3.83382e-33
2.09002e-33
1.01811e-33
1.78046e-34
4.13923e-35
5.33476e-36
7.30851e-37
6.2926e-34
2.58945e-33
4.98786e-33
6.03581e-33
3.35963e-33
1.76471e-33
6.07793e-34
1.51485e-34
2.68474e-35
4.48499e-36
2.51965e-37
1.13945e-33
2.59282e-33
7.55192e-33
9.32212e-33
6.27519e-33
3.41189e-33
1.20368e-33
4.42451e-34
1.19373e-34
2.4106e-35
5.77799e-36
3.49001e-37
1.20502e-33
5.37454e-33
1.07789e-32
1.18523e-32
1.14056e-32
5.27646e-33
3.09442e-33
9.76023e-34
3.55351e-34
8.28244e-35
2.40976e-35
4.00547e-36
1.75517e-37
1.13845e-33
6.89916e-33
1.46529e-32
1.95911e-32
1.73264e-32
9.6324e-33
5.09436e-33
2.45563e-33
6.61473e-34
2.9435e-34
8.05489e-35
1.23236e-35
3.99846e-36
6.09679e-37
1.29623e-33
4.85494e-33
1.92636e-32
2.64132e-32
2.56072e-32
1.94228e-32
7.44332e-33
4.04195e-33
2.05631e-33
5.78105e-34
2.42409e-34
4.70935e-35
1.63792e-35
5.4505e-36
3.49833e-37
9.75817e-34
5.36921e-33
1.88497e-32
3.24037e-32
4.1526e-32
3.04536e-32
1.46066e-32
6.44784e-33
3.48983e-33
1.64208e-33
4.77483e-34
2.06683e-34
5.58538e-35
2.59389e-35
5.94971e-36
3.66158e-36
8.12965e-34
4.0542e-33
2.336e-32
4.93781e-32
6.15191e-32
4.76683e-32
3.11509e-32
1.46052e-32
5.85684e-33
3.3845e-33
1.09879e-33
6.68728e-34
1.85286e-34
7.34432e-35
4.65841e-35
3.24499e-35
2.78972e-35
1.05389e-33
4.90794e-33
1.8749e-32
5.41763e-32
8.30491e-32
7.3574e-32
4.81544e-32
2.6224e-32
1.22675e-32
5.98173e-33
2.44438e-33
1.47755e-33
8.07274e-34
3.92185e-34
3.03356e-34
2.64896e-34
4.32927e-34
5.81988e-34
1.51689e-33
5.52432e-33
1.6145e-32
5.52082e-32
1.08999e-31
1.06976e-31
7.64334e-32
4.38283e-32
2.41247e-32
1.23522e-32
7.16719e-33
2.73676e-33
1.48977e-33
1.28727e-33
1.21769e-33
2.32995e-33
3.85319e-33
6.45528e-33
5.94932e-33
1.67335e-33
7.80032e-33
2.55912e-32
5.57224e-32
1.38929e-31
1.5199e-31
1.1322e-31
7.08226e-32
3.86739e-32
1.93346e-32
1.24382e-32
8.09623e-33
4.37042e-33
4.22728e-33
3.63097e-33
1.21346e-32
3.09822e-32
5.4789e-32
1.06396e-31
8.57832e-32
7.38232e-33
2.27081e-32
4.61504e-32
6.18389e-32
1.63667e-31
2.00214e-31
1.69365e-31
9.84429e-32
6.35765e-32
3.69784e-32
2.08609e-32
1.40329e-32
1.06625e-32
1.44856e-32
2.60323e-32
4.6908e-32
1.53831e-31
4.00676e-31
1.01165e-30
2.09171e-30
1.71985e-30
2.00279e-32
3.9732e-32
7.51097e-32
9.65829e-32
2.25173e-31
2.77811e-31
2.20009e-31
1.70259e-31
9.50143e-32
5.72912e-32
3.25582e-32
2.3942e-32
2.64125e-32
4.31921e-32
1.22108e-31
2.54442e-31
9.75997e-31
3.38836e-30
5.79788e-30
1.60292e-29
2.24275e-29
1.68009e-29
1.93448e-31
1.71365e-31
1.85521e-31
1.43271e-31
2.43377e-31
3.95329e-31
3.677e-31
2.30427e-31
1.54727e-31
9.57121e-32
6.27439e-32
3.95124e-32
6.12175e-32
1.58677e-31
4.04794e-31
1.8455e-30
4.57625e-30
1.61982e-29
5.19389e-29
9.66274e-29
2.01209e-28
2.16149e-28
2.18024e-28
5.74319e-31
8.62957e-31
7.98288e-31
3.14927e-31
2.97319e-31
5.4556e-31
5.33859e-31
3.6139e-31
2.01214e-31
1.523e-31
1.13551e-31
1.04076e-31
1.50701e-31
5.70639e-31
2.40934e-30
8.70541e-30
2.66999e-29
7.98613e-29
2.73349e-28
6.73994e-28
1.11789e-27
2.77347e-27
3.3581e-27
1.29938e-27
3.79203e-30
5.20247e-30
2.99476e-30
1.40094e-30
5.59933e-31
7.98586e-31
7.11314e-31
5.88349e-31
3.28307e-31
2.1906e-31
1.75808e-31
2.06368e-31
4.15374e-31
1.64924e-30
9.78194e-30
4.18362e-29
1.48208e-28
3.5431e-28
1.5054e-27
5.13388e-27
1.24803e-26
1.81325e-26
3.29537e-26
3.71792e-26
1.77628e-26
1.57921e-29
1.97262e-29
1.23458e-29
4.51857e-30
2.00908e-30
1.26518e-30
1.10191e-30
8.74757e-31
5.83859e-31
3.4214e-31
2.6653e-31
4.5189e-31
1.33145e-30
4.86385e-30
2.19433e-29
1.66423e-28
7.94073e-28
2.24224e-27
6.71516e-27
2.40446e-26
8.25528e-26
1.62022e-25
3.80796e-25
3.58186e-25
2.96189e-25
1.46938e-25
5.81811e-29
8.71847e-29
4.14117e-29
2.0184e-29
7.78153e-30
2.71477e-30
1.65368e-30
1.33144e-30
9.21208e-31
5.57687e-31
6.51357e-31
1.103e-30
4.9291e-30
1.81645e-29
8.88927e-29
4.46128e-28
3.16715e-27
1.34266e-26
3.17993e-26
1.08926e-25
3.64044e-25
1.23119e-24
1.75722e-24
5.55926e-24
4.5558e-24
3.72419e-24
3.2211e-24
1.03431e-28
3.17506e-28
1.92348e-28
9.54478e-29
2.9685e-29
7.88469e-30
3.89228e-30
1.87288e-30
1.46394e-30
1.08115e-30
1.22478e-30
4.35974e-30
1.47602e-29
7.72567e-29
3.22182e-28
1.73357e-27
9.43899e-27
5.47356e-26
2.28908e-25
7.18961e-25
1.78288e-24
4.80852e-24
1.88154e-23
3.11074e-23
7.34534e-23
5.50814e-23
4.92553e-23
1.73483e-23
5.22946e-28
1.07642e-27
6.89684e-28
3.07427e-28
1.1382e-28
3.31991e-29
9.64883e-30
3.65395e-30
2.37969e-30
1.96719e-30
3.08344e-30
1.14757e-29
5.85256e-29
2.3333e-28
1.35882e-27
6.11146e-27
3.51862e-26
1.98925e-25
7.90467e-25
4.25343e-24
1.24085e-23
3.53995e-23
9.52231e-23
2.60444e-22
4.13456e-22
9.22145e-22
5.99299e-22
2.16674e-22
1.49072e-22
1.86965e-27
3.19086e-27
2.14176e-27
9.89447e-28
3.86832e-28
1.09293e-28
3.15102e-29
9.61914e-30
6.07922e-30
6.04805e-30
1.17455e-29
3.98083e-29
1.34497e-28
1.03454e-27
4.37705e-27
2.30154e-26
1.25222e-25
6.73062e-25
3.61554e-24
1.4947e-23
7.7075e-23
2.74673e-22
6.31594e-22
1.14363e-21
3.69301e-21
7.96358e-21
8.11088e-21
3.95679e-21
1.77689e-21
1.0909e-21
3.93352e-27
7.92011e-27
7.84926e-27
3.65429e-27
1.60035e-27
4.46882e-28
1.09391e-28
3.59571e-29
1.96234e-29
1.58548e-29
3.77634e-29
1.40008e-28
4.93634e-28
2.58839e-27
2.05965e-26
8.17419e-26
3.97759e-25
1.77475e-24
1.10405e-23
5.83691e-23
2.41317e-22
1.17947e-21
3.97436e-21
7.86693e-21
1.2996e-20
4.57893e-20
8.09109e-20
6.39567e-20
3.3411e-20
1.7528e-20
3.22692e-21
1.47984e-26
3.19007e-26
2.44734e-26
1.21843e-26
6.55665e-27
1.82965e-27
4.57453e-28
1.07864e-28
5.62927e-29
6.12336e-29
1.19075e-28
4.48061e-28
1.6292e-27
8.45699e-27
5.55594e-26
3.56045e-25
1.42664e-24
7.84485e-24
3.85875e-23
1.89553e-22
9.74778e-22
3.33998e-21
1.84056e-20
5.09057e-20
1.16537e-19
2.07414e-19
4.1189e-19
6.2413e-19
4.42452e-19
2.96783e-19
1.1701e-19
1.86759e-20
8.27422e-26
1.19728e-25
7.45274e-26
3.75572e-26
2.1451e-26
7.75886e-27
1.70543e-27
5.77886e-28
3.11764e-28
2.40876e-28
4.32237e-28
1.42207e-27
6.16277e-27
2.64726e-26
1.26952e-25
9.45205e-25
6.28224e-24
3.72245e-23
1.88714e-22
1.0069e-21
4.81377e-21
2.12118e-20
6.34384e-20
2.71484e-19
7.62839e-19
1.31436e-18
3.06694e-18
4.85248e-18
7.41704e-18
3.13539e-18
1.3829e-18
5.44977e-19
7.62556e-20
2.8723e-25
3.6589e-25
2.64179e-25
1.55051e-25
5.87915e-26
2.69369e-26
5.72961e-27
1.72363e-27
1.08161e-27
1.07152e-27
1.62851e-27
4.12154e-27
1.87393e-26
8.42574e-26
4.06485e-25
2.52374e-24
1.67435e-23
1.05232e-22
7.34269e-22
4.36671e-21
1.7392e-20
9.62035e-20
3.56461e-19
1.21629e-18
3.28477e-18
1.30807e-17
2.09708e-17
2.48363e-17
4.75798e-17
5.38214e-17
2.11204e-17
9.92691e-18
6.64665e-19
1.94586e-19
1.70563e-18
1.01448e-24
1.277e-24
8.02675e-25
4.78607e-25
2.21501e-25
8.74954e-26
2.6576e-26
6.90927e-27
4.55466e-27
3.43684e-27
4.96051e-27
1.60909e-26
5.50615e-26
2.56358e-25
1.31653e-24
8.09648e-24
4.25076e-23
3.38165e-22
2.00661e-21
1.46971e-20
8.68976e-20
4.30505e-19
1.73808e-18
5.97633e-18
1.83746e-17
6.79104e-17
1.36219e-16
1.63514e-16
2.42687e-16
3.86288e-16
4.08088e-16
1.32795e-16
1.58916e-17
6.51268e-17
9.37227e-18
6.39352e-17
4.29281e-17
6.51632e-19
5.61086e-18
7.90565e-24
6.93904e-24
3.59215e-24
1.45321e-24
7.09448e-25
2.7123e-25
1.14304e-25
3.28372e-26
2.0688e-26
1.52221e-26
2.08769e-26
5.00863e-26
1.69533e-25
7.36674e-25
3.95485e-24
1.93406e-23
1.47448e-22
1.00281e-21
6.03637e-21
4.33806e-20
2.94569e-19
1.69517e-18
8.46292e-18
3.07675e-17
9.99987e-17
3.05852e-16
7.55078e-16
1.36938e-15
2.26317e-15
3.18195e-15
3.64663e-15
1.98672e-15
2.24431e-16
1.14366e-15
2.80418e-16
4.90052e-17
2.99558e-16
2.21287e-16
2.52461e-18
2.1718e-17
5.38428e-23
3.65138e-23
1.38346e-23
5.83513e-24
2.29801e-24
8.11771e-25
3.4276e-25
1.73277e-25
8.55605e-26
6.42775e-26
6.95964e-26
1.31377e-25
5.19776e-25
2.01702e-24
1.12277e-23
6.43492e-23
3.41517e-22
2.59674e-21
2.08499e-20
1.07072e-19
8.94952e-19
6.08855e-18
3.33721e-17
1.49175e-16
5.94503e-16
1.47979e-15
3.98807e-15
1.03527e-14
1.86535e-14
2.96284e-14
3.98981e-14
2.72523e-14
4.85936e-15
2.21154e-14
1.17963e-15
5.63157e-15
1.14371e-15
1.9087e-16
1.05801e-15
8.79132e-16
1.37734e-17
1.02063e-16
4.96131e-22
2.61646e-22
8.62629e-23
2.67701e-23
7.07904e-24
2.96105e-24
7.95587e-25
5.56438e-25
3.67719e-25
2.97851e-25
3.00948e-25
4.87959e-25
1.77914e-24
5.3812e-24
2.53035e-23
1.81984e-22
1.09328e-21
5.32876e-21
5.59262e-20
4.31407e-19
2.2773e-18
1.91785e-17
1.2362e-16
6.06091e-16
2.32516e-15
8.93013e-15
2.73103e-14
7.05626e-14
1.48201e-13
2.58592e-13
3.72561e-13
3.79016e-13
9.28033e-14
3.9989e-13
2.85637e-14
1.38454e-13
6.83824e-15
3.70578e-14
6.68464e-15
7.75607e-16
6.14275e-15
4.64171e-15
3.94247e-17
3.13094e-16
3.72055e-21
1.96036e-21
6.25705e-22
1.3032e-22
3.68292e-23
1.03108e-23
3.11936e-24
1.53196e-24
1.47862e-24
8.85181e-25
1.07909e-24
1.74783e-24
5.03003e-24
2.18001e-23
7.74544e-23
4.87387e-22
2.99048e-21
1.88261e-20
1.21143e-19
1.17845e-18
9.62392e-18
6.08029e-17
4.15149e-16
2.38352e-15
1.22426e-14
5.49944e-14
1.904e-13
4.81107e-13
1.13991e-12
2.05167e-12
3.25649e-12
4.25749e-12
1.51107e-12
5.6704e-12
6.15831e-13
2.54077e-12
1.89605e-13
9.04503e-13
4.13519e-14
2.33032e-13
4.05035e-14
3.00746e-15
3.46623e-14
2.46833e-14
9.94244e-17
1.48143e-15
2.54329e-20
1.311e-20
4.30238e-21
1.083e-21
1.50689e-22
4.72106e-23
1.44676e-23
5.23981e-24
4.86199e-24
4.41543e-24
2.94439e-24
6.09128e-24
1.45029e-23
5.35219e-23
2.78722e-22
1.46849e-21
8.07016e-21
5.6922e-20
3.07276e-19
2.46547e-18
2.82424e-17
2.13176e-16
1.29023e-15
9.95623e-15
6.18046e-14
3.13877e-13
1.25973e-12
3.66613e-12
7.47814e-12
1.67288e-11
2.46621e-11
3.78699e-11
1.89347e-11
6.14322e-11
9.70258e-12
3.47206e-11
3.95885e-12
1.60604e-11
1.20354e-12
5.68857e-12
2.53265e-13
1.43938e-12
2.39297e-13
1.43304e-14
1.92538e-13
1.26999e-13
3.73996e-16
6.10533e-15
1.54837e-19
9.69345e-20
3.11804e-20
9.01529e-21
1.02971e-21
1.99477e-22
6.54769e-23
3.2165e-23
1.25315e-23
1.6122e-23
1.40636e-23
1.6421e-23
5.10264e-23
1.49851e-22
7.6633e-22
3.14008e-21
2.22518e-20
1.41243e-19
1.08361e-18
7.20468e-18
6.53255e-17
7.19804e-16
4.91812e-15
3.96082e-14
2.85114e-13
1.58463e-12
7.36268e-12
2.58189e-11
6.31367e-11
9.81454e-11
1.81092e-10
2.75664e-10
1.81322e-10
5.24029e-10
1.16074e-10
3.6003e-10
6.01114e-11
2.10457e-10
2.45456e-11
9.78303e-11
7.41414e-12
3.47239e-11
1.50803e-12
8.65484e-12
1.36827e-12
6.64785e-14
1.0347e-12
6.28731e-13
1.19434e-15
2.55569e-14
8.67362e-19
5.78571e-19
2.0307e-19
6.44208e-20
8.94941e-21
1.10568e-21
3.07018e-22
1.21568e-22
6.49845e-23
4.02712e-23
5.51679e-23
7.19404e-23
1.63726e-22
4.91377e-22
2.05713e-21
1.00211e-20
4.96217e-20
3.29672e-19
2.52595e-18
2.40745e-17
2.18563e-16
1.78738e-15
1.81248e-14
1.54955e-13
1.21538e-12
7.21788e-12
3.7613e-11
1.54758e-10
4.73194e-10
9.74178e-10
9.95398e-10
1.73782e-09
1.39129e-09
3.68214e-09
1.05736e-09
2.92732e-09
6.8759e-10
2.08228e-09
3.58683e-10
1.2278e-09
1.47753e-10
5.78476e-10
4.46438e-11
2.07788e-10
8.7594e-12
5.10123e-11
7.63427e-12
3.09508e-13
5.45168e-12
3.24217e-12
4.98397e-15
1.16946e-13
4.54735e-18
3.04691e-18
1.29655e-18
4.62508e-19
8.24827e-20
9.00271e-21
1.6263e-21
4.34601e-22
2.85403e-22
2.17656e-22
1.64602e-22
2.07941e-22
4.58882e-22
1.6901e-21
4.41244e-21
2.52498e-20
1.31147e-19
8.27895e-19
6.03687e-18
5.57155e-17
5.01357e-16
5.43436e-15
5.9976e-14
5.8151e-13
4.84261e-12
2.97313e-11
1.71042e-10
7.97372e-10
2.89689e-09
7.78104e-09
1.36009e-08
6.29827e-09
9.25924e-09
2.57607e-08
7.7087e-09
1.96407e-08
5.96641e-09
1.61254e-08
3.91837e-09
1.15887e-08
2.07755e-09
6.96283e-09
8.73754e-10
3.36729e-09
2.64884e-10
1.23157e-09
5.03353e-11
3.00501e-10
4.28422e-11
1.56302e-12
3.06629e-11
1.79223e-11
2.18547e-14
5.66778e-13
1.80479e-17
1.92079e-17
7.47483e-18
2.80236e-18
4.8164e-19
8.26817e-20
9.78972e-21
1.79235e-21
8.88701e-22
7.9491e-22
6.42916e-22
8.47097e-22
1.43768e-21
4.79626e-21
1.71403e-20
5.78943e-20
3.31767e-19
1.77676e-18
1.36747e-17
1.38186e-16
1.29626e-15
1.54927e-14
1.8711e-13
2.04256e-12
1.81455e-11
1.13357e-10
6.94074e-10
3.6111e-09
1.50928e-08
4.84428e-08
1.15304e-07
1.77656e-07
8.35064e-08
2.5492e-08
4.9278e-08
1.26663e-07
4.1542e-08
1.03762e-07
3.24245e-08
8.56095e-08
2.1715e-08
6.27925e-08
1.18579e-08
3.90748e-08
5.14983e-09
1.96659e-08
1.58453e-09
7.42684e-09
2.9857e-10
1.84997e-09
2.58761e-10
8.2496e-12
1.82813e-10
1.0264e-10
1.01407e-13
2.83175e-12
6.89251e-17
8.62975e-17
4.27037e-17
1.57518e-17
3.33699e-18
8.41016e-19
8.52226e-20
1.10561e-20
2.81061e-21
2.72766e-21
2.90195e-21
3.31657e-21
4.708e-21
1.28695e-20
5.6219e-20
2.40287e-19
7.83168e-19
4.04737e-18
3.3148e-17
2.93896e-16
3.4144e-15
4.01046e-14
5.26824e-13
6.50876e-12
6.18534e-11
3.99783e-10
2.57628e-09
1.43817e-08
6.81783e-08
2.56857e-07
7.31044e-07
1.57969e-06
2.36138e-06
3.40751e-07
1.28988e-06
2.56316e-07
6.44172e-07
2.16509e-07
5.35551e-07
1.72063e-07
4.48819e-07
1.19717e-07
3.41476e-07
6.84701e-08
2.23398e-07
3.11152e-08
1.18317e-07
9.95642e-09
4.69276e-08
1.89392e-09
1.19838e-08
1.6385e-09
4.45913e-11
1.11952e-09
5.9425e-10
4.75933e-13
1.41453e-11
1.73675e-16
3.01798e-16
1.93041e-16
6.21534e-17
2.74222e-17
5.4542e-18
9.01475e-19
1.21487e-19
2.14445e-20
8.32447e-21
9.12129e-21
1.2358e-20
1.90825e-20
4.74205e-20
1.65105e-19
5.69466e-19
2.62883e-18
1.08189e-17
8.13311e-17
6.86635e-16
6.90644e-15
9.94738e-14
1.39327e-12
1.82019e-11
2.01396e-10
1.34978e-09
8.58578e-09
5.13918e-08
2.6504e-07
1.15787e-06
4.02207e-06
1.03874e-05
2.07578e-05
1.042e-05
2.9302e-05
1.59943e-06
4.01232e-06
1.322e-06
3.35356e-06
1.13075e-06
2.81212e-06
9.29516e-07
2.43784e-06
6.79029e-07
1.92224e-06
4.08918e-07
1.31675e-06
1.9511e-07
7.30076e-07
6.49445e-08
3.03211e-07
1.24775e-08
7.94973e-08
1.05555e-08
2.39531e-10
6.8868e-09
3.38147e-09
2.19964e-12
6.87149e-11
5.42286e-16
8.73601e-16
6.90358e-16
3.51615e-16
1.30586e-16
3.17286e-17
4.59488e-18
8.4538e-19
1.02193e-19
3.81653e-20
2.84503e-20
3.44403e-20
5.59488e-20
1.702e-19
4.7555e-19
2.07423e-18
7.93458e-18
3.57423e-17
1.62771e-16
1.35114e-15
1.57186e-14
2.32646e-13
3.53207e-12
4.94153e-11
5.54206e-10
4.07227e-09
2.53555e-08
1.62428e-07
9.03241e-07
4.39826e-06
1.75427e-05
5.37435e-05
0.000118025
8.08976e-05
0.000221244
6.21373e-05
0.000161552
8.6147e-06
2.28513e-05
7.11204e-06
1.88662e-05
6.20733e-06
1.57959e-05
5.26564e-06
1.38708e-05
3.97364e-06
1.11325e-05
2.47751e-06
7.82091e-06
1.23362e-06
4.49503e-06
4.29272e-07
1.96107e-06
8.31031e-08
5.30275e-07
6.79102e-08
1.23966e-09
4.1586e-08
1.84669e-08
9.58823e-12
3.11276e-10
1.26326e-15
2.57813e-15
2.15019e-15
1.20687e-15
5.6712e-16
1.21852e-16
3.06779e-17
4.95881e-18
8.84353e-19
1.7294e-19
1.21046e-19
9.63775e-20
1.7921e-19
4.3641e-19
1.50254e-18
4.89082e-18
1.96408e-17
8.53173e-17
4.24438e-16
2.82805e-15
3.30118e-14
5.37456e-13
8.38027e-12
1.28125e-10
1.5502e-09
1.22904e-08
7.01656e-08
4.56869e-07
2.71627e-06
1.41164e-05
6.02462e-05
0.000184953
0.000421065
0.000466087
0.000689644
0.000365272
0.000720963
0.000311637
0.000625789
5.02592e-05
0.000132298
4.16393e-05
0.000110584
3.59899e-05
9.19297e-05
3.07051e-05
7.97728e-05
2.33003e-05
6.41971e-05
1.49306e-05
4.55734e-05
7.7526e-06
2.71972e-05
2.81837e-06
1.25121e-05
5.49229e-07
3.48165e-06
4.2597e-07
5.96944e-09
2.40944e-07
9.44248e-08
3.60609e-11
1.21372e-09
3.27091e-15
6.9811e-15
6.39916e-15
4.3537e-15
1.75044e-15
7.20713e-16
1.64829e-16
3.41817e-17
5.73102e-18
7.15666e-19
3.69093e-19
2.92497e-19
5.33393e-19
1.55552e-18
3.82625e-18
1.63817e-17
4.46583e-17
1.93654e-16
9.34807e-16
6.6549e-15
6.8752e-14
1.06996e-12
1.96861e-11
3.02782e-10
3.80616e-09
3.15951e-08
1.82266e-07
1.21189e-06
7.29624e-06
3.84112e-05
0.000159511
0.000470643
0.000959522
0.00163171
0.00100792
0.00157554
0.000986258
0.00140963
0.00095073
0.00138084
0.000263836
0.000568262
0.000230299
0.000515917
0.000201155
0.00045222
0.000171735
0.000398244
0.00013009
0.000329961
8.60871e-05
0.000242548
4.69691e-05
0.000150605
1.79381e-05
7.4302e-05
3.52129e-06
2.18966e-05
2.53133e-06
2.58694e-08
1.29387e-06
4.36943e-07
9.10845e-11
3.0352e-09
4.93064e-15
1.53637e-14
1.79259e-14
1.17174e-14
7.97876e-15
2.39252e-15
9.18223e-16
1.79281e-16
3.09425e-17
4.02463e-18
9.65504e-19
9.34411e-19
1.61795e-18
3.23581e-18
1.2914e-17
3.80229e-17
1.64644e-16
5.39911e-16
2.85859e-15
1.65703e-14
1.46593e-13
2.00229e-12
3.74561e-11
7.09847e-10
8.70559e-09
6.75512e-08
4.56563e-07
3.03224e-06
1.78554e-05
8.89294e-05
0.000329545
0.000844329
0.00159561
0.00246283
0.0026623
0.00310323
0.00182487
0.0022884
0.00182484
0.00231697
0.00187721
0.00238825
0.000927241
0.00139059
0.000898425
0.00141508
0.000849462
0.00140113
0.000761386
0.00136075
0.000603699
0.00123057
0.000424308
0.00100587
0.000247518
0.000674038
0.000102375
0.000366885
2.15292e-05
0.000122004
1.39867e-05
6.91051e-08
6.4051e-06
1.74739e-06
1.49847e-10
4.36631e-09
2.38572e-14
4.31956e-14
3.80479e-14
2.03356e-14
1.05846e-14
2.69188e-15
8.0719e-16
1.18975e-16
2.67335e-17
4.67878e-18
2.57997e-18
3.79893e-18
1.08282e-17
3.24395e-17
1.08775e-16
3.7744e-16
1.60856e-15
6.85375e-15
4.33693e-14
3.32405e-13
3.78732e-12
6.62193e-11
1.32427e-09
1.99848e-08
1.45558e-07
1.09334e-06
7.32751e-06
4.03612e-05
0.00017811
0.000546324
0.00120623
0.00212568
0.00302778
0.00365122
0.00358588
0.00382875
0.00278801
0.0032566
0.00289509
0.00341519
0.00308329
0.00362629
0.00196669
0.00252292
0.00204753
0.00268075
0.00208262
0.00279606
0.00204575
0.00287436
0.00186457
0.00283841
0.00153836
0.00265011
0.00101465
0.00220998
0.000477452
0.00138289
0.000117877
0.000552507
6.86611e-05
4.19369e-08
2.89018e-05
8.58282e-06
1.87641e-06
0
9.03257e-09
5.78499e-08
6.08166e-14
9.14844e-14
6.9648e-14
3.73384e-14
1.13197e-14
2.3849e-15
7.01513e-16
1.25622e-16
1.43187e-17
7.79796e-18
8.64397e-18
2.38437e-17
9.07202e-17
2.49731e-16
1.10103e-15
3.69239e-15
1.9338e-14
1.16878e-13
8.07662e-13
7.48079e-12
1.14444e-10
2.3471e-09
3.6738e-08
3.24113e-07
2.45138e-06
1.65846e-05
8.49328e-05
0.00030787
0.000784112
0.00157126
0.00252617
0.00317127
0.00358166
0.00391759
0.00374504
0.00402819
0.004
0.0037849
0.00398135
0.0039979
0.00419918
0.00428136
0.00446283
0.00332816
0.00391501
0.00356385
0.00423478
0.00374132
0.00453328
0.00383813
0.00478734
0.00375196
0.00494323
0.00351833
0.0048407
0.00295345
0.00451247
0.00169949
0.00369991
0.000527967
0.00199928
0.00108717
0.000115114
0.000330644
4.40115e-06
3.43841e-07
2.51455e-06
4.14435e-05
0.000191797
0.00024448
2.57994e-05
5.1001e-10
8.17887e-09
2.18989e-08
1.61617e-07
1.17105e-13
1.55158e-13
1.14934e-13
3.9783e-14
9.46599e-15
1.89867e-15
5.19432e-16
5.43087e-17
2.32855e-17
2.44394e-17
6.22631e-17
1.93932e-16
8.28702e-16
2.39886e-15
1.08687e-14
5.46772e-14
3.23341e-13
2.05734e-12
1.59049e-11
1.95289e-10
4.03986e-09
6.44474e-08
5.96927e-07
5.37639e-06
3.39589e-05
0.000155703
0.00046151
0.0010108
0.00185743
0.00269761
0.00312478
0.0033789
0.00348351
0.00321563
0.00359866
0.00318522
0.00410296
0.00391335
0.0042319
0.00419485
0.0044643
0.00441428
0.00474579
0.00467242
0.00462893
0.00478042
0.00499711
0.00515538
0.0053633
0.00557702
0.00571423
0.00602697
0.00598201
0.00648274
0.00593135
0.00685602
0.00443954
0.00533617
0.00600009
0.00670639
0.00300717
0.00431078
0.00557766
0.00629987
0.00525508
0.00187474
0.000899338
0.00214194
0.00324946
0.000798471
1.47866e-05
1.16641e-06
7.53821e-06
0.000127543
0.000499442
0.00067777
7.93047e-05
1.87477e-09
2.54629e-08
7.00765e-08
5.22048e-07
1.98542e-13
2.11923e-13
1.38716e-13
3.68764e-14
7.32412e-15
1.27671e-15
2.89132e-16
6.26471e-17
5.16687e-17
1.39101e-16
5.6507e-16
1.75959e-15
7.08876e-15
3.2535e-14
1.57149e-13
9.06824e-13
5.44568e-12
3.62895e-11
3.47868e-10
6.14739e-09
1.08367e-07
1.05194e-06
9.86275e-06
6.35579e-05
0.00025071
0.000630651
0.00123407
0.00207926
0.00270586
0.0030243
0.00301783
0.00223313
0.00278823
0.00220079
0.00278495
0.00229937
0.00371504
0.00327211
0.00429811
0.00407102
0.00451899
0.00422965
0.00477418
0.00439845
0.00509825
0.00498643
0.00551074
0.00537715
0.00598042
0.0058371
0.00649134
0.00634977
0.00705159
0.00690144
0.00712098
0.00741585
0.0074889
0.00742387
0.00645177
0.00711695
0.00753091
0.00454895
0.00569592
0.00704036
0.0074048
0.00666447
0.00352384
0.00203453
0.00353839
0.00485291
0.00185762
4.4288e-05
3.5596e-06
2.23577e-05
0.000344159
0.00153953
0.00116714
0.00021429
6.21749e-09
2.18634e-07
7.79602e-08
1.58183e-06
2.96162e-13
2.83695e-13
1.23916e-13
3.0116e-14
4.77591e-15
8.23511e-16
1.59069e-16
1.11613e-16
2.58849e-16
1.32649e-15
5.7256e-15
1.89181e-14
9.39397e-14
4.5215e-13
2.55468e-12
1.48283e-11
8.97265e-11
6.62015e-10
8.96249e-09
1.45607e-07
1.74176e-06
1.66812e-05
0.000102339
0.000360002
0.000806524
0.00144557
0.00221501
0.0026688
0.00285369
0.00260871
0.00160006
0.00114595
0.00089885
0.00184728
0.00145267
0.00180774
0.00137724
0.00281744
0.00229742
0.0038232
0.00333835
0.00391432
0.00336829
0.00402892
0.0033857
0.00510761
0.00462639
0.00553474
0.00495925
0.00603928
0.00543516
0.00660286
0.00599682
0.00731869
0.00714213
0.00688411
0.00649134
0.00769801
0.00770372
0.00761909
0.00747775
0.00758217
0.00785189
0.00792944
0.00604173
0.00702096
0.00790638
0.00817953
0.00774722
0.00499203
0.00347134
0.00505584
0.00627007
0.00325652
0.000120248
1.03897e-05
6.12253e-05
0.000824443
0.00289439
0.00236093
0.000517806
2.04327e-08
6.46036e-07
2.30351e-07
4.5254e-06
4.12162e-13
3.356e-13
1.08437e-13
2.03975e-14
2.63408e-15
4.8443e-16
2.32623e-16
4.93916e-16
2.42762e-15
1.31324e-14
5.33677e-14
2.56002e-13
1.29212e-12
7.12951e-12
4.05143e-11
2.325e-10
1.43986e-09
1.32769e-08
2.01428e-07
2.54209e-06
2.62218e-05
0.00015021
0.000470664
0.000969616
0.00163129
0.0022786
0.00260127
0.0026705
0.00218703
0.00109608
0.000386939
0.000500313
0.000308492
0.0010115
0.000716698
0.000919984
0.000597948
0.00176992
0.00131688
0.00281236
0.00227219
0.0027615
0.00219102
0.00272249
0.00208906
0.00422515
0.00345311
0.00457919
0.00365092
0.00508494
0.00406717
0.00611859
0.00565943
0.00458534
0.00722812
0.00686504
0.00645218
0.00599736
0.00788006
0.00776907
0.00756668
0.00722386
0.00811867
0.00812741
0.00803832
0.00729195
0.00802089
0.00833724
0.00853844
0.008422
0.00643361
0.00497735
0.00648362
0.00750731
0.00475132
0.000296266
2.88653e-05
0.000155028
0.00171319
0.00435968
0.00378771
0.00112934
6.48967e-08
1.80949e-06
6.35771e-07
1.23217e-05
5.24128e-13
3.22579e-13
7.74115e-14
1.10911e-14
1.36308e-15
4.81608e-16
8.88469e-16
5.28085e-15
3.16755e-14
1.57359e-13
6.88537e-13
3.69057e-12
1.93427e-11
1.09327e-10
6.06698e-10
3.43109e-09
2.33176e-08
2.75947e-07
3.7814e-06
3.75072e-05
0.000204112
0.00057897
0.00111477
0.00177448
0.00228851
0.00251785
0.00246178
0.00181579
0.000779551
0.000257023
6.2383e-05
4.51124e-05
0.000142254
7.76694e-05
0.000373857
0.000229286
0.000300502
0.000166602
0.000830214
0.000512667
0.00168953
0.00123219
0.00154796
0.0010922
0.00142036
0.00093131
0.00279263
0.00203682
0.00305535
0.00216728
0.00355318
0.0025874
0.00551622
0.00496628
0.00338663
0.0039204
0.00682075
0.00637254
0.00589755
0.00540411
0.0078909
0.00760106
0.00722149
0.00678781
0.00831068
0.00819021
0.00799386
0.00824519
0.00863537
0.00848207
0.00865704
0.00873257
0.00764487
0.00640191
0.00768711
0.00842022
0.00618308
0.000673379
7.35321e-05
0.000362143
0.00304284
0.00579222
0.00521202
0.0021927
1.64116e-07
4.70352e-06
1.55176e-06
3.10819e-05
5.78757e-13
2.50436e-13
4.39918e-14
5.49273e-15
1.06905e-15
1.42828e-15
9.55846e-15
7.10441e-14
4.60649e-13
1.79918e-12
9.84599e-12
5.09558e-11
2.88701e-10
1.58289e-09
8.46727e-09
4.89166e-08
4.2017e-07
5.52986e-06
5.39549e-05
0.000261667
0.000680198
0.00125005
0.00188644
0.00227168
0.0024225
0.00223872
0.00149778
0.000597296
0.000180799
2.11426e-05
9.35967e-06
3.91448e-06
2.59762e-05
1.35672e-05
8.90087e-05
4.71843e-05
6.26053e-05
3.04776e-05
0.000247269
0.000127791
0.000708641
0.000436105
0.000592849
0.00035983
0.000566208
0.000326672
0.00144251
0.000924824
0.00178593
0.00118678
0.00296626
0.00248783
0.00174923
0.00213731
0.0048954
0.00438529
0.002918
0.00337384
0.0063199
0.00583226
0.00533601
0.00483452
0.00764997
0.00724303
0.00679656
0.00632387
0.00834557
0.0081008
0.00772332
0.00882696
0.00892624
0.00850026
0.0086736
0.00884922
0.00854488
0.00762203
0.00860238
0.00899902
0.00742885
0.00138228
0.000177051
0.000811551
0.0044652
0.00707192
0.00654079
0.00358269
2.80249e-07
1.14229e-05
3.09334e-06
7.60976e-05
5.80456e-13
1.53761e-13
2.10879e-14
3.26083e-15
2.38441e-15
1.56385e-14
1.32973e-13
9.46569e-13
4.64967e-12
2.52322e-11
1.31885e-10
7.48926e-10
4.08752e-09
2.13752e-08
1.11976e-07
7.503e-07
8.39149e-06
7.582e-05
0.000323702
0.000772363
0.0013635
0.00194592
0.00223815
0.00231396
0.00201007
0.00122639
0.000474408
0.000133074
1.79715e-05
1.24279e-06
1.3877e-06
1.67017e-06
9.27488e-07
4.42395e-06
2.53686e-06
1.52605e-05
7.95328e-06
1.2184e-05
6.51712e-06
5.0036e-05
2.42683e-05
0.00020033
0.00010265
0.000178072
9.37728e-05
0.000239047
0.000126426
0.000746316
0.000435621
0.00119264
0.000781156
0.00250198
0.00211732
0.0014815
0.00178355
0.00433227
0.00384418
0.0026157
0.00302104
0.00583895
0.00534923
0.00486136
0.0043786
0.00730886
0.00686998
0.00641819
0.00596146
0.0082067
0.00784117
0.00745842
0.00912475
0.00905615
0.00838462
0.00862665
0.00888477
0.00914048
0.0085724
0.00923489
0.00932074
0.00843217
0.00260391
0.000414591
0.00163576
0.00585059
0.00814635
0.00771402
0.00501802
3.22469e-07
2.60585e-05
5.54123e-06
0.000181987
4.963e-13
8.11778e-14
1.08917e-14
5.09995e-15
2.30351e-14
2.27635e-13
1.77838e-12
1.24464e-11
6.26118e-11
3.44767e-10
1.9012e-09
1.03872e-08
5.37071e-08
2.70307e-07
1.55491e-06
1.39252e-05
0.000105893
0.000389045
0.000855517
0.00145414
0.0019743
0.00219551
0.00219998
0.00178795
0.00100251
0.000380518
0.000100071
1.36687e-05
7.9261e-07
3.56753e-07
1.85822e-07
6.78644e-07
4.27273e-07
1.43746e-06
9.74938e-07
3.68134e-06
2.22222e-06
5.01003e-06
3.18474e-06
1.39492e-05
8.13144e-06
4.86081e-05
2.54256e-05
6.74133e-05
3.78006e-05
0.000152336
8.18699e-05
0.000488062
0.000282364
0.00113548
0.000906399
0.000754847
0.00059072
0.00224445
0.00190808
0.00134906
0.00161011
0.00390593
0.00345217
0.00245563
0.00283084
0.00549673
0.005028
0.00456268
0.0041047
0.00706071
0.00664757
0.00621993
0.00577926
0.00805851
0.00771425
0.0073496
0.00927859
0.00912414
0.00832999
0.0086519
0.00889742
0.00950311
0.00926229
0.00965127
0.00950839
0.00919832
0.00408462
0.000934666
0.00302482
0.00713498
0.00901681
0.00871305
0.00642995
4.32146e-07
6.05398e-05
1.10103e-05
0.000434439
3.42534e-13
4.37223e-14
1.18846e-14
3.26748e-14
3.31615e-13
3.18899e-12
2.56999e-11
1.46508e-10
8.7749e-10
4.70203e-09
2.59803e-08
1.33067e-07
6.62548e-07
3.47038e-06
2.49655e-05
0.000149533
0.000457266
0.000930854
0.00152346
0.00197757
0.00214832
0.00207568
0.00158343
0.000825409
0.000305351
7.54904e-05
1.02211e-05
7.64999e-07
1.26622e-07
8.76035e-08
2.26167e-07
1.41259e-07
4.77289e-07
3.20899e-07
9.5639e-07
6.88182e-07
2.01802e-06
1.34512e-06
3.73016e-06
2.45986e-06
8.73905e-06
5.65749e-06
2.23642e-05
1.37797e-05
4.68987e-05
2.86009e-05
0.000133002
7.25575e-05
0.000482689
0.000366114
0.000245457
0.0010709
0.000880071
0.000721141
0.000581685
0.00211253
0.00180276
0.0012831
0.00152647
0.00365905
0.00323311
0.00237439
0.00273139
0.00532601
0.00486612
0.00440894
0.00396067
0.00696735
0.00656587
0.00614412
0.00570292
0.00801976
0.00770043
0.00737026
0.00938877
0.00921687
0.00841153
0.00889102
0.00904859
0.00973837
0.00974894
0.00994432
0.00967343
0.00977563
0.00560783
0.00190758
0.00467091
0.00829208
0.0097094
0.00955036
0.00777016
7.37659e-07
0.000147358
2.47998e-05
0.000992561
2.26396e-13
4.0916e-14
4.89642e-14
4.49526e-13
4.70748e-12
4.37893e-11
2.92792e-10
2.08728e-09
1.13912e-08
6.37167e-08
3.26516e-07
1.61687e-06
8.09665e-06
4.6327e-05
0.000207645
0.000528102
0.00100028
0.00157978
0.00196903
0.00209554
0.00194717
0.00140207
0.000690642
0.000246556
5.72988e-05
7.21875e-06
6.21277e-07
5.48369e-08
7.37825e-08
4.3844e-08
1.6374e-07
1.1133e-07
4.02799e-07
2.61839e-07
7.98366e-07
5.86084e-07
1.58213e-06
1.09544e-06
3.23585e-06
2.12973e-06
7.42454e-06
4.88073e-06
1.79685e-05
1.14745e-05
4.27835e-05
2.65848e-05
0.000130616
7.13387e-05
0.00046575
0.000364973
0.000202228
0.000282888
0.00105177
0.000870165
0.000713617
0.000578568
0.00204908
0.00175539
0.00125773
0.00149171
0.00352732
0.00311653
0.00233991
0.00268343
0.00524673
0.00478435
0.00432509
0.00387963
0.00701608
0.00662255
0.00618744
0.0057191
0.00816867
0.00790134
0.00758701
0.00957074
0.00949138
0.00873155
0.0093552
0.00943403
0.00995771
0.0101122
0.0102163
0.00993763
0.0102216
0.0071571
0.00345605
0.00635346
0.0093163
0.0102659
0.0102547
0.00902279
1.66279e-06
0.000361379
5.42282e-05
0.00202535
2.20744e-13
1.00302e-13
5.54607e-13
6.52597e-12
6.39577e-11
6.4222e-10
4.09422e-09
2.68284e-08
1.51505e-07
7.96125e-07
3.94433e-06
1.85362e-05
8.79177e-05
0.000276804
0.000602672
0.00106972
0.0016266
0.00195399
0.00203841
0.0018205
0.00124619
0.000587502
0.000202409
4.37652e-05
5.7434e-06
4.70377e-07
3.98743e-08
1.58743e-08
5.50495e-08
3.28621e-08
1.24689e-07
8.23846e-08
2.84315e-07
1.85192e-07
7.23182e-07
4.63256e-07
1.35827e-06
9.63115e-07
2.82838e-06
1.80437e-06
6.78586e-06
4.38911e-06
1.67326e-05