/*--------------------------------*- C++ -*----------------------------------*\
  =========                 |
  \\      /  F ield         | OpenFOAM: The Open Source CFD Toolbox
   \\    /   O peration     | Website:  https://openfoam.org
    \\  /    A nd           | Version:  dev
     \\/     M anipulation  |
\*---------------------------------------------------------------------------*/
FoamFile
{
    version     2.0;
    format      ascii;
    class       volScalarField;
    location    "2500";
    object      k;
}
// * * * * * * * * * * * * * * * * * * * * * * * * * * * * * * * * * * * * * //

dimensions      [0 2 -2 0 0 0 0];

internalField   nonuniform List<scalar> 
9456
(
0.000148629
0.000154775
0.00014262
0.000136813
0.000191509
0.00011986
0.000118029
0.000203302
0.000173985
0.000108208
0.000110217
0.000194279
0.000204605
0.000138761
0.000104819
0.000105286
0.000169964
0.000222744
0.000180405
0.00011887
0.000103086
0.000102714
0.000142
0.000222708
0.000212064
0.000143074
0.000110578
0.000101882
0.000101228
0.00012631
0.000212908
0.000228082
0.000177617
0.000121661
0.00010642
0.000101099
0.000100341
0.000115692
0.000188779
0.000238509
0.000209919
0.000141534
0.000111959
0.000103755
0.00010055
9.9539e-05
0.00010878
0.000159846
0.000236967
0.000231108
0.000169238
0.000121155
0.000106902
0.000101918
0.000100151
9.87715e-05
0.000104462
0.000138058
0.000227101
0.000242085
0.000201298
0.000136508
0.0001114
0.000103566
0.00010064
9.98654e-05
9.81891e-05
0.0001017
0.000124209
0.000205004
0.000250132
0.00022629
0.000159468
0.000118535
0.00010594
0.000101316
9.97128e-05
9.96421e-05
9.77855e-05
9.98899e-05
0.000114627
0.000177108
0.000249135
0.000243141
0.000187016
0.000130652
0.000109391
0.000102422
9.97823e-05
9.90644e-05
9.94842e-05
9.75107e-05
9.86784e-05
0.000108524
0.000150687
0.000241359
0.000251444
0.00021511
0.00014883
0.000115007
0.00010414
0.000100058
9.85409e-05
9.85555e-05
9.9362e-05
9.74373e-05
9.78222e-05
0.000104507
0.000134652
0.000223886
0.000258858
0.000235869
0.000171822
0.000124316
0.000106858
0.000100689
9.83076e-05
9.77124e-05
9.81629e-05
9.92659e-05
9.74904e-05
9.6932e-05
0.000101739
0.000123424
0.000198126
0.000259799
0.000250415
0.000197192
0.000138343
0.000111175
0.000101962
9.8411e-05
9.70448e-05
9.70636e-05
9.78682e-05
9.91952e-05
9.75337e-05
9.60271e-05
9.96721e-05
0.000115255
0.000172635
0.000255155
0.000258564
0.000221053
0.000157041
0.000118145
0.000104028
9.88063e-05
9.65929e-05
9.60807e-05
9.65549e-05
9.76434e-05
9.91396e-05
9.75446e-05
9.52808e-05
9.80834e-05
0.000109682
0.000150428
0.000242963
0.000265273
0.00024071
0.000178258
0.000128688
0.000107348
9.96891e-05
9.66154e-05
9.53382e-05
9.53521e-05
9.61722e-05
9.74719e-05
9.9097e-05
9.7525e-05
9.46548e-05
9.68315e-05
0.000105788
0.000136512
0.000223076
0.000268647
0.00025421
0.00020043
0.000143066
0.000112476
0.00010127
9.68433e-05
9.47961e-05
9.43415e-05
9.48103e-05
9.58759e-05
9.73439e-05
9.90662e-05
9.74857e-05
9.41293e-05
9.58239e-05
0.000102911
0.000126652
0.000199016
0.00026689
0.000263867
0.000221355
0.000160427
0.000120216
0.00010372
9.74157e-05
9.47154e-05
9.35468e-05
9.36041e-05
9.43931e-05
9.56539e-05
9.72441e-05
9.90429e-05
9.7441e-05
9.36951e-05
9.50364e-05
0.000100726
0.000119357
0.000176769
0.000259913
0.000267822
0.000240701
0.000179534
0.000130954
0.000107408
9.85822e-05
9.48462e-05
9.30183e-05
9.26039e-05
9.30472e-05
9.407e-05
9.54862e-05
9.71682e-05
9.90248e-05
9.73847e-05
9.33514e-05
9.44411e-05
9.91057e-05
0.000113946
0.000158118
0.000245415
0.000272533
0.000253673
0.000198464
0.000144652
0.000113056
0.000100329
9.52434e-05
9.28203e-05
9.18273e-05
9.18823e-05
9.26263e-05
9.38367e-05
9.53567e-05
9.7111e-05
9.90115e-05
9.73026e-05
9.30598e-05
9.39879e-05
9.79433e-05
0.000110058
0.000144036
0.000227052
0.000272526
0.000262671
0.000217488
0.000160117
0.00012098
0.000103185
9.60594e-05
9.28979e-05
9.133e-05
9.09398e-05
9.13467e-05
9.23116e-05
9.36548e-05
9.52545e-05
9.70686e-05
9.90025e-05
9.71983e-05
9.27982e-05
9.36264e-05
9.7117e-05
0.000107234
0.000134535
0.000206832
0.000269955
0.000268687
0.000233254
0.000176805
0.0001312
0.000107219
9.74939e-05
9.31712e-05
9.10068e-05
9.01907e-05
9.02548e-05
9.09362e-05
9.20683e-05
9.35051e-05
9.51806e-05
9.70392e-05
9.89988e-05
9.707e-05
9.25807e-05
9.33462e-05
9.65148e-05
0.000105151
0.000127562
0.000187296
0.000262833
0.000271898
0.000247339
0.000193198
0.000143507
0.000112878
9.94574e-05
9.37838e-05
9.10242e-05
8.96661e-05
8.93575e-05
8.97325e-05
9.06191e-05
9.18741e-05
9.33962e-05
9.51295e-05
9.70238e-05
9.89935e-05
9.69066e-05
9.24689e-05
9.3138e-05
9.61197e-05
0.000103623
0.000122183
0.000170591
0.000249814
0.000274649
0.000257586
0.000207728
0.00015722
0.000120454
0.000102326
9.47309e-05
9.11765e-05
8.92772e-05
8.86332e-05
8.87226e-05
8.93368e-05
9.03829e-05
9.17301e-05
9.33254e-05
9.50973e-05
9.70085e-05
9.89892e-05
9.67159e-05
9.24615e-05
9.30446e-05
9.58853e-05
0.000102595
0.000118266
0.00015687
0.000234261
0.000274211
0.000265181
0.000222233
0.000170908
0.000129685
0.000106453
9.62009e-05
9.15441e-05
8.9238e-05
8.81274e-05
8.79021e-05
8.82424e-05
8.9042e-05
9.02039e-05
9.16391e-05
9.32742e-05
9.50759e-05
9.70045e-05
9.89894e-05
9.65211e-05
9.2545e-05
9.30931e-05
9.57449e-05
0.000101931
0.000115127
0.000145846
0.000217473
0.000271979
0.000269774
0.000235132
0.000184416
0.000140366
0.000111705
9.83287e-05
9.229e-05
8.93326e-05
8.7762e-05
8.7245e-05
8.73359e-05
8.78754e-05
8.88242e-05
9.00815e-05
9.15703e-05
9.32477e-05
9.50708e-05
9.70109e-05
9.89925e-05
9.63476e-05
9.27267e-05
9.32459e-05
9.57567e-05
0.000101414
0.000112539
0.000137839
0.000200634
0.000266492
0.000271759
0.000247172
0.0001971
0.000151757
0.000118533
0.000101071
9.34206e-05
8.9607e-05
8.76769e-05
8.6771e-05
8.65961e-05
8.68848e-05
8.76032e-05
8.86706e-05
8.99915e-05
9.15381e-05
9.32462e-05
9.50826e-05
9.70268e-05
9.89995e-05
9.6217e-05
9.30008e-05
9.34798e-05
9.58589e-05
0.000101014
0.000110387
0.000131542
0.000184617
0.000256637
0.000274484
0.000256445
0.000208652
0.000163208
0.000126536
0.000104903
9.48848e-05
9.0202e-05
8.77458e-05
8.64266e-05
8.59776e-05
8.60506e-05
8.65459e-05
8.74091e-05
8.85606e-05
8.99497e-05
9.1545e-05
9.32688e-05
9.51107e-05
9.70556e-05
9.90131e-05
9.61362e-05
9.33892e-05
9.38014e-05
9.60147e-05
0.000100733
0.000108552
0.000126422
0.000170753
0.000243994
0.000274919
0.000263406
0.000220454
0.000174264
0.000135416
0.000109709
9.69542e-05
9.10305e-05
8.79594e-05
8.62929e-05
8.55151e-05
8.53452e-05
8.56402e-05
8.63076e-05
8.72778e-05
8.85082e-05
8.99696e-05
9.15774e-05
9.33212e-05
9.5162e-05
9.71e-05
9.90385e-05
9.61213e-05
9.3868e-05
9.4231e-05
9.62011e-05
0.000100506
0.000106999
0.000122229
0.000159234
0.000229844
0.000273924
0.000268405
0.000231563
0.00018483
0.000145051
0.000115504
9.96205e-05
9.21956e-05
8.83979e-05
8.63339e-05
8.51649e-05
8.47647e-05
8.48746e-05
8.5364e-05
8.61532e-05
8.72159e-05
8.85306e-05
9.00261e-05
9.16514e-05
9.34126e-05
9.52487e-05
9.71722e-05
9.90776e-05
9.62151e-05
9.44288e-05
9.47469e-05
9.64298e-05
0.000100277
0.000105844
0.000118975
0.000149926
0.000215376
0.000270954
0.000271458
0.000242504
0.000194962
0.000154595
0.000122462
0.000103005
9.36787e-05
8.9087e-05
8.64873e-05
8.50226e-05
8.43467e-05
8.42432e-05
8.45648e-05
8.51839e-05
8.60866e-05
8.72367e-05
8.86031e-05
9.01366e-05
9.17803e-05
9.35596e-05
9.53986e-05
9.72997e-05
9.91376e-05
9.6439e-05
9.50898e-05
9.53332e-05
9.67216e-05
0.00010008
0.00010503
0.000116471
0.000142473
0.000201288
0.000264663
0.000273865
0.000252539
0.000205033
0.00016398
0.000130001
0.00010733
9.55999e-05
8.99464e-05
8.68323e-05
8.50545e-05
8.40487e-05
8.37332e-05
8.38892e-05
8.43537e-05
8.50991e-05
8.61062e-05
8.7323e-05
8.87389e-05
9.03313e-05
9.19997e-05
9.37846e-05
9.56399e-05
9.7508e-05
9.96335e-05
9.88954e-05
9.67672e-05
9.58364e-05
9.59745e-05
9.71235e-05
0.000100014
0.000104495
0.00011454
0.000136541
0.000188053
0.000255537
0.000276607
0.000260131
0.000214897
0.000173262
0.00013806
0.000112293
9.81468e-05
9.10668e-05
8.73653e-05
8.51835e-05
8.39391e-05
8.3377e-05
8.33277e-05
8.36463e-05
8.42371e-05
8.51094e-05
8.61997e-05
8.74933e-05
8.89717e-05
9.06358e-05
9.23593e-05
9.41443e-05
9.62719e-05
9.55544e-05
9.81348e-05
9.64645e-05
9.74454e-05
9.96792e-05
9.89968e-05
9.72445e-05
9.66124e-05
9.66435e-05
9.76386e-05
0.000100078
0.00010419
0.000113034
0.000131861
0.000176108
0.000244558
0.000277268
0.00026688
0.00022556
0.000182086
0.00014652
0.000118029
0.00010106
9.25564e-05
8.80707e-05
8.54755e-05
8.3977e-05
8.31563e-05
8.28847e-05
8.30516e-05
8.3508e-05
8.42224e-05
8.52094e-05
8.64006e-05
8.77924e-05
8.93443e-05
9.10846e-05
9.28888e-05
9.48634e-05
9.42689e-05
9.5787e-05
9.83223e-05
9.67984e-05
9.76947e-05
9.97182e-05
9.91408e-05
9.79325e-05
9.74135e-05
9.73609e-05
9.82321e-05
0.000100347
0.00010407
0.000111821
0.000128143
0.00016575
0.000232514
0.000276653
0.000272057
0.000236589
0.000190822
0.000154725
0.000124595
0.000104568
9.42354e-05
8.89666e-05
8.59337e-05
8.41041e-05
8.30778e-05
8.2593e-05
8.256e-05
8.28935e-05
8.34653e-05
8.43266e-05
8.54418e-05
8.67472e-05
8.82765e-05
8.99348e-05
9.17647e-05
9.36938e-05
9.3234e-05
9.51881e-05
9.46453e-05
9.61915e-05
9.85721e-05
9.7133e-05
9.80522e-05
9.97805e-05
9.93358e-05
9.87954e-05
9.82654e-05
9.81299e-05
9.89034e-05
0.00010082
0.000104072
0.000110869
0.000125148
0.000157027
0.000220103
0.000274453
0.000275453
0.00024807
0.000200174
0.000162698
0.000131527
0.000108868
9.63122e-05
9.00103e-05
8.65136e-05
8.4373e-05
8.31121e-05
8.23847e-05
8.21735e-05
8.2366e-05
8.28331e-05
8.35898e-05
8.45807e-05
8.58496e-05
8.72761e-05
8.90052e-05
9.08382e-05
9.2757e-05
9.24004e-05
9.41849e-05
9.37706e-05
9.56598e-05
9.52111e-05
9.66309e-05
9.89127e-05
9.76099e-05
9.85386e-05
9.98633e-05
9.95926e-05
9.96843e-05
9.91627e-05
9.89611e-05
9.96561e-05
0.000101352
0.000104158
0.000110144
0.000122743
0.000149788
0.000207727
0.000269509
0.0002798
0.000258039
0.000209831
0.000170821
0.000138795
0.000113725
9.89002e-05
9.13038e-05
8.72151e-05
8.47403e-05
8.32182e-05
8.23067e-05
8.19184e-05
8.19408e-05
8.23107e-05
8.29659e-05
8.38994e-05
8.50271e-05
8.64807e-05
8.80873e-05
9.0075e-05
9.20088e-05
9.17581e-05
9.34335e-05
9.31303e-05
9.48414e-05
9.4547e-05
9.6219e-05
9.58967e-05
9.72383e-05
9.93664e-05
9.82639e-05
9.91846e-05
9.99681e-05
9.99354e-05
0.000100386
9.99812e-05
9.98095e-05
0.000100469
0.000101957
0.000104396
0.00010963
0.000120823
0.000143868
0.000195683
0.000261903
0.0002844
0.000266774
0.000220413
0.000178763
0.000146376
0.000119342
0.000101864
9.28501e-05
8.80547e-05
8.52201e-05
8.34285e-05
8.23426e-05
8.1745e-05
8.16345e-05
8.19059e-05
8.24642e-05
8.33e-05
8.44158e-05
8.57257e-05
8.74478e-05
8.94026e-05
9.14496e-05
9.12825e-05
9.29084e-05
9.27074e-05
9.43198e-05
9.416e-05
9.56719e-05
9.55346e-05
9.69837e-05
9.68191e-05
9.80666e-05
9.99554e-05
9.9145e-05
0.000100031
0.000100116
0.000100354
0.000100883
0.000100636
0.000100555
0.000101273
0.000102629
0.000104792
0.000109419
0.000119312
0.000139095
0.000184364
0.00025245
0.00028704
0.000275422
0.000232307
0.000186864
0.000153747
0.00012563
0.00010552
9.46181e-05
8.90458e-05
8.57894e-05
8.37554e-05
8.24519e-05
8.17184e-05
8.14666e-05
8.16109e-05
8.21154e-05
8.28098e-05
8.38446e-05
8.5225e-05
8.68214e-05
8.89046e-05
9.10497e-05
9.09779e-05
9.25913e-05
9.24825e-05
9.40685e-05
9.40299e-05
9.54762e-05
9.54992e-05
9.67989e-05
9.6844e-05
9.80294e-05
9.80764e-05
9.91892e-05
0.000100633
0.000100196
0.000100953
0.000100218
0.000100654
0.000101198
0.000101118
0.000101139
0.000101951
0.000103256
0.000105273
0.000109424
0.000118199
0.000135322
0.000174198
0.000241516
0.000287167
0.000282182
0.000245447
0.000196099
0.000160941
0.000132154
0.000109904
9.68319e-05
9.01904e-05
8.6464e-05
8.41521e-05
8.26807e-05
8.177e-05
8.13605e-05
8.14494e-05
8.18533e-05
8.25476e-05
8.34042e-05
8.46996e-05
8.64317e-05
8.86058e-05
9.08111e-05
9.07945e-05
9.24508e-05
9.24418e-05
9.40555e-05
9.41174e-05
9.5574e-05
9.57247e-05
9.69706e-05
9.72009e-05
9.82166e-05
9.84934e-05
9.93174e-05
9.95954e-05
0.000100482
0.00010115
0.000101311
0.000101703
0.000100315
0.000100962
0.000101311
0.000101435
0.000101527
0.000102451
0.000103775
0.00010577
0.000109533
0.000117433
0.000132383
0.000165429
0.000229606
0.000285967
0.000288127
0.00025867
0.00020646
0.000168518
0.00013889
0.000114798
9.95349e-05
9.1565e-05
8.72682e-05
8.46275e-05
8.2989e-05
8.19048e-05
8.13904e-05
8.13289e-05
8.16991e-05
8.23627e-05
8.32759e-05
8.45197e-05
8.63041e-05
8.85158e-05
9.07524e-05
9.08175e-05
9.24705e-05
9.25292e-05
9.42409e-05
9.43829e-05
9.59418e-05
9.61925e-05
9.75065e-05
9.78647e-05
9.88827e-05
9.93198e-05
9.99955e-05
0.000100493
0.000100849
0.000101325
0.000101759
0.000101705
0.000102284
0.000102514
0.000100431
0.000101299
0.000101145
0.000101514
0.000101654
0.000102696
0.000104129
0.000106248
0.000109835
0.000116967
0.000130138
0.000158115
0.000217145
0.000282344
0.000295461
0.000270822
0.000217761
0.00017629
0.000145963
0.000120304
0.000102711
9.31759e-05
8.8202e-05
8.52254e-05
8.33585e-05
8.2141e-05
8.14859e-05
8.13267e-05
8.15629e-05
8.2238e-05
8.3266e-05
8.46899e-05
8.66892e-05
8.92582e-05
9.09496e-05
9.0394e-05
9.26458e-05
9.29115e-05
9.45905e-05
9.48758e-05
9.65084e-05
9.68833e-05
9.82847e-05
9.87577e-05
9.98391e-05
0.000100391
0.000101079
0.000101672
0.000101882
0.000102537
0.000102305
0.00010297
0.000102973
0.00010235
0.000103356
0.00010344
0.000100576
0.000101682
0.000100633
0.000101225
0.000101406
0.000102625
0.000104287
0.000106666
0.000110214
0.000116755
0.000128457
0.000152234
0.000204953
0.000274598
0.000301924
0.00028269
0.000231393
0.000184518
0.000152938
0.000126389
0.000106505
9.5112e-05
8.92566e-05
8.59034e-05
8.38247e-05
8.24628e-05
8.1653e-05
8.139e-05
8.15304e-05
8.2201e-05
8.35493e-05
8.5989e-05
9.0088e-05
9.63653e-05
0.000101468
9.3629e-05
9.71908e-05
9.54464e-05
9.6792e-05
9.74819e-05
9.86757e-05
9.93667e-05
0.000100452
0.000101041
0.000101968
0.000102378
0.000103164
0.000103261
0.000104058
0.000103723
0.000104626
0.000103785
0.00010469
0.000104336
0.000103169
0.000104614
0.00010452
0.000100727
0.000102197
9.97445e-05
0.000100464
0.000100683
0.0001021
0.00010424
0.00010693
0.000110637
0.000116734
0.000127199
0.000147544
0.000193534
0.000264731
0.00030513
0.000293365
0.000246865
0.000194372
0.000159954
0.000132665
0.000110888
9.74711e-05
9.04862e-05
8.66794e-05
8.43154e-05
8.2875e-05
8.19269e-05
8.15233e-05
8.16095e-05
8.24214e-05
8.48247e-05
9.17676e-05
0.00011094
0.000147423
0.000199042
0.000137154
0.000226268
0.000100233
0.000109724
0.000101419
0.000108848
0.000102805
0.000108516
0.000103945
0.000108664
0.000104751
0.000108371
0.000105239
0.000107849
0.000105544
0.000107312
0.000105758
0.00010697
0.000105478
0.000106698
0.000106006
0.00010411
0.000106259
0.000105921
0.00010088
0.000102883
9.92798e-05
9.95409e-05
9.98943e-05
0.000101156
0.000103758
0.000107023
0.000111028
0.000116805
0.000126302
0.00014385
0.000183249
0.000253277
0.000305286
0.000301705
0.000263001
0.000205994
0.000167517
0.000139218
0.000115704
0.000100233
9.19254e-05
8.75524e-05
8.49318e-05
8.3282e-05
8.23035e-05
8.17466e-05
8.18163e-05
8.32172e-05
8.92635e-05
0.000113819
0.000198266
0.000439413
0.000802103
0.000496084
0.00131304
0.000374468
0.000888698
0.000129743
0.000191519
0.000124082
0.000170472
0.000120807
0.000153831
0.000117898
0.000143895
0.000114698
0.000133504
0.000111685
0.000124188
0.00010961
0.000116896
0.000108297
0.000112145
0.000107459
0.000109406
0.000107992
0.000105122
0.000108243
0.000107861
0.000101155
0.000103447
9.90266e-05
0.000100001
9.96302e-05
0.000100522
0.000102913
0.000106939
0.000111403
0.000117023
0.000125849
0.000141033
0.000174356
0.000240607
0.000303972
0.000310633
0.000278838
0.000219043
0.000175718
0.00014615
0.000121164
0.000103454
9.36269e-05
8.85009e-05
8.56049e-05
8.38393e-05
8.27147e-05
8.20607e-05
8.22546e-05
8.54601e-05
0.00010291
0.000182334
0.00049516
0.00132038
0.00307694
0.00245785
0.0046789
0.00205432
0.00391184
0.00154819
0.00328222
0.000305174
0.000692829
0.000251876
0.000540603
0.000215552
0.00041132
0.000187828
0.000336448
0.000161679
0.000268101
0.000139477
0.000208878
0.000124084
0.000163579
0.000114649
0.000133214
0.000110199
0.000116494
0.000110513
0.000106663
0.000110245
0.000109549
0.000101356
0.00010423
0.000100331
0.000101783
0.000101089
0.00010087
0.000102931
0.000106898
0.000111834
0.000117461
0.000125792
0.000139086
0.000167033
0.00022733
0.000299653
0.000319809
0.00029367
0.000234326
0.000184739
0.000153177
0.000127215
0.000107305
9.56589e-05
8.96352e-05
8.63211e-05
8.44101e-05
8.32955e-05
8.25999e-05
8.32926e-05
9.13726e-05
0.000139654
0.000372854
0.00118114
0.00340173
0.00608828
0.00775408
0.00582059
0.00729719
0.00518972
0.00663017
0.00457749
0.00614798
0.00123261
0.00271678
0.000956606
0.0021699
0.00073342
0.0015879
0.000562965
0.00125381
0.000408318
0.000932242
0.000288006
0.00063633
0.000199621
0.000406076
0.000142448
0.000245181
0.000117053
0.000147867
0.000115774
0.00010827
0.000113834
0.00011172
0.000101309
0.000105517
0.000104643
0.000108319
0.000108419
0.000104831
0.000104518
0.000107528
0.00011242
0.000118152
0.000125944
0.000138078
0.000161334
0.000214439
0.000290566
0.000326508
0.000307624
0.000252094
0.000195654
0.000160435
0.00013361
0.000111776
9.80835e-05
9.0929e-05
8.71693e-05
8.50227e-05
8.38555e-05
8.33881e-05
8.58369e-05
0.000106697
0.00022382
0.000801134
0.00266584
0.00588879
0.00776448
0.00801925
0.00793075
0.00787615
0.00749797
0.00790642
0.00701052
0.007585
0.00660442
0.00720468
0.00402017
0.00568262
0.00337883
0.00516172
0.00267999
0.00452762
0.00204197
0.00384138
0.00144189
0.00307422
0.000967581
0.00217382
0.000569619
0.00136517
0.000286571
0.000750899
0.000145676
0.00030609
0.000133669
0.000109344
0.00012233
0.000115216
0.00010155
0.000106253
0.000118299
0.000125176
0.000120819
0.000112109
0.000110587
0.000113889
0.000119216
0.000126499
0.000137856
0.000157319
0.000202691
0.000279359
0.000329015
0.000319237
0.000270859
0.000208776
0.000168535
0.000140348
0.000116832
0.000100949
9.24323e-05
8.80625e-05
8.57389e-05
8.45048e-05
8.46747e-05
9.17063e-05
0.000144333
0.000423879
0.00150819
0.00451945
0.00739531
0.0082281
0.00789867
0.00716393
0.0071543
0.00691439
0.00763027
0.00747084
0.00728505
0.00716471
0.00695276
0.0068859
0.00621343
0.0068178
0.00577076
0.00638923
0.00520488
0.00598102
0.00466589
0.0055948
0.00401315
0.00521889
0.00301939
0.00473545
0.00185126
0.0037829
0.00089371
0.00232602
0.000284774
0.000942971
0.000207082
0.000111152
0.00014898
0.000123754
0.000115364
0.000101838
0.000104888
0.000107943
0.000134489
0.000145206
0.000136238
0.000120965
0.000118244
0.000121466
0.000127695
0.000138052
0.00015498
0.000192728
0.000266654
0.000328866
0.000329848
0.000289815
0.000223657
0.000177596
0.000147568
0.000122521
0.000104385
9.42098e-05
8.90328e-05
8.63899e-05
8.52742e-05
8.69204e-05
0.000104798
0.00022549
0.000842497
0.00286206
0.00624612
0.0080491
0.00815696
0.007622
0.00735314
0.00726805
0.00798645
0.00678923
0.00692128
0.00689767
0.00677928
0.00672276
0.00663744
0.00656759
0.00654429
0.00663983
0.00662311
0.00632012
0.0064187
0.00605144
0.00625096
0.00584336
0.00613532
0.00566222
0.00609205
0.00523411
0.00601954
0.00441228
0.00572728
0.00268234
0.00486584
0.000826669
0.00288442
0.00162201
0.000256127
0.000528332
0.000118513
0.000110122
0.000114113
0.000157859
0.000322077
0.000401168
0.000139723
0.000100652
0.000102595
0.000105166
0.000107898
0.000152687
0.000167607
0.000151133
0.000130456
0.000126899
0.000130154
0.000138872
0.000154259
0.000184859
0.000252966
0.000327033
0.000341301
0.00030798
0.000240641
0.000187709
0.000155173
0.000128847
0.000108465
9.63182e-05
9.02113e-05
8.71027e-05
8.59893e-05
9.04558e-05
0.000133776
0.000392202
0.00151189
0.00445172
0.00734753
0.00820783
0.00788996
0.00747608
0.00798973
0.0088408
0.00998455
0.00940591
0.0102709
0.00729962
0.00822635
0.00667428
0.00685937
0.0066144
0.00685304
0.00664429
0.00694944
0.00643569
0.00649296
0.0063489
0.00653387
0.00633436
0.00666458
0.0063831
0.00686001
0.00648028
0.00710483
0.00650314
0.00738974
0.00541649
0.00614904
0.006589
0.00723813
0.00397355
0.00526986
0.00633356
0.00686299
0.00595089
0.00258245
0.0012536
0.00281006
0.00409206
0.00106411
0.000126514
0.000110674
0.000117795
0.000240738
0.000624173
0.000863705
0.000185625
0.000100618
0.000102511
0.000105429
0.000107873
0.000175989
0.00019213
0.000163502
0.000140074
0.000135683
0.000140947
0.000154432
0.000179417
0.00023947
0.000321397
0.000351704
0.000325039
0.000260356
0.000199722
0.000163128
0.00013585
0.000113232
9.89564e-05
9.14586e-05
8.80037e-05
8.70708e-05
9.61144e-05
0.000185699
0.000708555
0.0025753
0.00596371
0.00795692
0.00813626
0.00756083
0.00743069
0.00844988
0.0106127
0.0108116
0.0110909
0.0108313
0.0111265
0.00955933
0.0103641
0.00739661
0.00836649
0.00758081
0.00851171
0.0079212
0.00866932
0.00680736
0.00727542
0.00713804
0.00767535
0.00744925
0.00819025
0.00782856
0.00876128
0.00828107
0.00938064
0.00777236
0.00844682
0.0090653
0.0097581
0.0070206
0.00774135
0.0084802
0.00530446
0.00626396
0.00762399
0.00813837
0.00719796
0.00423691
0.00253404
0.00404427
0.00544625
0.00218049
0.000149852
0.000112329
0.000128752
0.000438635
0.00171438
0.00123511
0.000301398
0.000100455
0.000105047
0.000102313
0.000108001
0.000205445
0.000217004
0.000172306
0.000148095
0.000145745
0.000155629
0.000176936
0.000227277
0.000311257
0.000358734
0.000340647
0.000281576
0.000214222
0.000172044
0.000143261
0.000118989
0.000102067
9.31825e-05
8.87091e-05
8.80757e-05
0.000105212
0.000262777
0.00116117
0.0038751
0.00714348
0.0083419
0.00795663
0.00735932
0.00756881
0.00890531
0.0103726
0.00961136
0.00905067
0.0110716
0.0106057
0.0107611
0.0100997
0.0107178
0.0109486
0.00951231
0.0101629
0.00932995
0.00980078
0.00906818
0.00948944
0.00835483
0.00880017
0.00874966
0.00898866
0.0092978
0.00940931
0.0101498
0.0100987
0.0103096
0.0107865
0.0109895
0.0109894
0.00923562
0.00997458
0.0106446
0.0111744
0.00840567
0.00926847
0.010119
0.00654543
0.00763905
0.00911383
0.00986559
0.00873598
0.00543289
0.0037996
0.00538088
0.00675524
0.0034196
0.00020961
0.00011647
0.000156875
0.000853461
0.00291062
0.00226838
0.000548852
0.00010031
0.000104552
0.000101812
0.00010935
0.000241929
0.000237819
0.00017576
0.000156348
0.000159142
0.000176793
0.000217262
0.000299336
0.000361732
0.000354967
0.000303693
0.000230803
0.000182084
0.000151353
0.000125356
0.000106322
9.50056e-05
8.99485e-05
8.9337e-05
0.000115756
0.000380934
0.00174252
0.00516849
0.00795608
0.00838124
0.00760003
0.00721971
0.00782391
0.00930497
0.00991684
0.00502959
0.00579872
0.00367604
0.00886711
0.00726131
0.00776233
0.00590246
0.0101895
0.00934559
0.0103652
0.0104676
0.00979082
0.00971948
0.00912682
0.00873017
0.00918565
0.00924504
0.00940245
0.00921135
0.00994505
0.00947381
0.0109088
0.0107475
0.00996337
0.011468
0.0115057
0.0114176
0.0111923
0.0108684
0.0115037
0.011886
0.0119824
0.0100918
0.0109943
0.0117641
0.00805925
0.00934833
0.0109312
0.011742
0.0106127
0.00693375
0.00517801
0.00697931
0.00845803
0.00480055
0.000347526
0.000128842
0.000226802
0.00157601
0.00424224
0.00351793
0.00103473
0.000100149
0.000104667
0.000101407
0.000113943
0.000283111
0.000240156
0.000178808
0.000167418
0.000178042
0.000210367
0.000286168
0.000362137
0.000370351
0.000326322
0.000249617
0.00019356
0.000159896
0.000132989
0.00011095
9.81052e-05
9.11876e-05
9.0995e-05
0.000133705
0.0005293
0.00246756
0.00631502
0.00843673
0.00832749
0.00735537
0.00720889
0.00819261
0.00969399
0.00920345
0.00320364
0.000984089
0.000813011
0.00184689
0.00111893
0.00404823
0.00267114
0.00290305
0.00185179
0.00651713
0.00451964
0.00927472
0.00821323
0.00790949
0.00658961
0.00619073
0.00470343
0.00865655
0.00756226
0.00839821
0.00672806
0.00852242
0.00667844
0.0108379
0.0102185
0.00752292
0.00844644
0.011893
0.0116801
0.0113146
0.0107759
0.0122733
0.0124665
0.0124057
0.0122142
0.011847
0.0125593
0.0129129
0.00993388
0.0113235
0.0126609
0.0133912
0.0125008
0.0087693
0.00683322
0.00891445
0.0104511
0.00647408
0.000639837
0.000160445
0.000385491
0.00268639
0.00586108
0.0050211
0.00187196
0.000100074
0.00010593
0.000101587
0.00012669
0.000315648
0.000230354
0.000184378
0.000182855
0.000207566
0.000273337
0.000360995
0.000386043
0.000348267
0.000271523
0.000206907
0.00016951
0.000141124
0.000117534
0.000101247
9.34226e-05
9.37037e-05
0.000157065
0.000760745
0.00331189
0.00727514
0.0087764
0.00820595
0.00720962
0.00728275
0.00866232
0.0100279
0.00818783
0.00236822
0.000504243
0.000358392
0.000297692
0.00053627
0.000400426
0.00116052
0.000751324
0.000804011
0.000543333
0.00213406
0.00130464
0.00492173
0.00327736
0.00324981
0.00225383
0.00228648
0.00153691
0.00492814
0.00333684
0.00471442
0.00328569
0.00665416
0.00573856
0.00418739
0.00497734
0.0100974
0.00927723
0.00629411
0.00719374
0.0118505
0.0113081
0.0106345
0.00985758
0.0129334
0.0127839
0.0124499
0.0119265
0.0132521
0.0134457
0.0133473
0.0119719
0.0131977
0.0138476
0.0143919
0.0140421
0.0108629
0.00883644
0.011096
0.0125434
0.00848431
0.0012082
0.000238919
0.000742624
0.00407302
0.00780603
0.0068543
0.00311349
0.000100367
0.000110211
0.000102973
0.000160592
0.000325725
0.000219997
0.000194403
0.000208135
0.000261189
0.000356012
0.00040005
0.000370028
0.000296285
0.000222948
0.000180075
0.000150809
0.000124718
0.000106744
9.64359e-05
9.91865e-05
0.00019721
0.00106937
0.00425268
0.00799947
0.00900112
0.00799885
0.00715096
0.00752084
0.00940041
0.0102547
0.00707685
0.00189018
0.00045763
0.000270491
0.00026922
0.000276348
0.000267341
0.000303392
0.000284236
0.00040883
0.000338516
0.000367481
0.000325114
0.000612859
0.000449739
0.00147853
0.000921837
0.000995795
0.000680755
0.000870709
0.000604554
0.00217118
0.00136057
0.0029053
0.0019893
0.00547066
0.0047158
0.00344071
0.00405388
0.0090035
0.00810016
0.00557961
0.00632154
0.0112605
0.0104888
0.00965813
0.00879706
0.0130867
0.0126238
0.0119908
0.0112485
0.0139105
0.0137337
0.0133582
0.0138298
0.0146403
0.0143435
0.0147816
0.0149067
0.0130084
0.0110723
0.0133028
0.0144003
0.0107357
0.00223102
0.000430735
0.00145408
0.00577013
0.0100168
0.00898349
0.00471144
0.000100904
0.000121732
0.000106493
0.000248589
0.000312958
0.000219463
0.000212723
0.000252149
0.000345071
0.000410287
0.000391702
0.000323869
0.000241913
0.000191985
0.000161534
0.000134283
0.000112917
0.000102667
0.000110672
0.000273753
0.00154568
0.00522618
0.00853888
0.00900698
0.00773817
0.0071573
0.00789972
0.00989512
0.0102422
0.00593016
0.00155559
0.00040325
0.000258471
0.000262435
0.000256992
0.000269551
0.0002654
0.000277743
0.000272849
0.000300531
0.00028583
0.000315707
0.000302143
0.000358435
0.000332483
0.00050316
0.000406884
0.000465945
0.000401499
0.000592591
0.000461846
0.00132145
0.000865087
0.00274514
0.00226549
0.00193448
0.00157594
0.00489598
0.00427041
0.00319525
0.00370687
0.00792948
0.00710427
0.00534619
0.0060019
0.0104546
0.00966071
0.00889056
0.00813084
0.0127904
0.0121105
0.0114026
0.0107011
0.0140877
0.0136158
0.0130243
0.0152113
0.0154228
0.0144399
0.0148464
0.0152377
0.0149063
0.0133504
0.0152803
0.0157783
0.0130629
0.00373253
0.000887623
0.00278247
0.00779378
0.0123625
0.0113124
0.00664885
0.000101963
0.000154204
0.000115925
0.000481562
0.000288251
0.000227297
0.000250354
0.00033328
0.000416053
0.000415631
0.000353677
0.000264701
0.000205855
0.000172645
0.000145902
0.000122189
0.000111789
0.00013553
0.000429137
0.00220499
0.00616449
0.00887956
0.00895154
0.00756827
0.00718896
0.00830352
0.0102269
0.010108
0.00483098
0.00128047
0.000360736
0.000251763
0.000254964
0.000249356
0.000264564
0.000259114
0.000272469
0.000269255
0.000277122
0.000274783
0.000290495
0.00028204
0.00031234
0.000301167
0.00033452
0.00032304
0.000368624
0.000348895
0.000404356
0.000376886
0.000566784
0.000453678
0.00132807
0.00106636
0.000803902
0.00272861
0.00232953
0.0019714
0.00165408
0.00473386
0.00416661
0.003165
0.00364449
0.007389
0.00668131
0.00545774
0.00604082
0.0100078
0.00931709
0.00862737
0.00794938
0.0124142
0.0118051
0.0111812
0.0105695
0.0139402
0.0134041
0.0128628
0.0159766
0.0157391
0.0143603
0.0148536
0.0153176
0.0163403
0.0154505
0.0168338
0.0165867
0.0152933
0.0056589
0.00182751
0.00474001
0.0100948
0.0147194
0.0137567
0.00897223
0.000102428
0.000252528
0.000137695
0.00107444
0.000269347
0.000254297
0.000319363
0.000418515
0.000439183
0.000386411
0.000290895
0.000222393
0.000186405
0.000157655
0.00013589
0.000128287
0.000195159
0.000729775
0.00313185
0.0070638
0.00914852
0.00882691
0.00743169
0.00726969
0.00873216
0.0105074
0.00971495
0.00384311
0.0010441
0.000326232
0.000243968
0.000243775
0.000254796
0.000249964
0.0002655
0.000259803
0.000275842
0.000270932
0.000282654
0.000279688
0.000291751
0.000285866
0.000315623
0.000304436
0.000336332
0.000326713
0.000359867
0.00034667
0.000409648
0.000387624
0.000638783
0.000497122
0.00137399
0.00113462
0.000797115
0.00100666
0.00291515
0.00249778
0.00211875
0.00178058
0.00489674
0.00435989
0.00336572
0.00384811
0.00728778
0.0066502
0.00598128
0.00657205
0.00997847
0.0094121
0.00886167
0.00830596
0.0123475
0.0118779
0.0114562
0.0110485
0.0138713
0.0134499
0.0131346
0.0163166
0.0158664
0.0144716
0.0152007
0.0154367
0.0172371
0.0171718
0.0178213
0.0169708
0.017229
0.00808721
0.00361654
0.00723167
0.0126488
0.0169404
0.0162415
0.0117226
0.000103963
0.000532008
0.000201822
0.00231788
0.000274889
0.000313617
0.000417379
0.000464419
0.000417281
0.000325037
0.00024171
0.000200811
0.00017474
0.000153103
0.000162565
0.000333965
0.00135432
0.00425982
0.00782849
0.00931233
0.00864688
0.00736714
0.00738268
0.00928485
0.0107221
0.00906712
0.00319255
0.000848793
0.000298716
0.000236542
0.00023657
0.000242781
0.000254818
0.000249581
0.000265831
0.000259835
0.000277227
0.000271645
0.000285343
0.00028188
0.000295236
0.000289219
0.000317227
0.000306101
0.000341351
0.000329038
0.000370678
0.000355183
0.000435989
0.000402952
0.000896935
0.000825836
0.00065698
0.000572757
0.000505756
0.0014809
0.00122004
0.00110406
0.00324113
0.00278188
0.00236435
0.00198959
0.00539531
0.00482152
0.00373769
0.00426636
0.00773721
0.00715821
0.00677688
0.0074074
0.0106292
0.0101826
0.00970036
0.0091766
0.0128907