/*--------------------------------*- C++ -*----------------------------------*\
  =========                 |
  \\      /  F ield         | OpenFOAM: The Open Source CFD Toolbox
   \\    /   O peration     | Website:  https://openfoam.org
    \\  /    A nd           | Version:  dev
     \\/     M anipulation  |
\*---------------------------------------------------------------------------*/
FoamFile
{
    version     2.0;
    format      ascii;
    class       volScalarField;
    location    "2500";
    object      N2;
}
// * * * * * * * * * * * * * * * * * * * * * * * * * * * * * * * * * * * * * //

dimensions      [0 0 0 0 0 0 0];

internalField   nonuniform List<scalar> 
9456
(
0.76699
0.76699
0.76699
0.76699
0.76699
0.76699
0.76699
0.76699
0.76699
0.76699
0.76699
0.76699
0.76699
0.76699
0.76699
0.76699
0.76699
0.76699
0.76699
0.76699
0.76699
0.76699
0.76699
0.76699
0.76699
0.76699
0.76699
0.76699
0.76699
0.76699
0.76699
0.76699
0.76699
0.76699
0.76699
0.76699
0.76699
0.76699
0.76699
0.76699
0.76699
0.76699
0.76699
0.76699
0.76699
0.76699
0.76699
0.76699
0.76699
0.76699
0.76699
0.76699
0.76699
0.76699
0.76699
0.76699
0.76699
0.76699
0.76699
0.76699
0.76699
0.76699
0.76699
0.76699
0.76699
0.76699
0.76699
0.76699
0.76699
0.76699
0.76699
0.76699
0.76699
0.76699
0.76699
0.76699
0.76699
0.76699
0.76699
0.76699
0.76699
0.76699
0.76699
0.76699
0.76699
0.76699
0.76699
0.76699
0.76699
0.76699
0.76699
0.76699
0.76699
0.76699
0.76699
0.76699
0.76699
0.76699
0.76699
0.76699
0.76699
0.76699
0.76699
0.76699
0.76699
0.76699
0.76699
0.76699
0.76699
0.76699
0.76699
0.76699
0.76699
0.76699
0.76699
0.76699
0.76699
0.76699
0.76699
0.76699
0.76699
0.76699
0.76699
0.76699
0.76699
0.76699
0.76699
0.76699
0.76699
0.76699
0.76699
0.76699
0.76699
0.76699
0.76699
0.76699
0.76699
0.76699
0.76699
0.76699
0.76699
0.76699
0.76699
0.76699
0.76699
0.76699
0.76699
0.76699
0.76699
0.76699
0.76699
0.76699
0.76699
0.76699
0.76699
0.76699
0.76699
0.76699
0.76699
0.76699
0.76699
0.76699
0.76699
0.76699
0.76699
0.76699
0.76699
0.76699
0.76699
0.76699
0.76699
0.76699
0.76699
0.76699
0.76699
0.76699
0.76699
0.76699
0.76699
0.76699
0.76699
0.76699
0.76699
0.76699
0.76699
0.76699
0.76699
0.76699
0.76699
0.76699
0.76699
0.76699
0.76699
0.76699
0.76699
0.76699
0.76699
0.76699
0.76699
0.76699
0.76699
0.76699
0.76699
0.76699
0.76699
0.76699
0.76699
0.76699
0.76699
0.76699
0.76699
0.76699
0.76699
0.76699
0.76699
0.76699
0.76699
0.76699
0.76699
0.76699
0.76699
0.76699
0.76699
0.76699
0.76699
0.76699
0.76699
0.76699
0.76699
0.76699
0.76699
0.76699
0.76699
0.76699
0.76699
0.76699
0.76699
0.76699
0.76699
0.76699
0.76699
0.76699
0.76699
0.76699
0.76699
0.76699
0.76699
0.76699
0.76699
0.76699
0.76699
0.76699
0.76699
0.76699
0.76699
0.76699
0.76699
0.76699
0.76699
0.76699
0.76699
0.76699
0.76699
0.76699
0.76699
0.76699
0.76699
0.76699
0.76699
0.76699
0.76699
0.76699
0.76699
0.76699
0.76699
0.76699
0.76699
0.76699
0.76699
0.76699
0.76699
0.76699
0.76699
0.76699
0.76699
0.76699
0.76699
0.76699
0.76699
0.76699
0.76699
0.76699
0.76699
0.76699
0.76699
0.76699
0.76699
0.76699
0.76699
0.76699
0.76699
0.76699
0.76699
0.76699
0.76699
0.76699
0.76699
0.76699
0.76699
0.76699
0.76699
0.76699
0.76699
0.76699
0.76699
0.76699
0.76699
0.76699
0.76699
0.76699
0.76699
0.76699
0.76699
0.76699
0.76699
0.76699
0.76699
0.76699
0.76699
0.76699
0.76699
0.76699
0.76699
0.76699
0.76699
0.76699
0.76699
0.76699
0.76699
0.76699
0.76699
0.76699
0.76699
0.76699
0.76699
0.76699
0.76699
0.76699
0.76699
0.76699
0.76699
0.76699
0.76699
0.76699
0.76699
0.76699
0.76699
0.76699
0.76699
0.76699
0.76699
0.76699
0.76699
0.76699
0.76699
0.76699
0.76699
0.76699
0.76699
0.76699
0.76699
0.76699
0.76699
0.76699
0.76699
0.76699
0.76699
0.76699
0.76699
0.76699
0.76699
0.76699
0.76699
0.76699
0.76699
0.76699
0.76699
0.76699
0.76699
0.76699
0.76699
0.76699
0.76699
0.76699
0.76699
0.76699
0.76699
0.76699
0.76699
0.76699
0.76699
0.76699
0.76699
0.76699
0.76699
0.76699
0.76699
0.76699
0.76699
0.76699
0.76699
0.76699
0.76699
0.76699
0.76699
0.76699
0.76699
0.76699
0.76699
0.76699
0.76699
0.76699
0.76699
0.76699
0.76699
0.76699
0.76699
0.76699
0.76699
0.76699
0.76699
0.76699
0.76699
0.76699
0.76699
0.76699
0.76699
0.76699
0.76699
0.76699
0.76699
0.76699
0.76699
0.76699
0.76699
0.76699
0.76699
0.76699
0.76699
0.76699
0.76699
0.76699
0.76699
0.76699
0.76699
0.76699
0.76699
0.76699
0.76699
0.76699
0.76699
0.76699
0.76699
0.76699
0.76699
0.76699
0.76699
0.76699
0.76699
0.76699
0.76699
0.76699
0.76699
0.76699
0.76699
0.76699
0.76699
0.76699
0.76699
0.76699
0.76699
0.76699
0.76699
0.76699
0.76699
0.76699
0.76699
0.76699
0.76699
0.76699
0.76699
0.76699
0.76699
0.76699
0.76699
0.76699
0.76699
0.76699
0.76699
0.76699
0.76699
0.76699
0.76699
0.76699
0.76699
0.76699
0.76699
0.76699
0.76699
0.76699
0.76699
0.76699
0.76699
0.76699
0.76699
0.76699
0.76699
0.76699
0.76699
0.76699
0.76699
0.76699
0.76699
0.76699
0.76699
0.76699
0.76699
0.76699
0.76699
0.76699
0.76699
0.76699
0.76699
0.76699
0.76699
0.76699
0.76699
0.76699
0.76699
0.76699
0.76699
0.76699
0.76699
0.76699
0.76699
0.76699
0.76699
0.76699
0.76699
0.76699
0.76699
0.76699
0.76699
0.76699
0.76699
0.76699
0.76699
0.76699
0.76699
0.76699
0.76699
0.76699
0.76699
0.76699
0.76699
0.76699
0.76699
0.76699
0.76699
0.76699
0.76699
0.76699
0.76699
0.76699
0.76699
0.76699
0.76699
0.76699
0.76699
0.76699
0.76699
0.76699
0.76699
0.76699
0.76699
0.76699
0.76699
0.76699
0.76699
0.76699
0.76699
0.76699
0.76699
0.76699
0.76699
0.76699
0.76699
0.76699
0.76699
0.76699
0.76699
0.76699
0.76699
0.76699
0.76699
0.76699
0.76699
0.76699
0.76699
0.76699
0.76699
0.76699
0.76699
0.76699
0.76699
0.76699
0.76699
0.76699
0.76699
0.76699
0.76699
0.76699
0.76699
0.76699
0.76699
0.76699
0.76699
0.76699
0.76699
0.76699
0.76699
0.76699
0.76699
0.76699
0.76699
0.76699
0.76699
0.76699
0.76699
0.76699
0.76699
0.76699
0.76699
0.76699
0.76699
0.76699
0.76699
0.76699
0.76699
0.76699
0.76699
0.76699
0.76699
0.76699
0.76699
0.76699
0.76699
0.76699
0.76699
0.76699
0.76699
0.76699
0.76699
0.76699
0.76699
0.76699
0.76699
0.76699
0.76699
0.76699
0.76699
0.76699
0.76699
0.76699
0.76699
0.76699
0.76699
0.76699
0.76699
0.76699
0.76699
0.76699
0.76699
0.76699
0.76699
0.76699
0.76699
0.76699
0.76699
0.76699
0.76699
0.76699
0.76699
0.76699
0.76699
0.76699
0.76699
0.76699
0.76699
0.76699
0.76699
0.76699
0.76699
0.76699
0.76699
0.76699
0.76699
0.76699
0.76699
0.76699
0.76699
0.76699
0.76699
0.76699
0.76699
0.76699
0.76699
0.76699
0.76699
0.76699
0.76699
0.76699
0.76699
0.76699
0.76699
0.76699
0.76699
0.76699
0.76699
0.76699
0.76699
0.76699
0.76699
0.76699
0.76699
0.76699
0.76699
0.76699
0.76699
0.76699
0.76699
0.76699
0.76699
0.76699
0.76699
0.76699
0.76699
0.76699
0.76699
0.76699
0.76699
0.76699
0.76699
0.76699
0.76699
0.76699
0.76699
0.76699
0.76699
0.76699
0.76699
0.76699
0.76699
0.76699
0.76699
0.76699
0.76699
0.76699
0.76699
0.76699
0.76699
0.76699
0.76699
0.76699
0.76699
0.76699
0.76699
0.76699
0.76699
0.76699
0.76699
0.76699
0.76699
0.76699
0.76699
0.76699
0.76699
0.76699
0.76699
0.76699
0.76699
0.76699
0.76699
0.76699
0.76699
0.76699
0.76699
0.76699
0.76699
0.76699
0.76699
0.76699
0.76699
0.76699
0.76699
0.76699
0.76699
0.76699
0.76699
0.76699
0.76699
0.76699
0.76699
0.76699
0.76699
0.76699
0.76699
0.76699
0.76699
0.76699
0.76699
0.76699
0.76699
0.76699
0.76699
0.76699
0.76699
0.76699
0.76699
0.76699
0.76699
0.76699
0.76699
0.76699
0.76699
0.76699
0.76699
0.76699
0.76699
0.76699
0.76699
0.76699
0.76699
0.76699
0.76699
0.76699
0.76699
0.76699
0.76699
0.76699
0.76699
0.76699
0.76699
0.76699
0.76699
0.76699
0.76699
0.76699
0.76699
0.76699
0.76699
0.76699
0.76699
0.76699
0.76699
0.76699
0.76699
0.76699
0.76699
0.76699
0.76699
0.76699
0.76699
0.76699
0.76699
0.76699
0.76699
0.76699
0.76699
0.76699
0.76699
0.76699
0.76699
0.76699
0.76699
0.76699
0.76699
0.76699
0.76699
0.76699
0.76699
0.76699
0.76699
0.76699
0.76699
0.76699
0.76699
0.76699
0.76699
0.76699
0.76699
0.76699
0.76699
0.76699
0.76699
0.76699
0.76699
0.76699
0.76699
0.76699
0.76699
0.76699
0.76699
0.76699
0.76699
0.76699
0.76699
0.76699
0.76699
0.76699
0.76699
0.76699
0.76699
0.76699
0.76699
0.76699
0.76699
0.76699
0.76699
0.76699
0.76699
0.76699
0.76699
0.76699
0.76699
0.76699
0.76699
0.76699
0.76699
0.76699
0.76699
0.76699
0.76699
0.76699
0.76699
0.76699
0.76699
0.76699
0.76699
0.76699
0.76699
0.76699
0.76699
0.76699
0.76699
0.76699
0.76699
0.76699
0.76699
0.76699
0.76699
0.76699
0.76699
0.76699
0.76699
0.76699
0.76699
0.76699
0.76699
0.76699
0.76699
0.76699
0.76699
0.76699
0.76699
0.76699
0.76699
0.76699
0.76699
0.76699
0.76699
0.76699
0.76699
0.76699
0.76699
0.76699
0.76699
0.76699
0.76699
0.76699
0.76699
0.76699
0.76699
0.76699
0.76699
0.76699
0.76699
0.76699
0.76699
0.76699
0.76699
0.76699
0.76699
0.76699
0.76699
0.76699
0.76699
0.76699
0.76699
0.76699
0.76699
0.76699
0.76699
0.76699
0.76699
0.76699
0.76699
0.76699
0.76699
0.76699
0.76699
0.76699
0.76699
0.76699
0.76699
0.76699
0.76699
0.76699
0.76699
0.76699
0.76699
0.76699
0.76699
0.76699
0.76699
0.76699
0.76699
0.76699
0.76699
0.76699
0.76699
0.76699
0.76699
0.76699
0.76699
0.76699
0.76699
0.76699
0.76699
0.76699
0.76699
0.76699
0.76699
0.76699
0.76699
0.76699
0.76699
0.76699
0.76699
0.76699
0.76699
0.76699
0.76699
0.76699
0.76699
0.76699
0.76699
0.76699
0.76699
0.76699
0.76699
0.76699
0.76699
0.76699
0.76699
0.76699
0.76699
0.76699
0.76699
0.76699
0.76699
0.76699
0.76699
0.76699
0.76699
0.76699
0.76699
0.76699
0.76699
0.76699
0.76699
0.76699
0.76699
0.76699
0.76699
0.76699
0.76699
0.76699
0.766989
0.766989
0.76699
0.766989
0.76699
0.76699
0.76699
0.76699
0.76699
0.76699
0.76699
0.76699
0.76699
0.76699
0.76699
0.76699
0.76699
0.76699
0.76699
0.76699
0.76699
0.76699
0.76699
0.76699
0.76699
0.76699
0.76699
0.76699
0.76699
0.76699
0.76699
0.76699
0.76699
0.76699
0.76699
0.76699
0.76699
0.76699
0.76699
0.76699
0.76699
0.76699
0.76699
0.76699
0.76699
0.76699
0.76699
0.76699
0.76699
0.76699
0.76699
0.76699
0.76699
0.76699
0.76699
0.76699
0.766988
0.766986
0.766981
0.766986
0.766977
0.766989
0.766988
0.766989
0.766989
0.76699
0.766989
0.76699
0.766989
0.76699
0.766989
0.76699
0.766989
0.76699
0.76699
0.76699
0.76699
0.76699
0.76699
0.76699
0.76699
0.76699
0.76699
0.76699
0.76699
0.76699
0.76699
0.76699
0.76699
0.76699
0.76699
0.76699
0.76699
0.76699
0.76699
0.76699
0.76699
0.76699
0.76699
0.76699
0.76699
0.76699
0.76699
0.76699
0.76699
0.76699
0.76699
0.76699
0.76699
0.76699
0.76699
0.76699
0.76699
0.76699
0.766988
0.766983
0.766967
0.76694
0.766955
0.766896
0.766963
0.766921
0.766986
0.76698
0.766987
0.766982
0.766987
0.766983
0.766988
0.766984
0.766988
0.766985
0.766989
0.766987
0.766989
0.766988
0.76699
0.766989
0.76699
0.76699
0.76699
0.76699
0.76699
0.76699
0.76699
0.76699
0.76699
0.76699
0.76699
0.76699
0.76699
0.76699
0.76699
0.76699
0.76699
0.76699
0.76699
0.76699
0.76699
0.76699
0.76699
0.76699
0.76699
0.76699
0.76699
0.76699
0.76699
0.76699
0.76699
0.76699
0.76699
0.76699
0.76699
0.76699
0.766989
0.766984
0.766964
0.766911
0.76681
0.766791
0.766696
0.766834
0.766682
0.766857
0.766723
0.766969
0.766934
0.766972
0.766943
0.766975
0.766951
0.766977
0.766956
0.76698
0.766963
0.766984
0.766971
0.766987
0.766978
0.766989
0.766985
0.76699
0.766989
0.76699
0.76699
0.76699
0.76699
0.76699
0.76699
0.76699
0.76699
0.76699
0.76699
0.76699
0.76699
0.76699
0.76699
0.76699
0.76699
0.76699
0.76699
0.76699
0.76699
0.76699
0.76699
0.76699
0.76699
0.76699
0.76699
0.76699
0.76699
0.76699
0.76699
0.76699
0.76699
0.76699
0.766989
0.766987
0.766974
0.766922
0.766789
0.76658
0.766293
0.76656
0.766317
0.766569
0.766388
0.766584
0.7664
0.766877
0.766747
0.766892
0.76677
0.766904
0.766797
0.766917
0.76682
0.766934
0.766849
0.766953
0.766886
0.76697
0.766926
0.766982
0.766958
0.766988
0.766981
0.766989
0.76699
0.766989
0.76699
0.76699
0.76699
0.76699
0.76699
0.76699
0.76699
0.76699
0.76699
0.76699
0.76699
0.76699
0.76699
0.76699
0.76699
0.76699
0.76699
0.76699
0.76699
0.76699
0.76699
0.76699
0.76699
0.76699
0.76699
0.76699
0.76699
0.76699
0.76699
0.76699
0.766989
0.766982
0.766952
0.766849
0.76663
0.766309
0.765939
0.765853
0.765665
0.766211
0.766013
0.766211
0.766001
0.766189
0.76597
0.766594
0.766396
0.766606
0.766386
0.766627
0.766392
0.766665
0.766409
0.766732
0.766465
0.766809
0.766561
0.766884
0.766702
0.766946
0.766833
0.766981
0.766938
0.766984
0.76699
0.766987
0.766989
0.76699
0.76699
0.76699
0.76699
0.76699
0.76699
0.76699
0.76699
0.76699
0.76699
0.76699
0.76699
0.76699
0.76699
0.76699
0.76699
0.76699
0.76699
0.76699
0.76699
0.76699
0.76699
0.76699
0.76699
0.76699
0.76699
0.76699
0.76699
0.766987
0.766973
0.766914
0.766757
0.766475
0.766082
0.765697
0.765431
0.765459
0.765355
0.7658
0.7656
0.765754
0.765532
0.765674
0.765442
0.76615
0.765913
0.766116
0.765846
0.766101
0.765796
0.766117
0.765763
0.766194
0.765778
0.766333
0.765859
0.766557
0.766047
0.766786
0.7664
0.76694
0.766754
0.766961
0.76699
0.766978
0.766986
0.766989
0.76699
0.76699
0.76699
0.76699
0.76699
0.76699
0.76699
0.76699
0.76699
0.76699
0.76699
0.76699
0.76699
0.76699
0.76699
0.76699
0.76699
0.76699
0.76699
0.76699
0.76699
0.76699
0.76699
0.76699
0.76699
0.76699
0.76699
0.766989
0.766983
0.766954
0.766859
0.766655
0.766319
0.765912
0.765636
0.765461
0.765317
0.765391
0.76527
0.765282
0.765374
0.76529
0.765283
0.765197
0.765162
0.765085
0.765569
0.765319
0.765468
0.765182
0.765393
0.765055
0.765351
0.764946
0.765388
0.76488
0.765488
0.764923
0.765729
0.765064
0.766264
0.76541
0.766765
0.766136
0.766526
0.766941
0.766849
0.766988
0.76699
0.766989
0.766972
0.766908
0.766886
0.766979
0.76699
0.76699
0.76699
0.76699
0.76699
0.76699
0.76699
0.76699
0.76699
0.76699
0.76699
0.76699
0.76699
0.76699
0.76699
0.76699
0.76699
0.76699
0.76699
0.76699
0.76699
0.76699
0.76699
0.76699
0.76699
0.76699
0.76699
0.766988
0.766976
0.766924
0.766793
0.766558
0.766197
0.765838
0.765656
0.765547
0.765503
0.765617
0.765454
0.76563
0.765238
0.765319
0.765183
0.765199
0.765084
0.765105
0.764964
0.764995
0.765014
0.764949
0.764857
0.764789
0.7647
0.764609
0.76455
0.764417
0.764436
0.764222
0.764458
0.764063
0.765095
0.764712
0.764428
0.764127
0.765706
0.76515
0.764609
0.7643
0.764746
0.76619
0.766606
0.766076
0.765603
0.766649
0.766984
0.76699
0.766987
0.766936
0.766777
0.766701
0.766956
0.76699
0.76699
0.76699
0.76699
0.76699
0.76699
0.76699
0.76699
0.76699
0.76699
0.76699
0.76699
0.76699
0.76699
0.76699
0.76699
0.76699
0.76699
0.76699
0.76699
0.76699
0.76699
0.76699
0.76699
0.76699
0.76699
0.766986
0.766963
0.766883
0.766721
0.766463
0.766102
0.765835
0.765699
0.765702
0.766037
0.7658
0.76605
0.765801
0.766008
0.765404
0.765593
0.765155
0.765252
0.765061
0.765184
0.764952
0.765112
0.764813
0.764861
0.764637
0.764694
0.764437
0.764498
0.764219
0.764279
0.763979
0.764044
0.76395
0.763824
0.763793
0.763821
0.764236
0.763952
0.763775
0.765048
0.764558
0.763984
0.763829
0.764145
0.765486
0.766121
0.765479
0.764918
0.766197
0.766971
0.766988
0.76698
0.766843
0.766333
0.766492
0.766899
0.76699
0.76699
0.76699
0.766989
0.76699
0.76699
0.76699
0.76699
0.76699
0.76699
0.76699
0.76699
0.76699
0.76699
0.76699
0.76699
0.76699
0.76699
0.76699
0.76699
0.76699
0.76699
0.76699
0.76699
0.766989
0.766983
0.766946
0.766836
0.766646
0.766373
0.766044
0.765851
0.765772
0.765876
0.766307
0.766501
0.766606
0.766201
0.76637
0.766218
0.766402
0.765787
0.766009
0.765358
0.765565
0.765319
0.765552
0.76527
0.765545
0.764809
0.765015
0.764627
0.764873
0.764412
0.76467
0.764171
0.76443
0.763865
0.763941
0.764051
0.764219
0.763704
0.763701
0.763737
0.763798
0.763753
0.763638
0.763605
0.764411
0.763993
0.763615
0.763498
0.763683
0.764859
0.765508
0.764832
0.764313
0.7656
0.766939
0.766986
0.766964
0.766638
0.765754
0.765982
0.766769
0.76699
0.76699
0.76699
0.766988
0.76699
0.76699
0.76699
0.76699
0.76699
0.76699
0.76699
0.76699
0.76699
0.76699
0.76699
0.76699
0.76699
0.76699
0.76699
0.76699
0.76699
0.76699
0.76699
0.766989
0.766979
0.766926
0.766789
0.766576
0.766294
0.766017
0.765879
0.76585
0.766056
0.766522
0.766825
0.766776
0.766858
0.766558
0.766684
0.766597
0.766735
0.766234
0.766428
0.765789
0.76602
0.765811
0.766055
0.765828
0.766098
0.765186
0.765516
0.765035
0.765431
0.764819
0.765254
0.764378
0.764574
0.765032
0.763904
0.764059
0.764235
0.76443
0.763626
0.763673
0.76376
0.763906
0.763524
0.76352
0.763558
0.763877
0.763566
0.763431
0.763345
0.763394
0.764243
0.764865
0.764222
0.763785
0.764962
0.766864
0.766978
0.766924
0.766259
0.765129
0.765373
0.766508
0.76699
0.766989
0.76699
0.766985
0.76699
0.76699
0.76699
0.76699
0.76699
0.76699
0.76699
0.76699
0.76699
0.76699
0.76699
0.76699
0.76699
0.76699
0.76699
0.76699
0.76699
0.76699
0.766988
0.766974
0.766903
0.766743
0.766514
0.766232
0.766013
0.765915
0.765939
0.766215
0.766657
0.76688
0.766963
0.766971
0.766929
0.766957
0.76683
0.766892
0.766862
0.766919
0.766636
0.766771
0.766269
0.766464
0.766329
0.766524
0.766384
0.766592
0.765798
0.76612
0.765686
0.766065
0.765473
0.765885
0.764635
0.76487
0.765544
0.765316
0.764078
0.764269
0.764472
0.764683
0.763621
0.763745
0.763907
0.764092
0.763442
0.763493
0.763577
0.76347
0.763303
0.763369
0.763294
0.763262
0.763726
0.764257
0.763708
0.763395
0.76435
0.766703
0.766959
0.766835
0.765691
0.764517
0.764765
0.766054
0.76699
0.766988
0.766989
0.766977
0.76699
0.76699
0.76699
0.76699
0.76699
0.76699
0.76699
0.76699
0.76699
0.76699
0.76699
0.76699
0.76699
0.76699
0.76699
0.76699
0.76699
0.766988
0.766967
0.766878
0.7667
0.766456
0.766185
0.76602
0.765956
0.766034
0.766351
0.766735
0.766913
0.766981
0.766986
0.766988
0.766979
0.766984
0.766952
0.76697
0.766963
0.766977
0.766884
0.766935
0.766687
0.766804
0.766737
0.766836
0.766748
0.766851
0.766374
0.766595
0.766228
0.766483
0.765724
0.765928
0.766243
0.766078
0.7649
0.765118
0.765744
0.76555
0.764292
0.7645
0.764712
0.764926
0.763724
0.763898
0.764088
0.76429
0.763427
0.763532
0.763693
0.763222
0.763179
0.763361
0.763287
0.763212
0.763342
0.763736
0.763317
0.763148
0.763818
0.7664
0.766914
0.766644
0.765084
0.763971
0.764198
0.76546
0.76699
0.766985
0.766989
0.766958
0.76699
0.76699
0.76699
0.76699
0.76699
0.76699
0.76699
0.76699
0.76699
0.76699
0.76699
0.76699
0.76699
0.76699
0.76699
0.76699
0.766986
0.766958
0.766852
0.76666
0.766408
0.766159
0.766034
0.766002
0.766132
0.766466
0.766787
0.766933
0.766982
0.766989
0.766989
0.766989
0.76699
0.766988
0.766989
0.766983
0.766987
0.766985
0.766987
0.766969
0.76698
0.766904
0.766946
0.766914
0.76695
0.766888
0.766936
0.766671
0.766804
0.766481
0.766656
0.765922
0.766086
0.766357
0.766229
0.76514
0.765349
0.765873
0.7657
0.764497
0.764706
0.764915
0.765121
0.76387
0.764057
0.76425
0.764445
0.763486
0.763642
0.763806
0.763094
0.763124
0.76341
0.763307
0.763197
0.763088
0.76333
0.763047
0.763011
0.76339
0.765878
0.766813
0.766292
0.764492
0.763512
0.763697
0.764848
0.76699
0.766979
0.766988
0.766912
0.76699
0.76699
0.76699
0.76699
0.76699
0.76699
0.76699
0.76699
0.76699
0.76699
0.76699
0.76699
0.76699
0.76699
0.766989
0.766984
0.766945
0.766824
0.766625
0.766369
0.766147
0.766053
0.766051
0.766227
0.766562
0.766828
0.766947
0.766984
0.76699
0.76699
0.76699
0.76699
0.76699
0.766989
0.76699
0.766988
0.766989
0.766988
0.766989
0.766984
0.766987
0.766969
0.766979
0.766961
0.766974
0.766925
0.766955
0.766782
0.766869
0.766505
0.766603
0.766668
0.766738
0.766032
0.766175
0.766414
0.766303
0.765322
0.765516
0.765942
0.765781
0.764643
0.764843
0.765042
0.765238
0.763976
0.764152
0.764335
0.764523
0.76355
0.763697
0.763852
0.763029
0.763095
0.763434
0.763296
0.763191
0.762933
0.763036
0.76287
0.762931
0.763063
0.765246
0.766591
0.765699
0.763944
0.763141
0.76327
0.764245
0.76699
0.766964
0.766985
0.766805
0.76699
0.76699
0.76699
0.76699
0.76699
0.76699
0.76699
0.76699
0.76699
0.76699
0.76699
0.76699
0.76699
0.766989
0.766979
0.766926
0.766795
0.766593
0.76634
0.766146
0.766073
0.766104
0.766314
0.766638
0.76686
0.766958
0.766986
0.76699
0.76699
0.76699
0.76699
0.76699
0.76699
0.76699
0.76699
0.76699
0.766989
0.766989
0.766988
0.766989
0.766986
0.766988
0.76698
0.766984
0.76697
0.766978
0.766933
0.766959
0.766784
0.766834
0.766885
0.766533
0.766614
0.766682
0.766742
0.766088
0.76622
0.766442
0.766338
0.765428
0.76561
0.765976
0.765824
0.764716
0.764913
0.765108
0.765299
0.764015
0.764187
0.764367
0.764555
0.763566
0.763702
0.763843
0.762982
0.763055
0.763399
0.763194
0.763127
0.762832
0.762828
0.762745
0.76286
0.762817
0.764596
0.766176
0.764996
0.76345
0.762845
0.762913
0.763673
0.76699
0.766927
0.766979
0.766566
0.76699
0.76699
0.76699
0.76699
0.76699
0.76699
0.76699
0.76699
0.76699
0.76699
0.76699
0.766989
0.766987
0.76697
0.766901
0.766765
0.766563
0.766316
0.766149
0.766095
0.766159
0.766391
0.766695
0.766885
0.766966
0.766987
0.76699
0.76699
0.76699
0.76699
0.76699
0.76699
0.76699
0.76699
0.76699
0.76699
0.766989
0.76699
0.766989
0.766989
0.766987
0.766988
0.766982
0.766985
0.766972
0.766979
0.766934
0.76696
0.766791
0.766834
0.766904
0.766869
0.766541
0.766618
0.766685
0.766743
0.766115
0.766241
0.766453
0.766353
0.765484
0.765659
0.765991
0.765844
0.76475
0.764947
0.765143
0.765334
0.763995
0.764163
0.764348
0.764548
0.763503
0.763617
0.763751
0.762904
0.762938
0.763262
0.762996
0.762962
0.762739
0.762673
0.762628
0.762747
0.762626
0.763934
0.765515
0.764278
0.763013
0.762607
0.762612
0.763138
0.766989
0.766836
0.766967
0.766125
0.76699
0.76699
0.76699
0.76699
0.76699
0.76699
0.76699
0.76699
0.76699
0.76699
0.766988
0.766982
0.766952
0.766872
0.766733
0.766533
0.766296
0.766156
0.76612
0.766213
0.766458
0.766739
0.766904
0.766971
0.766988
0.76699
0.76699
0.76699
0.76699
0.76699
0.76699
0.76699
0.76699
0.76699
0.76699
0.76699
0.766989
0.76699
0.766989
0.766989
0.766987
0.766988
0.766983
0.766985
0.766972
0.766979
0.766896
0.766913
0.766937
0.76695
0.766962
0.766793
0.766835
0.766866
0.766535
0.76661
0.766676
0.766734
0.766125
0.766245
0.766449
0.766353
0.765516
0.765686
0.765973
0.765836
0.764756
0.764963
0.765162
0.765351
0.763913
0.764104
0.764316
0.764537
0.76335
0.763472
0.763634
0.76274
0.762719
0.763057
0.76275
0.762714
0.762603
0.762534
0.762478
0.762552
0.762458
0.763303
0.764756
0.763567
0.76263
0.7624
0.762351
0.762655
0.766975
0.766643
0.766873
0.76545
0.76699
0.76699
0.76699
0.76699
0.76699
0.76699
0.76699
0.76699
0.766989
0.766986
0.766972
0.766927
0.76684
0.7667
0.766504
0.766283
0.766167
0.766145
0.766263
0.766512
0.766772
0.766918
0.766975
0.766988
0.76699
0.76699
0.76699
0.76699
0.76699
0.76699
0.76699
0.76699
0.76699
0.76699
0.76699
0.76699
0.76699
0.766989
0.76699
0.766989
0.766989
0.766987
0.766988
0.766983
0.766986
0.766971
0.766978
0.766887
0.766904
0.766928
0.766946
0.766958
0.766785
0.766829
0.766853
0.766503
0.766581
0.76665
0.766711
0.766099
0.766214
0.766416
0.76632
0.765526
0.765688
0.765874
0.765747
0.764755
0.764961
0.765149
0.765319
0.763833
0.764056
0.764283
0.7645
0.763167
0.76333
0.763532
0.762477
0.76243
0.762844
0.762503
0.762435
0.762392
0.762368
0.762256
0.76226
0.76227
0.762724
0.763999
0.762906
0.762294
0.762185
0.762088
0.762227
0.766373
0.766075
0.76575
0.764524
0.76699
0.76699
0.76699
0.76699
0.76699
0.76699
0.76699
0.766988
0.766981
0.766955
0.766896
0.766805
0.766667
0.766476
0.766274
0.766178
0.766171
0.766309
0.766555
0.766797
0.766929
0.766978
0.766989
0.76699
0.76699
0.76699
0.76699
0.76699
0.76699
0.76699
0.76699
0.76699
0.76699
0.76699
0.76699
0.76699
0.76699
0.76699
0.76699
0.766989
0.766989
0.766987
0.766988
0.766983
0.766986
0.766963
0.766971
0.766977
0.766871
0.766887
0.766917
0.766939
0.766954
0.766765
0.766812
0.766831
0.766437
0.766525
0.766602
0.766671
0.765998
0.766117
0.766338
0.766231
0.765473
0.765614
0.765642
0.765509
0.764696
0.764866
0.765013
0.765143
0.763751
0.763965
0.764156
0.764316
0.762998
0.763182
0.763369
0.762151
0.762128
0.762624
0.762203
0.762143
0.762088
0.762118
0.761866
0.7619
0.761997
0.762218
0.763201
0.762278
0.761957
0.761867
0.761715
0.761818
0.766373
0.764652
0.764586
0.763439
0.76699
0.76699
0.76699
0.76699
0.76699
0.766989
0.766987
0.766972
0.766931
0.766864
0.76677
0.766634
0.766449
0.766269
0.766191
0.766199
0.766351
0.76659
0.766815
0.766937
0.76698
0.766989
0.76699
0.76699
0.76699
0.76699
0.76699
0.76699
0.76699
0.76699
0.76699
0.76699
0.76699
0.76699
0.76699
0.76699
0.76699
0.76699
0.76699
0.766989
0.766989
0.766987
0.766988
0.766982
0.766985
0.76696
0.766968
0.766971
0.766977
0.766848
0.766866
0.766903
0.76693
0.766948
0.766731
0.766785
0.766801
0.76633
0.76644
0.766534
0.766616
0.765782
0.765926
0.766204
0.766068
0.765264
0.765384
0.76525
0.765081
0.764444
0.764546
0.764633
0.764719
0.763536
0.76367
0.763766
0.763827
0.76276
0.762875
0.762953
0.761791
0.76173
0.762248
0.7616
0.761663
0.7615
0.761646
0.761163
0.761237
0.761423
0.761714
0.762392
0.761688
0.761483
0.761238
0.761021
0.761332
0.766526
0.763613
0.764599
0.762599
0.76699
0.76699
0.76699
0.76699
0.766989
0.766984
0.766961
0.766904
0.766829
0.766734
0.7666
0.766423
0.766267
0.766204
0.766228
0.766389
0.766618
0.76683
0.766943
0.766982
0.766989
0.76699
0.76699
0.76699
0.76699
0.76699
0.76699
0.76699
0.76699
0.76699
0.76699
0.76699
0.76699
0.76699
0.76699
0.76699
0.76699
0.76699
0.76699
0.76699
0.766989
0.766989
0.766987
0.766988
0.766981
0.766985
0.766955
0.766965
0.766969
0.766975
0.76682
0.76684
0.766883
0.766917
0.76694
0.766686
0.766748
0.766764
0.766189
0.766331
0.76645
0.76655
0.765439
0.765639
0.76602
0.765834
0.764817
0.764936
0.764721
0.764477
0.763863
0.76389
0.763929
0.764003
0.762991
0.762996
0.762985
0.762945
0.762253
0.762214
0.762135
0.761049
0.760969
0.761527
0.760786
0.760817
0.760874
0.760887
0.760711
0.76078
0.760807
0.761267
0.761766
0.761275
0.760988
0.760742
0.760829
0.760969
0.766797
0.763126
0.764853
0.762065
0.76699
0.76699
0.76699
0.766989
0.766981
0.766947
0.766877
0.766793
0.766697
0.766567
0.7664
0.766269
0.766219
0.766259
0.766426
0.766644
0.766843
0.766948
0.766983
0.766989
0.76699
0.76699
0.76699
0.76699
0.76699
0.76699
0.76699
0.76699
0.76699
0.76699
0.76699
0.76699
0.76699
0.76699
0.76699
0.76699
0.76699
0.76699
0.76699
0.76699
0.766989
0.766989
0.766987
0.766988
0.766977
0.766981
0.766984
0.766949
0.766961
0.766966
0.766973
0.766785
0.766806
0.766858
0.766899
0.766929
0.766631
0.766703
0.766721
0.766022
0.766207
0.766353
0.766475
0.764989
0.765273
0.765798
0.765544
0.764114
0.764272
0.764074
0.76373
0.762919
0.762906
0.762926
0.763045
0.762065
0.761986
0.761912
0.761843
0.761438
0.761304
0.761257
0.760655
0.760457
0.760672
0.760306
0.7603
0.760622
0.760681
0.760363
0.76035
0.760624
0.760973
0.761365
0.760996
0.760831
0.760437
0.760477
0.760841
0.766869
0.76274
0.764837
0.761645
0.76699
0.76699
0.766989
0.766978
0.766934
0.766849
0.766759
0.76666
0.766533
0.766375
0.766272
0.766236
0.766292
0.766462
0.766669
0.766855
0.766953
0.766984
0.766989
0.76699
0.76699
0.76699
0.76699
0.76699
0.76699
0.76699
0.76699
0.76699
0.76699
0.76699
0.76699
0.76699
0.76699
0.76699
0.76699
0.76699
0.76699
0.76699
0.76699
0.76699
0.766989
0.76699
0.766987
0.766988
0.766976
0.76698
0.766982
0.766985
0.76694
0.766955
0.766962
0.76697
0.76674
0.766763
0.766825
0.766877
0.766915
0.766567
0.766652
0.766668
0.765823
0.766062
0.766237
0.766389
0.764439
0.764833
0.765536
0.765195
0.763209
0.763438
0.763242
0.762782
0.761803
0.761786
0.761799
0.761936
0.761201
0.761159
0.761121
0.761085
0.760567
0.760484
0.760406
0.76018
0.760086
0.76025
0.758133
0.758087
0.760142
0.76032
0.760141
0.760098
0.760235
0.760852
0.761128
0.760889
0.760521
0.760182
0.760206
0.76055
0.765706
0.762306
0.763407
0.761263
0.76699
0.766988
0.766976
0.766922
0.766825
0.766725
0.766624
0.766499
0.766359
0.766278
0.766256
0.766328
0.766498
0.766694
0.766869
0.766957
0.766985
0.766989
0.76699
0.76699
0.76699
0.76699
0.76699
0.76699
0.76699
0.76699
0.76699
0.76699
0.76699
0.76699
0.76699
0.76699
0.76699
0.76699
0.76699
0.76699
0.76699
0.76699
0.76699
0.76699
0.766989
0.76699
0.766986
0.766984
0.766987
0.766988
0.766975
0.766979
0.766982
0.76693
0.766949
0.766957
0.766967
0.766685
0.766711
0.766786
0.766849
0.766897
0.766492
0.766591
0.766605
0.765549
0.765875
0.766083
0.766284
0.763704
0.76424
0.765185
0.764717
0.762163
0.762439
0.762065
0.761703
0.761066
0.761055
0.761068
0.76111
0.760371
0.760347
0.760394
0.760437
0.760267
0.757974
0.757991
0.758147
0.758144
0.758143
0.75679
0.756829
0.758282
0.760135
0.758362
0.758317
0.758547
0.7605
0.760871
0.760714
0.760225
0.758609
0.758678
0.760295
0.766658
0.761824
0.762769
0.76109
0.766989
0.766975
0.766915
0.766802
0.766695
0.76659
0.766468
0.766348
0.766287
0.766278
0.766366
0.766534
0.76672
0.766882
0.766962
0.766986
0.76699
0.76699
0.76699
0.76699
0.76699
0.76699
0.76699
0.76699
0.76699
0.76699
0.76699
0.76699
0.76699
0.76699
0.76699
0.76699
0.76699
0.76699
0.76699
0.76699
0.76699
0.76699
0.76699
0.76699
0.76699
0.76699
0.766989
0.76699
0.766984
0.766986
0.766987
0.766988
0.766973
0.766978
0.766981
0.766917
0.766942
0.766951
0.766964
0.766619
0.76665
0.766739
0.766816
0.766875
0.766399
0.766517
0.766533
0.765092
0.765582
0.765842
0.766135
0.762625
0.763315
0.764623
0.763926
0.761306
0.761497
0.761212
0.761064
0.760513
0.760537
0.760614
0.760624
0.758042
0.758
0.757994
0.757967
0.75816
0.756659
0.756621
0.756925
0.756875
0.756757
0.755875
0.755931
0.757058
0.758591
0.75715
0.757023
0.757325
0.760502
0.760767
0.760468
0.758727
0.757427
0.757517
0.758838
0.766833
0.761286
0.763125
0.760806
0.766976
0.766911
0.766787
0.766668
0.766561
0.766443
0.766342
0.766297
0.766304
0.766406
0.766571
0.766747
0.766896
0.766967
0.766987
0.76699
0.76699
0.76699
0.76699
0.76699
0.76699
0.76699
0.76699
0.76699
0.76699
0.76699
0.76699
0.76699
0.76699
0.76699
0.76699
0.76699
0.76699
0.76699
0.76699
0.76699
0.76699
0.76699
0.76699
0.76699
0.76699
0.766989
0.76699
0.766983
0.766985
0.766987
0.766989
0.766987
0.766988
0.76697
0.766977
0.76698
0.766901
0.766932
0.766943
0.766959
0.766544
0.766578
0.766684
0.766775
0.766848
0.766277
0.766425
0.766448
0.764279
0.765065
0.765436
0.765893
0.761504
0.762055
0.763655
0.762638
0.760718
0.760925
0.760777
0.760642
0.757943
0.75789
0.757863
0.757846
0.756602
0.756548
0.756508
0.756456
0.756737
0.755682
0.755624
0.756066
0.756011
0.755824
0.75551
0.755567