/*--------------------------------*- C++ -*----------------------------------*\
  =========                 |
  \\      /  F ield         | OpenFOAM: The Open Source CFD Toolbox
   \\    /   O peration     | Website:  https://openfoam.org
    \\  /    A nd           | Version:  dev
     \\/     M anipulation  |
\*---------------------------------------------------------------------------*/
FoamFile
{
    version     2.0;
    format      ascii;
    class       volScalarField;
    location    "2500";
    object      nut;
}
// * * * * * * * * * * * * * * * * * * * * * * * * * * * * * * * * * * * * * //

dimensions      [0 2 -1 0 0 0 0];

internalField   nonuniform List<scalar> 
9456
(
0.000124928
0.000128919
0.000122606
0.000120269
0.000150704
0.0001113
0.000111209
0.000159376
0.000142947
0.000105619
0.000107558
0.000155695
0.000161323
0.000124759
0.000103824
0.000104623
0.00014408
0.000173628
0.000149877
0.000114019
0.000102756
0.000103337
0.000129096
0.000174665
0.000169064
0.000129808
0.000109116
0.000101972
0.000102895
0.000120636
0.000170703
0.00017943
0.000151444
0.000117599
0.000106418
0.000101457
0.000102632
0.000114135
0.000158684
0.000187321
0.000170977
0.000131393
0.000111451
0.000104756
0.000101087
0.000102154
0.000109774
0.000142182
0.000187224
0.000184424
0.000149169
0.000119051
0.000108268
0.000103514
0.000100818
0.000101324
0.00010689
0.000130156
0.000182544
0.000191857
0.000169386
0.000130432
0.000112609
0.000106055
0.000102614
0.000100625
0.000100543
0.000105389
0.000121617
0.00017019
0.000198027
0.000184697
0.000145928
0.000118864
0.000109203
0.000104509
0.000101942
0.000100464
9.99611e-05
0.000104643
0.000115586
0.000154362
0.000197774
0.000195555
0.000163699
0.000128535
0.000112712
0.000106728
0.000103443
0.000101476
0.000100349
9.95548e-05
0.000104171
0.000111929
0.000138584
0.000193576
0.00020077
0.000181783
0.000141437
0.000117944
0.000109325
0.000105037
0.000102508
0.000101097
0.000100258
9.94414e-05
0.000103826
0.000109504
0.000130224
0.000183652
0.0002063
0.000194301
0.000156933
0.000125857
0.000112408
0.000106857
0.000103738
0.000101886
0.000100797
0.000100183
9.95252e-05
0.000103125
0.000107796
0.000123566
0.000168376
0.000207196
0.000203353
0.000173904
0.000136437
0.000116654
0.000109025
0.000105205
0.000102767
0.00010139
0.000100569
0.000100125
9.96193e-05
0.000102178
0.000106622
0.000118455
0.000153749
0.000204431
0.000208307
0.000189196
0.000149827
0.000122938
0.000111768
0.000106733
0.00010376
0.000102019
0.000100989
0.000100389
0.000100079
9.96825e-05
0.000101375
0.000105795
0.00011501
0.000140719
0.000197174
0.000212939
0.000201477
0.000164396
0.000131538
0.000115218
0.000108569
0.000105105
0.000102783
0.000101445
0.000100679
0.000100246
0.000100041
9.9708e-05
0.000100737
0.000105147
0.000112594
0.000133748
0.000185687
0.000215473
0.000209231
0.000179467
0.000142404
0.000120135
0.000110978
0.000106445
0.000103636
0.00010199
0.000101001
0.000100432
0.000100133
0.000100012
9.97024e-05
0.000100271
0.000104647
0.000110806
0.000127995
0.000171318
0.000214544
0.000215025
0.000193316
0.000154938
0.000126991
0.000113782
0.00010806
0.000104805
0.000102642
0.000101387
0.000100649
0.000100238
0.000100042
9.99886e-05
9.96843e-05
9.99854e-05
0.000104296
0.000109478
0.000123525
0.0001587
0.000210386
0.000217193
0.000205752
0.000168518
0.000135565
0.000117573
0.000110035
0.000106081
0.000103437
0.000101869
0.000100916
0.000100368
0.000100084
9.99686e-05
9.99692e-05
9.96621e-05
9.9853e-05
0.00010405
0.000108544
0.000120202
0.000148056
0.000201822
0.000220975
0.000213233
0.000181553
0.000146081
0.000122947
0.000112414
0.000107445
0.000104436
0.000102461
0.000101261
0.000100546
0.000100151
9.99601e-05
9.99093e-05
9.99535e-05
9.96344e-05
9.97902e-05
0.000103768
0.000107911
0.000117879
0.000140335
0.00019131
0.000221271
0.000218391
0.000194815
0.000157556
0.000129783
0.000115521
0.000109123
0.000105605
0.000103208
0.000101714
0.000100791
0.000100255
9.99743e-05
9.98577e-05
9.9862e-05
9.99411e-05
9.96089e-05
9.97711e-05
0.000103573
0.000107674
0.000116215
0.000135583
0.000179595
0.000220175
0.000221729
0.000205447
0.000169753
0.0001381
0.000119608
0.00011129
0.000106826
0.000104029
0.00010225
0.000101118
0.000100417
0.000100022
9.98265e-05
9.97772e-05
9.98248e-05
9.99326e-05
9.95845e-05
9.97999e-05
0.000103488
0.000107618
0.000115114
0.000131666
0.000168288
0.000216349
0.000223838
0.000214456
0.000181767
0.000147702
0.000124922
0.000113694
0.00010835
0.000105094
0.000102918
0.000101534
0.000100649
0.000100116
9.98283e-05
9.9711e-05
9.97149e-05
9.97978e-05
9.99239e-05
9.95537e-05
9.99049e-05
0.000103521
0.000107698
0.000114456
0.000128588
0.000159037
0.000208712
0.000226432
0.000220423
0.000192113
0.000158295
0.000131456
0.000116815
0.000110005
0.000106235
0.000103612
0.000102022
0.000100965
0.000100278
9.98791e-05
9.96762e-05
9.96241e-05
9.96674e-05
9.97732e-05
9.99172e-05
9.95235e-05
0.000100099
0.000103684
0.000107876
0.000114193
0.000126611
0.000151552
0.000199769
0.000226879
0.000224354
0.000202667
0.000168703
0.000139111
0.000121022
0.000112157
0.000107436
0.000104602
0.000102635
0.000101366
0.000100519
9.99852e-05
9.969e-05
9.95649e-05
9.95542e-05
9.96302e-05
9.97585e-05
9.99134e-05
9.95078e-05
0.000100381
0.000103956
0.000108132
0.000114188
0.000125077
0.0001458
0.000190213
0.000226287
0.000227128
0.000211499
0.000179026
0.000147783
0.000125904
0.000114636
0.000108991
0.000105627
0.000103298
0.000101839
0.000100838
0.000100162
9.97569e-05
9.95456e-05
9.94742e-05
9.95048e-05
9.96074e-05
9.97505e-05
9.99116e-05
9.95214e-05
0.000100753
0.000104321
0.000108478
0.000114262
0.000123789
0.000141829
0.000180655
0.000223493
0.000228582
0.000219297
0.00018883
0.000156868
0.000131972
0.000117646
0.000110758
0.000106744
0.000104185
0.000102416
0.000101235
0.000100408
9.98818e-05
9.95813e-05
9.943e-05
9.94127e-05
9.94767e-05
9.9596e-05
9.97487e-05
9.99125e-05
9.95723e-05
0.000101202
0.000104756
0.000108851
0.000114464
0.000122759
0.000138428
0.000171556
0.000217687
0.000231145
0.000224856
0.000197487
0.0001661
0.000138801
0.00012161
0.000112798
0.000108086
0.000105145
0.00010305
0.000101678
0.000100719
0.000100069
9.9666e-05
9.94433e-05
9.93536e-05
9.93818e-05
9.94668e-05
9.95965e-05
9.97561e-05
9.99175e-05
9.96637e-05
0.00010173
0.000105235
0.000109281
0.000114803
0.000121955
0.000135655
0.000163967
0.000210308
0.000232227
0.000228527
0.000206377
0.000175029
0.000146263
0.000126161
0.000115223
0.000109615
0.000106174
0.000103841
0.000102221
0.000101089
0.000100315
9.98106e-05
9.95044e-05
9.9351e-05
9.93226e-05
9.93719e-05
9.94789e-05
9.96134e-05
9.9777e-05
9.99285e-05
9.98077e-05
0.000102313
0.000105774
0.000109733
0.000115131
0.000121268
0.00013342
0.000157836
0.000202122
0.000232322
0.000231493
0.000214367
0.000183623
0.000154364
0.000131407
0.000118184
0.000111373
0.000107355
0.000104749
0.000102807
0.000101517
0.000100626
0.000100018
9.96214e-05
9.93978e-05
9.93134e-05
9.9322e-05
9.93928e-05
9.95191e-05
9.96537e-05
9.98193e-05
9.99493e-05
0.000100024
0.000102939
0.000106361
0.000110208
0.000115383
0.000120836
0.000131761
0.000153051
0.000193841
0.000231115
0.000233473
0.000221578
0.000191903
0.000162338
0.000137632
0.000121702
0.000113377
0.000108742
0.000105687
0.000103547
0.000102048
0.000101003
0.000100288
9.97997e-05
9.95011e-05
9.93516e-05
9.93162e-05
9.93621e-05
9.94518e-05
9.95997e-05
9.97326e-05
9.98927e-05
9.99856e-05
0.000100317
0.000103606
0.000106987
0.000110701
0.000115583
0.000120607
0.000130528
0.000149221
0.00018578
0.000227386
0.000235472
0.000227902
0.000199922
0.000170298
0.000144167
0.000125956
0.000115655
0.00011022
0.000106759
0.000104398
0.000102627
0.000101441
0.000100619
0.000100036
9.9657e-05
9.94456e-05
9.93573e-05
9.93663e-05
9.94613e-05
9.95677e-05
9.97357e-05
9.98719e-05
0.000100012
0.000100021
0.000100079
0.000100662
0.000104285
0.00010763
0.000111227
0.000115796
0.000120533
0.000129581
0.000145945
0.000178197
0.000221824
0.000238078
0.000231923
0.00020736
0.000178307
0.000151115
0.000130573
0.000118542
0.00011189
0.000107957
0.000105276
0.000103348
0.000101968
0.000101006
0.00010033
9.98618e-05
9.95866e-05
9.94489e-05
9.94274e-05
9.94828e-05
9.96382e-05
9.97688e-05
9.99517e-05
0.000100002
0.000100072
0.000100124
0.000100124
0.000100216
0.000100048
0.000100135
0.000101083
0.00010495
0.000108267
0.000111781
0.000115983
0.000120579
0.000128835
0.000143315
0.000171554
0.000215191
0.000239022
0.000235752
0.000215309
0.000185834
0.000158547
0.000135801
0.000121618
0.000113913
0.000109307
0.000106264
0.000104151
0.000102569
0.000101447
0.000100679
0.000100129
9.97657e-05
9.95884e-05
9.95304e-05
9.9589e-05
9.9691e-05
9.99174e-05
0.000100086
0.000100127
0.000100256
0.00010021
0.000100237
0.000100322
0.00010036
0.00010007
0.000100217
0.000101604
0.000105589
0.000108885
0.000112301
0.000116276
0.000120724
0.000128204
0.000141227
0.0001659
0.000207992
0.000238904
0.000238901
0.000222741
0.000193269
0.000165721
0.000141792
0.00012516
0.000115949
0.000110785
0.000107382
0.000104988
0.000103262
0.000101984
0.000101074
0.000100452
0.000100007
9.97613e-05
9.96907e-05
9.97104e-05
9.98745e-05
0.000100038
0.000100343
0.000100355
0.000100549
0.000100332
0.00010048
0.000100449
0.000100382
0.000100519
0.000100567
0.000100105
0.000100327
0.000102194
0.000106204
0.00010948
0.000112813
0.00011666
0.000120884
0.000127667
0.000139513
0.000161166
0.0002006
0.000237648
0.000240771
0.000230156
0.00020106
0.000172816
0.000147941
0.000129392
0.000118367
0.00011236
0.000108582
0.00010593
0.000104024
0.000102557
0.000101517
0.000100809
0.000100306
0.000100011
9.98663e-05
9.9918e-05
0.000100021
0.000100323
0.000100575
0.000100692
0.000100941
0.000100663
0.000100873
0.000100614
0.000100818
0.000100709
0.000100578
0.000100798
0.000100846
0.000100151
0.00010047
0.000102759
0.000106793
0.000110061
0.000113331
0.000116997
0.000121006
0.000127207
0.00013807
0.000157144
0.000193217
0.000234241
0.000243853
0.000235738
0.000208465
0.000180256
0.000154426
0.000133947
0.000121238
0.000114167
0.000109875
0.000106935
0.000104816
0.000103214
0.000102053
0.000101217
0.000100657
0.000100305
0.000100158
0.000100112
0.000100286
0.000100531
0.000101035
0.000101124
0.000101412
0.000101117
0.000101381
0.000101059
0.000101341
0.000100948
0.000101228
0.000101064
0.000100838
0.000101178
0.000101209
0.000100207
0.000100662
0.000103177
0.000107273
0.000110585
0.00011383
0.000117349
0.000121199
0.000126818
0.000136843
0.0001537
0.000186085
0.000229084
0.000247394
0.000240393
0.000216139
0.000187318
0.000161377
0.000139149
0.000124332
0.000116088
0.000111254
0.000108034
0.000105676
0.000103948
0.000102606
0.000101691
0.000101067
0.000100664
0.00010045
0.000100444
0.000100563
0.00010088
0.0001013
0.000101635
0.000101961
0.000101683
0.000101994
0.000101654
0.000102006
0.000101556
0.000101936
0.000101399
0.000101772
0.000101542
0.000101167
0.000101685
0.00010167
0.000100287
9.8369e-05
0.000103447
0.000107604
0.000110989
0.000114264
0.000117695
0.000121399
0.000126608
0.000135788
0.000150785
0.000179526
0.000222894
0.000248777
0.000245428
0.000224426
0.000194316
0.000168083
0.000144976
0.000128024
0.000118206
0.000112781
0.000109179
0.000106626
0.000104705
0.000103283
0.00010225
0.000101537
0.000101099
0.000100818
0.00010076
0.000100898
0.000101257
0.0001019
0.000102214
0.000102564
0.000102345
0.000102697
0.000102386
0.000102799
0.000102347
0.000102809
0.000102226
0.000102704
0.00010201
0.000102502
0.000102182
9.65771e-05
0.000102224
9.38467e-05
8.43644e-05
8.29386e-05
0.000103584
0.000107791
0.000111251
0.000114577
0.000117959
0.00012158
0.000126523
0.000134933
0.000148401
0.00017375
0.000215943
0.000248204
0.000248849
0.00023283
0.000202129
0.000174719
0.00015089
0.000132306
0.000120751
0.000114416
0.000110402
0.000107621
0.00010554
0.000103986
0.000102832
0.000102084
0.000101589
0.00010131
0.000101157
0.000101322
0.000101696
0.000102286
0.000102855
0.000103218
0.000103075
0.000103482
0.000103224
0.000103685
0.000103269
0.000103791
0.000103198
0.000103765
0.000103001
0.000103594
0.000102698
0.000103282
0.000102785
8.14527e-05
9.10883e-05
7.96892e-05
7.13058e-05
7.06157e-05
0.000103584
0.000107841
0.000111358
0.000114742
0.000118121
0.000121715
0.000126372
0.000134226
0.000146457
0.000168724
0.000208516
0.000247058
0.000251847
0.000240514
0.000210151
0.000181887
0.000157077
0.000136904
0.000123674
0.000116159
0.000111731
0.000108659
0.000106447
0.000104711
0.000103514
0.000102641
0.000102125
0.000101838
0.000101738
0.000101959
0.000102469
0.000103335
0.00010359
0.000103924
0.000103844
0.000104273
0.000104125
0.000104602
0.000104305
0.000104845
0.000104343
0.000104939
0.000104215
0.00010484
0.000103886
0.000104534
0.000100074
9.77642e-05
8.85685e-05
6.95376e-05
7.7873e-05
6.84736e-05
6.1055e-05
6.08061e-05
0.000103417
0.000107744
0.000111285
0.000114702
0.000118147
0.000121788
0.00012632
0.000133675
0.000144848
0.000164388
0.000200882
0.00024411
0.000256639
0.000246884
0.000218016
0.000188942
0.000163743
0.000142048
0.00012694
0.000118138
0.000113184
0.000109788
0.000107392
0.000105542
0.000104194
0.000103288
0.000102654
0.000102384
0.000102389
0.000102285
0.000102454
0.00010298
0.000104135
0.000104378
0.000104488
0.000104569
0.000104952
0.000105142
0.000105315
0.000105623
0.000105503
0.000105937
0.000105461
0.000105987
0.000104497
0.000104168
9.57619e-05
9.43641e-05
8.65087e-05
8.51902e-05
7.60624e-05
6.01015e-05
6.71618e-05
5.94583e-05
5.273e-05
5.27594e-05
0.000103063
0.000107453
0.000110969
0.000114475
0.000118002
0.000121779
0.000126288
0.000133267
0.000143517
0.000160752
0.00019358
0.000238115
0.000260495
0.000253353
0.00022734
0.000196001
0.000170251
0.000147735
0.000130713
0.000120421
0.000114701
0.000110986
0.000108393
0.000106439
0.00010495
0.000103928
0.000103278
0.000102945
0.000102722
0.0001024
0.000101135
9.84727e-05
9.51326e-05
0.0001042
0.000101046
0.000105095
0.000104123
0.000105749
0.000102841
0.000106181
0.000102496
0.000106371
0.000104969
0.000101781
0.000102521
9.36143e-05
9.44273e-05
8.405e-05
8.3607e-05
7.46942e-05
7.42097e-05
6.58756e-05
5.21101e-05
5.82794e-05
5.19045e-05
4.59622e-05
4.60403e-05
0.000102583
0.000106999
0.000110388
0.000113937
0.000117701
0.000121625
0.000126256
0.000132883
0.00014233
0.000157709
0.00018687
0.000231236
0.000261247
0.000258906
0.000237233
0.000204191
0.000176822
0.000153519
0.000134959
0.000123044
0.000116285
0.000112276
0.000109394
0.000107384
0.000105772
0.000104664
0.000103878
0.000103463
0.00010291
0.000101158
9.61676e-05
8.89418e-05
8.30344e-05
7.95818e-05
7.26212e-05
0.000100713
9.23148e-05
0.000103026
9.63852e-05
9.66082e-05
9.47135e-05
9.86748e-05
9.495e-05
9.84429e-05
9.82985e-05
9.27732e-05
9.53473e-05
8.40257e-05
8.57959e-05
7.33946e-05
7.39499e-05
6.48455e-05
6.44589e-05
5.73345e-05
4.52893e-05
5.05437e-05
4.57419e-05
4.05701e-05
4.03007e-05
0.000102536
0.000106728
0.000110072
0.000113243
0.000117048
0.000121305
0.000126184
0.000132511
0.000141333
0.000155155
0.000180832
0.000223843
0.000259916
0.00026251
0.000246612
0.00021308
0.000183998
0.00015963
0.00013952
0.000125975
0.000118086
0.000113632
0.000110531
0.000108287
0.000106668
0.000105379
0.000104575
0.000103728
0.000102198
9.77276e-05
9.69021e-05
0.000115314
0.000125498
8.40249e-05
0.000128533
7.60618e-05
9.79394e-05
8.44171e-05
7.33899e-05
8.96073e-05
7.7271e-05
8.9696e-05
8.18035e-05
8.92285e-05
8.5495e-05
9.03811e-05
8.51272e-05
8.4707e-05
8.39703e-05
7.45398e-05
7.60834e-05
6.39361e-05
6.46871e-05
5.63476e-05
5.605e-05
4.96218e-05
4.00469e-05
4.33651e-05
3.99052e-05
3.62322e-05
3.58285e-05
0.000102853
0.000107181
0.000110011
0.000112784
0.000116074
0.000120868
0.000126082
0.000132207
0.000140682
0.000152994
0.000175493
0.00021586
0.000258217
0.000267202
0.000255128
0.000221975
0.000191407
0.000166216
0.000144651
0.000129269
0.000120138
0.00011499
0.000111708
0.00010934
0.000107569
0.000106161
0.000104951
0.000103592
9.99377e-05
9.89481e-05
0.000123692
0.000171511
0.000260574
0.000193613
0.000308634
0.000159744
0.000261927
0.00012896
0.000223557
7.56122e-05
8.90842e-05
7.49696e-05
8.364e-05
7.60788e-05
7.97953e-05
7.8201e-05
7.71682e-05
8.21197e-05
7.5697e-05
7.30661e-05
7.67963e-05
6.34833e-05
6.6417e-05
5.61479e-05
5.66068e-05
4.91692e-05
4.96558e-05
4.33999e-05
3.59579e-05
3.73465e-05
3.42323e-05
3.29136e-05
3.27492e-05
0.000103972
0.000108105
0.000110746
0.00011286
0.000115935
0.000120565
0.000126048
0.000132025
0.000140156
0.000151247
0.000170936
0.000207716
0.000254592
0.000272619
0.000262751
0.000231984
0.000198969
0.000172839
0.000150308
0.000133071
0.000122504
0.000116465
0.000112881
0.000110401
0.000108608
0.000107029
0.00010526
0.000102393
9.86747e-05
0.000115779
0.000171576
0.000300656
0.000423432
0.000476589
0.000362015
0.000440016
0.000322707
0.000398588
0.000285318
0.000366315
0.000112136
0.000189862
9.79954e-05
0.000157064
8.87266e-05
0.000122369
8.26188e-05
0.000107243
7.89127e-05
9.38329e-05
7.56849e-05
8.43798e-05
6.2789e-05
7.87032e-05
5.12942e-05
6.48486e-05
4.36778e-05
4.59631e-05
3.96394e-05
3.2161e-05
3.43367e-05
3.07914e-05
3.10668e-05
3.04491e-05
0.000106527
0.00011215
0.000114798
0.000115022
0.000116816
0.000120752
0.000126175
0.000131996
0.000139546
0.000150152
0.000167194
0.000199989
0.000247371
0.000275541
0.000269843
0.000243297
0.000207726
0.000179612
0.000156243
0.000137351
0.000125165
0.000118118
0.000114137
0.000111476
0.000109615
0.00010784
0.000105262
9.97812e-05
0.000102863
0.00015494
0.000275153
0.000445117
0.000518217
0.000505305
0.000483005
0.000495972
0.000444212
0.00047194
0.000411274
0.000446505
0.000382918
0.000418634
0.000251325
0.000335919
0.000213177
0.000303222
0.000174427
0.000266094
0.000140288
0.000227714
0.000110425
0.000186475
9.34831e-05
0.000140364
8.23252e-05
0.000105279
6.56952e-05
8.61988e-05
3.95463e-05
6.1563e-05
3.42542e-05
2.95874e-05
2.92017e-05
2.64037e-05
3.00694e-05
2.88873e-05
0.000118945
0.000125458
0.000124493
0.000121437
0.000122488
0.000126746
0.000132325
0.000139171
0.000149627
0.000164292
0.000192981
0.000239281
0.000274924
0.000275038
0.000254153
0.000217562
0.000187115
0.000162525
0.000142133
0.00012813
0.000119995
0.000115405
0.000112614
0.00011061
0.000108678
0.000104377
9.89981e-05
0.00012108
0.000202891
0.000390127
0.000528725
0.000555456
0.000526376
0.00049119
0.000467848
0.000469994
0.00045706
0.000466405
0.000430146
0.000439854
0.000405203
0.000415762
0.000356193
0.000391417
0.000327752
0.000363122
0.000292683
0.000336027
0.000261107
0.000308718
0.000225092
0.000280868
0.000174812
0.000249941
0.000120863
0.000202092
8.70549e-05
0.000136036
5.09888e-05
8.49964e-05
3.54366e-05
2.78693e-05
2.82938e-05
2.56597e-05
2.67235e-05
3.13227e-05
3.01842e-05
2.936e-05
0.000130743
0.000139118
0.000135269
0.000128298
0.000128972
0.000133329
0.000139459
0.000148902
0.00016227
0.000186969
0.000231075
0.000272774
0.000279662
0.000264382
0.000227589
0.000195134
0.000169296
0.000147457
0.000131584
0.000122149
0.000116738
0.000113638
0.000111617
0.000109344
0.000102841
0.000103378
0.000162245
0.000302379
0.000495938
0.000577532
0.000567087
0.000535229
0.000516346
0.0004938
0.000533263
0.000459967
0.000473039
0.00044473
0.000449132
0.000424287
0.000429207
0.000404347
0.000412349
0.000382464
0.000393986
0.000358897
0.000375085
0.000336832
0.000355356
0.000315866
0.00033664
0.000294398
0.000319191
0.000261901
0.000300665
0.000218703
0.000272535
0.000143468
0.000226723
7.65071e-05
0.000145678
0.000105512
4.67447e-05
5.59695e-05
2.78971e-05
2.78599e-05
2.69368e-05
2.76773e-05
4.88805e-05
5.43243e-05
2.61055e-05
3.34283e-05
3.33152e-05
3.26242e-05
3.00437e-05
0.000143169
0.00015361
0.000145055
0.000135395
0.000136068
0.000140575
0.000148487
0.000161412
0.00018206
0.000222502
0.000270244
0.000285554
0.000273629
0.000238345
0.000203411
0.000176369
0.000153284
0.000135563
0.000124585
0.000118304
0.000114712
0.000112367
0.000109243
0.000102276
0.000121987
0.000216723
0.000410681
0.000566545
0.000598673
0.000576558
0.000545841
0.000556844
0.000571692
0.000615489
0.00057356
0.000605353
0.000480688
0.000525824
0.000441942
0.000456182
0.000425891
0.000441616
0.000413009
0.000431376
0.000385528
0.000397167
0.000369124
0.000386854
0.000355263
0.000377151
0.000340438
0.000365497
0.000324296
0.000353662
0.000306843
0.000341715
0.000250671
0.000279857
0.000297173
0.000320129
0.000187331
0.000232858
0.000280026
0.00029034
0.000259262
0.000131619
8.11803e-05
0.000135489
0.000187651
7.01184e-05
2.49487e-05
2.872e-05
2.76266e-05
3.93893e-05
5.1895e-05
5.94911e-05
3.19092e-05
3.66356e-05
3.83508e-05
3.1753e-05
2.94705e-05
0.000157841
0.000168555
0.000152915
0.000142667
0.000143301
0.000149184
0.000160887
0.000178301
0.000214188
0.000265412
0.00029058
0.000281884
0.000250583
0.000212718
0.00018363
0.000159691
0.000140021
0.000127377
0.000119935
0.000116013
0.000113283
0.000108468
0.000106371
0.000159305
0.000298794
0.000511784
0.000614745
0.000613922
0.000581176
0.00056257
0.000590033
0.000640069
0.000626373
0.000639012
0.000607807
0.000625122
0.00056093
0.00058999
0.000471023
0.000515876
0.000464106
0.000504739
0.000461585
0.000490592
0.000405083
0.000430714
0.000402783
0.000428516
0.000394176
0.000425466
0.000385166
0.000419064
0.000373528
0.000410066
0.000337312
0.000358094
0.000376412
0.000396783
0.000303918
0.000326237
0.000347647
0.000230975
0.000264777
0.000313762
0.000319795
0.000293681
0.000188529
0.000125271
0.000181203
0.00023153
0.0001098
2.66548e-05
2.88394e-05
2.64115e-05
4.73882e-05
9.15226e-05
7.14981e-05
4.55519e-05
4.56976e-05
3.433e-05
4.37752e-05
3.17691e-05
0.000174801
0.00018309
0.000158265
0.000149332
0.000151387
0.000160458
0.000176174
0.000206889
0.000257217
0.000292372
0.000288893
0.000262855
0.000223292
0.000191596
0.000166432
0.000145349
0.000130422
0.000122125
0.000117034
0.000113785
0.000106827
0.000113503
0.0002009
0.000392266
0.000591755
0.000650225
0.000623832
0.000587628
0.000585448
0.000624951
0.000651831
0.00057492
0.000544183
0.000625227
0.000609832
0.000594027
0.000568633
0.000588016
0.000600463
0.00054081
0.000564269
0.000516699
0.000534757
0.000488237
0.000510086
0.000456128
0.000475085
0.000445255
0.000458829
0.000438803
0.000447691
0.000436565
0.000440289
0.000414281
0.000429618
0.000437746
0.000440219
0.000368477
0.000389034
0.00040823
0.000424314
0.000335689
0.0003583
0.000380176
0.000267342
0.000298358
0.000344563
0.000352617
0.000326189
0.000228205
0.000169566
0.00022149
0.000267755
0.000154805
3.859e-05
2.91886e-05
3.01237e-05
5.74537e-05
0.000134646
0.00011012
4.77837e-05
6.1828e-05
3.76761e-05
5.33172e-05
3.44147e-05
0.000194146
0.000195022
0.00016144
0.000156377
0.000161657
0.000175709
0.000200856
0.000248198
0.000290955
0.000294859
0.00027468
0.000234349
0.000200156
0.00017375
0.000151075
0.000134551
0.000124227
0.000118665
0.000114032
0.000104248
0.000126081
0.000246718
0.000484843
0.000652713
0.000667304
0.000624337
0.000596591
0.000613783
0.000657843
0.000656851
0.000372173
0.000380512
0.000273374
0.000517069
0.000448636
0.000452016
0.000369799
0.000554707
0.000519547
0.000560668
0.000565818
0.00052489
0.000522594
0.000484001
0.000470225
0.00047456
0.000483007
0.000456536
0.000459968
0.000447497
0.000422869
0.000441795
0.000388614
0.000408979
0.000434639
0.000437779
0.000439135
0.000439148
0.000399658
0.000417367
0.000428915
0.000433324
0.000368088
0.000389708
0.000408818
0.00030186
0.00033211
0.000376585
0.00038316
0.00035956
0.0002658
0.000211572
0.000261301
0.000303711
0.000196237
4.3793e-05
3.07618e-05
4.2773e-05
8.29518e-05
0.000176151
0.000150665
6.19657e-05
9.98733e-05
4.34432e-05
7.10859e-05
3.60819e-05
0.000215005
0.000196167
0.000165349
0.000165304
0.00017564
0.000196198
0.000239506
0.000288111
0.000301779
0.000286197
0.000246023
0.000209281
0.000181313
0.000157847
0.000138745
0.000127468
0.000120156
0.000114034
0.000101204
0.000139783
0.000301298
0.000566448
0.000693366
0.00068353
0.000630857
0.000612475
0.000649837
0.000693692
0.000646788
0.000289555
0.000146656
0.000134595
0.000175254
0.000140386
0.000278185
0.000213941
0.000216709
0.000171572
0.000385844
0.000290421
0.000504052
0.00045891
0.000437097
0.000381447
0.000357316
0.000289338
0.000448582
0.000411457
0.000397757
0.000363011
0.000379146
0.000339987
0.000434877
0.000423593
0.000336461
0.000369623
0.000433624
0.000433057
0.000429388
0.000420102
0.000422105
0.000428358
0.000428343
0.000427097
0.00039701
0.000413516
0.000422057
0.000336464
0.000364658
0.000402108
0.000403893
0.000387257
0.000303888
0.000251934
0.000300256
0.000339235
0.000237918
4.84609e-05
4.06594e-05
4.23098e-05
0.000120673
0.000217612
0.000191004
9.05241e-05
9.97177e-05
4.79612e-05
8.04701e-05
3.88875e-05
0.000231711
0.000190421
0.000172002
0.000177076
0.000193866
0.000231519
0.00028505
0.000308832
0.000296499
0.000259047
0.000219295
0.000189613
0.000164784
0.00014465
0.000130323
0.000122413
0.000113308
9.68611e-05
0.000160828
0.000362249
0.000636263
0.000726063
0.000696549
0.000638197
0.000633727
0.000686602
0.000728521
0.000617193
0.000259059
0.000113046
9.16822e-05
8.54938e-05
0.000102449
9.25954e-05
0.000141843
0.000118168
0.000117236
9.93342e-05
0.000179748
0.000145876
0.000303211
0.000226918
0.000220358
0.000179717
0.00017984
0.000148005
0.000294756
0.000225454
0.000274589
0.000222045
0.000321467
0.000295044
0.000243853
0.000270691
0.000399611
0.000389791
0.000297736
0.00032255
0.000422901
0.000414199
0.000401867
0.000386226
0.000423261
0.000421459
0.000416949
0.000408343
0.000414327
0.000418035
0.000415846
0.000367908
0.000389107
0.000411432
0.000406316
0.000402726
0.00033953
0.000292413
0.00033674
0.000369111
0.000279111
6.53086e-05
4.07042e-05
4.9569e-05
0.000160503
0.000258953
0.000232129
0.000127987
5.62603e-05
4.42954e-05
4.73514e-05
4.46103e-05
0.000237696
0.000187277
0.000180539
0.000193675
0.000224219
0.000279831
0.00031383
0.000305959
0.000273126
0.000230534
0.000198481
0.000173012
0.000150644
0.000135294
0.0001243
0.000110895
9.52859e-05
0.000185695
0.000432091
0.000690817
0.000754064
0.000703618
0.000650507
0.000662166
0.000742021
0.000760102
0.000575654
0.00024378
0.000114113
8.54794e-05
8.77865e-05
8.30925e-05
8.3766e-05
8.25803e-05
8.21767e-05
8.99188e-05
8.48002e-05
8.39358e-05
8.08901e-05
0.000100301
8.97493e-05
0.000149646
0.000120127
0.000118176
9.88819e-05
0.000100927
8.57674e-05
0.000172464
0.000129398
0.000190368
0.000151697
0.000273536
0.000250507
0.00020763
0.000228931
0.000367447
0.00034597
0.000265848
0.00028558
0.000396283
0.000381208
0.000364005
0.000345106
0.00041121
0.000403127
0.000391197
0.000376639
0.00041108
0.000406555
0.000398432
0.000388928
0.000399508
0.000402094
0.000392071
0.000399393
0.000368431
0.000329756
0.000365473
0.000387377
0.000317555
9.70312e-05
4.15619e-05
6.93912e-05
0.000200612
0.000298411
0.000272154
0.000168027
2.15378e-05
3.78164e-05
2.19252e-05
3.88632e-05
0.000231313
0.000191856
0.000194561
0.000218385
0.00027077
0.000315359
0.000314863
0.000287672
0.000242881
0.000207979
0.000181879
0.000158642
0.000139844
0.000127386
0.000105299
9.83712e-05
0.000224315
0.000506333
0.000737228
0.00076919
0.000706505
0.000667402
0.000699931
0.000784061
0.000778597
0.000522341
0.000232714
0.000112204
8.83618e-05
8.45962e-05
8.56176e-05
8.21994e-05
8.33993e-05
7.95969e-05
8.08164e-05
7.93398e-05
7.89035e-05
7.80546e-05
7.78246e-05
7.96005e-05
7.83372e-05
8.8494e-05
8.25076e-05
7.83134e-05
7.581e-05
7.73846e-05
7.17866e-05
0.000119152
9.32981e-05
0.000175129
0.000154742
0.000141275
0.000124469
0.000246524
0.000227847
0.000192275
0.000209881
0.000324972
0.000305213
0.00024638
0.000263596
0.000360707
0.000344641
0.00032891
0.000312823
0.000386688
0.000372612
0.000358281
0.000344462
0.000394774
0.000383003
0.000369274
0.000395207
0.000391687
0.000380979
0.000366882
0.000381086
0.000384995
0.000359656
0.000381802
0.000390759
0.000349553
0.000136493
5.16203e-05
0.000105933
0.000240642
0.000332987
0.000308785
0.0002079
8.61581e-06
3.18993e-05
9.99211e-06
4.13479e-05
0.000222109
0.000199904
0.000216814
0.000261709
0.000313884
0.000324743
0.000302546
0.000256623
0.000218417
0.000190718
0.000167732
0.000145961
0.000127752
9.87239e-05
0.00011287
0.000277921
0.000579721
0.000769053
0.000782918
0.000713014
0.00068505
0.000739989
0.000818142
0.000793616
0.000463411
0.000221209
0.000110776
9.10528e-05
8.67457e-05
8.82615e-05
8.46082e-05
8.56886e-05
8.21132e-05
8.34582e-05
7.9022e-05
8.05317e-05
7.7675e-05
7.80356e-05
7.62769e-05
7.58734e-05
7.63545e-05
7.65308e-05
7.56088e-05
7.60898e-05
7.14372e-05
7.23595e-05
7.03274e-05
6.65574e-05
0.000112478
9.87452e-05
8.30898e-05
0.000166087
0.000151319
0.000137204
0.000123615
0.000229388
0.000212803
0.00018111
0.000196716
0.00029645
0.000280172
0.000234693
0.000248176
0.000330968
0.000317387
0.000303468
0.000289498
0.000355649
0.000342568
0.000329555
0.000317446
0.000366898
0.00035249
0.000338522
0.000384298
0.000370121
0.000350708
0.000334398
0.000352707
0.000386975
0.000377708
0.000384091
0.000378175
0.000371146
0.000177861
7.54703e-05
0.000150141
0.000278432
0.00035926
0.00033904
0.000247055
3.24774e-06
3.13182e-05
6.17822e-06
5.4491e-05
0.000217166
0.00021759
0.000252645
0.000310578
0.000334617
0.000317468
0.000271497
0.000230109
0.000201263
0.000175659
0.000153686
0.000124633
9.51657e-05
0.00014544
0.000356891
0.0006536
0.000798338
0.000794399
0.000721262
0.000705173
0.000778255
0.000851311
0.000791528
0.000402304
0.000206209
0.00010978
9.35837e-05
9.02594e-05
8.69096e-05
8.81382e-05
8.46178e-05
8.57488e-05
8.2171e-05
8.34585e-05
7.89463e-05
8.06736e-05
7.60672e-05
7.71999e-05
7.47311e-05
7.5064e-05
7.3757e-05
7.44247e-05
7.29482e-05
7.31862e-05
6.77667e-05
6.96857e-05
7.02686e-05
6.62681e-05
0.000110713
9.87973e-05
7.86424e-05
8.88776e-05
0.000165465
0.000151504
0.000137741
0.000124422
0.000221077
0.000207323
0.00017945
0.000193418
0.000275545
0.000261745
0.000235081
0.000246939
0.000306445
0.000296561
0.000287384
0.000278144
0.000325919
0.000315527
0.000307749
0.000301735
0.000334778
0.000321175
0.00031171
0.000360386
0.00033933
0.000317978
0.000302701
0.000318752
0.000373901
0.000382158
0.000371445
0.000352838
0.000379453
0.000219951
0.000118564
0.00019536
0.000312057
0.000373421
0.000359188
0.000283751