/*--------------------------------*- C++ -*----------------------------------*\
  =========                 |
  \\      /  F ield         | OpenFOAM: The Open Source CFD Toolbox
   \\    /   O peration     | Website:  https://openfoam.org
    \\  /    A nd           | Version:  dev
     \\/     M anipulation  |
\*---------------------------------------------------------------------------*/
FoamFile
{
    version     2.0;
    format      ascii;
    class       volScalarField;
    location    "2500";
    object      O2;
}
// * * * * * * * * * * * * * * * * * * * * * * * * * * * * * * * * * * * * * //

dimensions      [0 0 0 0 0 0 0];

internalField   nonuniform List<scalar> 
9456
(
0.23301
0.23301
0.23301
0.23301
0.23301
0.23301
0.23301
0.23301
0.23301
0.23301
0.23301
0.23301
0.23301
0.23301
0.23301
0.23301
0.23301
0.23301
0.23301
0.23301
0.23301
0.23301
0.23301
0.23301
0.23301
0.23301
0.23301
0.23301
0.23301
0.23301
0.23301
0.23301
0.23301
0.23301
0.23301
0.23301
0.23301
0.23301
0.23301
0.23301
0.23301
0.23301
0.23301
0.23301
0.23301
0.23301
0.23301
0.23301
0.23301
0.23301
0.23301
0.23301
0.23301
0.23301
0.23301
0.23301
0.23301
0.23301
0.23301
0.23301
0.23301
0.23301
0.23301
0.23301
0.23301
0.23301
0.23301
0.23301
0.23301
0.23301
0.23301
0.23301
0.23301
0.23301
0.23301
0.23301
0.23301
0.23301
0.23301
0.23301
0.23301
0.23301
0.23301
0.23301
0.23301
0.23301
0.23301
0.23301
0.23301
0.23301
0.23301
0.23301
0.23301
0.23301
0.23301
0.23301
0.23301
0.23301
0.23301
0.23301
0.23301
0.23301
0.23301
0.23301
0.23301
0.23301
0.23301
0.23301
0.23301
0.23301
0.23301
0.23301
0.23301
0.23301
0.23301
0.23301
0.23301
0.23301
0.23301
0.23301
0.23301
0.23301
0.23301
0.23301
0.23301
0.23301
0.23301
0.23301
0.23301
0.23301
0.23301
0.23301
0.23301
0.23301
0.23301
0.23301
0.23301
0.23301
0.23301
0.23301
0.23301
0.23301
0.23301
0.23301
0.23301
0.23301
0.23301
0.23301
0.23301
0.23301
0.23301
0.23301
0.23301
0.23301
0.23301
0.23301
0.23301
0.23301
0.23301
0.23301
0.23301
0.23301
0.23301
0.23301
0.23301
0.23301
0.23301
0.23301
0.23301
0.23301
0.23301
0.23301
0.23301
0.23301
0.23301
0.23301
0.23301
0.23301
0.23301
0.23301
0.23301
0.23301
0.23301
0.23301
0.23301
0.23301
0.23301
0.23301
0.23301
0.23301
0.23301
0.23301
0.23301
0.23301
0.23301
0.23301
0.23301
0.23301
0.23301
0.23301
0.23301
0.23301
0.23301
0.23301
0.23301
0.23301
0.23301
0.23301
0.23301
0.23301
0.23301
0.23301
0.23301
0.23301
0.23301
0.23301
0.23301
0.23301
0.23301
0.23301
0.23301
0.23301
0.23301
0.23301
0.23301
0.23301
0.23301
0.23301
0.23301
0.23301
0.23301
0.23301
0.23301
0.23301
0.23301
0.23301
0.23301
0.23301
0.23301
0.23301
0.23301
0.23301
0.23301
0.23301
0.23301
0.23301
0.23301
0.23301
0.23301
0.23301
0.23301
0.23301
0.23301
0.23301
0.23301
0.23301
0.23301
0.23301
0.23301
0.23301
0.23301
0.23301
0.23301
0.23301
0.23301
0.23301
0.23301
0.23301
0.23301
0.23301
0.23301
0.23301
0.23301
0.23301
0.23301
0.23301
0.23301
0.23301
0.23301
0.23301
0.23301
0.23301
0.23301
0.23301
0.23301
0.23301
0.23301
0.23301
0.23301
0.23301
0.23301
0.23301
0.23301
0.23301
0.23301
0.23301
0.23301
0.23301
0.23301
0.23301
0.23301
0.23301
0.23301
0.23301
0.23301
0.23301
0.23301
0.23301
0.23301
0.23301
0.23301
0.23301
0.23301
0.23301
0.23301
0.23301
0.23301
0.23301
0.23301
0.23301
0.23301
0.23301
0.23301
0.23301
0.23301
0.23301
0.23301
0.23301
0.23301
0.23301
0.23301
0.23301
0.23301
0.23301
0.23301
0.23301
0.23301
0.23301
0.23301
0.23301
0.23301
0.23301
0.23301
0.23301
0.23301
0.23301
0.23301
0.23301
0.23301
0.23301
0.23301
0.23301
0.23301
0.23301
0.23301
0.23301
0.23301
0.23301
0.23301
0.23301
0.23301
0.23301
0.23301
0.23301
0.23301
0.23301
0.23301
0.23301
0.23301
0.23301
0.23301
0.23301
0.23301
0.23301
0.23301
0.23301
0.23301
0.23301
0.23301
0.23301
0.23301
0.23301
0.23301
0.23301
0.23301
0.23301
0.23301
0.23301
0.23301
0.23301
0.23301
0.23301
0.23301
0.23301
0.23301
0.23301
0.23301
0.23301
0.23301
0.23301
0.23301
0.23301
0.23301
0.23301
0.23301
0.23301
0.23301
0.23301
0.23301
0.23301
0.23301
0.23301
0.23301
0.23301
0.23301
0.23301
0.23301
0.23301
0.23301
0.23301
0.23301
0.23301
0.23301
0.23301
0.23301
0.23301
0.23301
0.23301
0.23301
0.23301
0.23301
0.23301
0.23301
0.23301
0.23301
0.23301
0.23301
0.23301
0.23301
0.23301
0.23301
0.23301
0.23301
0.23301
0.23301
0.23301
0.23301
0.23301
0.23301
0.23301
0.23301
0.23301
0.23301
0.23301
0.23301
0.23301
0.23301
0.23301
0.23301
0.23301
0.23301
0.23301
0.23301
0.23301
0.23301
0.23301
0.23301
0.23301
0.23301
0.23301
0.23301
0.23301
0.23301
0.23301
0.23301
0.23301
0.23301
0.23301
0.23301
0.23301
0.23301
0.23301
0.23301
0.23301
0.23301
0.23301
0.23301
0.23301
0.23301
0.23301
0.23301
0.23301
0.23301
0.23301
0.23301
0.23301
0.23301
0.23301
0.23301
0.23301
0.23301
0.23301
0.23301
0.23301
0.23301
0.23301
0.23301
0.23301
0.23301
0.23301
0.23301
0.23301
0.23301
0.23301
0.23301
0.23301
0.23301
0.23301
0.23301
0.23301
0.23301
0.23301
0.23301
0.23301
0.23301
0.23301
0.23301
0.23301
0.23301
0.23301
0.23301
0.23301
0.23301
0.23301
0.23301
0.23301
0.23301
0.23301
0.23301
0.23301
0.23301
0.23301
0.23301
0.23301
0.23301
0.23301
0.23301
0.23301
0.23301
0.23301
0.23301
0.23301
0.23301
0.23301
0.23301
0.23301
0.23301
0.23301
0.23301
0.23301
0.23301
0.23301
0.23301
0.23301
0.23301
0.23301
0.23301
0.23301
0.23301
0.23301
0.23301
0.23301
0.23301
0.23301
0.23301
0.23301
0.23301
0.23301
0.23301
0.23301
0.23301
0.23301
0.23301
0.23301
0.23301
0.23301
0.23301
0.23301
0.23301
0.23301
0.23301
0.23301
0.23301
0.23301
0.23301
0.23301
0.23301
0.23301
0.23301
0.23301
0.23301
0.23301
0.23301
0.23301
0.23301
0.23301
0.23301
0.23301
0.23301
0.23301
0.23301
0.23301
0.23301
0.23301
0.23301
0.23301
0.23301
0.23301
0.23301
0.23301
0.23301
0.23301
0.23301
0.23301
0.23301
0.23301
0.23301
0.23301
0.23301
0.23301
0.23301
0.23301
0.23301
0.23301
0.23301
0.23301
0.23301
0.23301
0.23301
0.23301
0.23301
0.23301
0.23301
0.23301
0.23301
0.23301
0.23301
0.23301
0.23301
0.23301
0.23301
0.23301
0.23301
0.23301
0.23301
0.23301
0.23301
0.23301
0.23301
0.23301
0.23301
0.23301
0.23301
0.23301
0.23301
0.23301
0.23301
0.23301
0.23301
0.23301
0.23301
0.23301
0.23301
0.23301
0.23301
0.23301
0.23301
0.23301
0.23301
0.23301
0.23301
0.23301
0.23301
0.23301
0.23301
0.23301
0.23301
0.23301
0.23301
0.23301
0.23301
0.23301
0.23301
0.23301
0.23301
0.23301
0.23301
0.23301
0.23301
0.23301
0.23301
0.23301
0.23301
0.23301
0.23301
0.23301
0.23301
0.23301
0.23301
0.23301
0.23301
0.23301
0.23301
0.23301
0.23301
0.23301
0.23301
0.23301
0.23301
0.23301
0.23301
0.23301
0.23301
0.23301
0.23301
0.23301
0.23301
0.23301
0.23301
0.23301
0.23301
0.23301
0.23301
0.23301
0.23301
0.23301
0.23301
0.23301
0.23301
0.23301
0.23301
0.23301
0.23301
0.23301
0.23301
0.23301
0.23301
0.23301
0.23301
0.23301
0.23301
0.23301
0.23301
0.23301
0.23301
0.23301
0.23301
0.23301
0.23301
0.23301
0.23301
0.23301
0.23301
0.23301
0.23301
0.23301
0.23301
0.23301
0.23301
0.23301
0.23301
0.23301
0.23301
0.23301
0.23301
0.23301
0.23301
0.23301
0.23301
0.23301
0.23301
0.23301
0.23301
0.23301
0.23301
0.23301
0.23301
0.23301
0.23301
0.23301
0.23301
0.23301
0.23301
0.23301
0.23301
0.23301
0.23301
0.23301
0.23301
0.23301
0.23301
0.23301
0.23301
0.23301
0.23301
0.23301
0.23301
0.23301
0.23301
0.23301
0.23301
0.23301
0.23301
0.23301
0.23301
0.23301
0.23301
0.23301
0.23301
0.23301
0.23301
0.23301
0.23301
0.23301
0.23301
0.23301
0.23301
0.23301
0.23301
0.23301
0.23301
0.23301
0.23301
0.23301
0.23301
0.23301
0.23301
0.23301
0.23301
0.23301
0.23301
0.23301
0.23301
0.23301
0.23301
0.23301
0.23301
0.23301
0.23301
0.23301
0.23301
0.23301
0.23301
0.23301
0.23301
0.23301
0.23301
0.23301
0.23301
0.23301
0.23301
0.23301
0.23301
0.23301
0.23301
0.23301
0.23301
0.23301
0.23301
0.23301
0.23301
0.23301
0.23301
0.23301
0.23301
0.23301
0.23301
0.23301
0.23301
0.23301
0.23301
0.23301
0.23301
0.23301
0.23301
0.23301
0.23301
0.23301
0.23301
0.23301
0.23301
0.23301
0.23301
0.23301
0.23301
0.23301
0.23301
0.23301
0.23301
0.23301
0.23301
0.23301
0.23301
0.23301
0.23301
0.23301
0.23301
0.23301
0.23301
0.23301
0.23301
0.23301
0.23301
0.23301
0.23301
0.23301
0.23301
0.23301
0.23301
0.23301
0.23301
0.23301
0.23301
0.23301
0.23301
0.23301
0.23301
0.23301
0.23301
0.23301
0.23301
0.23301
0.23301
0.23301
0.23301
0.23301
0.23301
0.23301
0.23301
0.23301
0.23301
0.23301
0.23301
0.23301
0.23301
0.23301
0.23301
0.23301
0.23301
0.23301
0.23301
0.23301
0.23301
0.23301
0.23301
0.23301
0.23301
0.23301
0.23301
0.23301
0.23301
0.23301
0.23301
0.23301
0.23301
0.23301
0.23301
0.23301
0.23301
0.23301
0.23301
0.23301
0.23301
0.23301
0.23301
0.23301
0.23301
0.23301
0.23301
0.23301
0.23301
0.23301
0.23301
0.23301
0.23301
0.23301
0.23301
0.23301
0.23301
0.23301
0.23301
0.23301
0.23301
0.23301
0.23301
0.23301
0.23301
0.23301
0.23301
0.23301
0.23301
0.23301
0.23301
0.23301
0.23301
0.23301
0.23301
0.23301
0.23301
0.23301
0.23301
0.23301
0.23301
0.23301
0.23301
0.23301
0.23301
0.23301
0.23301
0.23301
0.23301
0.23301
0.23301
0.23301
0.23301
0.23301
0.23301
0.23301
0.23301
0.23301
0.23301
0.23301
0.23301
0.23301
0.23301
0.23301
0.23301
0.23301
0.23301
0.23301
0.23301
0.23301
0.23301
0.23301
0.23301
0.23301
0.23301
0.23301
0.23301
0.23301
0.23301
0.23301
0.23301
0.23301
0.23301
0.23301
0.23301
0.23301
0.23301
0.23301
0.23301
0.23301
0.23301
0.23301
0.23301
0.23301
0.23301
0.23301
0.23301
0.23301
0.23301
0.23301
0.23301
0.23301
0.23301
0.23301
0.23301
0.23301
0.23301
0.23301
0.23301
0.23301
0.23301
0.23301
0.23301
0.23301
0.23301
0.23301
0.23301
0.23301
0.23301
0.23301
0.23301
0.23301
0.23301
0.23301
0.23301
0.233009
0.233007
0.233006
0.233009
0.233008
0.23301
0.233009
0.23301
0.233009
0.23301
0.233009
0.23301
0.233009
0.23301
0.23301
0.23301
0.23301
0.23301
0.23301
0.23301
0.23301
0.23301
0.23301
0.23301
0.23301
0.23301
0.23301
0.23301
0.23301
0.23301
0.23301
0.23301
0.23301
0.23301
0.23301
0.23301
0.23301
0.23301
0.23301
0.23301
0.23301
0.23301
0.23301
0.23301
0.23301
0.23301
0.23301
0.23301
0.23301
0.23301
0.23301
0.23301
0.23301
0.23301
0.23301
0.23301
0.233008
0.233003
0.232993
0.232976
0.232993
0.232962
0.233007
0.233003
0.233008
0.233005
0.233008
0.233005
0.233008
0.233006
0.233009
0.233007
0.233009
0.233008
0.23301
0.233009
0.23301
0.23301
0.23301
0.23301
0.23301
0.23301
0.23301
0.23301
0.23301
0.23301
0.23301
0.23301
0.23301
0.23301
0.23301
0.23301
0.23301
0.23301
0.23301
0.23301
0.23301
0.23301
0.23301
0.23301
0.23301
0.23301
0.23301
0.23301
0.23301
0.23301
0.23301
0.23301
0.23301
0.23301
0.23301
0.23301
0.23301
0.23301
0.233009
0.233003
0.232982
0.232923
0.232819
0.232879
0.232651
0.232909
0.232748
0.232996
0.232973
0.232998
0.232979
0.233
0.232984
0.233001
0.232987
0.233004
0.232992
0.233006
0.232997
0.233008
0.233003
0.233009
0.233007
0.23301
0.233009
0.23301
0.23301
0.23301
0.23301
0.23301
0.23301
0.23301
0.23301
0.23301
0.23301
0.23301
0.23301
0.23301
0.23301
0.23301
0.23301
0.23301
0.23301
0.23301
0.23301
0.23301
0.23301
0.23301
0.23301
0.23301
0.23301
0.23301
0.23301
0.23301
0.23301
0.23301
0.23301
0.23301
0.233009
0.233006
0.232987
0.232912
0.23271
0.232327
0.232254
0.231891
0.232417
0.23184
0.232504
0.231995
0.232928
0.232795
0.232942
0.232831
0.232952
0.232861
0.23296
0.232881
0.232972
0.232906
0.232986
0.232936
0.232997
0.232966
0.233005
0.23299
0.233009
0.233004
0.233009
0.23301
0.23301
0.23301
0.23301
0.23301
0.23301
0.23301
0.23301
0.23301
0.23301
0.23301
0.23301
0.23301
0.23301
0.23301
0.23301
0.23301
0.23301
0.23301
0.23301
0.23301
0.23301
0.23301
0.23301
0.23301
0.23301
0.23301
0.23301
0.23301
0.23301
0.23301
0.23301
0.233008
0.232998
0.232948
0.232751
0.232246
0.231453
0.230363
0.231375
0.230454
0.23141
0.230723
0.231468
0.23077
0.232582
0.232088
0.232636
0.232173
0.232684
0.232276
0.232731
0.232364
0.232799
0.232475
0.23287
0.232617
0.232934
0.232766
0.232981
0.232889
0.233004
0.232974
0.233006
0.23301
0.233008
0.233009
0.23301
0.23301
0.23301
0.23301
0.23301
0.23301
0.23301
0.23301
0.23301
0.23301
0.23301
0.23301
0.23301
0.23301
0.23301
0.23301
0.23301
0.23301
0.23301
0.23301
0.23301
0.23301
0.23301
0.23301
0.23301
0.23301
0.23301
0.23301
0.233009
0.233005
0.232981
0.232866
0.232475
0.23164
0.230421
0.229015
0.228691
0.227976
0.230049
0.229298
0.23005
0.229251
0.229965
0.229136
0.231506
0.230754
0.231552
0.230714
0.231632
0.230737
0.231775
0.230802
0.232031
0.231014
0.232322
0.231378
0.232608
0.231917
0.232844
0.232415
0.232975
0.232812
0.232987
0.23301
0.233
0.233007
0.23301
0.23301
0.23301
0.23301
0.23301
0.23301
0.23301
0.23301
0.23301
0.23301
0.23301
0.23301
0.23301
0.23301
0.23301
0.23301
0.23301
0.23301
0.23301
0.23301
0.23301
0.23301
0.23301
0.23301
0.23301
0.23301
0.23301
0.233008
0.232998
0.232945
0.232721
0.232124
0.231053
0.229562
0.228098
0.227087
0.227193
0.226799
0.228487
0.227727
0.228313
0.22747
0.228008
0.227127
0.229819
0.228917
0.229688
0.228661
0.229631
0.228474
0.229691
0.228347
0.229985
0.228405
0.230514
0.228711
0.231364
0.229425
0.232235
0.230767
0.232819
0.232114
0.232899
0.23301
0.232963
0.232996
0.233007
0.23301
0.23301
0.23301
0.23301
0.23301
0.23301
0.23301
0.23301
0.23301
0.23301
0.23301
0.23301
0.23301
0.23301
0.23301
0.23301
0.23301
0.23301
0.23301
0.23301
0.23301
0.23301
0.23301
0.23301
0.23301
0.23301
0.233009
0.233006
0.232983
0.232872
0.232511
0.231738
0.230461
0.228912
0.227865
0.227199
0.226654
0.226934
0.226475
0.226521
0.22687
0.226551
0.226524
0.226198
0.226064
0.22577
0.227611
0.226659
0.227228
0.22614
0.22694
0.225656
0.226783
0.225243
0.226923
0.224991
0.227302
0.225157
0.228219
0.225689
0.230253
0.227008
0.232153
0.229767
0.231246
0.232823
0.232474
0.233003
0.233009
0.233006
0.232943
0.232699
0.232613
0.232968
0.23301
0.23301
0.23301
0.23301
0.23301
0.23301
0.23301
0.23301
0.23301
0.23301
0.23301
0.23301
0.23301
0.23301
0.23301
0.23301
0.23301
0.23301
0.23301
0.23301
0.23301
0.23301
0.23301
0.23301
0.23301
0.23301
0.233009
0.233001
0.232955
0.232757
0.232261
0.23137
0.229997
0.228634
0.227941
0.227528
0.227359
0.227793
0.227172
0.227843
0.226354
0.226661
0.226145
0.226205
0.225768
0.225849
0.225311
0.22543
0.2255
0.225255
0.224903
0.224646
0.224309
0.223962
0.22374
0.223232
0.223305
0.222493
0.223388
0.221887
0.225808
0.224353
0.223276
0.22213
0.228131
0.226017
0.223961
0.22279
0.224485
0.229969
0.231551
0.229535
0.227738
0.231715
0.232986
0.233008
0.232998
0.232803
0.2322
0.23191
0.232881
0.23301
0.23301
0.23301
0.233009
0.23301
0.23301
0.23301
0.23301
0.23301
0.23301
0.23301
0.23301
0.23301
0.23301
0.23301
0.23301
0.23301
0.23301
0.23301
0.23301
0.23301
0.23301
0.23301
0.23301
0.23301
0.233008
0.232994
0.232907
0.232603
0.231987
0.231008
0.229637
0.22862
0.228104
0.228114
0.229387
0.228487
0.22944
0.228492
0.22928
0.226983
0.227702
0.226037
0.226406
0.225679
0.226148
0.225265
0.225874
0.224739
0.22492
0.22407
0.224287
0.223308
0.22354
0.222479
0.222709
0.22157
0.221814
0.221458
0.220979
0.220861
0.220966
0.222543
0.221464
0.220793
0.22563
0.223769
0.221588
0.220997
0.222198
0.227293
0.229709
0.22727
0.225137
0.229996
0.232938
0.233004
0.232974
0.232452
0.230512
0.231117
0.232662
0.23301
0.23301
0.23301
0.233007
0.23301
0.23301
0.23301
0.23301
0.23301
0.23301
0.23301
0.23301
0.23301
0.23301
0.23301
0.23301
0.23301
0.23301
0.23301
0.23301
0.23301
0.23301
0.23301
0.23301
0.233007
0.232983
0.232844
0.232426
0.231702
0.230665
0.229417
0.22868
0.22838
0.228778
0.230414
0.231151
0.231552
0.230013
0.230653
0.230077
0.230776
0.228439
0.229283
0.226808
0.227594
0.22666
0.227546
0.226474
0.227517
0.224724
0.225505
0.224031
0.224965
0.223212
0.224193
0.222298
0.223281
0.221137
0.221423
0.221842
0.222479
0.220521
0.220512
0.220649
0.220879
0.220709
0.220272
0.220146
0.223208
0.22162
0.220183
0.21974
0.220442
0.224911
0.227378
0.224808
0.222838
0.227727
0.232815
0.232993
0.232911
0.231672
0.228314
0.22918
0.23217
0.23301
0.233009
0.23301
0.233003
0.23301
0.23301
0.23301
0.23301
0.23301
0.23301
0.23301
0.23301
0.23301
0.23301
0.23301
0.23301
0.23301
0.23301
0.23301
0.23301
0.23301
0.23301
0.23301
0.233006
0.232967
0.232766
0.232246
0.231437
0.230364
0.229313
0.22879
0.228678
0.229462
0.231232
0.232382
0.232198
0.23251
0.231369
0.231847
0.231518
0.23204
0.230139
0.230874
0.228447
0.229324
0.22853
0.229455
0.228593
0.229621
0.226156
0.227408
0.225581
0.227087
0.224761
0.226412
0.223084
0.223829
0.225571
0.221284
0.221873
0.222543
0.22328
0.220226
0.220406
0.220735
0.221291
0.219839
0.219825
0.219969
0.22118
0.219998
0.219484
0.219158
0.219347
0.222573
0.224935
0.222492
0.220831
0.225302
0.232529
0.232963
0.232758
0.230231
0.225937
0.226865
0.231178
0.23301
0.233007
0.233009
0.23299
0.23301
0.23301
0.23301
0.23301
0.23301
0.23301
0.23301
0.23301
0.23301
0.23301
0.23301
0.23301
0.23301
0.23301
0.23301
0.23301
0.23301
0.23301
0.233004
0.232949
0.232679
0.232071
0.231202
0.230131
0.229297
0.228925
0.229016
0.230064
0.231745
0.232593
0.232909
0.232937
0.232779
0.232884
0.232403
0.232638
0.232522
0.23274
0.231663
0.232178
0.230269
0.231011
0.230499
0.231238
0.230706
0.231499
0.22848
0.229706
0.228053
0.229494
0.227246
0.228812
0.224061
0.224953
0.227516
0.22665
0.221945
0.222672
0.223442
0.224243
0.220209
0.220679
0.221295
0.221998
0.219528
0.219723
0.220042
0.219634
0.219001
0.219249
0.218966
0.218843
0.220608
0.222624
0.220539
0.21935
0.222979
0.231918
0.232891
0.232422
0.228074
0.223613
0.224554
0.229453
0.23301
0.233002
0.233007
0.23296
0.23301
0.23301
0.23301
0.23301
0.23301
0.23301
0.23301
0.23301
0.23301
0.23301
0.23301
0.23301
0.23301
0.23301
0.23301
0.23301
0.233009
0.233001
0.232922
0.232585
0.231907
0.230982
0.22995
0.229325
0.22908
0.229378
0.23058
0.232041
0.232717
0.232976
0.232995
0.233004
0.232968
0.232988
0.232866
0.232933
0.232908
0.232961
0.232609
0.232803
0.23186
0.232303
0.232048
0.232426
0.232091
0.23248
0.23067
0.23151
0.230113
0.231085
0.228198
0.228974
0.230172
0.229543
0.225068
0.225896
0.228276
0.227537
0.222757
0.223548
0.224353
0.225167
0.220599
0.22126
0.221984
0.222751
0.219471
0.219868
0.22048
0.21869
0.218529
0.21922
0.218939
0.218654
0.219148
0.220645
0.219054
0.218411
0.220958
0.230768
0.232723
0.231693
0.225766
0.221537
0.222399
0.227198
0.23301
0.232991
0.233005
0.232887
0.23301
0.23301
0.23301
0.23301
0.23301
0.23301
0.23301
0.23301
0.23301
0.23301
0.23301
0.23301
0.23301
0.23301
0.23301
0.233009
0.232996
0.232887
0.232485
0.231757
0.230798
0.229853
0.229379
0.229256
0.229749
0.23102
0.23224
0.232794
0.232981
0.233008
0.233008
0.233007
0.233008
0.233003
0.233006
0.232985
0.232997
0.23299
0.232999
0.232929
0.232971
0.232685
0.232843
0.232721
0.232858
0.232622
0.232805
0.231799
0.232303
0.231075
0.231743
0.228951
0.229575
0.230607
0.230117
0.225982
0.226774
0.228767
0.228109
0.223537
0.224332
0.225123
0.225907
0.221153
0.221865
0.222598
0.223339
0.219696
0.220289
0.22091
0.218207
0.218318
0.219408
0.219015
0.218596
0.218181
0.219103
0.218028
0.217889
0.21933
0.228786
0.232337
0.230356
0.223519
0.219794
0.220495
0.224869
0.233009
0.232968
0.233001
0.232715
0.23301
0.23301
0.23301
0.23301
0.23301
0.23301
0.23301
0.23301
0.23301
0.23301
0.23301
0.23301
0.23301
0.23301
0.233007
0.232987
0.232838
0.232379
0.231622
0.230651
0.229807
0.229448
0.229441
0.230109
0.231384
0.232393
0.232848
0.232988
0.233009
0.233009
0.23301
0.233009
0.233009
0.233008
0.233008
0.233004
0.233006
0.233002
0.233005
0.232987
0.232997
0.232931
0.232969
0.232901
0.232949
0.232763
0.232877
0.232218
0.232552
0.231168
0.23154
0.231785
0.232052
0.229369
0.229915
0.230821
0.230398
0.226673
0.22741
0.229026
0.228418
0.224093
0.224853
0.225608
0.226351
0.221555
0.222226
0.222919
0.223634
0.219937
0.220495
0.221087
0.217957
0.218208
0.219496
0.218974
0.218576
0.217593
0.217984
0.217353
0.217584
0.218087
0.226383
0.231494
0.228103
0.221435
0.218382
0.218875
0.222579
0.233009
0.232912
0.232992
0.232305
0.23301
0.23301
0.23301
0.23301
0.23301
0.23301
0.23301
0.23301
0.23301
0.23301
0.23301
0.23301
0.233009
0.233004
0.232969
0.232767
0.232268
0.2315
0.230538
0.229802
0.229525
0.229643
0.230441
0.231671
0.232515
0.232888
0.232993
0.233009
0.23301
0.23301
0.23301
0.23301
0.233009
0.233009
0.233008
0.233009
0.233007
0.233008
0.233004
0.233006
0.232996
0.233001
0.232974
0.232988
0.232934
0.232964
0.232794
0.232892
0.232227
0.232416
0.232612
0.231273
0.231582
0.23184
0.232066
0.229583
0.230085
0.230928
0.230534
0.227074
0.227765
0.229158
0.228579
0.22437
0.225116
0.225857
0.226585
0.221707
0.222358
0.223042
0.223758
0.219999
0.220518
0.221053
0.217779
0.218057
0.219364
0.218586
0.21833
0.217211
0.217194
0.216877
0.217317
0.217151
0.223912
0.229915
0.225432
0.219558
0.217258
0.217516
0.220404
0.233009
0.232771
0.23297
0.2314
0.23301
0.23301
0.23301
0.23301
0.23301
0.23301
0.23301
0.23301
0.23301
0.23301
0.233009
0.233007
0.232997
0.232935
0.232673
0.232153
0.231387
0.230447
0.229816
0.22961
0.229851
0.230735
0.23189
0.23261
0.232917
0.232998
0.233009
0.23301
0.23301
0.23301
0.23301
0.23301
0.233009
0.23301
0.233009
0.233009
0.233007
0.233008
0.233005
0.233007
0.232998
0.233002
0.232981
0.232991
0.232941
0.232967
0.232798
0.232894
0.232254
0.232418
0.232682
0.232551
0.231304
0.231598
0.231852
0.232071
0.229686
0.230162
0.23097
0.23059
0.227288
0.227954
0.229214
0.228657
0.224498
0.225248
0.225993
0.226716
0.221628
0.222266
0.222972
0.223732
0.219758
0.220192
0.220702
0.217483
0.217612
0.218845
0.217833
0.217705
0.216856
0.216605
0.216436
0.216888
0.216427
0.221399
0.227403
0.222703
0.217896
0.216355
0.216374
0.218372
0.233007
0.232424
0.232922
0.229724
0.23301
0.23301
0.23301
0.23301
0.23301
0.23301
0.23301
0.23301
0.23301
0.233009
0.233004
0.23298
0.232867
0.232561
0.232032
0.231275
0.230371
0.22984
0.229703
0.230057
0.230988
0.232057
0.232682
0.232939
0.233001
0.233009
0.23301
0.23301
0.23301
0.23301
0.23301
0.23301
0.23301
0.23301
0.233009
0.233009
0.233008
0.233008
0.233005
0.233007
0.232999
0.233003
0.232983
0.232993
0.232941
0.232967
0.232654
0.232718
0.232809
0.232858
0.232904
0.23226
0.232421
0.232539
0.23128
0.231567
0.231818
0.232038
0.229721
0.230179
0.230955
0.23059
0.227409
0.228055
0.229145
0.228626
0.22452
0.225307
0.226063
0.22678
0.221318
0.222043
0.222848
0.223688
0.219177
0.21964
0.220256
0.216861
0.216782
0.218063
0.216897
0.216763
0.216341
0.216076
0.215865
0.216146
0.215789
0.218999
0.224521
0.220001
0.21644
0.215568
0.215383
0.216536
0.232953
0.231692
0.232567
0.22716
0.23301
0.23301
0.23301
0.23301
0.23301
0.23301
0.23301
0.233009
0.233007
0.232995
0.232943
0.23277
0.232438
0.231909
0.231163
0.230322
0.229883
0.2298
0.230248
0.231195
0.232183
0.232736
0.232955
0.233003
0.233009
0.23301
0.23301
0.23301
0.23301
0.23301
0.23301
0.23301
0.23301
0.23301
0.23301
0.233009
0.233009
0.233008
0.233009
0.233006
0.233007
0.233
0.233004
0.232983
0.232994
0.232937
0.232965
0.232618
0.232682
0.232775
0.232844
0.23289
0.23223
0.232398
0.232489
0.231161
0.231456
0.231717
0.231949
0.229623
0.230062
0.230829
0.230463
0.227448
0.228063
0.228771
0.228287
0.224517
0.225299
0.226013
0.226659
0.221015
0.22186
0.222724
0.223548
0.218484
0.219104
0.219869
0.215862
0.215681
0.217255
0.21596
0.2157
0.215537
0.215445
0.215021
0.215037
0.215075
0.216798
0.221642
0.21749
0.215165
0.21475
0.214383
0.214911
0.230664
0.229534
0.228297
0.223638
0.23301
0.23301
0.23301
0.23301
0.23301
0.23301
0.233009
0.233003
0.232977
0.232875
0.232655
0.232309
0.231784
0.231056
0.23029
0.229926
0.229898
0.230423
0.231359
0.232275
0.232777
0.232966
0.233005
0.23301
0.23301
0.23301
0.23301
0.23301
0.23301
0.23301
0.23301
0.23301
0.23301
0.23301
0.23301
0.233009
0.23301
0.233008
0.233009
0.233006
0.233008
0.233
0.233004
0.232983
0.232994
0.232908
0.232938
0.232961
0.232559
0.23262
0.232734
0.232818
0.232873
0.232153
0.232334
0.232406
0.230908
0.231242
0.231537
0.231797
0.22924
0.229694
0.230533
0.230126
0.227244
0.227782
0.227887
0.227381
0.224291
0.22494
0.225499
0.225992
0.220701
0.221514
0.222241
0.22285
0.21784
0.218541
0.219251
0.214623
0.214535
0.216419
0.214818
0.214591
0.214382
0.214496
0.21354
0.213668
0.214036
0.214876
0.218611
0.215106
0.213885
0.213541
0.212963
0.213357
0.230664
0.224124
0.223875
0.219515
0.23301
0.23301
0.23301
0.23301
0.23301
0.233008
0.232997
0.232943
0.232786
0.232529
0.232173
0.231657
0.230954
0.230272
0.229973
0.230003
0.230581
0.231489
0.232344
0.232807
0.232974
0.233006
0.23301
0.23301
0.23301
0.23301
0.23301
0.23301
0.23301
0.23301
0.23301
0.23301
0.23301
0.23301
0.23301
0.233009
0.23301
0.233008
0.233009
0.233006
0.233008
0.233
0.233004
0.232981
0.232993
0.232897
0.232927
0.232939
0.232961
0.232472
0.23254
0.232678
0.232781
0.232852
0.232026
0.23223
0.232292
0.230501
0.230919
0.231279
0.23159
0.22842
0.228968
0.230025
0.229508
0.226452
0.226907
0.2264
0.225754
0.223336
0.223723
0.224053
0.224382
0.219887
0.220394
0.220761
0.220992
0.216938
0.217374
0.217671
0.213252
0.213024
0.214991
0.212526
0.212769
0.212149
0.212701
0.210867
0.211149
0.211854
0.21296
0.215539
0.212861
0.212084
0.211153
0.210329
0.211511
0.231245
0.220176
0.223922
0.216324
0.23301
0.23301
0.23301
0.23301
0.233007
0.232986
0.232899
0.232684
0.232398
0.232036
0.231529
0.230855
0.230264
0.230024
0.230114
0.230728
0.231598
0.2324
0.232831
0.23298
0.233007
0.23301
0.23301
0.23301
0.23301
0.23301
0.23301
0.23301
0.23301
0.23301
0.23301
0.23301
0.23301
0.23301
0.23301
0.23301
0.233009
0.23301
0.233009
0.233009
0.233006
0.233008
0.232999
0.233004
0.232978
0.232992
0.232877
0.232914
0.232931
0.232953
0.232363
0.23244
0.232604
0.232732
0.23282
0.231854
0.23209
0.232152
0.229965
0.230507
0.230958
0.231338
0.227118
0.227874
0.229325
0.228618
0.224753
0.225203
0.224387
0.223462
0.221128
0.221231
0.221379
0.221659
0.217815
0.217834
0.21779
0.217639
0.215008
0.214863
0.214562
0.210433
0.210129
0.212252
0.209436
0.209551
0.20977
0.209819
0.20915
0.209411
0.209516
0.211263
0.213159
0.211294
0.210203
0.209269
0.209599
0.210131
0.232278
0.218328
0.224891
0.214295
0.23301
0.23301
0.23301
0.233005
0.232977
0.232845
0.23258
0.232263
0.231896
0.231403
0.230766
0.230269
0.230081
0.230232
0.230867
0.231695
0.23245
0.232851
0.232985
0.233007
0.23301
0.23301
0.23301
0.23301
0.23301
0.23301
0.23301
0.23301
0.23301
0.23301
0.23301
0.23301
0.23301
0.23301
0.23301
0.23301
0.23301
0.23301
0.233009
0.233009
0.233006
0.233008
0.232999
0.233004
0.232962
0.232978
0.232989
0.232853
0.232899
0.232918
0.232944
0.232229
0.23231
0.232508
0.232665
0.232778
0.231646
0.231921
0.231986
0.229331
0.230033
0.230588
0.231052
0.225408
0.226487
0.228482
0.227516
0.22208
0.222681
0.221931
0.220623
0.217541
0.21749
0.217568
0.218019
0.214295
0.213997
0.213714
0.213452
0.211911
0.211402
0.211224
0.208936
0.208185
0.209001
0.20761
0.207589
0.208812
0.209036
0.207826
0.207778
0.208821
0.210147
0.211635
0.210233
0.209607
0.208108
0.208259
0.209642
0.232552
0.21686
0.224827
0.212699
0.23301
0.23301
0.233005
0.232964
0.232798
0.232473
0.232131
0.231756
0.231272
0.230675
0.230281
0.230145
0.230359
0.231004
0.23179
0.232499
0.232869
0.232988
0.233008
0.23301
0.23301
0.23301
0.23301
0.23301
0.23301
0.23301
0.23301
0.23301
0.23301
0.23301
0.23301
0.23301
0.23301
0.23301
0.23301
0.23301
0.23301
0.23301
0.233009
0.233009
0.233007
0.233008
0.232998
0.233004
0.232959
0.232973
0.23298
0.23299
0.23282
0.232879
0.232903
0.232936
0.232061
0.232147
0.232384
0.232579
0.232724
0.231404
0.231725
0.231787
0.228577
0.229485
0.23015
0.230726
0.223317
0.224813
0.227486
0.22619
0.218642
0.219511
0.218766
0.217019
0.213299
0.213235
0.213286
0.213804
0.211011
0.210852
0.210709
0.210571
0.208604
0.208287
0.207989
0.20713
0.206775
0.207399
0.199352
0.19918
0.206987
0.207662
0.206984
0.206819
0.207341
0.209685
0.210734
0.209825
0.208429
0.207141
0.207233
0.208537
0.228131
0.215212
0.219395
0.211246
0.23301
0.233004
0.232957
0.232751
0.232381
0.232003
0.23162
0.231144
0.230611
0.230305
0.23022
0.230494
0.231141
0.231885
0.232548
0.232886
0.232992
0.233008
0.23301
0.23301
0.23301
0.23301
0.23301
0.23301
0.23301
0.23301
0.23301
0.23301
0.23301
0.23301
0.23301
0.23301
0.23301
0.23301
0.23301
0.23301
0.23301
0.23301
0.233009
0.233009
0.233007
0.233008
0.232994
0.232989
0.233
0.233003
0.232952
0.232968
0.232979
0.232781
0.232855
0.232884
0.232924
0.231851
0.23195
0.232234
0.232474
0.232656
0.231117
0.231495
0.231549
0.227534
0.228772
0.229563
0.230326
0.220522
0.222559
0.226152
0.224373
0.214666
0.215716
0.214296
0.212919
0.210497
0.210456
0.210506
0.210666
0.207857
0.207767
0.207944
0.208108
0.207464
0.198749
0.198812
0.199408
0.199394
0.199392
0.194251
0.194399
0.199921
0.206961
0.200222
0.200052
0.200925
0.208346
0.209757
0.209162
0.207302
0.201164
0.201425
0.207568
0.231747
0.213381
0.21697
0.210589
0.233005
0.232954
0.232724
0.232297
0.23189
0.231492
0.231026
0.230569
0.230337
0.230303
0.230637
0.231278
0.231982
0.232599
0.232904
0.232995
0.233008
0.23301
0.23301
0.23301
0.23301
0.23301
0.23301
0.23301
0.23301
0.23301
0.23301
0.23301
0.23301
0.23301
0.23301
0.23301
0.23301
0.23301
0.23301
0.23301
0.23301
0.23301
0.23301
0.23301
0.233009
0.233009
0.233007
0.233008
0.232986
0.232993
0.232999
0.233003
0.232945
0.232965
0.232975
0.232732
0.232826
0.232861
0.232911
0.231602
0.23172
0.232058
0.232348
0.232573
0.230763
0.231215
0.231274
0.225799
0.227659
0.228649
0.229761
0.216425
0.219046
0.224014
0.221367
0.211411
0.212138
0.211053
0.210492
0.208399
0.208487
0.208781
0.208819
0.199007
0.198848
0.198825
0.198722
0.199456
0.193753
0.193607
0.194764
0.194573
0.194124
0.190774
0.190985
0.195267
0.201095
0.195617
0.195136
0.196283
0.208356
0.209361
0.208224
0.201612
0.196671
0.197011
0.202032
0.232412
0.211335
0.218324
0.209509
0.232958
0.23271
0.232239
0.231786
0.231381
0.23093
0.230548
0.230376
0.230402
0.230789
0.231419
0.232085
0.232651
0.232922
0.232998
0.233009
0.23301
0.23301
0.23301
0.23301
0.23301
0.23301
0.23301
0.23301
0.23301
0.23301
0.23301
0.23301
0.23301
0.23301
0.23301
0.23301
0.23301
0.23301
0.23301
0.23301
0.23301
0.23301
0.23301
0.233009
0.23301
0.233007
0.233008
0.232985
0.232992
0.232998
0.233005
0.232998
0.233001
0.232936
0.232959
0.232972
0.232671
0.232791
0.232833
0.232894
0.231313
0.231445
0.231848
0.232194
0.23247
0.230303
0.230863
0.230951
0.222709
0.225696
0.227106
0.228841
0.212162
0.214258
0.220339
0.216474
0.209178
0.209963
0.209399
0.208886
0.19863
0.198429
0.198326
0.198261
0.193534