/*--------------------------------*- C++ -*----------------------------------*\
  =========                 |
  \\      /  F ield         | OpenFOAM: The Open Source CFD Toolbox
   \\    /   O peration     | Website:  https://openfoam.org
    \\  /    A nd           | Version:  dev
     \\/     M anipulation  |
\*---------------------------------------------------------------------------*/
FoamFile
{
    version     2.0;
    format      ascii;
    class       volScalarField;
    location    "2500";
    object      omega;
}
// * * * * * * * * * * * * * * * * * * * * * * * * * * * * * * * * * * * * * //

dimensions      [0 0 -1 0 0 0 0];

internalField   nonuniform List<scalar> 
9456
(
1.18971
1.20056
1.16324
1.13756
1.27076
1.07691
1.06132
1.27561
1.21713
1.02451
1.02472
1.24782
1.26829
1.11223
1.00958
1.00634
1.17964
1.28288
1.20369
1.04255
1.00321
0.993966
1.09996
1.27505
1.25435
1.10219
1.0134
0.999118
0.983808
1.04703
1.24724
1.27115
1.17282
1.03454
1.00002
0.996472
0.977676
1.01364
1.18966
1.27327
1.22776
1.07717
1.00455
0.990453
0.994684
0.974404
0.990943
1.12424
1.26569
1.25314
1.13454
1.01767
0.987387
0.984587
0.993384
0.974813
0.977285
1.06071
1.24409
1.2618
1.1884
1.04658
0.989263
0.976539
0.980759
0.992452
0.976588
0.964997
1.02131
1.20456
1.26312
1.2252
1.09278
0.997229
0.970116
0.969448
0.978133
0.991819
0.978236
0.954579
0.991702
1.14735
1.25969
1.24334
1.14244
1.01647
0.970538
0.959654
0.964614
0.976239
0.991384
0.979468
0.947269
0.969573
1.08734
1.24685
1.2524
1.18333
1.05227
0.975098
0.952565
0.952601
0.961302
0.974864
0.991065
0.979847
0.942177
0.954364
1.03401
1.21908
1.25477
1.21394
1.09487
0.987754
0.950627
0.942283
0.947651
0.959037
0.973866
0.990846
0.979554
0.939948
0.943809
0.998857
1.17669
1.25388
1.23143
1.13392
1.01397
0.953034
0.935219
0.935426
0.944317
0.95733
0.973142
0.990711
0.979065
0.939799
0.934817
0.972984
1.12284
1.24812
1.24126
1.16839
1.04815
0.961016
0.930745
0.925737
0.930924
0.941796
0.95609
0.972651
0.990618
0.978553
0.939881
0.927105
0.953673
1.069
1.23223
1.24577
1.19473
1.08432
0.978327
0.9317
0.918209
0.919229
0.92757
0.939938
0.955235
0.972328
0.990561
0.978106
0.939623
0.920913
0.939558
1.02067
1.20136
1.24678
1.21498
1.11681
1.00465
0.936247
0.912523
0.909797
0.914701
0.925006
0.938703
0.954636
0.972143
0.990542
0.977767
0.938746
0.915687
0.928742
0.989512
1.16168
1.24399
1.22714
1.14504
1.03543
0.946646
0.911571
0.901496
0.903729
0.911387
0.92324
0.937845
0.954268
0.972031
0.990542
0.977496
0.937088
0.911216
0.920056
0.966256
1.11386
1.23541
1.23311
1.16986
1.06537
0.965988
0.913547
0.895915
0.894093
0.899276
0.909045
0.922029
0.937254
0.954057
0.971987
0.990553
0.977148
0.934888
0.907653
0.913043
0.947949
1.06796
1.216
1.23332
1.18965
1.09315
0.990214
0.919551
0.892502
0.886441
0.888778
0.896219
0.907385
0.921235
0.936953
0.953948
0.971991
0.990576
0.976596
0.932554
0.905747
0.907632
0.933647
1.02637
1.18683
1.23164
1.20276
1.11638
1.01626
0.932173
0.893211
0.880285
0.879674
0.884914
0.894076
0.906295
0.920765
0.936789
0.953902
0.972028
0.990608
0.975799
0.93011
0.903966
0.901956
0.922719
0.992268
1.15166
1.22609
1.21178
1.13535
1.04154
0.950037
0.896425
0.876035
0.872174
0.874821
0.882061
0.892569
0.905588
0.920485
0.936676
0.953931
0.972095
0.990656
0.97475
0.927664
0.902
0.896829
0.913454
0.968831
1.11295
1.21485
1.21471
1.15333
1.06289
0.971599
0.903582
0.874782
0.865564
0.866118
0.871242
0.880073
0.891537
0.905143
0.920321
0.936669
0.954015
0.972203
0.990689
0.973411
0.925569
0.899702
0.892489
0.905352
0.95019
1.07265
1.19693
1.21294
1.1686
1.08128
0.993203
0.9163
0.875963
0.861148
0.858249
0.861646
0.868766
0.87875
0.890888
0.904923
0.920281
0.936776
0.954147
0.972291
0.990712
0.97179
0.9237
0.897389
0.888845
0.89843
0.934089
1.03509
1.17266
1.20863
1.18198
1.09654
1.01307
0.932246
0.879618
0.857732
0.852083
0.853121
0.858652
0.867174
0.877871
0.890552
0.904844
0.920395
0.936919
0.954287
0.972393
0.990752
0.969985
0.921934
0.895503
0.885446
0.892659
0.920453
1.00032
1.14331
1.20192
1.18776
1.11174
1.03011
0.949805
0.887226
0.857746
0.846768
0.845734
0.849599
0.856699
0.866102
0.877332
0.890407
0.904927
0.920543
0.937117
0.954455
0.972535
0.990801
0.96811
0.920337
0.893836
0.882731
0.887553
0.90912
0.971869
1.11059
1.19239
1.18889
1.12711
1.0438
0.96742
0.898169
0.859115
0.843462
0.839459
0.841547
0.847239
0.855396
0.865321
0.877069
0.890435
0.905074
0.920789
0.937367
0.954683
0.972712
0.990862
0.966303
0.918958
0.892361
0.880641
0.8825
0.89922
0.950257
1.07613
1.17893
1.1875
1.14049
1.05653
0.98259
0.911636
0.862618
0.841189
0.83454
0.834524
0.838684
0.845588
0.854367
0.864859
0.87702
0.890564
0.905349
0.921144
0.937688
0.95496
0.972929
0.990949
0.964606
0.918007
0.891348
0.878604
0.877437
0.890099
0.931935
1.04139
1.16018
1.18384
1.15263
1.06821
0.99563
0.925839
0.869593
0.841448
0.830454
0.828443
0.831011
0.836569
0.84426
0.853716
0.864714
0.877125
0.890864
0.905832
0.921562
0.938101
0.955314
0.973171
0.991093
0.963066
0.917455
0.890873
0.876683
0.87297
0.882335
0.916124
1.00886
1.13715
1.17907
1.15945
1.08022
1.00657
0.939667
0.878977
0.842929
0.827806
0.823414
0.824197
0.828394
0.83498
0.843469
0.853491
0.864806
0.877443
0.891426
0.906406
0.922114
0.938641
0.955797
0.973481
0.991279
0.961917
0.917332
0.890802
0.874982
0.869078
0.875931
0.90296
0.979581
1.11109
1.17237
1.16269
1.09444
1.01594
0.9523
0.889775
0.84637
0.826261
0.819249
0.818331
0.821103
0.826543
0.834063
0.843219
0.853549
0.865182
0.87806
0.892131
0.907153
0.922862
0.939356
0.956544
0.974042
0.991519
0.961347
0.917801
0.891074
0.873719
0.865872
0.870849
0.892308
0.954776
1.08348
1.16394
1.16305
1.10811
1.02556
0.962903
0.901739
0.852123
0.826597
0.816063
0.81335
0.814714
0.818976
0.825439
0.833734
0.843234
0.853919
0.865862
0.878878
0.893049
0.908206
0.923992
0.940332
0.957625
0.974964
0.996125
0.988178
0.961311
0.918984
0.891709
0.873204
0.863708
0.866941
0.883921
0.935563
1.05531
1.15198
1.16183
1.12162
1.03635
0.971707
0.91361
0.860003
0.827949
0.813893
0.809259
0.809144
0.8122
0.817678
0.824981
0.833711
0.843537
0.854627
0.866773
0.879971
0.894343
0.90965
0.925733
0.941898
0.962704
0.954853
0.980131
0.963451
0.972354
0.996315
0.988633
0.962022
0.920556
0.892641
0.873479
0.862862
0.864084
0.877358
0.920079
1.02655
1.13647
1.16001
1.13203
1.04761
0.979832
0.924146
0.869129
0.830958
0.812516
0.805716
0.804372
0.806301
0.810739
0.817023
0.824913
0.834004
0.844202
0.855615
0.868082
0.881548
0.896212
0.911599
0.928091
0.947426
0.94028
0.955858
0.980902
0.964882
0.973442
0.996485
0.989264
0.96386
0.922575
0.894162
0.874722
0.863005
0.862046
0.872212
0.907356
0.999096
1.1179
1.15801
1.13878
1.06217
0.987337
0.933649
0.878719
0.835473
0.812732
0.80306
0.800263
0.801087
0.804536
0.809862
0.816828
0.825204
0.834594
0.845283
0.857068
0.869992
0.883874
0.899006
0.914509
0.93362
0.927248
0.948736
0.94193
0.957619
0.981973
0.966316
0.97499
0.996762
0.990124
0.96674
0.925248
0.89633
0.876701
0.864222
0.860928
0.868427
0.897038
0.97432
1.09723
1.15487
1.14405
1.07783
0.995594
0.941453
0.889052
0.841379
0.813676
0.80109
0.796756
0.796496
0.798972
0.803307
0.809455
0.817054
0.825801
0.835804
0.846939
0.8592
0.872578
0.88719
0.903189
0.921192
0.915388
0.935646
0.92959
0.950762
0.944387
0.959507
0.983443
0.968369
0.977123
0.997132
0.991268
0.970082
0.928552
0.899147
0.879335
0.86628
0.860768
0.865863
0.888992
0.953192
1.07509
1.15056
1.14741
1.0946
1.00655
0.947657
0.898778
0.849032
0.81575
0.799736
0.793769
0.792445
0.793946
0.797437
0.802706
0.80956
0.817738
0.827135
0.837675
0.849316
0.862339
0.876223
0.891521
0.909864
0.904803
0.924014
0.918617
0.938479
0.932956
0.953158
0.947329
0.962145
0.98541
0.971196
0.980001
0.997613
0.992781
0.972948
0.932023
0.902559
0.882627
0.868837
0.861363
0.864466
0.882931
0.936027
1.05158
1.14326
1.14958
1.10974
1.01977
0.954334
0.907043
0.857651
0.819294
0.799824
0.791477
0.788829
0.789473
0.792149
0.79669
0.802773
0.810408
0.819206
0.829267
0.840423
0.852456
0.86685
0.882554
0.899781
0.895271
0.913706
0.908948
0.927847
0.923086
0.942057
0.937204
0.956455
0.951338
0.965777
0.988029
0.975022
0.983878
0.998299
0.994877
0.975215
0.935239
0.905996
0.886308
0.871997
0.863204
0.864236
0.878665
0.922472
1.02695
1.1326
1.1538
1.12221
1.03512
0.961649
0.91471
0.86656
0.824225
0.800453
0.789544
0.785771
0.785503
0.787468
0.79121
0.796743
0.803755
0.812226
0.821376
0.832121
0.844662
0.857433
0.872466
0.890778
0.887032
0.904696
0.900536
0.918763
0.914697
0.932872
0.928895
0.946914
0.942945
0.960974
0.956829
0.970715
0.991689
0.980165
0.989368
0.99929
0.997866
0.976964
0.938093
0.909105
0.889805
0.875353
0.865877
0.864852
0.875987
0.911864
1.00258
1.11842
1.15698
1.13395
1.05419
0.970169
0.921146
0.875829
0.830684
0.801917
0.788264
0.783172
0.781932
0.783408
0.786354
0.791202
0.797866
0.805726
0.814806
0.824503
0.835946
0.849899
0.866252
0.882906
0.87964
0.896928
0.893314
0.911178
0.90772
0.925485
0.922285
0.939656
0.936738
0.953546
0.950768
0.967085
0.964302
0.977438
0.99717
0.987454
0.997468
1.00065
1.00195
0.978054
0.940598
0.911714
0.892885
0.878546
0.869001
0.866754
0.874884
0.903906
0.980468
1.10114
1.15749
1.14406
1.07549
0.982438
0.926498
0.884211
0.838531
0.80482
0.788275
0.781053
0.778837
0.779627
0.782198
0.786277
0.79236
0.799991
0.808763
0.818529
0.828957
0.842243
0.85659
0.876074
0.873886
0.890473
0.887371
0.905074
0.902304
0.919815
0.917471
0.934481
0.932589
0.94883
0.947346
0.962553
0.961345
0.975408
0.974723
0.987217
1.00467
0.998507
1.00845
1.0025
1.00727
0.978033
0.942175
0.913452
0.895325
0.881353
0.872402
0.869498
0.875006
0.898439
0.961841
1.08096
1.15663
1.15127
1.09696
0.998829
0.933041
0.891412
0.846924
0.80913
0.788703
0.779283
0.776275
0.77621
0.778275
0.78206
0.787377
0.794544
0.803234
0.813231
0.82798
0.846129
0.866751
0.873379
0.866028
0.886668
0.888519
0.901272
0.90236
0.91638
0.917254
0.931582
0.93223
0.946696
0.947205
0.961362
0.961972
0.975051
0.976118
0.987739
0.989324
1.00077
1.01504
1.01314
1.02327
1.00512
1.01426
0.976429
0.942035
0.913817
0.896483
0.883774
0.875892
0.872717
0.876097
0.895065
0.947013
1.05875
1.15322
1.15904
1.11579
1.01783
0.941413
0.898306
0.855511
0.814799
0.789828
0.778171
0.774004
0.773337
0.774741
0.778017
0.783139
0.78943
0.798496
0.813356
0.839739
0.890769
0.978599
1.06659
0.898548
0.961851
0.908194
0.929595
0.921822
0.937148
0.935826
0.947857
0.949894
0.958847
0.964159
0.970667
0.978422
0.983436
0.992685
0.997158
1.00489
1.01096
1.02007
1.03001
1.03356
1.04295
1.00828
1.02487
0.972328
0.938927
0.912081
0.896108
0.885632
0.879179
0.876285
0.878469
0.893692
0.93555
1.03566
1.14485
1.16798
1.13309
1.0406
0.951911
0.904602
0.864161
0.821642
0.792162
0.778142
0.772022
0.77075
0.771766
0.774563
0.778905
0.785629
0.796629
0.824263
0.907173
1.15361
1.65753
2.3971
1.72343
3.11573
0.995228
1.18859
0.9844
1.1293
0.983836
1.08693
0.986358
1.06642
0.990188
1.0481
0.996551
1.03526
1.00626
1.02973
1.01813
1.03294
1.03004
1.04037
1.04823
1.04935
1.06514
1.07402
1.01255
1.03911
0.968239
0.932663
0.907534
0.893269
0.88646
0.882267
0.879894
0.881473
0.893653
0.92714
1.01336
1.1315
1.17456
1.14931
1.06646
0.966744
0.910431
0.87213
0.829301
0.79566
0.778461
0.770491
0.768401
0.769089
0.771582
0.775736
0.782371
0.802266
0.873434
1.16466
2.04605
3.81057
6.39137
5.90401
10.2155
4.92321
9.07396
1.53693
2.60961
1.38473
2.20616
1.29082
1.88049
1.21923
1.68308
1.15359
1.49391
1.10184
1.32672
1.07278
1.20037
1.06251
1.12643
1.06268
1.09268
1.08408
1.07668
1.10452
1.11569
1.01866
1.05674
0.9628
0.933012
0.905642
0.891273
0.886608
0.884756
0.883575
0.885147
0.89456
0.921821
0.993517
1.11465
1.1772
1.16254
1.09293
0.98679
0.918035
0.879276
0.837629
0.800297
0.77933
0.769638
0.766325
0.766777
0.768946
0.772985
0.783741
0.824966
1.02974
1.84272
4.00318
7.6985
11.8083
12.6946
15.16
12.8601
14.9348
12.0052
14.6818
4.03603
7.77725
3.35971
6.46345
2.83327
5.15469
2.40186
4.35992
1.96883
3.54177
1.60556
2.7199
1.34257
2.02037
1.18657
1.52902
1.12172
1.24233
1.14597
1.11576
1.16149
1.16424
1.0236
1.08362
0.964984
0.941522
0.912796
0.893758
0.887834
0.886645
0.887236
0.88969
0.89752
0.919597
0.977169
1.09443
1.17699
1.1731
1.11767
1.01009
0.928482
0.886244
0.846362
0.806381
0.780865
0.769633
0.764709
0.764579
0.766936
0.77175
0.791304
0.892374
1.41529
3.2204
6.8841
11.3144
14.3784
16.27
16.0783
16.5839
16.0818
16.6341
16.0435
16.7833
10.9921
14.3093
9.76174
13.8154
8.26607
12.9764
6.814
11.6913
5.17429
9.93513
3.80534
7.54126
2.60623
5.15959
1.73126
3.30231
1.2809
1.88469
1.28567
1.15792
1.26562
1.23894
1.02452
1.12021
0.982314
0.96584
0.944427
0.911406
0.894724
0.890485
0.890987
0.895124
0.902526
0.919585
0.964947
1.07225
1.17462
1.18497
1.14001
1.03616
0.941887
0.89323
0.85514
0.813796
0.783633
0.769816
0.763727
0.762698
0.765001
0.773257
0.81546
1.06931
2.1759
5.1706
9.68856
13.2298
14.9831
15.8701
16.4196
15.8802
16.8793
16.753
17.0459
16.9875
17.2476
17.21
15.9959
16.9166
15.8499
17.0229
15.3645
17.0151
14.5555
16.8693
13.0577
16.4859
10.3503
15.487
6.91913
12.9672
3.956
8.71126
1.92499
4.36516
1.78646
1.19721
1.55732
1.35933
1.03433
1.14234
0.994572
0.997757
0.970489
0.923181
0.902843
0.898564
0.900937
0.908945
0.921332
0.957557
1.05032
1.1675
1.19675
1.1607
1.06573
0.959614
0.900706
0.863544
0.821993
0.787865
0.770299
0.763071
0.761352
0.763988
0.779133
0.878608
1.45794
3.50081
7.4335
11.5846
13.9871
14.8132
15.0058
14.5849
15.2919
14.7116
16.6942
16.0179
16.9362
16.2888
17.1587
16.5621
17.444
17.4182
17.6071
17.5953
17.7833
17.7992
17.8696
18.1226
17.829
18.5813
17.2722
18.9462
15.3171
18.7187
10.2661
17.0985
4.3433
11.0943
3.59741
1.26707
2.45473
1.66912
1.38361
1.04192
1.11526
1.18756
1.02865
1.04377
1.00716
0.942841
0.916824
0.911023
0.915645
0.927128
0.95507
1.0308
1.15397
1.20564
1.17945
1.0962
0.98272
0.910123
0.871653
0.830895
0.793294
0.771268
0.76267
0.76022
0.763992
0.794927
1.01903
2.18122
5.19276
9.46515
12.5946
13.9371
14.3839
14.2406
14.2407
14.7186
14.9766
14.7602
14.6315
15.5098
15.0942
15.8448
15.4644
16.2424
15.8708
17.3607
16.8105
17.6099
17.1127
17.9658
17.5907
18.4995
18.2251
19.2332
19.0859
19.9851
20.0207
20.1748
21.0149
18.6965
21.4616
10.8051
19.8
15.3727
4.75348
9.43963
1.4974
1.24206
1.36432
2.79768
6.58908
7.38469
2.27102
1.01276
1.06048
1.12287
1.18332
1.06648
1.09112
1.0419
0.963526
0.932617
0.925868
0.935246
0.955684
1.01538
1.13691
1.21014
1.19522
1.12554
1.00963
0.922805
0.879816
0.840577
0.800107
0.773115
0.762538
0.759317
0.765253
0.828027
1.308
3.21511
6.97614
10.8399
12.969
13.71
13.6846
13.6964
14.3482
15.4643
16.2222
16.3992
16.9669
15.1858
15.6447
15.1022
15.0365
15.5308
15.5181
16.0875
16.11
16.6932
16.3482
17.1999
16.8898
17.8301
17.6708
18.7497
18.769
19.9826
20.0893
21.1937
21.6255
21.6079
21.972
22.1723
22.61
21.2114
22.6312
22.6178
23.6378
22.9532
19.6207
15.4422
20.7401
21.8067
15.1759
1.83611
1.2644
1.53114
5.10595
12.0276
14.5182
3.76779
1.0122
1.0584
1.12826
1.1915
1.11497
1.13987
1.06923
0.981824
0.946843
0.944781
0.959879
1.00626
1.11803
1.21094
1.21035
1.1531
1.039
0.938907
0.888353
0.850704
0.808681
0.776875
0.762565
0.758567
0.768614
0.886108
1.74577
4.4478
8.61897
11.6528
12.9435
13.2529
13.0095
13.2085
14.321
16.5805
17.2606
17.3564
17.8203
17.799
17.0419
17.5666
15.7033
16.218
16.3342
16.8636
17.1609
17.6711
16.8048
16.8915
17.7218
17.9115
18.8983
19.2501
20.3252
20.9068
22.1699
22.8759
23.042
23.5883
24.0834
24.5931
23.1003
23.7293
24.3931
22.9656
23.6575
24.2986
25.4487
24.5094
22.4735
20.2284
22.319
23.5229
19.8587
2.73068
1.34309
2.01343
9.2562
18.7318
17.2747
6.61658
1.00838
1.11232
1.04801
1.20265
1.17531
1.18523
1.08872
0.991715
0.962726
0.969904
1.00432
1.09855
1.2101
1.22698
1.17915
1.07122
0.959384
0.897951
0.860776
0.818642
0.782593
0.763006
0.757976
0.774057
0.984889
2.31516
5.77985
9.87875
12.0717
12.8293
12.7544
12.5238
12.9282
14.2496
15.913
16.7177
16.6317
17.7082
17.3911
18.1154
17.7615
18.227
18.2336
17.589
18.0108
18.0568
18.3275
18.5733
18.6036
18.3169
18.5234
19.6509
19.5904
21.189
21.0174
23.2493
22.9365
24.8855
25.1071
25.1047
24.9635
25.0643
25.6393
26.075
26.3352
25.0401
25.8679
26.6166
24.4833
25.6036
26.4504
27.9782
26.7819
23.807
22.4078
24.294
25.2291
22.0898
4.62411
1.5494
3.11233
14.8548
21.6169
20.5992
11.4862
1.00543
1.10737
1.03468
1.28427
1.24612
1.21945
1.0887
0.999816
0.984438
1.00617
1.08168
1.20604
1.24326
1.20385
1.10563
0.98487
0.909711
0.871097
0.82976
0.790196
0.764774
0.758002
0.783436
1.11039
3.02134
7.06281
10.6601
12.1892
12.5599
12.173
12.1016
12.747
14.1447
15.0976
13.5141
15.2393
13.4469
17.1488
16.1853
17.1727
15.9613
18.3691
17.9879
18.4872
18.4999
18.6531
18.5985
18.857
18.566
19.3561
19.1406
20.5952
20.0261
22.2238
21.3688
24.692
24.2449
23.2706
26.385
26.2819
26.0002
25.4865
27.1944
27.5626
27.7118
27.6523
27.4167
28.2117
28.7758
26.6986
28.1482
29.0272
30.6451
29.5158
26.0863
24.4739
26.7099
27.8489
24.463
7.93566
2.12714
5.30246
18.9991
24.083
23.3494
16.6984
1.00276
1.12499
1.03477
1.5359
1.31676
1.22424
1.0814
1.01279
1.01367
1.07222
1.19483
1.25693
1.22723
1.1402
1.01461
0.924881
0.881876
0.842521
0.799674
0.769645
0.758912
0.797967
1.32115
3.78659
8.18977
11.1484
12.1678
12.1831
11.6593
11.7701
12.6072
13.9745
14.2295
11.064
6.71019
6.04044
10.5383
7.9704
14.5523
12.4854
13.3961
10.7931
16.8906
15.5623
18.4003
17.8973
18.0955
17.2753
17.3256
16.2558
19.2976
18.3792
20.1656
18.534
21.6161
19.6432
24.8871
24.1233
21.7417
22.8515
27.427
26.9712
26.3505
25.6086
29.0764
29.1029
28.9622
28.5982
29.8406
30.3719
30.5952
29.5244
31.0524
31.4863
33.1553
32.2804
28.857
27.123
29.6895
30.8077
27.2114
13.2032
3.39815
9.11116
22.2617
26.9336
26.288
20.6791
1.00358
1.21726
1.05759
2.17379
1.36225
1.20971
1.07195
1.03264
1.07067
1.18063
1.26643
1.25001
1.1746
1.04816
0.94351
0.893979
0.856417
0.812543
0.776889
0.763173
0.826981
1.62155
4.73018
9.14256
11.4342
12.0877
11.7809
11.2969
11.4919
12.6162
13.7647
13.2662
9.14163
4.46052
3.90907
3.48203
5.23451
4.32448
8.1817
6.35808
6.85807
5.46975
11.8725
8.94349
16.232
14.4429
14.7479
12.541
12.7139
10.3842
16.7194
14.8006
17.169
14.7975
20.6993
19.4499
17.1718
18.3875
24.7878
23.8005
21.1399
22.3027
28.0219
27.3011
26.4628
25.5229
30.5565
30.3326
29.8594
29.207
31.9848
32.1642
32.0968
32.5405
33.9179
33.6571
35.4203
34.8676
31.9939
30.2191
32.9513
33.9827
30.3976
18.4998
5.86964
14.9816
25.3766
30.1446
29.528
24.3267
1.01095
1.47542
1.14174
3.59989
1.37034
1.17472
1.07679
1.07466
1.16488
1.27224
1.27473
1.20941
1.08479
0.967093
0.907265
0.871667
0.827903
0.788982
0.775831
0.894419
2.06967
5.75871
9.8421
11.5797
11.9368
11.3682
10.9929
11.3579
12.6687
13.4912
12.2936
7.75363
4.01032
3.1644
3.06675
3.32578
3.19153
3.67391
3.45884
4.54666
3.99192
4.37812
4.0192
6.11023
5.01106
9.88016
7.67384
8.4264
6.88452
8.62714
7.04877
12.5892
10.5146
15.2615
13.1137
19.9998
18.825
16.5714
17.7079
24.5028
23.4129
20.988
22.1358
28.4152
27.5146
26.533
25.4909
31.8248
31.3146
30.6517
29.8655
33.839
33.7808
33.5269
35.5587
36.6457
35.672
37.7013
37.3234
35.3076
33.5772
36.399
37.1738
33.8073
22.9928
10.3637
20.9548
28.7626
33.5672
33.0089
28.0398
1.0306
2.11384
1.34217
6.39653
1.35296
1.14389
1.09335
1.15461
1.27441
1.30102
1.24404
1.12583
0.996014
0.923099
0.888139
0.84645
0.807454
0.805954
1.05103
2.78286
6.89065
10.3216
11.5824
11.7097
10.9527
10.7241
11.2864
12.6203
13.1547
11.3531
6.68456
3.5939
2.92515
3.10221
3.00163
3.27923
3.18228
3.48938
3.37616
3.7879
3.62253
4.0447
3.88235
4.50293
4.24425
5.68581
4.93147
5.94974
5.29612
7.65773
6.4336
11.0905
9.27228
15.6749
14.6404
13.693
12.6613
19.8601
18.7425
16.6181
17.6617
24.4005
23.2765
21.6989
22.7693
28.9838
28.0313
27.0304
25.9919
33.077
32.5016
31.8259
31.0662
35.6854
35.55
35.27
38.4894
39.3754
37.9022
40.4664
39.9849
38.718
37.1199
40.0216
40.3786
37.3704
27.346
17.1952
26.2664
32.3874
37.1259
36.6353
31.981
1.1184
3.61718
2.02296
11.6466
1.29779
1.13703
1.1547
1.27348
1.3255
1.27988
1.169
1.03148
0.942486
0.905236
0.869853
0.837134
0.875049
1.37282
3.80206
7.93386
10.6335
11.5461
11.4336
10.6145
10.4941
11.2211
12.5001
12.7366
10.4248
5.78848
3.25645
2.76502
2.93921
2.82519
3.12694
3.0239
3.31821
3.22623
3.5069
3.4121
3.73988
3.61425
4.09482
3.96933
4.38114
4.22104
4.87542
4.5853
5.6603
5.20852
8.05922
6.81634
11.8073
10.7991
9.6751
16.4289
15.3948
14.3684
13.3809
20.6369
19.5797
17.4756
18.5266
24.925
23.8472
23.2548
24.3409
30.2379
29.3556
28.4293
27.4592
34.9057
34.4607
33.9282
33.2955
37.9947
38.0267
37.997
41.5735
42.5241
40.9466
44.4188
43.4286
42.2256
40.906
43.8277
43.8597
41.2056
31.8164
24.215
31.5703
36.2558
40.9715
40.5754
36.3168
1.32731
6.86733
3.77682
19.7177
1.24028
1.1687
1.26408
1.34754
1.31249
1.21716
1.07145
0.966467
0.926173
0.897509
0.884206
1.02932
2.05072
5.0177
8.77537
10.8075
11.4595
11.1114
10.3037
10.3091
11.2202
12.3426
12.2737
9.55277
5.0633
2.97169
2.60695
2.70082
2.93173
2.83605
3.13764
3.02982
3.35693
3.24631
3.58033
3.46692
3.83543
3.70294
4.22345
4.05568
4.56
4.38984
4.93318
4.73682
6.04497
5.56247
9.09059
7.50168
12.4103
11.4843
10.1359
11.3264
17.618
16.4866
15.3821
14.3108
22.1495
21.0295
18.7557
19.8953
26.4486
25.4072
25.4435
26.614
32.562
31.7375
30.8356
29.8622
37.8853
37.6447
37.2257
36.6166
41.4342
41.8771
42.1372
45.2753
46.758
45.5111
50.2168
48.4284
46.1008
44.9337
47.9783
48.098
45.405
36.7682
30.5028
37.0172
40.5335
45.3655
45.2173
41.3132
1.72389
13.2279
7.74539
27.9867
1.22398
1.26126
1.35998
1.35246
1.26213
1.12053
0.995719
0.948599
0.933743
0.964976
1.37353
3.09199
6.33995
9.38159
10.8667
11.3068
10.7824
10.0592
10.1456
11.2407
12.1749
11.7855
8.804
4.48261
2.73127
2.45801
2.5366
2.67913
2.92974
2.82374
3.14259
3.03031
3.3762
3.25941
3.61422
3.49365
3.89186
3.74422
4.29195
4.12254
4.67467
4.47275
5.20084
4.91439
6.47751
5.85805
11.0988
10.9736
9.59222
8.72093
7.76557
13.2744
12.2614
12.1825
19.2364
17.9838
16.7668
15.5854
24.2417
23.013
20.4984
21.7617
28.8265
27.7422
28.3727
29.6081
35.8455
34.9577
33.9914
32.9658
42.1745
41.9442
41.4051
40.642
46.5258
47.2194
47.4362
50.2934
52.8363
51.8817
57.8617
55.4941
50.7169
49.2468
52.7164
53.7013
50.0569
42.4265
36.5861
42.9724
45.8259
50.6379
51.3632
47.6773
6.4963
23.5996
20.97
35.227
1.26628
1.37473
1.38557
1.31618
1.16997
1.03488
0.975518
0.979127
1.11415
1.98084
4.29158
7.4415
9.77669
10.8483
11.1065
10.4498
9.84565
10.0397
11.2661
11.99
11.3125
8.1442
4.02896
2.53097
2.32202
2.38778
2.50451
2.71092
2.80507
2.58968
2.91978
3.14364
3.02758
3.39705
3.26669
3.66424
3.53033
3.95671
3.80438
4.40225
4.21407
4.82714
4.60167
5.42262
5.09637
7.09362
6.2826
12.1666
12.0229
10.6695
9.39745
8.40531
14.4413
13.3074
13.4494
21.4285
19.9868
18.601
17.2585
27.075
25.721
22.8786
24.321
31.8934
30.7783
32.4803
33.7874
39.7562
38.8291
37.9015
36.9651
47.3714
46.9111
46.2087
45.4308
53.0537
53.5166
53.6058
57.2612
61.035
59.6325
67.0608
64.4171
56.5193
54.363
59.0106
61.1443
56.4588
49.0842
42.9612
49.8714
53.7403
58.3684
61.9963
56.4978
39.8125
37.223
49.5977
42.4835
1.36974
1.43089
1.36135
1.23268
1.07773
1.01021
1.03664
1.37404
2.79336
5.46977
8.24609
9.98818
10.7929
10.8806
10.1197
9.64734
9.96107
11.2495
11.8001
10.876
7.58169
3.66979
2.36525
2.2
2.25534
2.35144
2.44545
2.78957
2.66523
2.56552
2.90355
3.14075
3.01859
3.40581
3.26853
3.69623
3.54821
4.0261
3.85362
4.48767
4.28464
4.97156
4.7086
5.71347
5.30134
8.14705
7.34958
6.77398
13.5264
13.4842
11.8378
10.3317
9.05411
15.9779
14.7091
15.0067
24.2641
22.5061
20.8611
19.2824
31.0261
29.4504
26.0267
27.7839
35.9937
34.9483
38.258
39.7813
44.6869
44.0145
43.399
42.7562
53.4288
52.9906
52.5432
52.233
60.6665
61.2484
61.6116
66.1744
70.6938
69.1156
78.4579
74.7233
64.9261
63.2592
72.1533
72.1377
68.2653
57.3751
50.6938
60.0797
66.7442
74.6563
81.633
68.2863
41.0955
42.4709
56.4012
49.2147
1.45477
1.41334
1.29421
1.13425
1.04314
1.1263
1.71282
3.70838
6.5454
8.80734
10.1024
10.6869
10.5958
9.78388
9.47161
9.93285
11.2074
11.6133
10.4855
7.10912
3.38414
2.22605
2.09068
2.13727
2.21447
2.2861
2.39222
2.77569
2.64528
2.54227
2.88461
3.13181
3.00473
3.40966
3.26739
3.7249
3.56407
4.08053
3.89467
4.58982
4.36862
5.12846
4.83128
6.02164
5.51606
8.69387
7.88155
7.67123
6.94306
15.2045
15.2183
13.3482
11.5434
9.92966
17.8314
16.4055
16.8194
27.7306
25.4906
23.483
21.5667
36.439
34.4095
29.962
32.2572
41.987
41.0184
45.959
47.9683
52.0649
51.9489
51.7925
51.4203
61.8875
62.1929
62.6149
63.1806
70.9041
72.6242
74.3153
80.4518
88.1661
82.2359
100.153
94.3902
83.9483
82.4143
98.549
95.7002
91.8496
73.4364
60.7759
75.5077
84.1245
100.448
103.013
90.2229
43.3561
47.5662
53.9812
56.5763
1.47499
1.35487
1.20095
1.09122
1.19521
2.16388
4.55274
7.39153
9.17818
10.1268
10.5461
10.2847
9.50647
9.32007
9.94916
11.1441
11.4335
10.1464
6.70239
3.15292
2.10642
1.99256
2.0309
2.09137
2.14248
2.22071
2.4008
2.50214
2.28753
2.7454
2.61732
2.86512
3.11755
2.986
3.40961
3.25826
3.74685
3.57037
4.14086
3.93446
4.6795
4.43994
5.28975
4.94495
6.40874
5.76107
9.49391
8.40466
8.08426
7.38439
17.1199
17.2288
15.1559
13.0822
11.1003
19.9105
18.3136
18.8071
31.8783
28.9776
26.5202
24.1326
43.4754
40.6793
34.7132
37.8204
50.7165
49.5921
55.6815
58.4718
63.7679
64.0548
64.1367
63.6184
75.9723
77.5872
79.0742
80.4489
86.546
91.1474
95.3734
104.044
115.432
106.348
143.284
129.699
110.195
108.598
123.401
124.07
118.457
91.5872
71.0206
87.2218
107.499
123.254
131.47
108.177
41.0449
52.2041
61.1714
63.7313
1.44721
1.25603
1.14841
1.31862
2.51531
5.34249
8.002
9.41015
10.105
10.3624
9.93989
9.2506
9.20305
9.99959
11.07
11.2575
9.84036
6.33133
2.95758
2.00247
1.90287
1.93465
1.97898
2.01446
2.07402
2.1454
2.47633
2.34085
2.25188
2.72442
2.58191
2.8404
3.10223
2.96769
3.40317
3.24736
3.75673
3.57156
4.18722
3.96082
4.76865
4.5116
5.45922
5.05839
7.12531
6.48215
6.04138
10.5261
9.08022
8.69245
7.77864
19.2829
19.5073
17.2589
14.9572
12.603
22.2168
20.3823
20.9927
36.9801
33.1788
30.2038
27.1507
52.33
48.4167
40.5226
44.7557
62.5752
60.9304
67.8524
71.8721
81.3179
81.6922
81.3803
79.9784
98.8799
101.743
103.835
105.445
113.558
123.465
130.527
147.999
187.966
161.475
236.102
236.037
149.561
139.036
179.44
192.197
152.361
106.439
81.489
102.79
135.225
177.651
185.074
135.249
24.9719
62.4923
64.635
81.355
1.37511
1.19686
1.38101
2.90306
5.91917
8.4448
9.53442
10.0529
10.163
9.60735
9.0535
9.11198
10.0877
10.9966
11.084
9.55424
5.97777
2.78547
1.9101
1.82127
1.84598
1.87754
1.9001
1.947
2.00427
2.07709
2.44724
2.3117
2.22287
2.69406
2.54988
2.81559
3.08352
2.94413
3.39405
3.23283
3.76054
3.56927
4.2306
3.98083
4.84654
4.57188
5.65273
5.16926
7.42867
6.81205
6.5991
6.04427
11.8633
9.96553
9.425
8.29441
21.6973
22.0024
19.5684
17.0934
14.435
24.905
22.6969
23.4166
43.615
38.5051
34.97
30.9376
63.6721
58.1392
47.8853
53.6712
77.9911
75.6484
83.7397
90.0929
106.425
106.873
105.507
102.39
136.744
140.106
142.241
143.72
190.375
234.55
230.134
238.084
256.154
263.954
519.566
499.208
228.572
191.88
245.499
223.978
227.324
132.386
109.32
142.76
188.293
244.188
252.55
189.28
54.49
75.1654
72.5688
95.1287
1.30251
1.46002
3.08684
6.44762
8.71833
9.60041
9.96182
9.92713
9.29366
8.88862
9.0561
10.1676
10.924
10.8923
9.27408
5.61143
2.62599
1.82756
1.74626
1.76521
1.78505
1.7981
1.8344
1.87836
1.93151
1.99947
2.17055
2.40223
2.27269
2.66266
2.51428
2.78561
3.06116
2.91882
3.38009
3.21479
3.76138
3.56057
4.26206
3.99067
4.91974
4.62855
6.04742
6.28292
5.60832
5.28146
7.87868
7.06259
6.75696
13.5113
11.0696
10.3245
8.91769
24.3427
24.6585
21.9932
19.3801
16.527
28.2515
25.4307
26.1416
52.7259
45.6264
41.4
35.8804
79.16
71.1883
57.6769
65.8266
97.852
94.8756
105.659
116.272
145.094
145.85
143.277
137.687
239.302
239.723
236.621
233.606
271.074
466.012
483.604
523.473
535.919
522.115
900.529
892.039
534.177
235.289
537.499
537.296
530.696
196.35
120.47
154.103
262.438
522.998
515.976
251.274
64.0964
78.754
105.783
104.694
1.48464
3.22492
6.70962
8.91384
9.60444
9.86128
9.64873
8.99574
8.7409
9.06411
10.2459
10.8388
10.693
8.98099
5.22632
2.46919
1.75179
1.67788
1.69087
1.70166
1.70575
1.73488
1.76574
1.80363
1.85272
1.99156
2.14114
2.088
1.89617
2.36781
2.22903
2.62773
2.47325
2.75311
3.035
2.88844
3.36236
3.19259
3.75486
3.54745
4.28948
3.99492
4.98883
4.6786
6.4243
6.09771
5.75724
5.40843
8.38519
7.37495
7.03692
15.4408
12.4383
11.4162
9.64019
27.173
27.5199
24.5343
21.768
18.8088
32.5912
28.8621
29.2833
65.662
55.7
50.4209
42.5433
100.332
89.7776
71.5762
83.4376
126.089
119.023
139.259
153.397
224.569
222.203
210.303
204.229
474.653
480.841
475.454
476.551
510.797
870.418
877.415
909.013
914.707
894.039
2512.1
2507.28
940.084
532.804
938.531
917.247
961.589
186.145
138.848
200.412
519.587
947.407
945.505
505.747
48.9157
95.6308
116.478
136.931
3.13893
6.8892
8.99863
9.59376
9.72766
9.37774
8.75506
8.62348
9.10351
10.2637
10.7445
10.462
8.69299
4.81574
2.31271
1.68138
1.6145
1.6231
1.62508
1.62411
1.64627
1.66621
1.69333
1.73127
1.77536
2.05502
1.92565
2.19118
1.85473
2.32551
2.59016
2.43376
2.71629
3.00399
2.85457
3.33934
3.16561
3.74192
3.5287
4.30791
3.99573
5.05092
4.71995
6.61193
6.26815
5.82939
5.3122
5.93408
5.68161
8.98783
7.74384
7.31007
17.6372
14.1014
12.7662
10.502
30.2749
30.7171
27.2996
24.2812
21.2695
38.2898
33.394
33.283
84.1466
70.1677
63.3811
51.9412
128.1
114.374
91.6394
107.716
185.715
154.131
197.859
211.296
471.501
475.493
476.931
479.905
858.488
867.592
860.138
859.045
870.064
2500.2
2510.46
2513.77
2532.38
2506.31
15690.4
15698
2534.84
933.772
2534.96
2505.1
2570.14
318.97
524.092
201.206
267.803
944.45
2534.19
2529.82
925.323
73.6994
104.8
114.048
149.31
6.80615
9.05472
9.55507
9.61165
9.09354
8.56657
8.53682
9.19281
10.248
10.6238
10.1924
8.2673
4.27918
2.15544
1.61475
1.55593
1.56064
1.55546
1.55098
1.56812
1.57842
1.59857
1.62791
1.66267
1.70786
2.14186
2.01699
1.89363
2.28412
1.82795
2.54859
2.3902
2.67615
2.96841
2.81585
3.31163
3.13362
3.72377
3.50539
4.31672
3.98602
5.10458
5.39961
4.74873
6.82183
6.40473
6.02804
5.6803
9.71385
8.16244
7.63312
20.1016
16.0949
14.4599
11.5612
33.9911
34.5211
30.4606
26.9687
23.9246
45.8205
39.6912
38.7254
108.821
90.3272
81.8988
66.0841
177.432
145.042
117.429
139.445
279.43
205.287
477.381
475.253
855.579
860.508
866.097
463.915
867.925