/*--------------------------------*- C++ -*----------------------------------*\
  =========                 |
  \\      /  F ield         | OpenFOAM: The Open Source CFD Toolbox
   \\    /   O peration     | Website:  https://openfoam.org
    \\  /    A nd           | Version:  dev
     \\/     M anipulation  |
\*---------------------------------------------------------------------------*/
FoamFile
{
    version     2.0;
    format      ascii;
    class       volScalarField;
    location    "2500";
    object      p_rgh;
}
// * * * * * * * * * * * * * * * * * * * * * * * * * * * * * * * * * * * * * //

dimensions      [1 -1 -2 0 0 0 0];

internalField   nonuniform List<scalar> 
9456
(
0.00399867
0.00519351
0.00435586
0.00533582
0.00746526
0.00403425
0.00506754
0.00863332
0.00736034
0.00310752
0.0041609
0.00893955
0.00956304
0.0064679
0.00259099
0.00405684
0.00866421
0.0109718
0.0095736
0.005437
0.00235317
0.00361603
0.00843696
0.0117563
0.0113605
0.00835115
0.00479498
0.00179477
0.00351085
0.00801596
0.0115622
0.0127982
0.0109709
0.00706663
0.00420806
0.00149205
0.00318428
0.00718037
0.0109681
0.0131836
0.0127267
0.00960987
0.00616304
0.00367552
0.00120194
0.0029237
0.00679728
0.0106377
0.0135143
0.0137781
0.0120995
0.00848197
0.00566178
0.00303688
0.000947385
0.00298966
0.00613545
0.00955616
0.0131028
0.0143766
0.0134183
0.0106548
0.00763577
0.00499008
0.00265113
0.000580542
0.00287595
0.00540957
0.0091635
0.0130251
0.0149002
0.0146942
0.0123698
0.00949579
0.00687658
0.00448048
0.00243255
0.000400421
0.00265098
0.00542999
0.00874824
0.011965
0.0148833
0.0152648
0.0142935
0.0112157
0.00867279
0.00613265
0.00406411
0.00206555
0.000118134
0.0025437
0.00520726
0.00819583
0.0114307
0.0147311
0.0157252
0.0152522
0.0131875
0.0100589
0.00784853
0.00562482
0.00351559
0.00180929
-3.67311e-07
0.00242216
0.00461018
0.00766166
0.0107257
0.0140126
0.0161754
0.0158646
0.0143089
0.0120927
0.00921289
0.00711109
0.00502411
0.00328055
0.00153972
-0.000262721
0.00228306
0.00437267
0.00708393
0.00961531
0.0134861
0.0159177
0.0165037
0.0154651
0.0133116
0.010934
0.00827635
0.00666189
0.00465957
0.00302227
0.00128012
-0.000357196
0.00214525
0.00410597
0.00692276
0.00978648
0.0131506
0.0153824
0.0169926
0.016527
0.0146239
0.012527
0.00976786
0.00805013
0.00613054
0.00429546
0.00275812
0.0010215
-0.000574103
0.00207868
0.00409324
0.00635685
0.00910801
0.0123866
0.0151081
0.0169966
0.0170908
0.0158725
0.0137205
0.0113748
0.00929094
0.00763813
0.00588408
0.00421992
0.00248639
0.000890658
-0.000645308
0.00198766
0.00387886
0.00594674
0.00860848
0.011725
0.0145488
0.0166774
0.0174137
0.0168841
0.0151332
0.0129608
0.0104458
0.00859945
0.00716443
0.00551849
0.00392103
0.00231926
0.000696841
-0.000798855
0.00176446
0.00366544
0.00597018
0.0082009
0.0113203
0.0140293
0.0162597
0.0174528
0.0173665
0.0159046
0.0140679
0.0120213
0.0100084
0.0083477
0.00665721
0.00524689
0.00368821
0.00206985
0.000572949
-0.00092091
0.00182211
0.00383688
0.00594703
0.00780064
0.0108343
0.0135131
0.0158689
0.0172397
0.0176736
0.0169473
0.0150901
0.013072
0.0112321
0.00951771
0.00799021
0.00633777
0.00480784
0.00343006
0.00197967
0.000575221
-0.00093518
0.00156835
0.0034182
0.00575706
0.00767044
0.0104297
0.0127687
0.0154424
0.0171411
0.0177939
0.0174205
0.0158718
0.0140771
0.0124014
0.0105958
0.00912064
0.00758223
0.00615257
0.00473774
0.00326049
0.00190534
0.000456836
-0.00101643
0.00176219
0.003323
0.00565031
0.00739552
0.0097967
0.0125016
0.0151503
0.016869
0.0178254
0.0178612
0.0169269
0.0150148
0.0133651
0.0116541
0.0100461
0.00883521
0.00728629
0.00586052
0.00460912
0.00317856
0.00179092
0.000339713
-0.00103346
0.00159358
0.00316293
0.00560106
0.00717948
0.00927019
0.0121361
0.014596
0.0165349
0.0176437
0.0181075
0.0176596
0.0162682
0.0142048
0.0126349
0.011168
0.0097838
0.00850961
0.00708903
0.00570562
0.00434507
0.00300022
0.00174039
0.000306949
-0.00113218
0.00172151
0.00349704
0.00528562
0.00720798
0.00901318
0.0119017
0.0141893
0.0161422
0.0175322
0.0181311
0.0179526
0.0169927
0.0152355
0.0135361
0.0121423
0.0107701
0.00951053
0.00817573
0.00687632
0.00556979
0.00429994
0.00287384
0.00162177
0.000307439
-0.00111247
0.00172441
0.00330485
0.00521293
0.00702079
0.0084785
0.0115148
0.0137556
0.0157366
0.017251
0.0180737
0.0181012
0.0175041
0.0160958
0.0143001
0.0128942
0.0116911
0.0104506
0.00923653
0.00790519
0.00668331
0.00546093
0.00420963
0.00290688
0.0015623
0.000231601
-0.00115446
0.00176353
0.00334577
0.00466664
0.00691525
0.00865848
0.0108923
0.0133108
0.0153076
0.0168336
0.01792
0.0183021
0.0177914
0.0168227
0.0152716
0.0137314
0.0124226
0.011332
0.0101759
0.00885412
0.00767137
0.00655571
0.00536368
0.00402608
0.00288558
0.00155561
0.000243522
-0.00105366
0.00158718
0.00338628
0.004842
0.00702951
0.00840313
0.0105662
0.0131449
0.0148487
0.0164823
0.0178021
0.0182416
0.0181546
0.0173075
0.0160799
0.0146129
0.0132647
0.0120319
0.0110442
0.00991409
0.00867949
0.00747514
0.00637147
0.00529094
0.00403648
0.00287609
0.00158083
0.000309968
-0.00102685
0.0016841
0.00350232
0.00491202
0.00672015
0.00842344
0.0103281
0.0125041
0.0145146
0.0160947
0.017456
0.0181647
0.0182751
0.0177229
0.0166021
0.0153948
0.0140294
0.0128661
0.0118189
0.0107186
0.0096571
0.00850954
0.00745748
0.00638767
0.00522034
0.00395328
0.00290429
0.00161597
0.00030627
-0.000944086
0.00177005
0.00342427
0.00494606
0.00622444
0.00827251
0.0100311
0.0120552
0.0140916
0.0157073
0.0171309
0.0180639
0.0183184
0.0179418
0.0171787
0.0159179
0.014782
0.0136746
0.0125897
0.0116683
0.0105543
0.00958647
0.00852482
0.0074276
0.00629827
0.00521863
0.00407954
0.00288725
0.00167085
0.000383001
-0.00084819
0.00161569
0.0031321
0.00487413
0.00611627
0.00823156
0.00949713
0.0115504
0.0135447
0.0153133
0.0167608
0.0178
0.0182854
0.0182076
0.0174803
0.0165617
0.0153635
0.0142782
0.0132069
0.012383
0.0114441
0.0104314
0.00942079
0.00840277
0.0073165
0.00620325
0.00520979
0.00409679
0.00295278
0.0017418
0.000522034
-0.000770463
0.00159656
0.00331704
0.00483909
0.00595721
0.00793847
0.00933005
0.0112393
0.0131061
0.0148739
0.0163626
0.0174895
0.0181422
0.0182742
0.0178513
0.0169648
0.0159859
0.0148404
0.0139039
0.0129345
0.0120732
0.0111693
0.0101605
0.0093111
0.00828463
0.00730693
0.00619699
0.00517964
0.00411984
0.00302977
0.0019121
0.00072529
-0.000601808
0.00175717
0.00329754
0.00467689
0.00603709
0.00769716
0.00908994
0.0107234
0.0126974
0.0144259
0.0159524
0.0171849
0.0179739
0.0182819
0.0180576
0.0172493
0.0164379
0.0155271
0.0145946
0.0136438
0.0128837
0.0119836
0.0110863
0.010078
0.00927269
0.00821024
0.00722097
0.00635788
0.00532625
0.00429897
0.00315746
0.00204097
0.00087855
-0.000380124
0.00172995
0.00317441
0.00453323
0.00591373
0.00730031
0.00880154
0.0103608
0.0122482
0.0139009
0.015523
0.016793
0.0176793
0.0181598
0.0181453
0.01759
0.0168268
0.0159434
0.0151065
0.0143105
0.013506
0.0126164
0.0118025
0.0109722
0.010087
0.00907107
0.0082776
0.00732082
0.00633396
0.00541377
0.00439284
0.00333215
0.00224338
0.000905909
-0.00094178
-0.000134239
0.00155726
0.00295511
0.00438371
0.00573003
0.00692648
0.00846613
0.0099781
0.0117092
0.0134079
0.0150524
0.016364
0.0173903
0.0179708
0.0181387
0.0178779
0.0171767
0.0162754
0.0156499
0.0148068
0.0140864
0.0133358
0.0124957
0.011676
0.0108441
0.00997094
0.00914768
0.00823876
0.0072696
0.00635716
0.00548916
0.00456962
0.00349231
0.00186552
0.00255114
0.000605979
0.00171947
0.0012959
-0.000835479
-5.75681e-05
0.00157932
0.00305812
0.00432795
0.00535864
0.00675267
0.00808839
0.0095826
0.0112111
0.0129055
0.014549
0.0159659
0.0170199
0.0177331
0.0180465
0.0179599
0.0174536
0.0168309
0.0160229
0.0153862
0.0146138
0.0139214
0.0131619
0.0124029
0.0115527
0.0107843
0.00990539
0.00904003
0.00821724
0.00733487
0.0064934
0.00562135
0.00465884
0.00317283
0.00377456
0.00247086
0.000764606
0.00206306
0.00147325
-0.000707403
8.10853e-05
0.00145058
0.00284024
0.00399447
0.00521194
0.00652224
0.00773417
0.00923776
0.0107264
0.0123493
0.014002
0.0154701
0.0165941
0.0174402
0.0178993
0.0179695
0.0176383
0.0170958
0.0163789
0.0157898
0.0150461
0.0144651
0.0137932
0.0130536
0.0123454
0.0115657
0.0106386
0.00978425
0.00905899
0.00822749
0.00744358
0.00662125
0.00573067
0.00433983
0.00490853
0.00310307
0.00375001
0.0026662
0.000930605
0.00213027
0.00162287
-0.000513128
0.000281582
0.00145523
0.00271548
0.0039301
0.0050756
0.00615067
0.00738608
0.00876779
0.0102444
0.0118297
0.0134935
0.0149571
0.0161756
0.017088
0.0176489
0.0178284
0.0177301
0.0173159
0.0166188
0.0161436
0.0155674
0.0148906
0.0143569
0.0136764
0.0129606
0.0121703
0.0113595
0.0105745
0.00980164
0.00906796
0.00831112
0.00756677
0.00674202
0.00546576
0.00599471
0.00437541
0.00497079
0.00333334
0.00396699
0.00283711
0.00108651
0.00233497
0.00179344
-0.000337297
0.000446118
0.00138583
0.00256301
0.00371023
0.00476929
0.00584638
0.00702438
0.00832958
0.00972367
0.0112896
0.0128962
0.0144164
0.0156913
0.0166864
0.0174006
0.0176959
0.0177106
0.0174245
0.0170116
0.0164324
0.0159572
0.0154449
0.0148491
0.0141949
0.0135278
0.0128144
0.0120426
0.011291
0.0105715
0.00977376
0.00913114
0.00840941
0.00765995
0.00652666
0.00702049
0.00554635
0.00609351
0.00457597
0.00516223
0.00351527
0.0041558
0.00303546
0.00127232
0.00254383
0.00205528
-0.000184338
0.000694521
0.00128801
0.00228223
0.00335991
0.00450146
0.0055087
0.00662594
0.00785765
0.0092025
0.0107315
0.0123141
0.0138559
0.0151703
0.0162394
0.0170208
0.0175743
0.0176728
0.0175041
0.017173
0.0166611
0.0161544
0.0157969
0.0153109
0.0146324
0.0140791
0.0134338
0.0126985
0.0119612
0.0112586
0.0105418
0.00973878
0.0091921
0.00848339
0.0075049
0.00794655
0.00662058
0.00712466
0.00572715
0.00626611
0.00476658
0.00535023
0.00371365
0.00435671
0.00326017
0.00153303
0.0028081
0.00233676
3.64346e-05
0.00094957
0.00117209
0.00215628
0.00312193
0.00420387
0.00514988
0.00622118
0.00738028
0.00868024
0.0101843
0.0117233
0.0132396
0.0146006
0.0157495
0.0166202
0.0172612
0.0175271
0.0175392
0.0172814
0.016929
0.0164377
0.0160503
0.0157085
0.0151376
0.0145997
0.014023
0.0133368
0.012617
0.0119052
0.0111906
0.0105112
0.00972421
0.00923394
0.00838256
0.00876745
0.00760217
0.00805528
0.00678539
0.00728417
0.00591171
0.00644695
0.00496746
0.00554878
0.00394314
0.00458653
0.00352548
0.00182457
0.00309951
0.00264907
0.000295477
0.00126017
0.00104158
0.00197604
0.00281992
0.00385929
0.00478606
0.00582481
0.0068996
0.00814932
0.00957521
0.0111052
0.0126161
0.0140228
0.0152134
0.0162077
0.0169039
0.0173416
0.0173998
0.0173062
0.0170397
0.0168314
0.0164179
0.0159217
0.0155802
0.0151001
0.0145887
0.0139595
0.0132741
0.0125514
0.0118032
0.0110947
0.0104757
0.00960194
0.00915228
0.00948112
0.00848408
0.00888323
0.00775734
0.00820881
0.00696267
0.00745832
0.0061069
0.00663797
0.00519351
0.00576851
0.00420908
0.00484819
0.00381991
0.00216755
0.00342468
0.00301763
0.000601082
0.00161054
0.000903139
0.00174886
0.00257757
0.00353677
0.00444881
0.00540893
0.00642644
0.00760771
0.00895635
0.0104339
0.0119609
0.0133869
0.0146382
0.0156967
0.0164766
0.0170473
0.0172968
0.0172748
0.0170863
0.0169543
0.0165664
0.0162364
0.0159351
0.0155399
0.0151138
0.0145724
0.0139256
0.0132179
0.0124336
0.0116506
0.0109577
0.0104918
0.00980974
0.0100877
0.00925794
0.00960001
0.00863688
0.00903983
0.00793037
0.00838251
0.00715053
0.00764288
0.00632005
0.00684403
0.00544698
0.00601147
0.0045014
0.00513416
0.00415217
0.00256084
0.00381073
0.0034443
0.000942024
0.00200732
0.000753603
0.00154554
0.00229968
0.00318894
0.00406013
0.00494408
0.00595272
0.00706196
0.00832779
0.00977126
0.011287
0.0127356
0.0140312
0.0151404
0.0160333
0.0166587
0.0170716
0.0171404
0.0170836
0.0169538
0.0167711
0.0165034
0.0162523
0.0159293
0.0155777
0.0151497
0.0145778
0.0138973
0.0131072
0.0122514
0.0114304
0.0108437
0.0104544
0.0105329
0.00992451
0.0102077
0.00941792
0.00976947
0.0088145
0.00922771
0.00811618
0.00857295
0.00735272
0.00784211
0.0065519
0.00706696
0.00572386
0.00627852
0.00483435
0.00546321
0.00454666
0.00300925
0.00425968
0.00393458
0.00132447
0.00245842
0.000633671
0.00135722
0.00204185
0.00288913
0.00367317
0.00452113
0.00549051
0.00650953
0.0077408
0.00908415
0.0105813
0.0120582
0.0133855
0.0145411
0.0155355
0.0162859
0.016744
0.0169454
0.0170419
0.0169619
0.0169201
0.0166789
0.0165188
0.0162793
0.0159876
0.015665
0.0152039
0.0146008
0.0138227
0.0129373
0.01202
0.0112959
0.011167
0.0105093
0.0108616
0.0101055
0.0104164
0.00962275
0.0100118
0.00902084
0.00946443
0.00832232
0.008802
0.00757352
0.00807459
0.00681003
0.00732546
0.00604493
0.00659144
0.00522733
0.0058514
0.00500663
0.00352355
0.00477922
0.00450251
0.00175092
0.00297248
0.000479288
0.00112747
0.00179418
0.00253843
0.00329423
0.00410422
0.0049988
0.00597727
0.00713679
0.00843098
0.00988016
0.01135
0.012702
0.0139286
0.0149515
0.0157648
0.016406
0.0167636
0.0169382
0.0169499
0.0168641
0.0168063
0.0167093
0.0165739
0.0163679
0.0161206
0.0157782
0.0152951
0.014616
0.0137579
0.0129488
0.0125527
0.0129569
0.0118691
0.0137419
0.0107279
0.0111373
0.0104185
0.0109063
0.00992954
0.0104833
0.00931202
0.0098994
0.00859398
0.00919945
0.00784794
0.00843825
0.00712284
0.00768337
0.00642575
0.0069807
0.0056868
0.00631031
0.00554287
0.00411705
0.00538849
0.00516701
0.00222413
0.0035593
0.000350939
0.0008971
0.00150573
0.00217435
0.00292879
0.00367645
0.00452495
0.00545125
0.00654585
0.00775649
0.00917263
0.0106082
0.0119859
0.0132586
0.0143435
0.0152694
0.0159799
0.0165051
0.0166848
0.0167752
0.0168227
0.0168716
0.0168292
0.016774
0.0166959
0.0165074
0.0162864
0.0159424
0.015453
0.0148981
0.0149332
0.0170704
0.0225401
0.0187368
0.0324457
0.0171491
0.0270296
0.0116295
0.0132092
0.011257
0.0127477
0.0107028
0.0121073
0.0100036
0.0113767
0.00917983
0.0104577
0.00833823
0.00944639
0.00757837
0.00845727
0.00690338
0.00758589
0.00623183
0.006892
0.00618276
0.00480778
0.00611563
0.00595537
0.00274633
0.00422948
0.000220805
0.000668987
0.0012201
0.00184193
0.00254509
0.00325975
0.00404753
0.00493607
0.0059501
0.00710893
0.00843492
0.00985317
0.0112551
0.0125467
0.0136893
0.0146649
0.0154699
0.0160753
0.0164326
0.0165755
0.016739
0.0168527
0.0169292
0.0169124
0.0169023
0.0168518
0.0167271
0.0165342
0.0163484
0.0166352
0.0196657
0.0298899
0.0508976
0.0558781
0.0769889
0.046873
0.0815135
0.04239
0.0735933
0.016075
0.0245098
0.0150702
0.0224722
0.0140741
0.0203681
0.0129493
0.01867
0.0115168
0.01648
0.00997844
0.0139698
0.00869455
0.011424
0.0076967
0.00926559
0.0069263
0.00786336
0.00698693
0.0056174
0.0070089
0.00690701
0.00331644
0.00499014
0.000122966
0.000465173
0.000936492
0.00149861
0.00213207
0.0028313
0.00358403
0.00442617
0.00537395
0.00647591
0.00770902
0.00909091
0.0104934
0.0118116
0.0129877
0.0140306
0.0148853
0.0155556
0.016051
0.0163618
0.0165942
0.0167956
0.0169358
0.0170363
0.0170572
0.0170521
0.0170876
0.0170735
0.017352
0.0195077
0.0293724
0.0562698
0.101028
0.163915
0.108383
0.162311
0.108545
0.1488
0.107069
0.149061
0.038103
0.0690977
0.0348722
0.0646437
0.0316954
0.0584312
0.0282131
0.0527828
0.0233003
0.0454086
0.0180192
0.0360679
0.0135393
0.0255734
0.0100625
0.0167852
0.00804341
0.0107341
0.00816187
0.00658034
0.00817247
0.00806685
0.0039243
0.00581659
3.44132e-05
0.000266243
0.000663585
0.00115904
0.00174887
0.00241741
0.00312207
0.00391789
0.00481524
0.00584481
0.00702222
0.00832796
0.00972106
0.011049
0.0122568
0.0133392
0.0142946
0.015048
0.0156407
0.0160411
0.0163665
0.0166615
0.0168969
0.0170732
0.0172022
0.0172719
0.0173178
0.0175859
0.0186708
0.0243736
0.0445174
0.0894824
0.156591
0.238123
0.262499
0.300468
0.187446
0.229435
0.191315
0.236989
0.200258
0.248948
0.106426
0.152893
0.104698
0.157758
0.10029
0.158027
0.0912532
0.154958
0.074487
0.142076
0.0552477
0.119441
0.0364286
0.0833758
0.0203912
0.0501106
0.0110534
0.0230408
0.0106123
0.00757654
0.00997926
0.00941614
0.00453499
0.00659085
8.19438e-05
0.000389791
0.000827
0.00136199
0.00198864
0.00266879
0.00341146
0.00426351
0.00521994
0.00631936
0.00756414
0.00892974
0.0102499
0.0114926
0.0126121
0.0136083
0.0144712
0.0151218
0.015645
0.0160598
0.0164447
0.0167784
0.0170558
0.0172625
0.0174331
0.0175625
0.0180755
0.0207246
0.0318237
0.0626175
0.119442
0.200558
0.283825
0.349208
0.350223
0.370297
0.279916
0.321499
0.296435
0.343693
0.320803
0.37155
0.212658
0.26725
0.223738
0.287434
0.229377
0.302564
0.226954
0.313255
0.208911
0.311605
0.176515
0.294244
0.121472
0.249582
0.0632916
0.162681
0.0231513
0.072599
0.0181672
0.00845467
0.0138389
0.0116121
0.00997361
0.00492231
0.00665415
0.00776313
0.000115387
0.000484622
0.000971711
0.00155585
0.00221429
0.00291805
0.00370966
0.0046229
0.00565461
0.00682015
0.00814868
0.00944914
0.0106964
0.0118572
0.0128973
0.0137941
0.0145566
0.0151657
0.0156705
0.0161424
0.0165757
0.0169586
0.0172702
0.0175093
0.0178173
0.0188779
0.0241486
0.0417889
0.080969
0.146948
0.230364
0.291413
0.336395
0.379253
0.36135
0.394866
0.389118
0.376828
0.392216
0.405835
0.421895
0.441838
0.456703
0.350562
0.407724
0.379075
0.44629
0.400721
0.481752
0.413292
0.511678
0.405816
0.530138
0.386273
0.520439
0.330551
0.491201
0.198737
0.410829
0.0707141
0.232822
0.132868
0.0242516
0.0490527
0.0104226
0.0089283
0.0103741
0.0161745
0.0341186
0.0392609
0.0140529
0.00446016
0.00581594
0.00652514
0.00791788
0.000137407
0.000563972
0.00111096
0.00175166
0.0024258
0.00317996
0.0040253
0.00500009
0.00608561
0.00734501
0.00863099
0.00988716
0.0110611
0.0121232
0.0130895
0.0139214
0.0146152
0.0152004
0.0157506
0.0162883
0.0167748
0.0172051
0.0175543
0.0180746
0.0201677
0.0290872
0.052638
0.0966519
0.166306
0.238193
0.279886
0.31145
0.336958
0.312645
0.359292
0.321293
0.405978
0.387843
0.423563
0.416846
0.455964
0.44794
0.493276
0.483352
0.483684
0.498858
0.527385
0.544946
0.569574
0.594685
0.608893
0.645731
0.637113
0.69327
0.634855
0.72926
0.486487
0.578305
0.644845
0.717555
0.34032
0.476684
0.604736
0.678707
0.572594
0.219728
0.112918
0.249717
0.367065
0.102099
0.0129784
0.00940383
0.0115212
0.026799
0.0696887
0.0894367
0.0215476
0.00469868
0.00611019
0.00718028
0.00863569
0.000151757
0.000640659
0.00125803
0.00192846
0.00263542
0.003452
0.00434881
0.00537467
0.00656872
0.00780971
0.00904404
0.0102341
0.0113336
0.0123359
0.0132288
0.0139916
0.0146548
0.0152759
0.0159041
0.0165068
0.0170557
0.0175557
0.0183485
0.0221055
0.0352662
0.0636018
0.11038
0.178528
0.232831
0.264624
0.27544
0.226907
0.284122
0.229106
0.294671
0.248153
0.381425
0.340491
0.4349
0.413789
0.467189
0.441103
0.504074
0.470944
0.53768
0.525163
0.587986
0.574136
0.642453
0.62885
0.700427
0.687373
0.758824
0.747988
0.760418
0.793772
0.806005
0.801597
0.693168
0.761187
0.806292
0.502337
0.619168
0.754087
0.792787
0.717105
0.397151
0.238609
0.399408
0.534874
0.220083
0.0171353
0.0104403
0.0141018
0.0525839
0.185589
0.14498
0.0377694
0.00489377
0.00760025
0.00636804
0.00927442
0.000163373
0.00072303
0.00139838
0.00209725
0.00286666
0.00371307
0.00469215
0.00577237
0.00699823
0.00820688
0.0093928
0.0105122
0.0115438
0.0124826
0.0133024
0.0140302
0.0147201
0.015424
0.016138
0.0168166
0.0174943
0.018728
0.0243599
0.0418817
0.0739532
0.121796
0.182663
0.22244
0.244644
0.236236
0.167327
0.134367
0.109847
0.204048
0.16501
0.208849
0.165075
0.308798
0.257791
0.404144
0.358793
0.426872
0.375109
0.453561
0.392036
0.548819
0.507611
0.60236
0.555269
0.661562
0.615473
0.725127
0.681274
0.794969
0.782147
0.76346
0.736353
0.825931
0.831594
0.826166
0.815694
0.810233
0.841071
0.85481
0.655601
0.754481
0.84694
0.876683
0.829222
0.550248
0.393141
0.557742
0.680074
0.370874
0.0267689
0.0118687
0.0193246
0.107116
0.332683
0.275561
0.0728402
0.00505768
0.00799032
0.00658993
0.0100609
0.000179844
0.000817467
0.00154721
0.00228206
0.00308983
0.00400995
0.00502321
0.00619667
0.00737999
0.00854346
0.00966926
0.0107198
0.0116823
0.0125484
0.0133332
0.014079
0.014849
0.0156614
0.0164668
0.017335
0.019224
0.0269616
0.0479138
0.0824143
0.130416
0.180494
0.210075
0.223641
0.197275
0.119099
0.0586552
0.0737709
0.0528096
0.127388
0.0966433
0.123762
0.0890637
0.213742
0.166016
0.320481
0.26581
0.329292
0.269419
0.341313
0.272552
0.490168
0.416153
0.542867
0.45549
0.607907
0.516343
0.707878
0.671451
0.583742
0.798375
0.773827
0.743246
0.707685
0.852561
0.844992
0.831417
0.80918
0.871291
0.878196
0.873055
0.783265
0.858405
0.898553
0.921693
0.903215
0.697733
0.550337
0.703646
0.806185
0.527369
0.0474848
0.0145636
0.0306645
0.205328
0.486748
0.426723
0.141168
0.0051748
0.00839706
0.00676356
0.0113262
0.000208035
0.000927485
0.00167922
0.00246187
0.0033405
0.00429417
0.00539473
0.00653588
0.00768707
0.0088049
0.00987044
0.0108483
0.0117451
0.012566
0.013363
0.014179
0.0150644
0.0159981
0.017043
0.0196258
0.0296635
0.0531572
0.0887395
0.135114
0.174825
0.197121
0.201495
0.163184
0.0874946
0.0437319
0.0265448
0.0239663
0.0372964
0.0292442
0.0643033
0.0477325
0.0589808
0.0429411
0.119698
0.0836993
0.215028
0.164552
0.211098
0.15772
0.210084
0.149247
0.367123
0.283135
0.414825
0.316102
0.484822
0.381602
0.668143
0.620764
0.476737
0.530589
0.78023
0.746078
0.708032
0.666701
0.862629
0.844643
0.818363
0.786312
0.899108
0.892031
0.878745
0.882332
0.926265
0.91985
0.940447
0.943214
0.821009
0.695877
0.825879
0.901042
0.673671
0.090193
0.0201313
0.0544564
0.347732
0.633347
0.572998
0.256435
0.0052472
0.00890838
0.00689871
0.0137312
0.000254601
0.0010395
0.0018185
0.00265488
0.00356993
0.00460169
0.0056999
0.00682199
0.00793007
0.00900588
0.00999693
0.0109101
0.0117492
0.0125702
0.013429
0.01437
0.0153952
0.0166339
0.0200105
0.0321392
0.0573652
0.093586
0.13693
0.166905
0.183755
0.179408
0.133881
0.0684645
0.0344131
0.0202171
0.0204809
0.0190637
0.0241734
0.0218362
0.0332537
0.027548
0.0312579
0.0265366
0.0550144
0.0399006
0.111977
0.0785513
0.104877
0.0732823
0.108975
0.073759
0.228164
0.159632
0.285314
0.205116
0.431581
0.377753
0.286849
0.335587
0.622156
0.575345
0.432785
0.481923
0.749939
0.710323
0.668267
0.623913
0.856728
0.828017
0.794514
0.757368
0.910806
0.89483
0.870152
0.946743
0.963945
0.930104
0.950586
0.961737
0.914295
0.819382
0.920154
0.964864
0.799273
0.16804
0.0321834
0.104425
0.494845
0.761806
0.705944
0.401901
0.00525889
0.0097368
0.0070037
0.0189856
0.000324329
0.00114695
0.00196035
0.00284673
0.00380196
0.00487088
0.00596155
0.00705707
0.00812661
0.00913347
0.0100574
0.0108986
0.0117207
0.0125984
0.0135784
0.014696
0.0161234
0.0203899
0.0343146
0.0604059
0.0963811
0.135023
0.158058
0.169862
0.157849
0.109317
0.05561
0.0283482
0.018666
0.0175868
0.0170515
0.0189848
0.0181822
0.0208972
0.0198576
0.0238789
0.0221643
0.0240262
0.0225326
0.0303856
0.0263283
0.0514987
0.0379796
0.0513128
0.0381916
0.0631694
0.0448254
0.141371
0.0940504
0.21245
0.150153
0.385208
0.338647
0.254716
0.29571
0.577444
0.530033
0.403091
0.449238
0.71766
0.675944
0.632664
0.587936
0.840305
0.806859
0.770982
0.73338
0.912083
0.88658
0.857833
0.984738
0.983533
0.932037
0.954825
0.972845
0.979284
0.916382
0.987946
1.00468
0.900474
0.297843
0.0588669
0.193257
0.633473
0.868652
0.821023
0.546371
0.00522499
0.0113617
0.00719496
0.0309196
0.000391689
0.00124198
0.00210691
0.00301
0.00403247
0.00510097
0.00618136
0.00723949
0.00825025
0.00918184
0.0100307
0.010839
0.0117085
0.0126829
0.0138998
0.0155862
0.0209093
0.0361076
0.0621977
0.0972713
0.130758
0.149044
0.156095
0.137357
0.0894333
0.0460378
0.0242588
0.01713
0.0160541
0.0168913
0.0163308
0.01817
0.017492
0.0196524
0.0188847
0.0214229
0.0204923
0.0219267
0.0209712
0.0245753
0.0230667
0.0308816
0.0268773
0.0347065
0.0292291
0.0491349
0.0370126
0.103616
0.070432
0.205884
0.170784
0.146465
0.120021
0.358309
0.315342
0.237878
0.275062
0.542034
0.495689
0.387339
0.431583
0.693842
0.652556
0.609943
0.566129
0.826841
0.793773
0.758739
0.721734
0.908206
0.88178
0.853072
1.00645
0.997149
0.932984
0.961654
0.980424
1.02239
0.988743
1.03512
1.02919
0.978839
0.448746
0.115719
0.337511
0.758171
0.955161
0.91752
0.682976
0.0049282
0.0151708
0.00752573
0.0587951
0.000451976
0.001315
0.00221472
0.00318999
0.00423107
0.00529718
0.00634812
0.00736955
0.00829594
0.00915178
0.00994537
0.0107824
0.0117439
0.0129831
0.0151175
0.0217073
0.037491
0.0629405
0.0964016
0.124995
0.139938
0.142159
0.11878
0.0736943
0.0385931
0.0212987
0.0159533
0.0150946
0.0151838
0.0148641
0.0160672
0.0155369
0.0172763
0.0166393
0.0186551
0.0179642
0.020123
0.0193485
0.0204818
0.0196202
0.0226439
0.0214791
0.0260476
0.0240666
0.0304621
0.0266921
0.0450998
0.0345329
0.102356
0.0834608
0.0637516
0.196806
0.166659
0.140894
0.118046
0.344492
0.303536
0.229292
0.264966
0.5214
0.476427
0.379961
0.423059
0.68259
0.641541
0.599099
0.555526
0.822537
0.789991
0.755275
0.71824
0.908939
0.88349
0.856996
1.02296
1.00983
0.941993
0.980292
0.995141
1.05112
1.04175
1.06927
1.04949
1.03898
0.597008
0.218703
0.500426
0.867306
1.02394
0.996976
0.80759
0.0039713
0.0246408
0.0082771
0.11894
0.000504953
0.0013792
0.00233709
0.00335884
0.00440538
0.00546189
0.00648212
0.00742228
0.0082649
0.00904596
0.00982353
0.0107921
0.0120435
0.0148194
0.0226943
0.0384535
0.0628115
0.0943944
0.118419
0.130628
0.128696
0.102513
0.0615851
0.0327693
0.019069
0.0150537
0.0143324
0.0140223
0.0146079
0.0143045
0.0154771
0.0150168
0.0164959
0.0159649
0.01767
0.0170717
0.0188839
0.018284
0.0193179
0.0186399
0.0211424
0.0201514
0.0241868
0.0224593
0.0287495
0.025303
0.0435413
0.0332189
0.0990721
0.0826409
0.0555813
0.0685567
0.194059
0.164926
0.139296
0.117024
0.338359
0.298631
0.226084
0.261004
0.511224
0.466961
0.377737
0.419905
0.678886
0.63751
0.594673
0.550927
0.828465
0.796787
0.761466
0.722604
0.921541
0.899358
0.874071
1.04087
1.03128
0.964993
1.01153
1.02212
1.07501
1.08157
1.0969
1.07212
1.08482
0.740821
0.375823
0.658229
0.960905
1.07776
1.06144
0.919144
0.000135525
0.0478108
0.00923356
0.226683
0.000540989
0.00145584
0.00246262
0.00351736
0.00456419
0.00559224
0.00654691
0.00739219
0.00814285
0.0088645
0.00979903
0.0112709
0.0149534
0.0236883
0.0390576
0.062124
0.0913638
0.11174
0.121384
0.115925
0.08869
0.0522039
0.0283176
0.0173092
0.0143295
0.0136954
0.0134111
0.0129565
0.0140278
0.0136378
0.0148904
0.0144394
0.0158924
0.0153891
0.016924
0.0163929
0.018046
0.0174799
0.0183289
0.017682
0.0200507
0.019151
0.0229346
0.0212289
0.0274901
0.0241689
0.0575841
0.0502367
0.0409139
0.0357598
0.0308073
0.0979336
0.0817179
0.068958
0.196236
0.167473
0.141847
0.119361
0.337119
0.298444
0.227841
0.261969
0.506753
0.463043
0.383564
0.423224
0.680875
0.637357
0.593313
0.549363
0.844196
0.809084
0.769375
0.726525
0.946861
0.923697
0.894211
1.06832
1.06524
0.996934
1.04754
1.05932
1.10101
1.11332
1.12528
1.10372
1.12131
0.871084
0.54661
0.805612
1.03914
1.12047
1.1126
1.0143
-0.00435137
0.0954799
0.0293952
0.384267
0.000553816
0.00152802
0.00258071
0.00365233
0.00469053
0.00567552
0.00653014
0.00726416
0.00794282
0.00879647
0.0107599
0.0153347
0.0244511
0.0392641
0.0608885
0.0873176
0.104425
0.112386
0.104206
0.0773059
0.0449778
0.0248269
0.01593
0.0136936
0.01316
0.0128507
0.0124573
0.012187
0.0130456
0.0119656
0.0134319
0.0141874
0.0137875
0.0150805
0.0146149
0.0160696
0.0155738
0.0171261
0.0165861
0.0172603
0.0166668
0.0189733
0.0180067
0.0219743
0.0202458
0.0268231
0.0232379
0.0601224
0.052915
0.0436666
0.0365911
0.0316493
0.0997435
0.0829699
0.072732
0.206663
0.177216
0.150621
0.126937
0.345156
0.308098
0.238656
0.272547
0.50605
0.46394
0.408197
0.444244
0.682327
0.638492
0.596261
0.555969
0.858312
0.817605
0.774635
0.731903
0.975099
0.94536
0.909274
1.10738
1.10665
1.02722
1.08007
1.09796
1.13409
1.14349
1.15745
1.14493
1.15355
0.982978
0.706914
0.93304
1.10161
1.15614
1.15506
1.09078
0.0816937
0.233279
0.295228
0.588634
0.000572678
0.00159639
0.00269548
0.0037763
0.00479461
0.00568171
0.00640567
0.00708281
0.00791566
0.0105013
0.0157656
0.0248355
0.0390204
0.0591371
0.0826786
0.097221
0.103621
0.0936322
0.0680869
0.0394679
0.0220983
0.0148142
0.0131056
0.0126922
0.0123731
0.0119847
0.0113421
0.0125102
0.0116426
0.0113465
0.0128072
0.0135331
0.0131638
0.014351
0.0139322
0.0152346
0.0147873
0.0161532
0.015681
0.0163109
0.0157214
0.0180633
0.0170166
0.0207059
0.0193029
0.028687
0.0253997
0.0226334
0.0648739
0.0581315
0.046978
0.038592
0.0326244
0.106039
0.0880025
0.0795175
0.22902
0.196696
0.167078
0.140554
0.371993
0.335594
0.263606
0.299324
0.517462
0.480428
0.464297
0.498282
0.691382
0.654159
0.620417
0.58933
0.869556
0.829563
0.792203
0.75933
0.998159
0.964248
0.929457
1.15118
1.14523
1.05445
1.11467
1.13339
1.17316
1.17481
1.19599
1.1892
1.18524
1.0704
0.864544
1.04306
1.1538
1.19142
1.1941
1.14758
0.15361
0.556324
0.573367
0.810168
0.000600853
0.00168888
0.00282245
0.00389717
0.00483673
0.00557914
0.00625479
0.00733792
0.0102196
0.0160254
0.024857
0.0382804
0.056998
0.0774888
0.0902475
0.0950728
0.0841207
0.0605576
0.0351696
0.019947
0.0138981
0.0125731
0.0122415
0.0119625
0.011582
0.0109754
0.0102731
0.0118489
0.010986
0.0108125
0.0121475
0.0127846
0.0124484
0.0135347
0.0131455
0.0143667
0.0139439
0.0152257
0.0148009
0.0153003
0.0147381
0.0170617
0.0160555
0.0198524
0.0179796
0.0292021
0.025895
0.0237493
0.0213022
0.0722154
0.064994
0.0517972
0.0416334
0.03421
0.117137
0.0968693
0.0892771
0.265025
0.226689
0.191453
0.160129
0.427524
0.388228
0.305853
0.347315
0.559544
0.529648
0.554355
0.591295
0.731642
0.708521
0.688377
0.668744
0.897277
0.870108
0.849012
0.834136
1.02635
1.00139
0.982249
1.19308
1.18685
1.09758
1.16756
1.17728
1.21903
1.21293
1.23434
1.22326
1.2217
1.14269
1.01113
1.1326
1.19343
1.22366
1.21863
1.19144
0.122062
0.775098
0.570241
0.968431
0.000658522
0.00180169
0.0029609
0.00398824
0.00478872
0.00545177
0.00686093
0.0100134
0.0159499
0.0244946
0.0370693
0.0545314
0.0721407
0.0833145
0.0867656
0.0755242
0.0542211
0.0316662
0.0182045
0.013124
0.0121018
0.0118324
0.0115735
0.0112316
0.0106839
0.00996459
0.0094186
0.010151
0.00934145
0.0112278
0.0103659
0.0114629
0.0120269
0.0117362
0.0126875
0.0123457
0.0134252
0.013049
0.0142537
0.0138126
0.0141493
0.0136054
0.0156246
0.0149585
0.0191
0.0169374
0.0304744
0.0264022
0.0238913
0.0214886
0.0814767
0.0735201
0.058065
0.0459247
0.0367631
0.132767
0.109308
0.101376
0.312239
0.265347
0.222461
0.184777
0.511567
0.464135
0.362696
0.413873
0.647284
0.622
0.6657
0.711152
0.824041
0.816381