/*--------------------------------*- C++ -*----------------------------------*\
  =========                 |
  \\      /  F ield         | OpenFOAM: The Open Source CFD Toolbox
   \\    /   O peration     | Website:  https://openfoam.org
    \\  /    A nd           | Version:  dev
     \\/     M anipulation  |
\*---------------------------------------------------------------------------*/
FoamFile
{
    version     2.0;
    format      ascii;
    class       surfaceScalarField;
    location    "2500";
    object      phi;
}
// * * * * * * * * * * * * * * * * * * * * * * * * * * * * * * * * * * * * * //

dimensions      [1 0 -1 0 0 0 0];

internalField   nonuniform List<scalar> 
18733
(
1.45125e-07
9.97882e-08
1.28853e-07
2.52298e-07
4.07135e-07
9.04335e-08
1.08084e-07
3.51213e-07
4.05165e-07
2.54238e-07
5.94158e-07
7.59974e-08
8.93871e-08
4.24661e-07
3.80267e-07
3.7609e-07
6.14337e-07
2.34065e-07
7.401e-07
6.40476e-08
7.54057e-08
4.82602e-07
3.39165e-07
4.65765e-07
6.20007e-07
3.7041e-07
7.71346e-07
2.02821e-07
8.68406e-07
5.59277e-08
6.4278e-08
5.32399e-07
2.92408e-07
5.29345e-07
6.05893e-07
4.79876e-07
8.02693e-07
3.3906e-07
8.94868e-07
1.76324e-07
9.86083e-07
4.95859e-08
5.51405e-08
5.77105e-07
2.4889e-07
5.75872e-07
5.72249e-07
5.63023e-07
8.20629e-07
4.61902e-07
9.35357e-07
2.98622e-07
1.00606e-06
1.56356e-07
1.09124e-06
4.45515e-08
4.83403e-08
6.17414e-07
2.12388e-07
6.13607e-07
5.23959e-07
6.24171e-07
8.186e-07
5.65077e-07
9.77015e-07
4.20195e-07
1.04087e-06
2.63796e-07
1.10757e-06
1.40048e-07
1.18816e-06
4.00701e-08
4.33518e-08
6.54627e-07
1.85226e-07
6.44463e-07
4.70685e-07
6.66912e-07
7.96245e-07
6.46537e-07
1.00807e-06
5.34017e-07
1.08906e-06
3.72012e-07
1.13661e-06
2.34745e-07
1.20275e-06
1.25449e-07
1.27597e-06
3.61075e-08
3.99758e-08
6.88976e-07
1.66039e-07
6.73768e-07
4.17335e-07
6.9789e-07
7.56301e-07
7.06819e-07
1.02137e-06
6.33245e-07
1.1411e-06
4.81987e-07
1.17847e-06
3.30093e-07
1.22751e-06
2.09973e-07
1.28832e-06
1.13063e-07
1.35647e-06
3.2596e-08
3.74713e-08
7.22153e-07
1.50332e-07
7.04704e-07
3.69844e-07
7.21211e-07
7.05904e-07
7.48246e-07
1.01455e-06
7.13635e-07
1.18568e-06
5.88704e-07
1.23228e-06
4.28291e-07
1.26275e-06
2.94855e-07
1.31036e-06
1.87978e-07
1.36739e-06
1.02158e-07
1.42981e-06
2.93329e-08
3.47399e-08
7.51225e-07
1.39736e-07
7.32738e-07
3.34797e-07
7.39686e-07
6.51079e-07
7.76045e-07
9.89677e-07
7.73137e-07
1.21536e-06
6.8391e-07
1.29237e-06
5.28561e-07
1.31028e-06
3.80756e-07
1.34177e-06
2.63433e-07
1.38642e-06
1.68939e-07
1.44028e-06
9.16879e-08
1.49716e-06
2.64152e-08
3.26186e-08
7.74692e-07
1.32232e-07
7.58718e-07
3.0849e-07
7.59048e-07
5.95311e-07
7.95442e-07
9.50603e-07
8.15123e-07
1.22702e-06
7.61481e-07
1.35028e-06
6.26008e-07
1.36893e-06
4.69871e-07
1.38229e-06
3.40228e-07
1.41353e-06
2.36328e-07
1.45739e-06
1.51833e-07
1.50589e-06
8.29537e-08
1.55869e-06
2.38495e-08
3.06613e-08
7.95786e-07
1.23983e-07
7.82917e-07
2.88408e-07
7.78782e-07
5.44991e-07
8.09364e-07
9.02661e-07
8.43407e-07
1.22069e-06
8.21435e-07
1.39724e-06
7.14519e-07
1.43466e-06
5.60337e-07
1.43374e-06
4.18424e-07
1.44973e-06
3.04024e-07
1.48162e-06
2.12095e-07
1.52128e-06
1.36464e-07
1.56703e-06
7.46102e-08
1.61567e-06
2.13703e-08
2.87383e-08
8.1379e-07
1.1638e-07
8.0342e-07
2.7214e-07
7.99164e-07
5.02121e-07
8.21664e-07
8.50704e-07
8.6133e-07
1.19813e-06
8.65925e-07
1.42843e-06
7.90244e-07
1.50211e-06
6.47049e-07
1.49635e-06
4.97699e-07
1.49515e-06
3.73017e-07
1.51273e-06
2.72924e-07
1.54336e-06
1.9003e-07
1.5814e-06
1.221e-07
1.6234e-06
6.68854e-08
1.66713e-06
1.91509e-08
2.69331e-08
8.28125e-07
1.09791e-07
8.20341e-07
2.57935e-07
8.17575e-07
4.69961e-07
8.313e-07
7.99878e-07
8.72436e-07
1.16339e-06
8.95977e-07
1.44315e-06
8.51191e-07
1.56421e-06
7.28151e-07
1.56711e-06
5.76353e-07
1.55025e-06
4.42621e-07
1.55126e-06
3.34454e-07
1.57229e-06
2.43959e-07
1.60147e-06
1.699e-07
1.6365e-06
1.08993e-07
1.67443e-06
5.95832e-08
1.71478e-06
1.7105e-08
2.51891e-08
8.39209e-07
1.03988e-07
8.33904e-07
2.45856e-07
8.32295e-07
4.46529e-07
8.40951e-07
7.52481e-07
8.78678e-07
1.12155e-06
9.14212e-07
1.44146e-06
8.97691e-07
1.61492e-06
8.00488e-07
1.64201e-06
6.53149e-07
1.61523e-06
5.11267e-07
1.59936e-06
3.94483e-07
1.60814e-06
2.98584e-07
1.62771e-06
2.17734e-07
1.65527e-06
1.51125e-07
1.68707e-06
9.63062e-08
1.72131e-06
5.30772e-08
1.75832e-06
1.50979e-08
2.36667e-08
8.46117e-07
9.78497e-08
8.45329e-07
2.34838e-07
8.44853e-07
4.27854e-07
8.51101e-07
7.10533e-07
8.82875e-07
1.07684e-06
9.23349e-07
1.42516e-06
9.30517e-07
1.65089e-06
8.6172e-07
1.71622e-06
7.26227e-07
1.68943e-06
5.7891e-07
1.65737e-06
4.53376e-07
1.65046e-06
3.5218e-07
1.65979e-06
2.66527e-07
1.67958e-06
1.93411e-07
1.70451e-06
1.33708e-07
1.73268e-06
8.48981e-08
1.76443e-06
4.69607e-08
1.79804e-06
1.33462e-08
2.19178e-08
8.49069e-07
9.13835e-08
8.52585e-07
2.27541e-07
8.52567e-07
4.13707e-07
8.59093e-07
6.76421e-07
8.85173e-07
1.03319e-06
9.26515e-07
1.39886e-06
9.49622e-07
1.67147e-06
9.0993e-07
1.78279e-06
7.95203e-07
1.76941e-06
6.46315e-07
1.72409e-06
5.12128e-07
1.70073e-06
4.0307e-07
1.69824e-06
3.13732e-07
1.70929e-06
2.36821e-07
1.72657e-06
1.71349e-07
1.74918e-06
1.17226e-07
1.77523e-06
7.41215e-08
1.80378e-06
4.12108e-08
1.8345e-06
1.18047e-08
2.08258e-08
8.46132e-07
8.78493e-08
8.52577e-07
2.23295e-07
8.56775e-07
4.0196e-07
8.64349e-07
6.50528e-07
8.84887e-07
9.92825e-07
9.2549e-07
1.36717e-06
9.58182e-07
1.67685e-06
9.44221e-07
1.8382e-06
8.54531e-07
1.85149e-06
7.13089e-07
1.79952e-06
5.7091e-07
1.75914e-06
4.53718e-07
1.74321e-06
3.57998e-07
1.74421e-06
2.78799e-07
1.75381e-06
2.09581e-07
1.77006e-06
1.50451e-07
1.7898e-06
1.02646e-07
1.81342e-06
6.44735e-08
1.83973e-06
3.59906e-08
1.86793e-06
1.02112e-08
2.01329e-08
8.38946e-07
8.4881e-08
8.49067e-07
2.19179e-07
8.5665e-07
3.94397e-07
8.64285e-07
6.32531e-07
8.82255e-07
9.57146e-07
9.20531e-07
1.33356e-06
9.5906e-07
1.67022e-06
9.64766e-07
1.88065e-06
9.01768e-07
1.93067e-06
7.75387e-07
1.88248e-06
6.30118e-07
1.82548e-06
5.04601e-07
1.79483e-06
4.02118e-07
1.78497e-06
3.17255e-07
1.78647e-06
2.46147e-07
1.79513e-06
1.845e-07
1.8091e-06
1.31152e-07
1.82781e-06
8.82574e-08
1.84932e-06
5.48514e-08
1.87341e-06
3.05015e-08
1.89856e-06
8.61912e-09
1.97886e-08
8.28541e-07
8.20117e-08
8.41766e-07
2.16483e-07
8.51719e-07
3.90972e-07
8.60035e-07
6.19297e-07
8.77471e-07
9.27683e-07
9.11759e-07
1.30071e-06
9.5323e-07
1.65476e-06
9.74488e-07
1.90869e-06
9.36666e-07
2.00291e-06
8.2955e-07
1.97013e-06
6.87688e-07
1.90042e-06
5.55068e-07
1.85349e-06
4.46016e-07
1.8311e-06
3.5599e-07
1.8238e-06
2.79914e-07
1.82537e-06
2.1591e-07
1.83323e-06
1.60379e-07
1.84596e-06
1.13017e-07
1.86287e-06
7.47346e-08
1.88254e-06
4.57233e-08
1.90352e-06
2.55489e-08
1.92606e-06
7.16267e-09
1.97213e-08
8.1405e-07
8.18268e-08
8.2869e-07
2.15517e-07
8.42695e-07
3.90698e-07
8.51941e-07
6.10078e-07
8.69266e-07
9.05532e-07
8.9956e-07
1.26957e-06
9.42755e-07
1.63532e-06
9.7271e-07
1.92338e-06
9.59812e-07
2.06482e-06
8.74731e-07
2.05773e-06
7.41955e-07
1.9838e-06
6.04375e-07
1.91948e-06
4.89089e-07
1.88316e-06
3.93968e-07
1.86648e-06
3.13316e-07
1.86056e-06
2.44725e-07
1.86144e-06
1.87702e-07
1.8682e-06
1.38133e-07
1.88027e-06
9.56165e-08
1.89515e-06
6.2127e-08
1.91243e-06
3.68126e-08
1.93105e-06
2.05615e-08
1.95122e-06
5.66275e-09
2.02313e-08
7.94265e-07
8.37017e-08
8.12115e-07
2.15043e-07
8.29116e-07
3.94004e-07
8.39275e-07
6.05578e-07
8.56395e-07
8.9042e-07
8.84286e-07
1.24126e-06
9.27821e-07
1.61229e-06
9.65755e-07
1.92773e-06
9.6833e-07
2.11491e-06
9.09704e-07
2.14185e-06
7.90577e-07
2.07296e-06
6.52761e-07
1.99366e-06
5.30218e-07
1.94187e-06
4.30384e-07
1.91434e-06
3.46121e-07
1.89985e-06
2.74042e-07
1.8943e-06
2.11841e-07
1.89487e-06
1.60973e-07
1.90092e-06
1.17451e-07
1.91135e-06
7.93926e-08
1.92484e-06
4.97225e-08
1.93941e-06
2.84606e-08
1.9561e-06
1.56841e-08
1.97368e-06
4.18276e-09
2.13079e-08
7.70927e-07
8.66025e-08
7.91345e-07
2.17302e-07
8.09743e-07
3.99516e-07
8.23559e-07
6.05686e-07
8.39147e-07
8.80925e-07
8.65822e-07
1.21723e-06
9.08223e-07
1.58772e-06
9.52352e-07
1.92429e-06
9.6915e-07
2.15065e-06
9.32561e-07
2.21932e-06
8.32243e-07
2.16436e-06
6.99163e-07
2.07499e-06
5.71403e-07
2.00639e-06
4.65693e-07
1.96706e-06
3.77641e-07
1.94375e-06
3.02197e-07
1.93111e-06
2.37235e-07
1.9254e-06
1.81337e-07
1.92559e-06
1.36344e-07
1.93124e-06
9.75809e-08
1.94047e-06
6.37499e-08
1.95137e-06
3.77631e-08
1.96452e-06
2.00155e-08
1.97896e-06
1.03934e-08
2.00117e-06
3.03284e-09
2.23995e-08
7.44564e-07
9.09722e-08
7.66487e-07
2.21792e-07
7.868e-07
4.06634e-07
8.02597e-07
6.11331e-07
8.17855e-07
8.74936e-07
8.45105e-07
1.19776e-06
8.85251e-07
1.56391e-06
9.31987e-07
1.91423e-06
9.62397e-07
2.175e-06
9.44789e-07
2.28639e-06
8.65457e-07
2.25547e-06
7.41126e-07
2.16252e-06
6.11621e-07
2.07855e-06
4.99286e-07
2.02527e-06
4.07491e-07
1.99218e-06
3.29227e-07
1.97158e-06
2.61717e-07
1.95964e-06
2.03022e-07
1.95435e-06
1.52582e-07
1.95445e-06
1.13137e-07
1.9596e-06
7.84447e-08
1.96687e-06
4.82493e-08
1.97615e-06
2.61439e-08
1.98724e-06
1.17283e-08
2.00517e-06
6.38112e-09
2.01888e-06
1.44733e-09
2.37226e-08
7.13556e-07
9.73011e-08
7.38194e-07
2.30148e-07
7.58107e-07
4.17166e-07
7.7622e-07
6.20632e-07
7.93332e-07
8.72758e-07
8.19968e-07
1.18308e-06
8.59743e-07
1.54141e-06
9.07716e-07
1.89942e-06
9.46774e-07
2.18997e-06
9.47363e-07
2.34228e-06
8.88898e-07
2.34304e-06
7.77911e-07
2.25429e-06
6.49329e-07
2.15713e-06
5.32916e-07
2.08902e-06
4.35481e-07
2.0451e-06
3.54544e-07
2.01612e-06
2.84703e-07
1.99759e-06
2.23764e-07
1.98624e-06
1.71116e-07
1.98134e-06
1.25678e-07
1.98199e-06
9.07508e-08
1.9851e-06
6.02095e-08
1.99092e-06
3.34807e-08
1.99901e-06
1.43745e-08
2.01297e-06
3.9232e-09
2.0241e-06
1.14761e-09
2.03438e-06
-6.90949e-10
2.5617e-08
6.78735e-07
1.05682e-07
7.05135e-07
2.45868e-07
7.22453e-07
4.29306e-07
7.45921e-07
6.32456e-07
7.64406e-07
8.75777e-07
7.9023e-07
1.1718e-06
8.31223e-07
1.52093e-06
8.80187e-07
1.88203e-06
9.25045e-07
2.19553e-06
9.41191e-07
2.38667e-06
9.02954e-07
2.42423e-06
8.07657e-07
2.34805e-06
6.84154e-07
2.24158e-06
5.6491e-07
2.15821e-06
4.63704e-07
2.10265e-06
3.77895e-07
2.06457e-06
3.06121e-07
2.03898e-06
2.4331e-07
2.0217e-06
1.88312e-07
2.0119e-06
1.40545e-07
2.0074e-06
1.00263e-07
2.00693e-06
6.89147e-08
2.00955e-06
4.15753e-08
2.01387e-06
1.85999e-08
2.02428e-06
3.06418e-09
2.03315e-06
-5.13336e-09
2.04082e-06
-5.30218e-09
2.04769e-06
-3.48219e-09
2.87209e-08
6.40649e-07
1.15723e-07
6.68655e-07
2.64564e-07
6.86402e-07
4.40225e-07
7.11468e-07
6.47231e-07
7.3112e-07
8.81601e-07
7.58507e-07
1.16278e-06
7.99215e-07
1.5022e-06
8.4993e-07
1.86303e-06
8.9915e-07
2.19324e-06
9.27331e-07
2.42022e-06
9.07612e-07
2.49668e-06
8.30485e-07
2.44115e-06
7.14538e-07
2.33116e-06
5.94531e-07
2.23314e-06
4.90017e-07
2.16492e-06
4.01435e-07
2.11774e-06
3.24636e-07
2.08431e-06
2.60802e-07
2.06097e-06
2.04003e-07
2.04572e-06
1.5453e-07
2.03631e-06
1.11623e-07
2.03226e-06
7.49201e-08
2.03099e-06
4.74789e-08
2.0317e-06
2.37604e-08
2.03871e-06
4.16839e-09
2.04576e-06
-9.54809e-09
2.04995e-06
-1.42602e-08
2.05549e-06
-1.3118e-08
2.05686e-06
-6.02976e-09
3.18005e-08
6.02302e-07
1.25626e-07
6.30679e-07
2.83011e-07
6.50177e-07
4.52759e-07
6.73802e-07
6.62641e-07
6.96022e-07
8.87939e-07
7.24748e-07
1.15651e-06
7.64738e-07
1.48424e-06
8.17182e-07
1.8437e-06
8.69258e-07
2.1855e-06
9.06865e-07
2.44338e-06
9.04147e-07
2.55872e-06
8.45543e-07
2.53078e-06
7.40845e-07
2.42358e-06
6.22138e-07
2.31318e-06
5.14452e-07
2.2319e-06
4.23083e-07
2.17498e-06
3.4424e-07
2.13359e-06
2.75357e-07
2.10402e-06
2.1777e-07
2.08296e-06
1.66758e-07
2.06847e-06
1.22377e-07
2.05959e-06
8.43057e-08
2.05512e-06
5.07862e-08
2.05262e-06
2.65647e-08
2.05606e-06
6.40851e-09
2.06177e-06
-1.18356e-08
2.06322e-06
-2.28209e-08
2.06464e-06
-2.33985e-08
2.06472e-06
-2.09828e-08
2.06309e-06
-8.57922e-09
3.49659e-08
5.63225e-07
1.38234e-07
5.89636e-07
3.01411e-07
6.12258e-07
4.69209e-07
6.3377e-07
6.77332e-07
6.5911e-07
8.94983e-07
6.88953e-07
1.1527e-06
7.28587e-07
1.46787e-06
7.81081e-07
1.82445e-06
8.3641e-07
2.17315e-06
8.81557e-07
2.45669e-06
8.93523e-07
2.61026e-06
8.52586e-07
2.61444e-06
7.61821e-07
2.51744e-06
6.47006e-07
2.39817e-06
5.37164e-07
2.30329e-06
4.42998e-07
2.23558e-06
3.62501e-07
2.18626e-06
2.91549e-07
2.14984e-06
2.29541e-07
2.1229e-06
1.77805e-07
2.10321e-06
1.32015e-07
2.08917e-06
9.27979e-08
2.08144e-06
5.79852e-08
2.07625e-06
2.71567e-08
2.07606e-06
6.56806e-09
2.08027e-06
-1.20934e-08
2.07995e-06
-2.85716e-08
2.0789e-06
-3.70896e-08
2.07637e-06
-3.50603e-08
2.07186e-06
-2.97592e-08
2.06596e-06
-1.17736e-08
3.9318e-08
5.22199e-07
1.54772e-07
5.4669e-07
3.18945e-07
5.72127e-07
4.888e-07
5.9263e-07
6.90547e-07
6.20494e-07
9.02976e-07
6.51141e-07
1.15098e-06
6.90697e-07
1.45358e-06
7.42851e-07
1.80434e-06
8.01209e-07
2.15761e-06
8.51914e-07
2.4617e-06
8.76522e-07
2.65087e-06
8.52842e-07
2.69037e-06
7.7661e-07
2.6108e-06
6.68413e-07
2.48686e-06
5.58319e-07
2.37958e-06
4.60903e-07
2.30051e-06
3.78017e-07
2.24288e-06
3.05915e-07
2.19874e-06
2.42646e-07
2.16611e-06
1.86329e-07
2.1424e-06
1.38649e-07
2.12228e-06
9.89488e-08
2.1102e-06
6.40338e-08
2.10215e-06
3.20427e-08
2.09826e-06
4.95543e-09
2.10138e-06
-1.45585e-08
2.09998e-06
-3.21541e-08
2.09713e-06
-4.68404e-08
2.0929e-06
-5.36057e-08
2.08606e-06
-4.92684e-08
2.0764e-06
-4.02103e-08
2.06391e-06
-1.55693e-08
4.42408e-08
4.81119e-07
1.71604e-07
5.05379e-07
3.35476e-07
5.30165e-07
5.09466e-07
5.51459e-07
7.02748e-07
5.80476e-07
9.11416e-07
6.12086e-07
1.15056e-06
6.5162e-07
1.44095e-06
7.03338e-07
1.78348e-06
7.63707e-07
2.13964e-06
8.19169e-07
2.45934e-06
8.54246e-07
2.68084e-06
8.46563e-07
2.75722e-06
7.86009e-07
2.70055e-06
6.86825e-07
2.57803e-06
5.7727e-07
2.46021e-06
4.77687e-07
2.36918e-06
3.92247e-07
2.3025e-06
3.1836e-07
2.25104e-06
2.53642e-07
2.21221e-06
1.96556e-07
2.18204e-06
1.46661e-07
2.15855e-06
1.02347e-07
2.14139e-06
6.77921e-08
2.13003e-06
3.61766e-08
2.12176e-06
8.55312e-09
2.12496e-06
-1.86128e-08
2.12257e-06
-3.71416e-08
2.11853e-06
-5.35883e-08
2.11324e-06
-6.72026e-08
2.10523e-06
-7.27798e-08
2.09328e-06
-6.61583e-08
2.07911e-06
-5.54235e-08
2.05599e-06
-5.35006e-09
-1.45754e-08
4.8278e-08
4.42569e-07
1.86795e-07
4.65925e-07
3.532e-07
4.87652e-07
5.28041e-07
5.11609e-07
7.14417e-07
5.39797e-07
9.19801e-07
5.72137e-07
1.15094e-06
6.11726e-07
1.42957e-06
6.62978e-07
1.76213e-06
7.24697e-07
2.11913e-06
7.84216e-07
2.45075e-06
8.27738e-07
2.7009e-06
8.34188e-07
2.81422e-06
7.89547e-07
2.78551e-06
7.01026e-07
2.67094e-06
5.93882e-07
2.54451e-06
4.92952e-07
2.44184e-06
4.05037e-07
2.36569e-06
3.29066e-07
2.30678e-06
2.62599e-07
2.26094e-06
2.04916e-07
2.22447e-06
1.5416e-07
2.19613e-06
1.09097e-07
2.17512e-06
6.85796e-08
2.1597e-06
3.81341e-08
2.14846e-06
9.46164e-09
2.1505e-06
-1.6987e-08
2.1466e-06
-4.26328e-08
2.14226e-06
-6.08023e-08
2.13705e-06
-7.74038e-08
2.12858e-06
-9.05566e-08
2.11561e-06
-9.5113e-08
2.09659e-06
-3.87604e-08
-4.48831e-08
1.03447e-06
-2.96576e-08
1.03414e-06
-3.83639e-08
1.01938e-06
-4.45131e-09
1.02276e-06
-1.7951e-08
5.23987e-08
4.05448e-07
2.02888e-07
4.26461e-07
3.71488e-07
4.47668e-07
5.4313e-07
4.72623e-07
7.26727e-07
4.99325e-07
9.27447e-07
5.3224e-07
1.15211e-06
5.71021e-07
1.41981e-06
6.21528e-07
1.74102e-06
6.84088e-07
2.0967e-06
7.47133e-07
2.43718e-06
7.97758e-07
2.71151e-06
8.17103e-07
2.86085e-06
7.87541e-07
2.86439e-06
7.10642e-07
2.76343e-06
6.08464e-07
2.63193e-06
5.06431e-07
2.51873e-06
4.16014e-07
2.43256e-06
3.38123e-07
2.36576e-06
2.70089e-07
2.31258e-06
2.1096e-07
2.27024e-06
1.59124e-07
2.2365e-06
1.13793e-07
2.21099e-06
7.32575e-08
2.19175e-06
3.65486e-08
2.17735e-06
9.27423e-09
2.17538e-06
-1.54139e-08
2.17162e-06
-4.19971e-08
2.16757e-06
-6.79593e-08
2.16303e-06
-8.67876e-08
2.15568e-06
-1.04519e-07
2.14296e-06
-1.17906e-07
2.12284e-06
-5.69979e-08
-6.43699e-08
1.04013e-06
-4.44546e-08
1.04656e-06
-5.13358e-08
1.02483e-06
-3.17288e-08
1.03933e-06
-4.96591e-08
1.0308e-06
-4.43327e-08
1.01555e-06
-3.54069e-09
1.01734e-06
-1.97484e-08
5.72778e-08
3.70314e-07
2.1798e-07
3.9038e-07
3.8601e-07
4.12003e-07
5.56688e-07
4.34152e-07
7.39008e-07
4.60392e-07
9.34717e-07
4.9216e-07
1.15408e-06
5.30333e-07
1.41099e-06
5.79882e-07
1.71979e-06
6.42796e-07
2.07196e-06
7.08877e-07
2.41914e-06
7.65176e-07
2.7137e-06
7.95557e-07
2.89708e-06
7.8084e-07
2.93534e-06
7.1658e-07
2.85353e-06
6.20523e-07
2.72162e-06
5.18749e-07
2.59914e-06
4.26001e-07
2.50227e-06
3.46307e-07
2.42767e-06
2.7618e-07
2.36768e-06
2.14985e-07
2.3195e-06
1.61709e-07
2.28037e-06
1.15263e-07
2.24944e-06
7.5348e-08
2.22588e-06
3.91047e-08
2.2083e-06
5.60093e-09
2.201e-06
-1.63457e-08
2.19728e-06
-4.10736e-08
2.19392e-06
-6.83489e-08
2.18973e-06
-9.46489e-08
2.18479e-06
-1.15899e-07
2.17377e-06
-1.3534e-07
2.15485e-06
-7.23811e-08
-7.75419e-08
1.05316e-06
-6.35918e-08
1.06155e-06
-7.27517e-08
1.046e-06
-5.79935e-08
1.02118e-06
-3.55668e-08
1.0369e-06
-5.57649e-08
1.02695e-06
-5.00953e-08
1.0106e-06
-1.41254e-09
1.01208e-06
-2.12373e-08
6.2788e-08
3.39239e-07
2.29706e-07
3.58568e-07
3.98787e-07
3.77655e-07
5.71013e-07
3.97758e-07
7.49775e-07
4.23436e-07
9.42051e-07
4.53144e-07
1.15543e-06
4.90876e-07
1.40243e-06
5.38963e-07
1.69891e-06
6.00817e-07
2.04538e-06
6.69414e-07
2.39734e-06
7.30683e-07
2.70835e-06
7.70514e-07
2.92304e-06
7.69584e-07
2.99742e-06
7.1872e-07
2.9396e-06
6.30478e-07
2.81254e-06
5.29574e-07
2.68245e-06
4.3542e-07
2.57534e-06
3.52926e-07
2.49283e-06
2.81146e-07
2.42588e-06
2.17954e-07
2.37172e-06
1.62764e-07
2.32711e-06
1.14959e-07
2.29058e-06
7.41264e-08
2.26206e-06
3.91955e-08
2.2402e-06
7.1998e-09
2.22762e-06
-2.10069e-08
2.22328e-06
-4.23415e-08
2.22017e-06
-6.73221e-08
2.21819e-06
-9.68188e-08
2.21504e-06
-1.24906e-07
2.20758e-06
-1.49714e-07
2.19051e-06
-8.3633e-08
-8.73798e-08
1.06977e-06
-8.06018e-08
1.07949e-06
-8.72671e-08
1.05353e-06
-7.11353e-08
1.06221e-06
-8.1429e-08
1.04455e-06
-6.56496e-08
1.01628e-06
-3.97802e-08
1.03403e-06
-6.28447e-08
1.02259e-06
-5.63942e-08
1.00306e-06
-8.09488e-10
1.00507e-06
-2.32576e-08
6.86659e-08
3.12997e-07
2.39981e-07
3.29037e-07
4.11136e-07
3.4632e-07
5.83582e-07
3.65184e-07
7.59404e-07
3.88233e-07
9.49108e-07
4.16532e-07
1.15574e-06
4.52939e-07
1.39416e-06
4.99233e-07
1.67865e-06
5.59299e-07
2.017e-06
6.29249e-07
2.372e-06
6.94778e-07
2.69641e-06
7.42629e-07
2.93904e-06
7.54501e-07
3.04959e-06
7.17414e-07
3.02032e-06
6.37952e-07
2.90332e-06
5.39676e-07
2.76794e-06
4.44063e-07
2.65164e-06
3.59085e-07
2.56074e-06
2.85007e-07
2.48732e-06
2.19725e-07
2.4268e-06
1.62846e-07
2.37683e-06
1.13045e-07
2.33453e-06
7.10183e-08
2.30044e-06
3.57386e-08
2.27344e-06
5.95753e-09
2.2553e-06
-2.04662e-08
2.24983e-06
-4.75489e-08
2.24551e-06
-6.76773e-08
2.24609e-06
-9.52221e-08
2.24661e-06
-1.28388e-07
2.24286e-06
-1.6019e-07
2.23047e-06
-9.25403e-08
-9.71384e-08
1.08867e-06
-9.28113e-08
1.10006e-06
-9.87782e-08
1.07167e-06
-9.00681e-08
1.08207e-06
-9.76651e-08
1.05318e-06
-7.97671e-08
1.06286e-06
-9.11113e-08
1.04267e-06
-7.42951e-08
1.01008e-06
-4.47791e-08
1.03085e-06
-7.11037e-08
1.0173e-06
-6.36169e-08
9.95127e-07
-2.01424e-09
9.9739e-07
-2.55216e-08
7.298e-08
2.94117e-07
2.47221e-07
3.05801e-07
4.19803e-07
3.2047e-07
5.93702e-07
3.36309e-07
7.68509e-07
3.5619e-07
9.54894e-07
3.82552e-07
1.15543e-06
4.16932e-07
1.38578e-06
4.61417e-07
1.65875e-06
5.1922e-07
1.98714e-06
5.89208e-07
2.34333e-06
6.57959e-07
2.67835e-06
7.12844e-07
2.94564e-06
7.36019e-07
3.0915e-06
7.1255e-07
3.09452e-06
6.43192e-07
2.99267e-06
5.48589e-07
2.85553e-06
4.52012e-07
2.73101e-06
3.64669e-07
2.63152e-06
2.88265e-07
2.55125e-06
2.21062e-07
2.48469e-06
1.61845e-07
2.42949e-06
1.10197e-07
2.38123e-06
6.63643e-08
2.34161e-06
2.98497e-08
2.30913e-06
5.84393e-11
2.28443e-06
-2.31613e-08
2.27635e-06
-4.69704e-08
2.27055e-06
-7.25713e-08
2.27164e-06
-9.32128e-08
2.27702e-06
-1.2563e-07
2.27831e-06
-1.6384e-07
2.27275e-06
-1.00662e-07
-1.01823e-07
1.11119e-06
-1.03668e-07
1.12282e-06
-1.0877e-07
1.093e-06
-1.03741e-07
1.10467e-06
-1.10455e-07
1.07356e-06
-1.00776e-07
1.08497e-06
-1.09079e-07
1.05242e-06
-8.9524e-08
1.06331e-06
-1.02007e-07
1.04096e-06
-8.44101e-08
1.0026e-06
-4.99932e-08
1.0272e-06
-8.10042e-08
1.01082e-06
-7.18366e-08
9.86988e-07
-4.37094e-09
9.88495e-07
-2.70264e-08
7.55685e-08
2.81618e-07
2.53253e-07
2.88144e-07
4.26709e-07
2.98982e-07
6.02345e-07
3.11929e-07
7.76552e-07
3.28391e-07
9.59538e-07
3.51674e-07
1.15455e-06
3.83567e-07
1.37712e-06
4.25707e-07
1.6396e-06
4.80704e-07
1.95664e-06
5.49811e-07
2.3118e-06
6.20798e-07
2.65528e-06
6.81045e-07
2.94373e-06
7.14763e-07
3.12315e-06
7.04311e-07
3.16097e-06
6.46081e-07
3.07931e-06
5.56499e-07
2.94455e-06
4.596e-07
2.81291e-06
3.70095e-07
2.70488e-06
2.91344e-07
2.61792e-06
2.21581e-07
2.54559e-06
1.60175e-07
2.48489e-06
1.06439e-07
2.43107e-06
6.0345e-08
2.38584e-06
2.21592e-08
2.34765e-06
-8.65639e-09
2.31714e-06
-3.26357e-08
2.30356e-06
-5.03613e-08
2.29432e-06
-7.07294e-08
2.295e-06
-9.59224e-08
2.30338e-06
-1.19557e-07
2.31312e-06
-1.60443e-07
2.31401e-06
-1.0279e-07
-1.02307e-07
1.13476e-06
-1.12605e-07
1.14637e-06
-1.13432e-07
1.1168e-06
-1.15799e-07
1.12946e-06
-1.21432e-07
1.09715e-06
-1.15915e-07
1.10979e-06
-1.23103e-07
1.07506e-06
-1.12532e-07
1.08777e-06
-1.21783e-07
1.05152e-06
-1.00086e-07
1.06359e-06
-1.14086e-07
1.03914e-06
-9.63616e-08
9.94188e-07
-5.56879e-08
1.02157e-06
-9.17556e-08
1.00341e-06
-8.10609e-08
9.72788e-07
-6.34089e-09
9.76667e-07
-3.09068e-08
7.69239e-08
2.74011e-07
2.58973e-07
2.75968e-07
4.32102e-07
2.82853e-07
6.09004e-07
2.92464e-07
7.83697e-07
3.04928e-07
9.63476e-07
3.24593e-07
1.15327e-06
3.53099e-07
1.36867e-06
3.92163e-07
1.62121e-06
4.44243e-07
1.92587e-06
5.11569e-07
2.27743e-06
5.84251e-07
2.62753e-06
6.48588e-07
2.93392e-06
6.90869e-07
3.14483e-06
6.93158e-07
3.21835e-06
6.4692e-07
3.16168e-06
5.63626e-07
3.03368e-06
4.67309e-07
2.89695e-06
3.75534e-07
2.7806e-06
2.94326e-07
2.68741e-06
2.21816e-07
2.6092e-06
1.57931e-07
2.54289e-06
1.02175e-07
2.48409e-06
5.34195e-08
2.43333e-06
1.28689e-08
2.38949e-06
-1.96662e-08
2.35273e-06
-4.42356e-08
2.33165e-06
-6.07123e-08
2.31782e-06
-7.3848e-08
2.31475e-06
-9.04663e-08
2.32586e-06
-1.18395e-07
2.34407e-06
-1.50498e-07
2.35187e-06
-9.9288e-08
-9.90165e-08
1.15908e-06
-1.15502e-07
1.17054e-06
-1.13772e-07
1.14227e-06
-1.25421e-07
1.15538e-06
-1.2654e-07
1.12304e-06
-1.29053e-07
1.13684e-06
-1.35237e-07
1.10125e-06
-1.29403e-07
1.11537e-06
-1.37221e-07
1.07693e-06
-1.25869e-07
1.09111e-06
-1.35972e-07
1.05028e-06
-1.11227e-07
1.06381e-06
-1.27621e-07
1.03454e-06
-1.09333e-07
9.83863e-07
-6.28859e-08
1.01541e-06
-1.03754e-07
9.94753e-07
-9.19531e-08
9.57625e-07
-8.68597e-09
9.63686e-07
-3.69686e-08
7.71817e-08
2.72429e-07
2.62679e-07
2.70381e-07
4.36382e-07
2.71794e-07
6.14873e-07
2.77149e-07
7.90177e-07
2.86134e-07
9.66554e-07
3.01992e-07
1.15174e-06
3.26291e-07
1.36034e-06
3.61584e-07
1.60348e-06
4.10055e-07
1.89579e-06
4.74431e-07
2.24088e-06
5.48218e-07
2.59615e-06
6.15707e-07
2.91773e-06
6.64792e-07
3.15707e-06
6.7859e-07
3.26672e-06
6.44774e-07
3.23925e-06
5.69371e-07
3.12281e-06
4.74483e-07
2.98334e-06
3.80784e-07
2.85926e-06
2.96872e-07
2.75952e-06
2.22201e-07
2.6753e-06
1.55734e-07
2.6035e-06
9.73084e-08
2.54036e-06
4.59059e-08
2.48427e-06
2.4916e-09
2.43516e-06
-3.27903e-08
2.39255e-06
-5.94724e-08
2.36261e-06
-7.51735e-08
2.34294e-06
-8.58205e-08
2.33275e-06
-9.18313e-08
2.33985e-06
-1.04447e-07
2.36649e-06
-1.40801e-07
2.39488e-06
-9.57909e-08
-9.77109e-08
1.18275e-06
-1.11496e-07
1.19372e-06
-1.09987e-07
1.16877e-06
-1.289e-07
1.1821e-06
-1.27105e-07
1.15105e-06
-1.39631e-07
1.1654e-06
-1.40892e-07
1.13005e-06
-1.4374e-07
1.14495e-06
-1.50143e-07
1.10611e-06
-1.44407e-07
1.12156e-06
-1.52667e-07
1.07882e-06
-1.4088e-07
1.0946e-06
-1.51751e-07
1.04849e-06
-1.25181e-07
1.06415e-06
-1.43282e-07
1.03003e-06
-1.23958e-07
9.71787e-07
-7.09884e-08
1.00856e-06
-1.1756e-07
9.83988e-07
-1.04157e-07
9.40779e-07
-1.17083e-08
9.48673e-07
-4.48632e-08
7.69616e-08
2.76317e-07
2.6538e-07
2.698e-07
4.41309e-07
2.65577e-07
6.20675e-07
2.66138e-07
7.95663e-07
2.71797e-07
9.68979e-07
2.83866e-07
1.15065e-06
3.03256e-07
1.35249e-06
3.3432e-07
1.58693e-06
3.78295e-07
1.8671e-06
4.38893e-07
2.20344e-06
5.12006e-07
2.56227e-06
5.82176e-07
2.89614e-06
6.37341e-07
3.16065e-06
6.61236e-07
3.30592e-06
6.3937e-07
3.31093e-06
5.73072e-07
3.21124e-06
4.80903e-07
3.07263e-06
3.85282e-07
2.94147e-06
2.9856e-07
2.83389e-06
2.2249e-07
2.74462e-06
1.52832e-07
2.66767e-06
9.15498e-08
2.60035e-06
3.73178e-08
2.53936e-06
-9.17813e-09
2.48497e-06
-4.73046e-08
2.43707e-06
-7.72977e-08
2.39847e-06
-9.53199e-08
2.37101e-06
-1.03223e-07
2.35163e-06
-1.04682e-07
2.35039e-06
-1.02354e-07
2.37473e-06
-1.12684e-07
2.42268e-06
-8.83938e-08
-8.02015e-08
1.20609e-06
-1.08165e-07
1.21756e-06
-1.0918e-07
1.19534e-06
-1.24729e-07
1.20845e-06
-1.23101e-07
1.18003e-06
-1.43529e-07
1.19482e-06
-1.41904e-07
1.16048e-06
-1.55164e-07
1.17622e-06
-1.56634e-07
1.13747e-06
-1.59661e-07
1.15392e-06
-1.66592e-07
1.11131e-06
-1.61123e-07
1.12839e-06
-1.69756e-07
1.08108e-06
-1.57822e-07
1.09888e-06
-1.69551e-07
1.04652e-06
-1.41678e-07
1.06447e-06
-1.61232e-07
1.0251e-06
-1.40504e-07
9.57113e-07
-7.94304e-08
9.9987e-07
-1.33444e-07
9.70645e-07
-1.17691e-07
9.18991e-07
-1.41455e-08
9.26957e-07
-5.28307e-08
7.6201e-08
2.85072e-07
2.67309e-07
2.74473e-07
4.46668e-07
2.6456e-07
6.26282e-07
2.60107e-07
8.00903e-07
2.61056e-07
9.73108e-07
2.67854e-07
1.15215e-06
2.82551e-07
1.34677e-06
3.09156e-07
1.57293e-06
3.48519e-07
1.84068e-06
4.04915e-07
2.16523e-06
4.77244e-07
2.52494e-06
5.49434e-07
2.86872e-06
6.09637e-07
3.15535e-06
6.42671e-07
3.33442e-06
6.32696e-07
3.37412e-06
5.76147e-07
3.2958e-06
4.88479e-07
3.16179e-06
3.91734e-07
3.02658e-06
3.00157e-07
2.91139e-06
2.21083e-07
2.81787e-06
1.49212e-07
2.73596e-06
8.45282e-08
2.66482e-06
2.70722e-08
2.59901e-06
-2.23282e-08
2.53977e-06
-6.39639e-08
2.48722e-06
-9.74441e-08
2.44071e-06
-1.19518e-07
2.40492e-06
-1.29211e-07
2.37351e-06
-1.25081e-07
2.35925e-06
-1.13524e-07
2.37654e-06
-1.04145e-07
2.43377e-06
-1.23769e-07
1.22787e-06
-9.8705e-08
1.23847e-06
-9.0801e-08
1.22146e-06
-1.21179e-07
1.23435e-06
-1.22065e-07
1.2098e-06
-1.39705e-07
1.22461e-06
-1.37914e-07
1.19241e-06
-1.59718e-07
1.20868e-06
-1.58176e-07
1.17083e-06
-1.72081e-07
1.18777e-06
-1.73577e-07
1.14595e-06
-1.77221e-07
1.1636e-06
-1.84244e-07
1.11746e-06
-1.79704e-07
1.13604e-06
-1.88343e-07
1.08365e-06
-1.77003e-07
1.10381e-06
-1.89722e-07
1.04428e-06
-1.60865e-07
1.06496e-06
-1.81914e-07
1.01915e-06
-1.59788e-07
9.38682e-07
-9.11567e-08
9.88898e-07
-1.517e-07
9.54634e-07
-1.33646e-07
8.94605e-07
-1.65442e-08
9.02982e-07
-6.12092e-08
7.45326e-08
2.96603e-07
2.69014e-07
2.83429e-07
4.52257e-07
2.68993e-07
6.30847e-07
2.60139e-07
8.04647e-07
2.56516e-07
9.75663e-07
2.58656e-07
1.15196e-06
2.68218e-07
1.34103e-06
2.88493e-07
1.56031e-06
3.2198e-07
1.81761e-06
3.71753e-07
2.13109e-06
4.39234e-07
2.48951e-06
5.1279e-07
2.84071e-06
5.77525e-07
3.14545e-06
6.19561e-07
3.35431e-06
6.22826e-07
3.42806e-06
5.78742e-07
3.37549e-06
4.96455e-07
3.25012e-06
4.00036e-07
3.11248e-06
3.0578e-07
2.99085e-06
2.20678e-07
2.89197e-06
1.46991e-07
2.80595e-06
7.9212e-08
2.73102e-06
1.83222e-08
2.66262e-06
-3.65466e-08
2.5989e-06
-8.14387e-08
2.54391e-06
-1.20628e-07
2.49175e-06
-1.48473e-07
2.44757e-06
-1.62143e-07
2.40415e-06
-1.59829e-07
2.37478e-06
-1.4059e-07
2.38409e-06
-1.21057e-07
2.45017e-06
-1.20547e-07
-1.25755e-06
2.56102e-06
-9.06491e-08
-9.81492e-08
1.24607e-06
-1.10432e-07
-1.02287e-07
1.23916e-06
-1.35736e-07
1.25357e-06
-1.36472e-07
1.22565e-06
-1.56676e-07
1.24266e-06
-1.54926e-07
1.20552e-06
-1.77466e-07
1.22376e-06
-1.76423e-07
1.1819e-06
-1.90384e-07
1.20022e-06
-1.91904e-07
1.15541e-06
-1.96592e-07
1.17428e-06
-2.03118e-07
1.12464e-06
-2.00541e-07
1.14519e-06
-2.08891e-07
1.08693e-06
-1.98972e-07
1.10979e-06
-2.12588e-07
1.04143e-06
-1.83149e-07
1.06516e-06
-2.05648e-07
1.01167e-06
-1.82563e-07
9.18318e-07
-1.06494e-07
9.75903e-07
-1.72972e-07
9.35889e-07
-1.51219e-07
8.667e-07
-1.91516e-08
8.75363e-07
-6.9874e-08
7.29654e-08
3.06905e-07
2.70169e-07
2.95524e-07
4.56694e-07
2.79089e-07
6.35066e-07
2.6491e-07
8.08534e-07
2.56418e-07
9.78016e-07
2.54352e-07
1.1522e-06
2.58641e-07
1.33625e-06
2.73208e-07
1.54734e-06
3.01674e-07
1.79325e-06
3.46563e-07
2.093e-06
4.1002e-07
2.44598e-06
4.82896e-07
2.80464e-06
5.48966e-07
3.1268e-06
5.9623e-07
3.36558e-06
6.08323e-07
3.47713e-06
5.7375e-07
3.45383e-06
5.00361e-07
3.3397e-06
4.06818e-07
3.19986e-06
3.12591e-07
3.07149e-06
2.25091e-07
2.9655e-06
1.47108e-07
2.87668e-06
7.62346e-08
2.7978e-06
1.2428e-08
2.72642e-06
-4.54682e-08
2.66027e-06
-9.79321e-08
2.60288e-06
-1.40386e-07
2.54835e-06
-1.77207e-07
2.49894e-06
-1.99828e-07
2.44679e-06
-2.04765e-07
2.41026e-06
-1.95271e-07
2.42944e-06
-1.85927e-07
2.53662e-06
-2.07591e-07
2.73123e-06
-1.07696e-07
-1.83395e-07
1.3142e-06
-1.28243e-06
-1.22462e-07
1.36934e-06
-1.53424e-07
1.26702e-06
-1.23888e-07
-1.17718e-07
1.2596e-06
-1.5269e-07
1.27796e-06
-1.5484e-07
1.24347e-06
-1.7639e-07
1.26449e-06
-1.75955e-07
1.2204e-06
-1.9765e-07
1.24161e-06
-1.97633e-07
1.19452e-06
-2.1063e-07
1.21483e-06
-2.12221e-07
1.16656e-06
-2.1797e-07
1.18756e-06
-2.24117e-07
1.13339e-06
-2.24152e-07
1.15639e-06
-2.31895e-07
1.0905e-06
-2.24315e-07
1.11668e-06
-2.38773e-07
1.03815e-06
-2.09635e-07
1.06556e-06
-2.33064e-07
1.00187e-06
-2.08529e-07
8.92614e-07
-1.23746e-07
9.60803e-07
-1.9789e-07
9.13179e-07
-1.71787e-07
8.34798e-07
-2.14661e-08
8.44045e-07
-7.91218e-08
7.36012e-08
3.08648e-07
2.718e-07
3.05297e-07
4.60622e-07
2.91713e-07
6.39272e-07
2.75019e-07
8.11967e-07
2.61645e-07
9.79578e-07
2.55043e-07
1.15164e-06
2.55115e-07
1.3316e-06
2.63509e-07
1.53523e-06
2.8554e-07
1.7711e-06
3.24049e-07
2.05737e-06
3.82419e-07
2.40157e-06
4.54624e-07
2.76449e-06
5.2317e-07
3.09985e-06
5.75992e-07
3.36403e-06
5.9781e-07
3.51034e-06
5.75129e-07
3.51939e-06
5.08142e-07
3.42442e-06
4.15634e-07
3.28829e-06
3.18354e-07
3.15678e-06
2.2727e-07
3.04601e-06
1.44561e-07
2.95224e-06
7.1541e-08
2.86796e-06
6.0548e-09
2.79153e-06
-5.26791e-08
2.72264e-06
-1.07824e-07
2.66166e-06
-1.56706e-07
2.60641e-06