/*--------------------------------*- C++ -*----------------------------------*\
  =========                 |
  \\      /  F ield         | OpenFOAM: The Open Source CFD Toolbox
   \\    /   O peration     | Website:  https://openfoam.org
    \\  /    A nd           | Version:  dev
     \\/     M anipulation  |
\*---------------------------------------------------------------------------*/
FoamFile
{
    version     2.0;
    format      ascii;
    class       volScalarField;
    location    "2500";
    object      qr;
}
// * * * * * * * * * * * * * * * * * * * * * * * * * * * * * * * * * * * * * //

dimensions      [1 0 -3 0 0 0 0];

internalField   uniform 0;

boundaryField
{
    lowerOutlet
    {
        type            calculated;
        value           nonuniform List<scalar> 
150
(
787.819
790.416
793.278
796.395
799.774
803.418
807.335
811.532
816.018
820.805
825.905
831.33
837.099
843.228
849.74
856.658
864.009
871.826
880.143
889.003
898.453
908.55
919.356
930.947
943.435
956.928
971.537
987.414
1004.75
1023.76
1044.75
1068.06
1094.16
1116.49
1148.99
1186.42
1230.05
1281.53
1343.3
1418.78
1513.13
1634.39
1774.15
1986.66
2301.74
2837.55
4616.21
6824.22
-6528.63
3380.41
2499.94
2081.23
1829.41
1658.74
1521.05
1429.03
1356.52
1297.51
1248.33
1206.48
1170.48
1139.08
1111.35
1080.42
1058.71
1039.02
1021.05
1004.57
989.374
975.316
962.265
950.109
938.774
928.18
918.24
908.898
900.106
891.821
884.005
876.628
869.66
863.076
856.855
850.976
845.424
840.183
835.239
830.582
826.201
822.087
818.232
814.63
811.276
808.165
805.292
802.667
7701.03
3765.53
6341.62
2654.22
1310.95
1379.06
1463.18
1569.73
1709.29
1926.12
2209.55
2660.18
4242.36
5047.36
8174.46
4600.4
3079.56
2164.62
1882.81
1696.09
1562.79
1472.09
1390.8
1325.58
1271.87
1226.59
9307.32
4195.32
5846.95
2843.18
1254.67
1820.45
2053.34
2405.54
3330.79
2370.59
2007.6
1780.9
1624.25
1187.83
1870.93
2127.21
2522.97
3817.41
2260.07
1941.9
1736.65
1592.35
1132.18
1167.03
1207.36
1154.28
1124.8
1098.64
)
;
    }
    top
    {
        type            calculated;
        value           nonuniform List<scalar> 
100
(
724.245
724.577
725.743
727.344
729.105
730.913
732.727
734.475
736.113
737.712
739.369
740.815
741.908
743.143
744.191
744.919
745.581
746.311
747.077
748.001
749.017
749.986
749.984
744.889
731.409
715.707
701.862
693.544
694.027
703.604
722.847
743.88
761.343
772.992
780.099
784.867
787.714
789.733
791.445
792.99
794.399
795.703
796.862
797.941
798.899
799.778
800.503
801.106
801.608
802.001
802.291
802.488
802.604
802.664
802.64
802.52
802.347
802.088
801.765
801.392
800.944
800.441
799.915
799.315
798.638
797.977
797.074
796.229
795.157
794.058
792.872
791.564
790.111
788.636
787.153
785.653
784.167
782.902
781.942
790.29
788.316
786.307
784.267
782.196
780.097
777.972
775.822
773.652
771.466
769.267
767.057
764.84
762.619
760.395
755.334
752.364
749.719
747.544
746.036
745.563
)
;
    }
    sides
    {
        type            calculated;
        value           nonuniform List<scalar> 
100
(
787.828
789.942
791.815
793.442
794.828
795.976
796.891
797.578
798.043
798.293
798.336
798.178
797.829
797.298
796.594
795.726
794.704
793.539
792.239
790.814
789.273
787.627
785.884
784.052
782.14
780.157
778.109
776.005
773.852
771.655
769.422
767.158
764.868
762.559
760.234
757.898
755.556
753.211
750.867
748.527
746.193
743.87
741.559
739.262
736.979
734.713
732.464
730.234
728.025
725.872
802.676
804.852
806.803
808.525
810.021
811.296
812.351
813.193
813.825
814.254
814.485
814.526
814.383
814.064
813.578
812.931
812.133
811.192
810.117
808.915
807.596
806.168
804.638
803.015
801.306
799.519
797.661
795.739
793.759
791.727
789.65
787.533
785.381
783.199
780.992
778.764
776.518
774.26
771.991
769.715
767.434
765.15
762.863
760.573
758.287
756.011
753.747
751.492
749.245
747.049
)
;
    }
    front
    {
        type            empty;
    }
    back
    {
        type            empty;
    }
    roller
    {
        type            calculated;
        value           nonuniform List<scalar> 
144
(
6714.53
3046.5
1624.3
1614.37
1314.83
1107.59
969.158
902.095
907.946
916.207
3393.4
5834.95
3488.85
2187.89
1421.98
1430.72
981.952
1064.28
918.822
996.89
906.223
964.927
899.298
899.48
925.485
928.466
25228.7
27299.7
29991.5
29213.8
22266.9
2694.87
2624.73
1539.77
1288.52
1094.35
958.429
914.616
901.073
952.362
903.321
909.767
22798.6
29910.2
28973.9
25303.2
27613.3
4175.85
4286.3
2961.04
2355.82
1838.03
1742.91
1893.61
1788.19
1469.37
1394.99
1330.09
993.132
941.416
1053.1
922.916
905.17
959.751
900.086
901.07
920.248
923.166
2093.09
1951.74
2049.84
1380.57
1223.88
1159.19
1022.56
1023.76
1013.28
946.971
11627.4
9387.78
13717.1
9881.52
7281.29
3821.74
2235.66
1679.49
1335.94
1245.38
1242.08
1213.11
1127.57
1174.06
1103.29
1043.4
1120.95
1075.31
902.984
901.614
901.265
906.248
913.789
942.371
7914.33
5133.15
1558.5
1696.82
1206.52
1145.4
1005.24
949.32
927.831
979.218
970.961
900.084
933.415
16054.3
19263
17573.2
13083.9
5056.52
2397.65
1469.83
1511.67
1359.94
1280.11
1261.27
1182.72
1154.21
1189.9
1081.25
1061.32
1132.63
1084.64
934.718
1043.21
1033.03
1004.81
987.827
911.16
908.091
899.871
904.672
911.676
937.539
)
;
    }
    burner
    {
        type            calculated;
        value           nonuniform List<scalar> 
16
(
-117457
-105733
-101210
-108169
-108132
-101284
-105375
-121461
-103612
-101870
-111665
-110815
-102088
-103259
-113848
-115978
)
;
    }
}


// ************************************************************************* //
