/*--------------------------------*- C++ -*----------------------------------*\
  =========                 |
  \\      /  F ield         | OpenFOAM: The Open Source CFD Toolbox
   \\    /   O peration     | Website:  https://openfoam.org
    \\  /    A nd           | Version:  dev
     \\/     M anipulation  |
\*---------------------------------------------------------------------------*/
FoamFile
{
    version     2.0;
    format      ascii;
    class       volScalarField;
    location    "2500";
    object      rAU;
}
// * * * * * * * * * * * * * * * * * * * * * * * * * * * * * * * * * * * * * //

dimensions      [-1 3 1 0 0 0 0];

internalField   nonuniform List<scalar> 
9456
(
0.00822906
0.00829313
0.00825501
0.00828146
0.00840146
0.00819541
0.00825652
0.00839544
0.00840528
0.00814648
0.00823211
0.00839358
0.00839157
0.00841588
0.00810069
0.00821431
0.00839525
0.00838403
0.0084007
0.0084243
0.00805865
0.00819923
0.00840207
0.00838365
0.00838705
0.00841365
0.0084287
0.00802093
0.00818605
0.0084094
0.00838727
0.00837913
0.00839972
0.00842326
0.00843088
0.00798664
0.0081735
0.00841607
0.00839505
0.00837446
0.0083866
0.00841379
0.00842848
0.0084321
0.00795549
0.00816258
0.00842117
0.00840548
0.00837531
0.00837653
0.00840173
0.00842355
0.00843135
0.00843277
0.00792688
0.00815274
0.00842519
0.00841408
0.00837955
0.00837085
0.00838831
0.00841566
0.00842889
0.00843295
0.00843329
0.00790078
0.00814207
0.00842812
0.00842133
0.00838812
0.00836774
0.00837778
0.00840482
0.00842478
0.00843169
0.0084341
0.00843371
0.00787689
0.00813201
0.00842911
0.00842685
0.00839817
0.00836853
0.00836959
0.00839317
0.00841829
0.00842986
0.00843336
0.00843493
0.00843387
0.00785492
0.0081237
0.00842905
0.00843007
0.00840874
0.0083724
0.00836504
0.00838114
0.0084098
0.00842655
0.0084325
0.00843459
0.00843545
0.008434
0.00783476
0.00811612
0.00842936
0.00843221
0.0084163
0.00837977
0.00836221
0.00837155
0.00839876
0.00842206
0.00843108
0.00843414
0.00843537
0.008436
0.00843405
0.00781629
0.00810899
0.00842983
0.00843361
0.00842158
0.00838983
0.00836225
0.00836457
0.00838699
0.0084147
0.00842922
0.00843347
0.00843541
0.00843609
0.0084364
0.00843403
0.00779928
0.00810293
0.00842953
0.00843494
0.00842683
0.00840036
0.00836529
0.00836063
0.00837624
0.00840512
0.00842567
0.00843291
0.00843541
0.00843624
0.00843657
0.0084367
0.00843395
0.00778365
0.00809883
0.00842932
0.00843552
0.00842956
0.00840936
0.0083712
0.0083582
0.00836763
0.00839454
0.0084195
0.00843164
0.00843543
0.00843664
0.00843704
0.00843713
0.00843691
0.00843394
0.0077693
0.00809285
0.00842919
0.00843603
0.00843165
0.00841583
0.00837941
0.00835717
0.00836181
0.00838405
0.00841171
0.00842876
0.00843496
0.00843689
0.00843754
0.00843752
0.00843739
0.00843713
0.00843384
0.00775604
0.0080879
0.00842719
0.00843686
0.00843326
0.00842102
0.00838891
0.00835864
0.00835747
0.0083746
0.00840251
0.0084238
0.00843378
0.0084373
0.00843825
0.00843811
0.00843791
0.00843763
0.00843723
0.00843375
0.00774386
0.00808875
0.0084221
0.00843406
0.00843444
0.00842506
0.00839818
0.00836252
0.0083338
0.00836622
0.00839352
0.00841769
0.0084311
0.00843662
0.0084388
0.00843923
0.0084386
0.00843804
0.00843777
0.00843742
0.00843375
0.00773269
0.00808987
0.00841714
0.00843311
0.00843553
0.00842812
0.00840599
0.00836897
0.00833232
0.0083602
0.00838393
0.00841067
0.00842761
0.00843527
0.00843847
0.00844003
0.00843987
0.00843905
0.00843838
0.00843791
0.00843758
0.00843363
0.00772242
0.00809194
0.00841414
0.00843501
0.00843618
0.00842995
0.00841261
0.00837686
0.00835406
0.00835601
0.0083747
0.0084029
0.00842344
0.0084335
0.00843766
0.0084398
0.00844103
0.00844039
0.0084393
0.00843859
0.00843809
0.00843769
0.00843349
0.00771308
0.00809574
0.00841179
0.00843435
0.00843662
0.00843133
0.00841736
0.00838512
0.00835605
0.00818816
0.008367
0.00839401
0.00841829
0.00843144
0.00843675
0.00843937
0.00844102
0.00844174
0.00844087
0.00843956
0.00843864
0.00843815
0.00843782
0.00843339
0.00770455
0.00810287
0.00841157
0.0084347
0.00843718
0.00843255
0.00842124
0.00839341
0.00835969
0.00813743
0.00836084
0.00838524
0.00841129
0.00842848
0.00843593
0.00843892
0.00844066
0.00844194
0.00844224
0.0084412
0.00843976
0.00843882
0.00843821
0.00843787
0.00843334
0.00762348
0.00811115
0.00841279
0.00843649
0.00843734
0.00843299
0.00842414
0.00840065
0.00836548
0.00829759
0.00835639
0.0083774
0.00840365
0.00842401
0.00843453
0.00843846
0.00844042
0.00844169
0.00844259
0.00844266
0.00844147
0.00843993
0.00843891
0.00843837
0.00843797
0.0083484
0.0075798
0.00812036
0.00841202
0.0084381
0.0084375
0.00843404
0.00842594
0.00840674
0.00837214
0.00834936
0.00835327
0.00837029
0.00839605
0.00841865
0.00843233
0.00843825
0.00844024
0.00844157
0.00844244
0.00844298
0.00844301
0.00844171
0.00844005
0.00843889
0.00843849
0.00843827
0.00829139
0.00768614
0.0081316
0.00841033
0.00843844
0.00843791
0.00843435
0.00842754
0.00841199
0.00837921
0.00835305
0.00835136
0.00836402
0.0083887
0.00841257
0.00842908
0.0084374
0.00844063
0.0084415
0.00844246
0.00844296
0.00844342
0.00844329
0.00844185
0.00844015
0.00843903
0.00843877
0.00842491
0.00843338
0.0076811
0.00814755
0.00840971
0.00843859
0.00843765
0.00843495
0.008429
0.00841557
0.00838659
0.00835588
0.00835009
0.00835883
0.00838163
0.00840619
0.00842495
0.0084356
0.0084404
0.00844227
0.00844259
0.00844301
0.00844333
0.00844376
0.00844366
0.00844211
0.00844024
0.00843922
0.00843894
0.00843843
0.00843302
0.00767675
0.00816488
0.00841204
0.00843863
0.00843704
0.00843519
0.00843014
0.00841871
0.0083935
0.00836048
0.00834912
0.00835499
0.0083752
0.00839958
0.0084204
0.00843308
0.00843937
0.00844247
0.00844348
0.00844348
0.00844353
0.00844374
0.00844419
0.00844397
0.00844225
0.00844051
0.00843946
0.00843905
0.00843837
0.00843264
0.00767397
0.00818039
0.00841468
0.00843848
0.00843696
0.00843554
0.00843071
0.00842119
0.00839946
0.00836619
0.00834908
0.00835204
0.0083691
0.00839331
0.00841516
0.00843035
0.00843804
0.00844167
0.00844374
0.00844448
0.00844418
0.00844397
0.00844397
0.00844442
0.00844415
0.00844247
0.00844065
0.00843954
0.00843931
0.00843821
0.00843247
0.00767301
0.00819749
0.00841635
0.00843837
0.00843681
0.00843546
0.00843166
0.00842343
0.0084046
0.00837231
0.00834998
0.00834987
0.00836361
0.00838705
0.00840967
0.00842686
0.00843654
0.00844091
0.00844329
0.0084448
0.0084452
0.00844484
0.00844415
0.00844419
0.00844461
0.00844449
0.00844267
0.00844066
0.00843966
0.00843948
0.00843818
0.00843243
0.00767382
0.00821712
0.0084186
0.008438
0.00843706
0.00843546
0.00843231
0.0084249
0.0084089
0.00837866
0.00835183
0.00834841
0.00835868
0.00838107
0.00840407
0.00842263
0.00843452
0.00844027
0.00844296
0.00844451
0.00844578
0.00844603
0.00844557
0.00844441
0.00844442
0.00844486
0.00844469
0.00844285
0.00844078
0.00843985
0.00843955
0.00843813
0.00843217
0.00766907
0.00823529
0.00842248
0.00843764
0.00843695
0.00843522
0.00843273
0.00842627
0.00841245
0.00838481
0.00835497
0.00834723
0.0083545
0.00837526
0.00839838
0.00841828
0.00843191
0.00843916
0.00844256
0.00844436
0.00844551
0.00844624
0.00844654
0.00844599
0.00844469
0.0084445
0.00844527
0.00844485
0.00844283
0.00844081
0.00843983
0.00843956
0.00842759
0.00847547
0.00680285
0.00816804
0.00825128
0.00842535
0.00843725
0.00843671
0.00843496
0.00843294
0.0084273
0.00841528
0.0083907
0.00835932
0.00834623
0.00835136
0.00836977
0.00839265
0.00841363
0.00842901
0.00843761
0.00844212
0.00844418
0.00844541
0.00844618
0.00844658
0.0084469
0.00844623
0.00844481
0.00844494
0.00844532
0.00844471
0.00844278
0.00844077
0.00843975
0.00842797
0.00832995
0.00818684
0.00818186
0.00830233
0.0081807
0.00678586
0.00813951
0.00826757
0.00842794
0.00843707
0.00843608
0.00843506
0.00843299
0.0084281
0.00841765
0.00839602
0.00836436
0.00834628
0.0083485
0.00836441
0.00838716
0.00840845
0.00842558
0.00843614
0.00844129
0.00844404
0.00844541
0.00844621
0.00844659
0.0084469
0.00844719
0.00844647
0.00844512
0.00844493
0.00844526
0.00844444
0.00844274
0.00844061
0.00842692
0.00818612
0.00818234
0.00816105
0.00815482
0.00815548
0.00815428
0.00678655
0.00813946
0.00828292
0.00843066
0.00843632
0.00843592
0.00843501
0.00843301
0.00842886
0.00841958
0.00840059
0.00836973
0.00834713
0.00834619
0.00835915
0.00838167
0.00840337
0.0084216
0.008434
0.00844039
0.00844365
0.00844529
0.00844634
0.00844683
0.008447
0.00844722
0.00844753
0.00844672
0.00844513
0.00844499
0.00844507
0.008444
0.00844259
0.00842692
0.00817988
0.00817909
0.00816164
0.0081583
0.00816049
0.00815506
0.0081548
0.00815378
0.00678903
0.00813902
0.00829259
0.00843451
0.00843621
0.00843581
0.00843461
0.00843298
0.00842927
0.00842116
0.0084046
0.0083754
0.00834872
0.00834467
0.00835424
0.008376
0.00839814
0.0084174
0.00843137
0.00843913
0.00844316
0.00844522
0.00844632
0.00844706
0.00844732
0.00844734
0.00844737
0.00844772
0.00844686
0.00844517
0.00844502
0.00844479
0.00844357
0.00842854
0.00817963
0.00818011
0.00815655
0.00815632
0.00816092
0.00815733
0.0081596
0.00815511
0.00815397
0.00815313
0.00679337
0.00813865
0.00829997
0.00843412
0.00843575
0.00843531
0.00843436
0.00843292
0.00842965
0.00842241
0.00840804
0.008381
0.00835141
0.00834285
0.00835024
0.00837055
0.00839281
0.00841285
0.00842836
0.00843778
0.00844248
0.008445
0.00844643
0.00844719
0.00844754
0.00844764
0.00844751
0.00844758
0.00844792
0.00844687
0.00844509
0.00844503
0.00844441
0.00842924
0.00818116
0.00818248
0.00815787
0.00815799
0.00815534
0.00815496
0.00815999
0.00815621
0.00815802
0.00815517
0.0081526
0.00815239
0.00679502
0.00813875
0.00830265
0.00843342
0.00843497
0.00843493
0.00843402
0.00843271
0.00842985
0.00842343
0.00841097
0.00838646
0.00835532
0.0083411
0.0083465
0.00836499
0.00838775
0.00840803
0.0084249
0.00843595
0.00844162
0.00844451
0.00844629
0.00844729
0.00844767
0.00844794
0.00844788
0.00844767
0.0084478
0.00844793
0.00844675
0.00844494
0.0084447
0.00842976
0.0081822
0.00817926
0.00815879
0.00816062
0.00815661
0.00815618
0.00815383
0.00815313
0.00815887
0.00815515
0.00815514
0.00815746
0.00815083
0.00815491
0.00680198
0.00814824
0.00830388
0.00843332
0.0084346
0.00843452
0.00843362
0.00843246
0.00842989
0.00842423
0.00841344
0.00839155
0.00835995
0.00834066
0.00834276
0.00835908
0.00838237
0.00840319
0.00842095
0.00843363
0.00844069
0.00844406
0.00844602
0.00844728
0.00844785
0.00844816
0.00844822
0.008448
0.00844789
0.00844776
0.00844777
0.00844651
0.00844467
0.00842944
0.00817895
0.00817807
0.0081607
0.0081577
0.00815646
0.00815818
0.00815458
0.00815379
0.00815204
0.00815085
0.00815719
0.00815432
0.00815144
0.0081747
0.0081537
0.00817874
0.0068482
0.00818923
0.0082969
0.00843318
0.00843415
0.00843407
0.00843325
0.00843221
0.00842984
0.00842484
0.00841535
0.0083961
0.00836505
0.00834143
0.00833997
0.00835318
0.0083765
0.00839826
0.00841666
0.00843074
0.00843918
0.00844363
0.00844583
0.008447
0.00844789
0.00844833
0.00844849
0.00844833
0.00844819
0.00844781
0.00844753
0.00844736
0.00844605
0.00842988
0.0081758
0.0081738
0.008157
0.00815564
0.0081581
0.00815486
0.00815376
0.00815524
0.00815204
0.00815095
0.00815026
0.00814824
0.00815598
0.0081555
0.00815564
0.00821687
0.00818438
0.00822041
0.0068979
0.00822741
0.00829512
0.00841468
0.00843409
0.00843387
0.0084331
0.00843196
0.00842976
0.00842531
0.00841701
0.00840019
0.00837066
0.00834284
0.00833781
0.008348
0.00837066
0.00839314
0.00841247
0.00842773
0.00843734
0.00844272
0.00844529
0.00844681
0.00844773
0.00844831
0.00844862
0.00844858
0.00844843
0.00844808
0.00844753
0.00844708
0.00844668
0.00843243
0.00817419
0.00817859
0.00815282
0.0081507
0.0081539
0.00815237
0.00815497
0.00815152
0.00815061
0.00815193
0.00814942
0.00814854
0.00815171
0.00815022
0.0081666
0.00817324
0.00819156
0.00825469
0.00822463
0.00825776
0.00694474
0.00825762
0.00830085
0.0084148
0.00843183
0.00843383
0.00843301
0.00843173
0.00842976
0.00842563
0.00841846
0.00840398
0.00837681
0.00834581
0.00833543
0.00834365
0.00836523
0.00838835
0.00840825
0.00842471
0.00843589
0.00844175
0.00844494
0.00844672
0.00844779
0.00844823
0.00844861
0.00844872
0.00844856
0.00844826
0.00844776
0.00844733
0.00824061
0.0084474
0.00818067
0.00807564
0.00815089
0.00815724
0.00814969
0.00814918
0.00815056
0.00815122
0.00815179
0.00814948
0.00814938
0.00815099
0.00815328
0.00815517
0.00817502
0.00817747
0.00820334
0.00820936
0.00823069
0.00828407
0.00825993
0.00828791
0.0069938
0.00828345
0.00830053
0.00843359
0.00843214
0.00843026
0.00843313
0.00843178
0.00842989
0.00842594
0.0084195
0.00840709
0.00838261
0.00835052
0.00833384
0.00833921
0.00835919
0.00838363
0.00840407
0.00842134
0.00843425
0.00844142
0.00844491
0.00844689
0.00844817
0.00844879
0.00844878
0.00844897
0.00844891
0.00844849
0.00844821
0.00844842
0.00806619
0.00823892
0.00827879
0.00816163
0.00805993
0.00815033
0.00816225
0.00815231
0.00815606
0.00815324
0.0081633
0.00815426
0.0081578
0.00816091
0.0081646
0.00818155
0.00818175
0.00821012
0.00821053
0.00823972
0.00824455
0.00826351
0.00830848
0.00828978
0.00831268
0.00704505
0.00830591
0.00829728
0.00843396
0.00843504
0.00843047
0.00840857
0.00843183
0.00842977
0.00842618
0.00842025
0.00840927
0.00838756
0.00835541
0.00833362
0.00833491
0.00835206
0.0083774
0.00839941
0.00841753
0.00843162
0.00844051
0.00844486
0.00844708
0.00844853
0.00844944
0.0084497
0.00844954
0.00844963
0.00844955
0.00844935
0.00845009
0.00807168
0.00802871
0.00820371
0.00823108
0.00817393
0.00817757
0.00819955
0.00816284
0.00818967
0.00817454
0.00818441
0.0081735
0.00818641
0.00817453
0.00818105
0.0081861
0.00818823
0.00821201
0.00820974
0.00824422
0.00824188
0.00826987
0.00827533
0.00829163
0.00832891
0.00831605
0.00833311
0.00709822
0.00832502
0.00828967
0.00843413
0.00843533
0.00843467
0.00840876
0.00834591
0.00832885
0.00842605
0.00842072
0.00841091
0.00839172
0.00836018
0.008334
0.00833118
0.00834477
0.00837032
0.00839364
0.0084129
0.00842807
0.00843823
0.00844403
0.00844685
0.0084484
0.00844941
0.0084502
0.00845036
0.00845034
0.00845095
0.00845137
0.00836737
0.00803331
0.00803234
0.00810512
0.00801612
0.00795024
0.00806917
0.0080429
0.0082192
0.00817571
0.00820263
0.0081811
0.00820282
0.00819184
0.00820192
0.00821628
0.00820142
0.00821503
0.00821436
0.00821788
0.00824259
0.00824055
0.00827568
0.00827275
0.00829546
0.00830105
0.00831684
0.00834585
0.00833917
0.00835109
0.00715276
0.00834046
0.00828939
0.00840956
0.00839449
0.00843484
0.00843379
0.0083265
0.00822989
0.0084257
0.0084207
0.00841228
0.00839544
0.00836549
0.00833505
0.00832743
0.0083381
0.00836298
0.00838755
0.00840767
0.00842419
0.00843565
0.00844244
0.00844598
0.00844781
0.00844884
0.00844964
0.00845044
0.00845092
0.00845193
0.00845208
0.00824361
0.0080243
0.00811863
0.00822099
0.00788626
0.00750668
0.00796662
0.00776168
0.00802088
0.00784224
0.00811058
0.00807852
0.00811105
0.0080593
0.00814635
0.00806475
0.00817625
0.0080975
0.00822795
0.00815038
0.00824198
0.0081813
0.00827191
0.00825998
0.00830192
0.00829127
0.00831799
0.00832074
0.00833794
0.00836027
0.00835737
0.00836624
0.00720749
0.00835213
0.00830495
0.00839723
0.00835392
0.00843433
0.00843343
0.0084118
0.00829663
0.00836149
0.00842057
0.00841323
0.00839871
0.00837131
0.00833783
0.00832391
0.0083319
0.00835527
0.00838146
0.00840251
0.00842004
0.00843308
0.00844088
0.00844503
0.00844712
0.00844831
0.008449
0.00844981
0.00845121
0.0084525
0.00843684
0.00817809
0.00812722
0.00824473
0.00831088
0.0080486
0.00755736
0.00724266
0.00764362
0.0075041
0.0077326
0.00756957
0.00804986
0.00792312
0.00806552
0.00799252
0.00807979
0.00804989
0.00808572
0.00808856
0.00812718
0.00811863
0.00819679
0.0081222
0.0082661
0.00821902
0.00830832
0.00826319
0.00833619
0.00832018
0.00835458
0.0083727
0.00837094
0.00837982
0.00725829
0.00836
0.00833933
0.00841836
0.00837292
0.00839268
0.00843223
0.00843083
0.00839611
0.00833224
0.00842051
0.00841373
0.00840147
0.00837692
0.00834275
0.00832223
0.00832631
0.00834705
0.00837472
0.00839741
0.00841581
0.00843017
0.00843927
0.00844422
0.00844665
0.00844796
0.00844871
0.00844964
0.00845142
0.00845226
0.00835863
0.00821073
0.00826041
0.00828317
0.00818135
0.00808863
0.00717117
0.00664405
0.00741575
0.0073372
0.00748088
0.00739532
0.00755784
0.00742216
0.00782053
0.00765394
0.00791754
0.00775469
0.00799387
0.00783799
0.00806091
0.00793071
0.00809604
0.00801786
0.00817268
0.00810215
0.00820999
0.00815244
0.00825091
0.0081773
0.00833852
0.00825941
0.00836301
0.00838276
0.00838194
0.00834645
0.00730497
0.00833979
0.00842705
0.00840613
0.00836729
0.00842132
0.00842892
0.00842715
0.00839493
0.00841877
0.00841387
0.0084034
0.00838195
0.00834837
0.00832266
0.00832189
0.00833902
0.00836715
0.0083917
0.0084112
0.00842687
0.0084374
0.00844327
0.00844622
0.00844772
0.00844857
0.0084498
0.00845198
0.00841311
0.0082597
0.00830543
0.00828168
0.00819972
0.0080528
0.00798971
0.00739378
0.00683246
0.00577547
0.00723339
0.00706583
0.007276
0.0071201
0.00733445
0.00709538
0.007643
0.00746805
0.00772737
0.0075342
0.00778335
0.00758227
0.00786046
0.00765264
0.00795067
0.00772569
0.00807078
0.00782087
0.00813056
0.00800323
0.00816901
0.00812116
0.00827628
0.00805643
0.00819831
0.008421
0.00835091
0.00797563
0.00817157
0.00738423
0.00811759
0.007978
0.00840942
0.00839654
0.00839963
0.00842326
0.00842478
0.00842291
0.00841806
0.00841391
0.00840466
0.00838629
0.00835408
0.00832396
0.00831806
0.00833146
0.00835934
0.00838544
0.00840618
0.00842309
0.00843512
0.00844206
0.00844563
0.00844741
0.00844862
0.00845013
0.00845163
0.0082868
0.00827129
0.00831343
0.00823967
0.00808513
0.00801555
0.0078626
0.00732505
0.00531294
0.0052845
0.00703459
0.00602259
0.00687358
0.00672348
0.0069132
0.00678663
0.00696679
0.00679017
0.00739676
0.00709728
0.00743879
0.00715056
0.00744517
0.00719151
0.00747852
0.00725038
0.00753186
0.00731007
0.00767542
0.00736787
0.00784403
0.00757157
0.00795584
0.00797601
0.00812477
0.00684593
0.00741651
0.00789484
0.00756089
0.00817754
0.00798019
0.00798082
0.0079013
0.00773509
0.00768209
0.00796838
0.00591081
0.00785979
0.00807223
0.00794857
0.00839212
0.00839102
0.00840994
0.00841853
0.00842009
0.00841821
0.00841351
0.00840513
0.00838972
0.00835989
0.00832582
0.00831404
0.00832426
0.00835085
0.0083788
0.00840073
0.00841875
0.0084323
0.00844059
0.0084449
0.00844691
0.00844861
0.00845068
0.00844903
0.00816957
0.00832697
0.00825842
0.00817466
0.00803111
0.00792154
0.00813266
0.00683148
0.00606191
0.00672216
0.0069774
0.00714935
0.00560591
0.00612357
0.00710837
0.00608658
0.00715529
0.00616387
0.00720523
0.00622126
0.0070173
0.00725958
0.0070581
0.00732159
0.00707777
0.00737801
0.0071238
0.0074387
0.00717314
0.00750882
0.00729948
0.00732128
0.0066235
0.00603728
0.00549093
0.00580335
0.00660903
0.0064033
0.00603242
0.00608907
0.0057661
0.00714324
0.00734746
0.00698149
0.00666293
0.00740668
0.0079896
0.00796731
0.00797996
0.00782006
0.00763128
0.0075703
0.00787292
0.00587019
0.00777485
0.00792249
0.0079466
0.00837146
0.00837907
0.00840383
0.00841377
0.00841525
0.00841249
0.00840512
0.00839222
0.00836576
0.00832941
0.00831079
0.00831756
0.0083417
0.00837137
0.00839498
0.00841392
0.00842896
0.0084386
0.00844427
0.00844682
0.00844875
0.00845127
0.00844434
0.00818085
0.00831022
0.00821062
0.00810039
0.00800647
0.00786684
0.00811784
0.00707374
0.00792468
0.0070504
0.00682137
0.0071101
0.00705246
0.00710098
0.00718825
0.00581866
0.00640756
0.00603949
0.0067061
0.00625
0.00699127
0.00725258
0.00666543
0.00727495
0.00676163
0.00671096
0.00652429
0.00662247
0.00656692
0.00654531
0.00656999
0.00580115
0.00472612
0.00434755
0.00484706
0.00567272
0.00567852
0.00507648
0.006335
0.0062314
0.00552407
0.00600942
0.00587196
0.00669631
0.00712811
0.00675506
0.00642322
0.00723114
0.0079193
0.00796596
0.00796018
0.00767809
0.00734576
0.00746832
0.00776296
0.00578667
0.00789407
0.00770432
0.00792469
0.00833895
0.00835663
0.00839937
0.00840948
0.00841012
0.00840485
0.00839394
0.00837121
0.0083353
0.00831008
0.0083122
0.00833301
0.00836352
0.00838909
0.00840915
0.00842539
0.00843661
0.00844307
0.00844731
0.00844994
0.00845194
0.00834549
0.00828775
0.00825898
0.00817335
0.00802353
0.00795744
0.00786985
0.0080932
0.00748422
0.00818377
0.00707629
0.00708901
0.00702499
0.0070278
0.00709965
0.0071286
0.00716076
0.00710786
0.00722379
0.00725203
0.0073538
0.00733602
0.00749413
0.00741696
0.00644814
0.00722303
0.00688324
0.00743207
0.00721178
0.00763124
0.00720946
0.00774714
0.00549888
0.00546757
0.0054079
0.00539001
0.00451706
0.00493725
0.00544052
0.00548967
0.00564488
0.00510032
0.00485177
0.00616691
0.00608936
0.00520146
0.00473512
0.00533082
0.00646716
0.00684849
0.00653514
0.0062597
0.00693933
0.00777845
0.00795049
0.00791444
0.00758232
0.00708208
0.00723067
0.007637
0.00563
0.00785147
0.00759122
0.00789549
0.0083035
0.00833852
0.00839762
0.00840537
0.00840369
0.00839487
0.00837607
0.0083422
0.00831183
0.00830817
0.00832522
0.00835592
0.00838335
0.00840456
0.00842209
0.00843473
0.00844223
0.00844693
0.00845146
0.00845345
0.00817057
0.00833758
0.00820928
0.00812271
0.0079953
0.00789368
0.0080928
0.00754599
0.00805871
0.00810577
0.00801142
0.00740621
0.00747113
0.00720449
0.00729713
0.0073381
0.00744033
0.0071839
0.00724282
0.00723874
0.00718652
0.00734178
0.00729737
0.00745002
0.00744009
0.00755147
0.00748534
0.00765221
0.00757661
0.00773417
0.00771008
0.00540638
0.00548933
0.00734169
0.00542987
0.00538595
0.00535061
0.00534505
0.00541504
0.00552987
0.00547197
0.00543372
0.00481955
0.00530736
0.00556624
0.00611269
0.00538053
0.00507704
0.00545311
0.00504089
0.00628697
0.00660206
0.00633932
0.0061045
0.0066862
0.00774236
0.00780558
0.0077811
0.0073355
0.0068253
0.00697277
0.00745586
0.00516641
0.00779167
0.00738983
0.00785533
0.00826667
0.00833185
0.00839638
0.00840012
0.00839471
0.0083795
0.00834832
0.00831395
0.00830383
0.00831736
0.00834761
0.00837697
0.00839958
0.00841797
0.00843246
0.00844115
0.00844642
0.00845212
0.00845414
0.00812094
0.00830251
0.00816436
0.00807898
0.00797339
0.00779405
0.00807568
0.0073956
0.00817133
0.00808639
0.00809996
0.00783936
0.00767146
0.00779216
0.00788807
0.0075851
0.00771754
0.00773121
0.00780766
0.00744958
0.00759113
0.00730069
0.00736541
0.00746113
0.00750148
0.00763338
0.0076951
0.00754727
0.00757279
0.007691
0.00770128
0.00760231
0.00764249
0.00535796
0.00542158
0.00579649
0.00567502
0.00541044
0.00539274
0.00538441
0.00541962
0.00550331
0.00546959
0.00545376
0.00544703
0.00556317
0.00555844
0.00549829
0.0054315
0.00523823
0.00562019
0.00563005
0.00561593
0.00611452
0.00638177
0.00615165
0.00568802
0.00646787
0.00766691
0.00774004
0.00772295
0.00710577
0.0066049
0.00676147
0.00698916
0.00510962
0.00773263
0.00733157
0.00782602
0.0082345
0.00836421
0.00839348
0.00839228
0.00838071
0.0083532
0.00831561
0.00829857
0.00830869
0.00833732
0.00836882
0.00839297
0.00841254
0.00842813
0.00843897
0.00844565
0.00845264
0.00843599
0.00822103
0.00826464
0.00812533
0.00802464
0.00795179
0.0077879
0.00805243
0.00783932
0.00810544
0.00805242
0.00815522
0.00813607
0.00811969
0.00796221
0.00807601
0.00811892
0.00788946
0.00800239
0.00800831
0.00808604
0.00781393
0.00789314
0.00759964
0.00772745
0.0077894
0.00783259
0.00794345
0.00796706
0.00777675
0.00786857
0.00786922
0.00794375
0.00589537
0.0059974
0.00632321
0.00612349
0.00547878
0.00551408
0.00595383
0.00582445
0.00545085
0.00546539
0.00549345
0.00555752
0.00548193
0.00548591
0.00549991
0.00552519
0.00555775
0.00552659
0.00551238
0.00555706
0.00569755
0.00557257
0.00561488
0.00564056
0.00582741
0.00618024
0.00595961
0.00568457
0.00626409
0.00727035
0.00776747
0.00750553
0.00692997
0.00638317
0.00652822
0.00685154
0.00535566
0.00772394
0.00733051
0.00778702
0.0082403
0.00837966
0.00838748
0.00837997
0.00835716
0.00831833
0.00829399
0.00829978
0.00832571
0.00835903
0.00838228
0.00840547
0.00842274
0.00843494
0.00844452
0.00845399
0.00836409
0.00832787
0.00822298
0.00809449
0.0079703
0.0079133
0.00804727
0.00783401
0.00815009
0.00805842
0.00803879
0.00816024
0.00818553
0.00805296
0.00799527
0.00822243
0.00822129
0.00822492
0.00822659
0.0081321
0.00818929
0.00819292
0.00822946
0.00801281
0.00805384
0.00790417
0.00798624
0.00803199
0.00809411
0.00815459
0.00817555
0.00803086
0.00810097
0.00781413
0.00798812
0.0060696
0.0061956
0.00652318
0.00631545
0.00563869
0.00571509
0.00613809
0.00603262
0.00556338
0.0056108
0.00566775
0.00575304
0.0055319
0.00556862
0.00561521
0.00567136
0.00556197
0.00557363
0.00559577
0.00570858
0.00565941
0.00561074
0.00568176
0.00565475
0.00580414
0.00600368
0.00584831
0.00571953
0.00608415
0.00712971
0.0076559
0.00720019
0.00671385
0.0061808
0.00631717
0.00692952
0.00572188
0.0076953
0.00775367
0.00776356
0.00823266
0.00837877
0.00837768
0.00835996
0.00832318
0.00829171
0.00829149
0.00831391
0.00834845
0.00837013
0.00839514
0.00841619
0.00843111
0.0084389
0.00845393
0.00825693
0.00834643
0.00818077
0.00806886
0.00793667
0.00787146
0.00803325
0.007581
0.0081131
0.00802446
0.00804853
0.00797176
0.0082176
0.00828057
0.00821841
0.00815901
0.00822618
0.00822231
0.00823671
0.00823126
0.00823826
0.00824026
0.00824213
0.00824564
0.008203
0.00823723
0.00803685
0.00804843
0.00814296
0.00813856
0.00825682
0.00823759
0.00806169
0.00822338
0.0066949
0.00681625
0.00693194
0.00702471
0.00624343
0.00635209
0.00655818
0.00645593
0.00584257
0.00592903
0.00626889
0.00617789
0.00573324
0.00579397
0.00585506
0.00593555
0.00565
0.00571698
0.00578401
0.00584736
0.00564282
0.00569176
0.00574559
0.00568331
0.00569966
0.00572537
0.00581991
0.0057479
0.00575838
0.00587078
0.00577202
0.0057156
0.00594127
0.00712895
0.00744474
0.00713875
0.00649671
0.00601798
0.00614139
0.00665992
0.00569432
0.00770535
0.00800806
0.00769311
0.0082127
0.00837476
0.00836106
0.00832608
0.00829202
0.00828366
0.00830237
0.00833738
0.00836191
0.00838403
0.00840933
0.00842703
0.00842944
0.0084394
0.00820387
0.00830929
0.00813815
0.00803472
0.00793461
0.00784303
0.00801974
0.00755797
0.00807052
0.00800156
0.00806755
0.0078326
0.00831792
0.00843135
0.00812906
0.00806659
0.0082179
0.00821455
0.00822576
0.00822158
0.00823617
0.00823071
0.00824546
0.00824159
0.00824948
0.00824965
0.00824622
0.00824668
0.00820552
0.00824797
0.00820536
0.00823169
0.00825595
0.00827861
0.0071401
0.0073317
0.00812172
0.0067433
0.00686177
0.00695635
0.00705967
0.00635802
0.00645171
0.00663534
0.00654394
0.0060135
0.0060871
0.00612251
0.00620235
0.00590561
0.00595743
0.00600893
0.00607728
0.00581997
0.00589243
0.00595549
0.00600908
0.00579412
0.00586544
0.00593051
0.00574608
0.00582164
0.00590692
0.00602223
0.00591497
0.00576264
0.00580338
0.00577782
0.00579712
0.00585414
0.0067981
0.00736734
0.00695306
0.00628464
0.00591049
0.00601982
0.0064209
0.00541759
0.00787434
0.00805086
0.00763574
0.00819088
0.00829402
0.00833105
0.008226
0.00808736
0.008291
0.00832559
0.00835902
0.00837655
0.00840315
0.00842307
0.00842936
0.00827679
0.00824988
0.00826044
0.00809638
0.00800484
0.00791863
0.00754864
0.00800403
0.00793651
0.00803434
0.00799086
0.00809578
0.00800817
0.00833409
0.0084449
0.00840799
0.00821064
0.00814914
0.0082174
0.00821398
0.00822501
0.00822101
0.0082351
0.0082297
0.00824613
0.00824083
0.00825358
0.00825016
0.00825357
0.00825359
0.00825887
0.00825548
0.00827912
0.00826966
0.00814612
0.00819791
0.00717232
0.00738696
0.00730845
0.00726977
0.00675637
0.00685994
0.00694971
0.00705387
0.00625738
0.00648829
0.00665281
0.0065682
0.00614012
0.0061997
0.00634778
0.00629081
0.00605196
0.00608255
0.00610969
0.00614541
0.00600426
0.0060628
0.0060998
0.0061199
0.00599609
0.00606767
0.00611875
0.00589283
0.00602105
0.00613141
0.0062652
0.00614773
0.0058513
0.00581341
0.00587177
0.00596481
0.00583632
0.00654134
0.00722764
0.00675721
0.00617466
0.00587423
0.00596474
0.00630619
0.0046224
0.00782402
0.00775485
0.00742726
0.00809429
0.00825084
0.00822845
0.00795332
0.00828055
0.00831216
0.00834895
0.00837488
0.00839595
0.0084198
0.0083896
0.00805035
0.00830535
0.00820205
0.00805688
0.00797961
0.00790571
0.00730303
0.00798823
0.00808165
0.00800382
0.00799099
0.0081231
0.00819782
0.00834308
0.00845096
0.00845851
0.00833699
0.00821137
0.00815231
0.00821741
0.00821413
0.00822501
0.00822109
0.00823462
0.00822937
0.00824523
0.00824007
0.00825508
0.00825088
0.0082577
0.00825717
0.00826296
0.00825944
0.00827957
0.00827217
0.00755897
0.00745455
0.00751359
0.00750553
0.00761679
0.00716996
0.0072707
0.00733387
0.00673912
0.00683076
0.00691993
0.00702918
0.00640554
0.00647191
0.00663666
0.00654918
0.0060636
0.00610895
0.00632294
0.00627036
0.00612801
0.00612826
0.0061325
0.00615793
0.00616015
0.00617804
0.00617569
0.00616357
0.00620923
0.00624789
0.00626329
0.00611653
0.00627906
0.00635405
0.00650445
0.00640884
0.00602352
0.00590079
0.0060443
0.00621213
0.00590203
0.00643188
0.00691484
0.00653904
0.00609569
0.00591994
0.00601631
0.00622339
0.00378
0.00763371
0.00652747
0.00713976
0.00803557
0.00821007
0.008132
0.00826932
0.0082983
0.00833641
0.00836576
0.00838905
0.00840788
0.00825237
0.00799164
0.00828387
0.00813711
0.0080206
0.00793784
0.00789499
0.00771708
0.00796845
0.00804278
0.00797581
0.0079956
0.00813635
0.00825125
0.00836983
0.00845263
0.00845562
0.008457
0.0081063
0.00815594
0.00804087
0.00821449
0.00821929
0.00821649
0.00822615
0.00822252
0.00823515
0.00823015
0.00824608
0.00824073
0.00825533
0.00825155
0.00826169
0.00825913
0.00826739
0.00826422
0.00819267
0.00827807
0.00740331
0.0074687
0.00754288
0.00757778
0.00771394
0.00714363
0.00724036
0.00729898
0.0066992
0.00677885
0.00687201
0.00698607
0.00637918
0.00644138
0.00660318
0.00651427
0.00618432
0.0062184
0.00631281
0.00626428
0.00614896
0.00613635
0.00613617
0.00615998
0.00626425
0.00624792
0.00622469
0.00620542
0.00639037
0.00639247
0.00638856
0.00639785
0.00656267
0.00655651
0.00674326
0.00667475
0.00626414
0.00606497
0.00630431
0.00650903
0.00607018
0.00633008
0.00669522
0.00641303
0.00614316
0.00613
0.00632887
0.00626092
0.00434441
0.00719557
0.00653485
0.00686173
0.00797843
0.00817935
0.00825776
0.00828163
0.00832296
0.00835449
0.00838062
0.00839907
0.00804668
0.00808582
0.00821657
0.00807155
0.00798813
0.00789405
0.00786322
0.00797923
0.00783302
0.00800516
0.00795117
0.00800142
0.00814181
0.00825389
0.00838714
0.00845094
0.0084526
0.00845382
0.00839911
0.00821043
0.00819731
0.00813234