/*--------------------------------*- C++ -*----------------------------------*\
  =========                 |
  \\      /  F ield         | OpenFOAM: The Open Source CFD Toolbox
   \\    /   O peration     | Website:  https://openfoam.org
    \\  /    A nd           | Version:  dev
     \\/     M anipulation  |
\*---------------------------------------------------------------------------*/
FoamFile
{
    version     2.0;
    format      ascii;
    class       volScalarField;
    location    "2500";
    object      rho;
}
// * * * * * * * * * * * * * * * * * * * * * * * * * * * * * * * * * * * * * //

dimensions      [1 -3 0 0 0 0 0];

internalField   nonuniform List<scalar> 
9456
(
1.17181
1.17167
1.17176
1.17164
1.17142
1.17177
1.17166
1.17128
1.17142
1.17185
1.17174
1.17122
1.17116
1.17149
1.17188
1.17174
1.17123
1.17099
1.17114
1.17158
1.17188
1.17177
1.17123
1.17087
1.17092
1.17125
1.17162
1.17191
1.17177
1.17125
1.17086
1.17073
1.17094
1.17137
1.17166
1.17192
1.17179
1.17132
1.1709
1.17066
1.17072
1.17107
1.17144
1.17169
1.17193
1.17181
1.17134
1.1709
1.17058
1.17057
1.17077
1.17117
1.17147
1.17173
1.17193
1.17178
1.1714
1.171
1.17059
1.17046
1.17059
1.17091
1.17124
1.17152
1.17175
1.17195
1.17178
1.17147
1.17101
1.17056
1.17035
1.1704
1.17068
1.17101
1.1713
1.17155
1.17175
1.17195
1.1718
1.17144
1.17103
1.17065
1.17031
1.17029
1.17042
1.17079
1.17108
1.17136
1.17157
1.17177
1.17196
1.1718
1.17144
1.17106
1.17067
1.17028
1.17019
1.17027
1.17053
1.1709
1.17115
1.17139
1.17161
1.17178
1.17196
1.1718
1.1715
1.1711
1.17072
1.17032
1.17008
1.17015
1.17036
1.17064
1.17097
1.17121
1.17143
1.17162
1.17179
1.17197
1.1718
1.17151
1.17114
1.17082
1.17034
1.17005
1.17001
1.17017
1.17046
1.17075
1.17106
1.17124
1.17145
1.17162
1.1718
1.17196
1.1718
1.17152
1.17113
1.17075
1.17033
1.17006
1.16989
1.16999
1.17026
1.17053
1.17086
1.17106
1.17128
1.17148
1.17164
1.17181
1.17197
1.1718
1.17149
1.17117
1.1708
1.17037
1.17004
1.16983
1.16986
1.17005
1.17034
1.17064
1.1709
1.17109
1.17129
1.17147
1.17165
1.17181
1.17197
1.1718
1.1715
1.1712
1.17083
1.17041
1.17005
1.16981
1.16976
1.16987
1.17012
1.17041
1.17073
1.17096
1.17112
1.17131
1.17148
1.17165
1.17182
1.17197
1.17182
1.17151
1.17115
1.17084
1.17041
1.17006
1.16979
1.16968
1.16974
1.16998
1.17024
1.17051
1.17076
1.17097
1.17116
1.17132
1.17149
1.17167
1.17182
1.17198
1.1718
1.17145
1.17112
1.17085
1.17042
1.17006
1.16978
1.16964
1.16964
1.16978
1.17006
1.17034
1.17059
1.1708
1.17099
1.17118
1.17136
1.17151
1.17167
1.17181
1.17197
1.17183
1.1715
1.17111
1.17082
1.17042
1.17011
1.16976
1.16958
1.16955
1.16966
1.16991
1.17017
1.17041
1.17065
1.17083
1.17102
1.17119
1.17135
1.17152
1.17166
1.17182
1.17197
1.17178
1.17149
1.17108
1.17081
1.17045
1.17007
1.16972
1.16953
1.16946
1.16952
1.16971
1.17
1.17025
1.17048
1.1707
1.17085
1.17104
1.17121
1.17135
1.17151
1.17167
1.17182
1.17197
1.1718
1.17149
1.17105
1.17079
1.17048
1.17006
1.16973
1.1695
1.16941
1.16941
1.16954
1.16978
1.17009
1.17032
1.17053
1.17071
1.17087
1.17105
1.17121
1.17137
1.17152
1.17166
1.17182
1.17198
1.17176
1.1714
1.17106
1.17073
1.17045
1.17001
1.1697
1.16947
1.16933
1.16932
1.16942
1.16962
1.16991
1.17017
1.17037
1.17056
1.17073
1.1709
1.17106
1.17122
1.17137
1.17153
1.17167
1.17182
1.17197
1.17175
1.17141
1.17103
1.17071
1.17048
1.17
1.16969
1.16944
1.16928
1.16924
1.16932
1.16948
1.16973
1.17002
1.17023
1.17041
1.17059
1.17075
1.17092
1.17107
1.17122
1.17137
1.17152
1.17167
1.17182
1.17198
1.17173
1.17137
1.1711
1.17067
1.17038
1.17003
1.16967
1.16941
1.16925
1.16917
1.16921
1.16936
1.16957
1.16983
1.17008
1.17028
1.17044
1.17061
1.17078
1.17094
1.17108
1.17122
1.17138
1.17152
1.17167
1.17182
1.17197
1.17176
1.17133
1.17102
1.17059
1.17036
1.17
1.1696
1.16939
1.16921
1.16909
1.16912
1.16923
1.16943
1.16966
1.16991
1.17013
1.17032
1.17047
1.17063
1.17079
1.17095
1.17109
1.17122
1.17137
1.17151
1.17167
1.17181
1.17197
1.17172
1.17127
1.17096
1.17059
1.17028
1.16996
1.16962
1.16935
1.16917
1.16904
1.16903
1.16912
1.16929
1.16952
1.16975
1.16998
1.17017
1.17034
1.1705
1.17065
1.1708
1.17094
1.17108
1.17122
1.17138
1.17151
1.17166
1.17182
1.17196
1.17169
1.17126
1.1709
1.17063
1.17024
1.16993
1.16961
1.16932
1.16912
1.16899
1.16894
1.16901
1.16917
1.16937
1.16962
1.16983
1.17002
1.1702
1.17034
1.17051
1.17064
1.17079
1.17093
1.17108
1.17122
1.17136
1.17151
1.17166
1.17181
1.17196
1.17171
1.17129
1.17087
1.1706
1.17017
1.16995
1.16961
1.16931
1.16908
1.16894
1.16888
1.16892
1.16904
1.16924
1.16946
1.16969
1.16989
1.17008
1.17022
1.17036
1.17051
1.17065
1.17079
1.17094
1.17108
1.17121
1.17136
1.1715
1.17165
1.17181
1.17196
1.1717
1.17121
1.17082
1.17057
1.17015
1.1699
1.16957
1.16929
1.16905
1.16889
1.16882
1.16883
1.16893
1.1691
1.16933
1.16954
1.16976
1.16994
1.17011
1.17025
1.17039
1.17054
1.17066
1.1708
1.17093
1.17108
1.17121
1.17135
1.1715
1.17164
1.17179
1.17196
1.17164
1.17118
1.17081
1.17048
1.17012
1.16986
1.16958
1.16926
1.16902
1.16884
1.16875
1.16874
1.16882
1.16898
1.1692
1.16941
1.16961
1.16979
1.16997
1.1701
1.17025
1.17039
1.17054
1.17065
1.1708
1.17093
1.17105
1.17119
1.17133
1.17149
1.17164
1.17179
1.17195
1.17162
1.17117
1.17079
1.17044
1.17013
1.16983
1.16955
1.16924
1.169
1.1688
1.1687
1.16868
1.16873
1.16886
1.16906
1.16928
1.16948
1.16967
1.16983
1.16998
1.17013
1.17027
1.17039
1.17052
1.17067
1.17078
1.17092
1.17105
1.17118
1.17133
1.17148
1.17163
1.17181
1.17203
1.17194
1.17165
1.17119
1.17077
1.17042
1.17014
1.16982
1.16954
1.16924
1.16898
1.16877
1.16865
1.1686
1.16864
1.16875
1.16892
1.16914
1.16937
1.16953
1.16971
1.16986
1.17
1.17014
1.17027
1.1704
1.17053
1.17065
1.17078
1.17092
1.17105
1.17118
1.17131
1.17147
1.17168
1.1716
1.17186
1.17171
1.17178
1.17203
1.17195
1.17162
1.1711
1.17072
1.17044
1.1701
1.16982
1.16952
1.16923
1.16896
1.16874
1.16859
1.16854
1.16856
1.16866
1.16881
1.16901
1.16921
1.16941
1.16957
1.16974
1.16988
1.17002
1.17014
1.17028
1.1704
1.17052
1.17065
1.17077
1.1709
1.17103
1.17117
1.17131
1.17152
1.17144
1.17162
1.17185
1.17168
1.17177
1.17203
1.17195
1.17163
1.17112
1.17075
1.17041
1.17007
1.16981
1.1695
1.16923
1.16896
1.16872
1.16855
1.16848
1.16849
1.16856
1.1687
1.16888
1.16908
1.16929
1.16945
1.16963
1.16976
1.16989
1.17002
1.17014
1.17026
1.1704
1.17053
1.17064
1.17076
1.17089
1.17102
1.17116
1.17136
1.17128
1.17153
1.17145
1.1716
1.17185
1.17169
1.17177
1.17203
1.17194
1.17159
1.17111
1.1707
1.17036
1.17009
1.1698
1.16951
1.16922
1.16895
1.16869
1.16852
1.16843
1.16841
1.16848
1.1686
1.16876
1.16896
1.16918
1.16934
1.1695
1.16965
1.16977
1.16991
1.17003
1.17016
1.17028
1.1704
1.17051
1.17063
1.17075
1.17087
1.17101
1.1712
1.17113
1.17136
1.17128
1.17152
1.17143
1.1716
1.17185
1.17168
1.17176
1.17203
1.17194
1.17158
1.1711
1.1707
1.17037
1.17008
1.1698
1.16951
1.16923
1.16895
1.16869
1.16849
1.16838
1.16835
1.16839
1.1685
1.16866
1.16884
1.16903
1.16922
1.16938
1.16952
1.16966
1.1698
1.16992
1.17004
1.17016
1.17027
1.17038
1.1705
1.17061
1.17073
1.17086
1.17105
1.17097
1.1712
1.17112
1.17135
1.17127
1.17151
1.17142
1.17159
1.17185
1.17167
1.17175
1.17203
1.17193
1.17157
1.17115
1.17075
1.17037
1.17009
1.16981
1.16953
1.16925
1.16895
1.16868
1.16847
1.16834
1.16829
1.16832
1.16839
1.16854
1.16873
1.16891
1.16911
1.16928
1.16941
1.16955
1.1697
1.16981
1.16993
1.17005
1.17015
1.17026
1.17037
1.17049
1.17059
1.17072
1.17089
1.17082
1.17104
1.17096
1.17118
1.1711
1.17134
1.17125
1.1715
1.17141
1.17158
1.17184
1.17166
1.17174
1.17203
1.17193
1.17157
1.17113
1.17075
1.17038
1.17011
1.16982
1.16955
1.16926
1.16896
1.16868
1.16846
1.16831
1.16824
1.16825
1.16831
1.16844
1.16861
1.1688
1.16898
1.16917
1.16932
1.16944
1.16958
1.16971
1.16982
1.16993
1.17004
1.17014
1.17024
1.17035
1.17048
1.17058
1.17074
1.17067
1.17088
1.17081
1.17102
1.17094
1.17117
1.17109
1.17132
1.17124
1.17148
1.17139
1.17156
1.17183
1.17164
1.17173
1.17203
1.17192
1.17157
1.17112
1.17079
1.17041
1.17013
1.16984
1.16957
1.16929
1.16899
1.1687
1.16845
1.16828
1.16819
1.16818
1.16823
1.16834
1.16851
1.16869
1.16887
1.16902
1.16919
1.16936
1.16947
1.1696
1.16971
1.16982
1.16993
1.17003
1.17013
1.17023
1.17033
1.17048
1.1706
1.17054
1.17073
1.17066
1.17087
1.17079
1.17101
1.17093
1.17115
1.17107
1.17131
1.17122
1.17147
1.17138
1.17155
1.17182
1.17163
1.17171
1.17202
1.17191
1.17158
1.17115
1.17079
1.17043
1.17014
1.16986
1.1696
1.16932
1.16902
1.16873
1.16846
1.16827
1.16816
1.16812
1.16816
1.16825
1.1684
1.16858
1.16876
1.16892
1.1691
1.16925
1.16937
1.1695
1.1696
1.16971
1.16982
1.16992
1.17001
1.17011
1.17021
1.1703
1.17047
1.1704
1.17059
1.17052
1.17072
1.17064
1.17085
1.17077
1.17099
1.17091
1.17113
1.17105
1.17129
1.1712
1.17145
1.17136
1.17153
1.17181
1.17161
1.1717
1.17202
1.17191
1.1716
1.17115
1.17082
1.17046
1.17017
1.16991
1.16964
1.16936
1.16907
1.16876
1.16847
1.16826
1.16813
1.16807
1.16809
1.16818
1.1683
1.16848
1.16866
1.16883
1.16899
1.16914
1.16927
1.16939
1.1695
1.16961
1.16971
1.16981
1.1699
1.17
1.1701
1.17019
1.17031
1.17026
1.17045
1.17038
1.17057
1.1705
1.1707
1.17062
1.17083
1.17075
1.17097
1.17088
1.17111
1.17103
1.17127
1.17118
1.17143
1.17134
1.17151
1.17179
1.17159
1.17168
1.17201
1.17189
1.17159
1.17114
1.17083
1.17047
1.1702
1.16994
1.16967
1.16941
1.1691
1.1688
1.1685
1.16826
1.1681
1.16803
1.16802
1.16809
1.16821
1.16838
1.16854
1.16872
1.16887
1.16904
1.16917
1.16929
1.16941
1.16951
1.16961
1.1697
1.1698
1.16989
1.16997
1.17005
1.17011
1.1703
1.17022
1.17043
1.17036
1.17055
1.17047
1.17067
1.1706
1.1708
1.17072
1.17094
1.17086
1.17109
1.171
1.17124
1.17115
1.17141
1.17131
1.17148
1.17177
1.17156
1.17165
1.17201
1.17188
1.17161
1.17115
1.17082
1.1705
1.17023
1.16998
1.16971
1.16945
1.16915
1.16885
1.16854
1.16827
1.16809
1.16799
1.16797
1.16803
1.16812
1.16826
1.16843
1.16861
1.16879
1.16893
1.16907
1.16919
1.1693
1.16941
1.16951
1.1696
1.16969
1.16977
1.16982
1.16982
1.16975
1.17003
1.16971
1.17028
1.17018
1.17039
1.1703
1.17052
1.17042
1.17064
1.17055
1.17077
1.17068
1.17091
1.17081
1.17106
1.17096
1.17121
1.17111
1.17138
1.17127
1.17145
1.17175
1.17153
1.17163
1.172
1.17187
1.17159
1.17116
1.17083
1.17055
1.17026
1.17002
1.16976
1.1695
1.1692
1.1689
1.16858
1.1683
1.16809
1.16796
1.16793
1.16795
1.16803
1.16815
1.16834
1.16852
1.16869
1.16883
1.16897
1.16909
1.1692
1.16931
1.16941
1.1695
1.16958
1.16962
1.16953
1.16911
1.16827
1.16894
1.16693
1.16931
1.16789
1.17016
1.1699
1.17029
1.17007
1.17042
1.17022
1.17056
1.17037
1.1707
1.17052
1.17085
1.17069
1.17101
1.17087
1.17117
1.17105
1.17134
1.17123
1.17142
1.17173
1.1715
1.17159
1.17199
1.17185
1.17159
1.17115
1.17083
1.17056
1.17029
1.17005
1.16981
1.16955
1.16926
1.16896
1.16864
1.16833
1.1681
1.16795
1.16788
1.16789
1.16796
1.16807
1.16824
1.16843
1.16859
1.16873
1.16887
1.169
1.16911
1.16921
1.16931
1.1694
1.16946
1.16938
1.16882
1.16715
1.16401
1.1635
1.1603
1.16503
1.16005
1.16591
1.16153
1.16958
1.1684
1.16981
1.16881
1.17001
1.16918
1.17019
1.16946
1.17041
1.16979
1.17066
1.17015
1.17088
1.17052
1.17109
1.17087
1.17129
1.17114
1.17137
1.1717
1.17145
1.17154
1.17198
1.17182
1.17152
1.17108
1.1708
1.17056
1.17033
1.1701
1.16986
1.1696
1.16932
1.16902
1.1687
1.16838
1.16811
1.16794
1.16785
1.16784
1.1679
1.16801
1.16815
1.16832
1.16848
1.16863
1.16877
1.1689
1.16902
1.16913
1.16921
1.16929
1.1693
1.16894
1.1673
1.163
1.15623
1.14734
1.15605
1.14814
1.15653
1.15066
1.15721
1.15127
1.16669
1.16247
1.16728
1.16334
1.1678
1.16436
1.16832
1.16524
1.169
1.16628
1.16971
1.16753
1.17033
1.16888
1.17084
1.17002
1.1712
1.17085
1.17128
1.17166
1.17138
1.17149
1.17197
1.1718
1.17146
1.17099
1.17072
1.17054
1.17034
1.17012
1.1699
1.16966
1.16938
1.16908
1.16876
1.16844
1.16814
1.16794
1.16783
1.1678
1.16783
1.16792
1.16805
1.16822
1.16839
1.16854
1.16868
1.1688
1.16892
1.16903
1.16913
1.16917
1.16905
1.16812
1.16476
1.15754
1.14723
1.13549
1.13323
1.12715
1.14489
1.13849
1.14515
1.13837
1.14472
1.1377
1.15773
1.15137
1.15834
1.1513
1.15922
1.15178
1.16061
1.15262
1.16289
1.15462
1.16536
1.15769
1.16771
1.16221
1.1697
1.16627
1.17091
1.16952
1.17107
1.17162
1.17125
1.17142
1.17196
1.17178
1.17089
1.17062
1.17046
1.17033
1.17015
1.16994
1.16972
1.16945
1.16915
1.16884
1.1685
1.16818
1.16795
1.16781
1.16776
1.16778
1.16785
1.16797
1.16813
1.16829
1.16844
1.16858
1.16871
1.16883
1.16893
1.16902
1.16903
1.16864
1.16675
1.16154
1.15227
1.13961
1.12753
1.11904
1.1206
1.11705
1.13182
1.12533
1.13067
1.12352
1.12854
1.12106
1.14384
1.13621
1.14314
1.13452
1.14311
1.13353
1.14407
1.13311
1.14686
1.1342
1.15122
1.1371
1.15802
1.14307
1.16494
1.15361
1.16963
1.16409
1.17031
1.1716
1.17092
1.17125
1.17143
1.17198
1.17181
1.17171
1.17057
1.1704
1.17028
1.17016
1.16997
1.16977
1.16952
1.16922
1.16891
1.16857
1.16823
1.16797
1.16781
1.16773
1.16772
1.16779
1.16789
1.16804
1.1682
1.16835
1.16849
1.16862
1.16873
1.16884
1.16891
1.16881
1.16791
1.16478
1.15804
1.14702
1.13384
1.12506
1.11959
1.11518
1.11711
1.11424
1.1144
1.1182
1.11532
1.11568
1.11271
1.11234
1.10957
1.12578
1.11761
1.1233
1.11401
1.12176
1.11094
1.12139
1.10868
1.12343
1.10791
1.1268
1.1105
1.13425
1.11531
1.14988
1.1257
1.16451
1.14639
1.15754
1.16974
1.16701
1.17143
1.17161
1.17147
1.17076
1.16882
1.16817
1.17104
1.17204
1.17193
1.17185
1.17173
1.1704
1.17026
1.17014
1.16999
1.16982
1.16958
1.1693
1.16898
1.16865
1.1683
1.16801
1.16781
1.1677
1.16769
1.16772
1.16782
1.16795
1.16811
1.16827
1.1684
1.16853
1.16865
1.16874
1.16878
1.16846
1.1668
1.16248
1.1547
1.14283
1.13134
1.1255
1.12195
1.1201
1.12332
1.1184
1.12346
1.11285
1.1148
1.11174
1.11199
1.1089
1.10927
1.10557
1.10614
1.1084
1.10562
1.10439
1.10134
1.10075
1.09678
1.0976
1.09226
1.09591
1.08833
1.09792
1.08599
1.11669
1.1059
1.09788
1.08909
1.13428
1.11882
1.10325
1.09537
1.10771
1.14803
1.16001
1.14497
1.1316
1.16134
1.17121
1.1716
1.17139
1.16968
1.16508
1.16284
1.17031
1.17204
1.17192
1.17181
1.17169
1.17028
1.17014
1.17
1.16985
1.16965
1.16937
1.16907
1.16873
1.16837
1.16805
1.16783
1.16769
1.16765
1.16767
1.16775
1.16787
1.16802
1.16818
1.16832
1.16845
1.16856
1.16865
1.16862
1.16795
1.16534
1.15996
1.15143
1.13958
1.13088
1.12662
1.12627
1.13597
1.1285
1.13635
1.1283
1.1348
1.11668
1.12206
1.11037
1.11266
1.10757
1.11044
1.10432
1.10801
1.10147
1.10232
1.09681
1.09777
1.09183
1.09269
1.0866
1.08735
1.08156
1.08193
1.08366
1.0793
1.07737
1.07738
1.09278
1.08456
1.07889
1.11633
1.10295
1.08637
1.08255
1.09156
1.12861
1.14642
1.12869
1.11314
1.14865
1.17082
1.17153
1.17117
1.167
1.15257
1.15711
1.16865
1.17204
1.1718
1.17192
1.17165
1.17019
1.17002
1.16988
1.16972
1.16946
1.16916
1.16881
1.16846
1.1681
1.16785
1.16769
1.16761
1.16762
1.16768
1.16779
1.16794
1.1681
1.16824
1.16836
1.16848
1.16856
1.16845
1.16731
1.16368
1.15736
1.14835
1.13755
1.13126
1.12863
1.13145
1.1447
1.15125
1.15498
1.14108
1.14674
1.14138
1.14765
1.12749
1.1345
1.11496
1.12081
1.11333
1.11987
1.11129
1.11894
1.10021
1.10482
1.09519
1.1004
1.08966
1.09459
1.08381
1.08831
1.07767
1.0787
1.08045
1.08325
1.07611
1.07494
1.07505
1.07577
1.07948
1.07545
1.07334
1.09938
1.08791
1.0759
1.07315
1.07904
1.11187
1.12971
1.11149
1.09718
1.13244
1.16986
1.17141
1.17067
1.16128
1.13686
1.14324
1.16501
1.17204
1.17178
1.17191
1.1716
1.1701
1.16991
1.16975
1.16954
1.16925
1.1689
1.16855
1.16816
1.16787
1.16769
1.16759
1.16757
1.16762
1.16772
1.16786
1.16801
1.16816
1.16828
1.1684
1.16847
1.16823
1.16654
1.16201
1.15494
1.14561
1.13659
1.13205
1.13093
1.13701
1.15193
1.1629
1.16108
1.16418
1.15313
1.15768
1.15433
1.15941
1.14154
1.14826
1.12702
1.13437
1.12697
1.13484
1.12656
1.13539
1.10809
1.11715
1.10301
1.11353
1.09658
1.10733
1.08627
1.09037
1.10054
1.07733
1.07978
1.08298
1.08683
1.07307
1.07343
1.07451
1.07663
1.07258
1.07124
1.0713
1.08529
1.0764
1.07011
1.06816
1.07081
1.09577
1.11274
1.09568
1.08337
1.11566
1.16774
1.17116
1.16952
1.15093
1.12044
1.12721
1.15786
1.17204
1.17175
1.1719
1.17148
1.16999
1.16978
1.16962
1.16935
1.16899
1.16864
1.16824
1.16792
1.1677
1.16757
1.16753
1.16757
1.16765
1.16778
1.16793
1.16808
1.16821
1.16832
1.16838
1.16799
1.16569
1.16037
1.15279
1.1435
1.13626
1.13306
1.13356
1.14205
1.15666
1.165
1.16832
1.16862
1.16693
1.16804
1.16304
1.16545
1.16416
1.16647
1.15543
1.16059
1.14214
1.1491
1.14346
1.15065
1.1444
1.15238
1.12443
1.13501
1.1196
1.13179
1.11216
1.12457
1.09122
1.09655
1.11376
1.10743
1.07958
1.0832
1.08733
1.0919
1.07197
1.07355
1.07613
1.07943
1.06948
1.06973
1.07072
1.0744
1.06893
1.06778
1.06616
1.06645
1.08238
1.09709
1.08251
1.07304
1.10003
1.16331
1.17061
1.16707
1.1359
1.10487
1.11176
1.14577
1.17204
1.17171
1.17189
1.17125
1.16986
1.16967
1.16945
1.1691
1.16873
1.16833
1.16798
1.16772
1.16757
1.1675
1.16752
1.16759
1.16771
1.16785
1.168
1.16813
1.16824
1.16828
1.16769
1.16479
1.15885
1.15079
1.14184
1.13641
1.13424
1.13646
1.14647
1.15949
1.16625
1.16906
1.16932
1.16942
1.16901
1.16924
1.16785
1.16861
1.16831
1.16894
1.16493
1.16709
1.15694
1.1616
1.15829
1.16257
1.15813
1.16276
1.14284
1.15158
1.13635
1.1463
1.11909
1.12554
1.13659
1.13061
1.09692
1.10226
1.11929
1.11351
1.08329
1.08758
1.09222
1.09719
1.07275
1.0756
1.07904
1.08296
1.06824
1.06952
1.07182
1.06741
1.06489
1.06674
1.06517
1.06453
1.07232
1.08388
1.07244
1.06619
1.08669
1.15519
1.16938
1.16188
1.12042
1.0913
1.09777
1.1305
1.17204
1.17162
1.17187
1.17071
1.16972
1.16953
1.16922
1.16883
1.16845
1.16805
1.16776
1.16757
1.16748
1.16747
1.16753
1.16764
1.16778
1.16792
1.16805
1.16817
1.16817
1.16731
1.16383
1.15746
1.1491
1.14091
1.13681
1.13562
1.1395
1.15033
1.16144
1.16703
1.1691
1.16956
1.16955
1.16955
1.16956
1.1695
1.16954
1.16926
1.16942
1.16936
1.16951
1.16852
1.16907
1.16557
1.16746
1.16575
1.16752
1.16435
1.16674
1.15432
1.16036
1.14576
1.15347
1.12493
1.1305
1.14065
1.13568
1.10247
1.10792
1.12303
1.11761
1.08724
1.09181
1.09661
1.10165
1.07477
1.07818
1.08192
1.08591
1.06822
1.07059
1.07337
1.06339
1.06291
1.06668
1.06488
1.06348
1.06543
1.07361
1.06533
1.06205
1.07604
1.14161
1.16661
1.15262
1.10587
1.08011
1.08574
1.11537
1.17204
1.17145
1.17183
1.16946
1.16961
1.16933
1.16893
1.16857
1.16815
1.16781
1.16758
1.16746
1.16743
1.16747
1.16757
1.1677
1.16785
1.16798
1.16808
1.16802
1.16681
1.16282
1.15621
1.14774
1.14044
1.13731
1.13708
1.14252
1.15357
1.16293
1.16756
1.16916
1.16956
1.16966
1.16965
1.16966
1.16966
1.16965
1.16966
1.16959
1.16963
1.16963
1.1697
1.16935
1.16952
1.16851
1.16905
1.16807
1.16878
1.16625
1.16781
1.15931
1.16352
1.1467
1.15103
1.15401
1.15732
1.12833
1.13346
1.1428
1.13831
1.10688
1.11221
1.12503
1.11985
1.09018
1.09471
1.09945
1.10438
1.07646
1.07983
1.08347
1.0874
1.06881
1.07128
1.07405
1.06124
1.06163
1.06674
1.06432
1.06286
1.06101
1.06607
1.06053
1.05965
1.06792
1.12581
1.16069
1.13755
1.09284
1.07114
1.07572
1.10108
1.17203
1.17103
1.17176
1.16655
1.16944
1.16906
1.16869
1.16826
1.16787
1.16761
1.16746
1.1674
1.16742
1.1675
1.16762
1.16776
1.16789
1.16798
1.16779
1.16611
1.16178
1.15506
1.14668
1.14027
1.13787
1.1387
1.14534
1.15616
1.16411
1.16794
1.16919
1.16954
1.16973
1.16969
1.16977
1.16976
1.16978
1.16978
1.16977
1.16978
1.16974
1.16976
1.1698
1.16985
1.1696
1.16971
1.16919
1.16944
1.16866
1.16913
1.16678
1.16814
1.15951
1.16191
1.16439
1.14785
1.15154
1.15472
1.15755
1.13009
1.13496
1.1439
1.13959
1.10947
1.11464
1.12597
1.12094
1.09162
1.09612
1.10084
1.10574
1.07708
1.08038
1.08398
1.0879
1.06889
1.07123
1.07372
1.05971
1.0605
1.06591
1.06244
1.06146
1.05822
1.06069
1.05721
1.05778
1.0618
1.1103
1.14995
1.12051
1.08147
1.06411
1.06752
1.08805
1.17203
1.17001
1.1716
1.16028
1.16918
1.16882
1.1684
1.16795
1.16765
1.16746
1.16737
1.16737
1.16744
1.16755
1.16768
1.1678
1.16784
1.16741
1.16521
1.1607
1.15401
1.14582
1.14032
1.13852
1.14039
1.14787
1.15816
1.16502
1.16821
1.1692
1.1695
1.16969
1.1698
1.16976
1.16984
1.16982
1.16987
1.16986
1.16988
1.16988
1.16988
1.16988
1.16992
1.16995
1.16978
1.16987
1.16944
1.16964
1.16887
1.1693
1.16695
1.16828
1.15992
1.16199
1.16542
1.16375
1.14818
1.15174
1.1549
1.15766
1.13086
1.13558
1.14429
1.14008
1.11078
1.11585
1.12625
1.12135
1.09215
1.09668
1.10144
1.10636
1.0765
1.07968
1.08333
1.08745
1.06761
1.06953
1.07185
1.05806
1.05842
1.06348
1.05913
1.0587
1.05601
1.05679
1.05464
1.05568
1.05726
1.09523
1.13356
1.104
1.07173
1.05868
1.06091
1.07637
1.17204
1.16758
1.17131
1.14907
1.16896
1.16855
1.16807
1.1677
1.16747
1.16736
1.16733
1.16738
1.16748
1.1676
1.16769
1.16761
1.16674
1.16415
1.15957
1.15295
1.14509
1.14047
1.13923
1.14208
1.15006
1.15969
1.1657
1.1684
1.1692
1.16946
1.16963
1.16981
1.16986
1.16984
1.1699
1.16988
1.16992
1.16991
1.16995
1.16994
1.16995
1.16995
1.17001
1.17003
1.1699
1.16996
1.16959
1.16978
1.16901
1.16942
1.16512
1.16602
1.16724
1.1679
1.16855
1.16004
1.16208
1.16367
1.14785
1.15137
1.15452
1.15732
1.13101
1.13558
1.14403
1.13993
1.11137
1.11637
1.12552
1.12095
1.09197
1.09676
1.10166
1.10659
1.07475
1.0783
1.08245
1.08703
1.06486
1.06684
1.06959
1.05538
1.05495
1.06001
1.05525
1.05478
1.05361
1.05379
1.05199
1.05262
1.05371
1.08157
1.11574
1.08856
1.06357
1.05441
1.05564
1.06636
1.17168
1.16262
1.16885
1.1327
1.1687
1.16822
1.16777
1.1675
1.16736
1.1673
1.16732
1.16741
1.16752
1.16755
1.16722
1.16581
1.163
1.15841
1.15191
1.14458
1.14077
1.13998
1.14366
1.15186
1.16084
1.1662
1.16852
1.16918
1.16941
1.16957
1.16974
1.16991
1.1699
1.16987
1.16992
1.16997
1.16994
1.17
1.16999
1.17003
1.17002
1.17004
1.17003
1.17011
1.17012
1.17
1.17007
1.16968
1.16987
1.16905
1.1695
1.16474
1.16562
1.16682
1.16775
1.1684
1.15977
1.16188
1.16312
1.14646
1.15005
1.15333
1.15627
1.12998
1.13433
1.14259
1.13853
1.11149
1.11628
1.12241
1.11832
1.09183
1.09665
1.10133
1.10581
1.07314
1.07732
1.08183
1.08638
1.06174
1.06441
1.06786
1.05143
1.05065
1.05669
1.05173
1.05069
1.05041
1.05092
1.04886
1.04847
1.05057
1.0698
1.099
1.07517
1.05701
1.05081
1.0512
1.0583
1.15615
1.14832
1.1406
1.11145
1.16837
1.16791
1.16754
1.16736
1.16728
1.16728
1.16735
1.16742
1.16733
1.16655
1.16473
1.16179
1.15724
1.15091
1.14424
1.14107
1.14075
1.14512
1.15329
1.16168
1.16657
1.16858
1.16914
1.16935
1.16952
1.16967
1.16985
1.16994
1.16995
1.16993
1.16997
1.17002
1.16999
1.17006
1.17004
1.1701
1.17008
1.17012
1.17011
1.17018
1.17019
1.17007
1.17015
1.1698
1.16995
1.16874
1.16917
1.1695
1.16406
1.16486
1.16633
1.16743
1.16822
1.1589
1.16118
1.16217
1.1435
1.14745
1.15111
1.15443
1.12656
1.13079
1.13932
1.13506
1.11011
1.11425
1.11533
1.11156
1.09074
1.09475
1.09839
1.10173
1.07181
1.07586
1.07968
1.08303
1.05915
1.06221
1.06544
1.04691
1.04659
1.05365
1.04781
1.04684
1.04645
1.04785
1.04495
1.04386
1.04741
1.06052
1.08251
1.06359
1.0515
1.04715
1.04707
1.05216
1.15629
1.11484
1.11346
1.08838
1.16803
1.16763
1.16738
1.16727
1.16725
1.16729
1.16732
1.16697
1.16571
1.16356
1.16053
1.15607
1.14995
1.14402
1.14141
1.14158
1.14644
1.15443
1.1623
1.16683
1.16862
1.1691
1.1693
1.16946
1.16961
1.16977
1.16992
1.16999
1.17
1.16996
1.17002
1.17007
1.17005
1.17012
1.1701
1.17016
1.17014
1.17019
1.17017
1.17025
1.17026
1.17013
1.17021
1.16985
1.17006
1.16862
1.16906
1.16928
1.16961
1.16302
1.16388
1.16562
1.16697
1.16795
1.15738
1.15995
1.16081
1.13875
1.14346
1.14784
1.15178
1.11949
1.12403
1.13379
1.12884
1.10492
1.10814
1.10394
1.09988
1.08583
1.08811
1.09006
1.09194
1.06843
1.07091
1.07274
1.07389
1.05586
1.05774
1.05901
1.04243
1.04193
1.04855
1.04136
1.04166
1.04164
1.04398
1.04095
1.04015
1.04357
1.05285
1.06724
1.05426
1.04711
1.04364
1.04414
1.04741
1.1602
1.0925
1.11417
1.07218
1.16774
1.16743
1.16727
1.16722
1.16724
1.16718
1.16654
1.16476
1.16234
1.15925
1.15487
1.14902
1.14384
1.14178
1.14246
1.14767
1.15537
1.1628
1.16702
1.16863
1.16906
1.16925
1.1694
1.16954
1.1697
1.16985
1.17
1.17001
1.16995
1.17003
1.17003
1.17006
1.17012
1.17009
1.17018
1.17015
1.17022
1.1702
1.17025
1.17024
1.17032
1.17033
1.17024
1.17027
1.16986
1.17011
1.16839
1.16893
1.1692
1.16952
1.16172
1.16265
1.1647
1.16632
1.16754
1.15524
1.15824
1.15913
1.1325
1.13831
1.14368
1.14844
1.10877
1.11426
1.12634
1.12019
1.09405
1.09663
1.08977
1.08476
1.07451
1.07486
1.0753
1.07632
1.05957
1.05957
1.05923
1.05821
1.04866
1.04813
1.04691
1.03969
1.0396
1.04073
1.03944
1.03953
1.03995
1.04119
1.04054
1.0398
1.04204
1.04814
1.05693
1.04947
1.04504
1.04292
1.04433
1.04588
1.16709
1.08302
1.12028
1.06316
1.16748
1.16728
1.1672
1.16719
1.16705
1.16602
1.16379
1.1611
1.15796
1.15371
1.14817
1.14383
1.1422
1.1434
1.14885
1.15623
1.16323
1.16717
1.16863
1.16901
1.16919
1.16933
1.16948
1.16962
1.16977
1.16991
1.17003
1.17003
1.17
1.17007
1.17007
1.17011
1.17017
1.17014
1.17023
1.1702
1.17028
1.17025
1.17032
1.1703
1.1704
1.1704
1.1703
1.17037
1.16971
1.16996
1.17013
1.16807
1.16877
1.16906
1.16944
1.16014
1.16113
1.16353
1.16546
1.16698
1.15258
1.15612
1.15712
1.12539
1.1324
1.13886
1.14454
1.09584
1.10279
1.11782
1.11021
1.0781
1.08088
1.07477
1.06855
1.05746
1.05687
1.05668
1.05784
1.04566
1.04426
1.04291
1.04158
1.03992
1.03847
1.03732
1.04006
1.04108
1.03907
1.0419
1.04216
1.0405
1.04154
1.04209
1.04175
1.04255
1.04679
1.05191
1.04784
1.0453
1.04421
1.04553
1.0462
1.16903
1.07586
1.12086
1.05657
1.16731
1.16719
1.16716
1.1669
1.16557
1.1628
1.15988
1.15667
1.15249
1.14731
1.14388
1.14268
1.14443
1.15001
1.15705
1.16366
1.1673
1.16861
1.16896
1.16913
1.16927
1.16941
1.16955
1.16969
1.16983
1.16997
1.17007
1.17006
1.17002
1.17011
1.17011
1.17014
1.17021
1.17018
1.17028
1.17025
1.17033
1.17031
1.17038
1.17036
1.17045
1.17045
1.17034
1.17042
1.16967
1.16991
1.17006
1.17022
1.16761
1.16853
1.16889
1.16935
1.15821
1.15924
1.16208
1.16437
1.16623
1.14944
1.15362
1.15468
1.11771
1.12589
1.1334
1.14
1.08213
1.09069
1.10874
1.09964
1.06014
1.06368
1.05886
1.05186
1.04068
1.04015
1.03989
1.04075
1.03619
1.03528
1.03446
1.03383
1.03861
1.03834
1.03758
1.04356
1.04406
1.04174
1.06077
1.06299
1.04403
1.04306
1.0446
1.0441
1.04578
1.04706
1.04961
1.0482
1.04682
1.04679
1.04859
1.04788
1.14114
1.0696
1.09012
1.05276
1.1672
1.16713
1.1668
1.1651
1.16195
1.1587
1.15542
1.15132
1.14668
1.14403
1.14326
1.14555
1.15118
1.15789
1.16409
1.16742
1.16859
1.16891
1.16907
1.1692
1.16934
1.16947
1.16961
1.16974
1.16989
1.17001
1.17005
1.1701
1.17009
1.17015
1.17014
1.17018
1.17025
1.17022
1.17032
1.17029
1.17038
1.17035
1.17043
1.17041
1.17048
1.17051
1.17033
1.17021
1.17041
1.17046
1.1696
1.16989
1.17007
1.16702
1.16823
1.16868
1.16922
1.15582
1.15698
1.16037
1.16307
1.16528
1.14571
1.15064
1.15166
1.10876
1.11824
1.12685
1.13447
1.06698
1.07708
1.09832
1.08761
1.04324
1.04692
1.04078
1.03677
1.03328
1.0329
1.03247
1.03251
1.03657
1.03569
1.03405
1.03358
1.04127
1.05853
1.05595
1.06453
1.06386
1.06014
1.08339
1.08425
1.06501
1.04573
1.06537
1.0638
1.06574
1.04911
1.04872
1.04827
1.05025
1.0663
1.06698
1.05071
1.16422
1.06094
1.08059
1.05069
1.16712
1.16674
1.16482
1.16116
1.15766
1.15424
1.15023
1.14628
1.14425
1.14391
1.14674
1.15237
1.15874
1.16453
1.16755
1.16857
1.16885
1.16901
1.16914
1.16927
1.1694
1.16953
1.16966
1.16979
1.16993
1.17007
1.17007
1.17009
1.17002
1.17013
1.17012
1.17018
1.17017
1.17022
1.17029
1.17026
1.17037
1.17033
1.17043
1.1704
1.17049
1.17046
1.17057
1.17056
1.17021
1.17035
1.17042
1.17053
1.16951
1.16985
1.17005
1.16626
1.16784
1.16841
1.16906
1.15292
1.1543
1.15839
1.16157
1.16416
1.1411
1.14694
1.14789
1.09656
1.10792
1.11812
1.12715
1.04864
1.05924
1.0841
1.07115
1.03296
1.0344
1.03124
1.03068
1.03227
1.03191
1.03108
1.03094
1.05464
1.05394
1.05232
1.0518
1.05816
1.07979
1.07872
1.08631
1.08595
1.08243
1.11372
1.1143
1.08745
1.06309
1.08799
1.08677
1.08813
1.04884
1.04887
1.04991
1.06799
1.08845
1.08896
1.06708
1.16839
1.05524
1.08859
1.05042
1.16674
1.16466
1.1606
1.1567
1.15322
1.14933
1.146
1.14452
1.14471
1.14802
1.15359
1.15966
1.16499
1.16767
1.16854
1.16878
1.16893
1.16907
1.16919
1.16932
1.16945
1.16958
1.1697
1.16983
1.16997
1.17012
1.17009
1.17014
1.17004
1.17016
1.17021
1.1702
1.17025
1.17033
1.17029
1.17041
1.17037
1.17047
1.17044
1.17053
1.17051
1.1706
1.17059
1.17021
1.17035
1.17044
1.17058
1.17046
1.17053
1.16939
1.1698
1.17003
1.1653
1.16733
1.16806
1.16887
1.1493
1.15097
1.15605
1.15983
1.16284
1.1351
1.14221
1.14298
1.07836
1.09271
1.10565
1.11693
1.03369
1.03892
1.06349
1.04912
1.03026
1.02986
1.02907
1.02953
1.05072
1.04994
1.04895
1.0479
1.07731
1.07642
1.0752
1.0742
1.08116
1.11132
1.11061
1.11569
1.11544
1.11301
1.14472
1.14494
1.11652
1.08753
1.11704
1.11609
1.11732
1.05443
1.07044
1.05032
1.05287
1.08974
1.11751
1.11782
1.08965
1.13136
1.05359
1.07542
1.05002
1.16471
1.16023
1.15595
1.15226
1.14855
1.14598
1.14487
1.14566
1.14938
1.15486
1.16063
1.16546
1.1678
1.16851
1.16873
1.16886
1.16899
1.16912
1.16924
1.16936
1.16949
1.16962
1.16974
1.16986
1.17
1.17016
1.17013
1.17011
1.17018
1.17006
1.17024
1.17022
1.17028
1.17037
1.17032
1.17044
1.17041
1.17052
1.17048
1.17058
1.17055
1.17065
1.17059
1.17066
1.1702
1.17035
1.17047
1.17055
1.16924
1.16973
1.16999
1.16408
1.16663
1.16756
1.16861
1.1445
1.14649
1.15308
1.15775
1.1613
1.12681
1.13583
1.13627
1.05308
1.07091
1.08705
1.1028
1.02887
1.02956
1.03929
1.03261
1.03197
1.02911
1.04327
1.04444
1.07308
1.07225
1.07126
1.04373
1.07018
1.10963
1.10899
1.1081
1.10734
1.11223
1.14372
1.14343
1.14553
1.14537
1.14436
1.14593
1.11691
1.14622
1.14576
1.14639
1.07025
1.09069
1.04985
1.06942
1.11834
1.14656
1.14675
1.11832
1.13156
1.05275
1.06303
1.05101
1.16022
1.15539
1.1515
1.14802
1.14604
1.14534
1.14674
1.1508
1.15617
1.16165
1.16593
1.16791
1.16849
1.16867
1.16879
1.16892
1.16904
1.16916
1.16928
1.1694
1.16952
1.16965
1.16976
1.16988
1.17002
1.17007
1.17021
1.17018
1.17015
1.17012
1.17027
1.17025
1.17031
1.1704
1.17036
1.17048
1.17044
1.17056
1.17052
1.17063
1.17059
1.17068
1.17063
1.17069
1.17061
1.17069
1.17018
1.17034
1.17048
1.17057
1.16903
1.16962
1.16993
1.16258
1.16565
1.16686
1.16827
1.13784
1.14032
1.1491
1.15508
1.15948
1.11516
1.12694
1.12699
1.03292
1.04315
1.06169
1.08166
1.02854
1.02759
1.02852
1.02763
1.04492
1.03875
1.06575
1.06703
1.10654
1.10598
1.10526
1.06849
1.10438
1.143
1.14279
1.14235
1.14212
1.14413
1.14626
1.09105
1.11892
1.05388
1.07193
1.09116
1.14695
1.14701
1.1054
1.05108
1.05673
1.04993
1.1552
1.15093
1.14773
1.14617
1.14591
1.14793
1.15228
1.1575
1.1627
1.16637
1.168
1.16846
1.16862
1.16873
1.16884