/*--------------------------------*- C++ -*----------------------------------*\
  =========                 |
  \\      /  F ield         | OpenFOAM: The Open Source CFD Toolbox
   \\    /   O peration     | Website:  https://openfoam.org
    \\  /    A nd           | Version:  dev
     \\/     M anipulation  |
\*---------------------------------------------------------------------------*/
FoamFile
{
    version     2.0;
    format      ascii;
    class       volScalarField;
    location    "2500";
    object      T;
}
// * * * * * * * * * * * * * * * * * * * * * * * * * * * * * * * * * * * * * //

dimensions      [0 0 0 1 0 0 0];

internalField   nonuniform List<scalar> 
9456
(
300.075
300.109
300.088
300.116
300.173
300.084
300.112
300.209
300.175
300.065
300.09
300.223
300.239
300.156
300.057
300.09
300.221
300.284
300.245
300.134
300.057
300.08
300.22
300.313
300.3
300.217
300.123
300.048
300.08
300.214
300.315
300.348
300.294
300.187
300.113
300.046
300.074
300.194
300.305
300.367
300.351
300.262
300.169
300.105
300.044
300.069
300.189
300.303
300.386
300.39
300.339
300.237
300.161
300.094
300.043
300.074
300.174
300.278
300.383
300.417
300.385
300.303
300.219
300.149
300.089
300.039
300.074
300.156
300.273
300.391
300.443
300.432
300.36
300.276
300.204
300.14
300.089
300.039
300.07
300.162
300.268
300.367
300.454
300.46
300.426
300.332
300.259
300.189
300.135
300.084
300.036
300.07
300.161
300.258
300.36
300.461
300.486
300.465
300.399
300.305
300.241
300.18
300.125
300.082
300.037
300.069
300.146
300.249
300.347
300.45
300.513
300.496
300.442
300.372
300.286
300.226
300.169
300.123
300.079
300.034
300.067
300.143
300.237
300.32
300.445
300.518
300.529
300.489
300.417
300.343
300.264
300.219
300.164
300.121
300.076
300.036
300.065
300.139
300.24
300.337
300.447
300.515
300.559
300.535
300.468
300.399
300.314
300.263
300.209
300.158
300.118
300.073
300.033
300.066
300.145
300.228
300.324
300.434
300.521
300.575
300.568
300.519
300.445
300.369
300.305
300.256
300.206
300.161
300.115
300.073
300.034
300.066
300.143
300.221
300.317
300.425
300.517
300.58
300.594
300.566
300.501
300.427
300.346
300.29
300.247
300.2
300.156
300.114
300.071
300.033
300.059
300.14
300.231
300.313
300.424
300.514
300.583
300.612
300.597
300.538
300.472
300.403
300.338
300.287
300.237
300.197
300.154
300.11
300.071
300.032
300.065
300.154
300.24
300.31
300.421
300.512
300.587
300.623
300.624
300.587
300.516
300.445
300.383
300.328
300.281
300.232
300.188
300.15
300.111
300.073
300.034
300.056
300.142
300.242
300.317
300.42
300.501
300.591
300.639
300.647
300.619
300.555
300.488
300.428
300.368
300.32
300.273
300.23
300.19
300.148
300.111
300.072
300.033
300.067
300.144
300.247
300.318
300.41
300.509
300.599
300.649
300.667
300.653
300.606
300.531
300.469
300.409
300.355
300.316
300.268
300.225
300.189
300.149
300.11
300.071
300.034
300.062
300.142
300.255
300.321
300.404
300.513
300.598
300.658
300.681
300.681
300.649
300.587
300.508
300.449
300.398
300.351
300.31
300.266
300.224
300.184
300.146
300.111
300.071
300.032
300.07
300.165
300.251
300.336
300.409
300.522
300.603
300.665
300.699
300.702
300.677
300.628
300.555
300.489
300.437
300.389
300.346
300.303
300.263
300.223
300.186
300.145
300.109
300.072
300.033
300.073
300.162
300.258
300.341
300.401
300.525
300.607
300.671
300.712
300.722
300.703
300.663
300.599
300.526
300.471
300.426
300.382
300.341
300.298
300.26
300.223
300.185
300.147
300.109
300.071
300.032
300.078
300.171
300.241
300.351
300.427
300.518
300.61
300.677
300.719
300.74
300.732
300.693
300.641
300.573
300.51
300.459
300.418
300.377
300.333
300.294
300.259
300.222
300.182
300.148
300.109
300.072
300.035
300.07
300.18
300.261
300.371
300.432
300.523
300.626
300.682
300.73
300.761
300.753
300.727
300.676
300.616
300.553
300.497
300.449
300.412
300.372
300.33
300.291
300.256
300.222
300.184
300.149
300.111
300.073
300.035
300.078
300.194
300.276
300.37
300.451
300.533
300.62
300.693
300.74
300.772
300.775
300.754
300.711
300.651
300.593
300.535
300.486
300.445
300.404
300.367
300.328
300.293
300.259
300.222
300.183
300.15
300.112
300.073
300.035
300.086
300.197
300.29
300.359
300.462
300.54
300.623
300.7
300.75
300.786
300.797
300.78
300.741
300.691
300.627
300.573
300.525
300.48
300.443
300.402
300.367
300.331
300.295
300.258
300.223
300.187
300.15
300.113
300.073
300.036
300.079
300.187
300.298
300.368
300.479
300.534
300.623
300.7
300.76
300.798
300.814
300.805
300.774
300.722
300.668
300.608
300.557
300.51
300.475
300.438
300.401
300.365
300.33
300.293
300.257
300.224
300.188
300.152
300.114
300.075
300.036
300.081
300.208
300.309
300.374
300.482
300.547
300.632
300.706
300.768
300.809
300.829
300.826
300.801
300.758
300.701
300.646
300.59
300.545
300.503
300.467
300.432
300.395
300.364
300.329
300.295
300.258
300.224
300.189
300.153
300.117
300.078
300.036
300.097
300.216
300.312
300.396
300.489
300.556
300.629
300.713
300.775
300.821
300.846
300.848
300.828
300.79
300.732
300.68
300.629
300.582
300.538
300.503
300.467
300.432
300.395
300.365
300.329
300.294
300.264
300.229
300.194
300.156
300.118
300.079
300.038
300.1
300.218
300.316
300.405
300.485
300.563
300.635
300.718
300.779
300.831
300.859
300.865
300.851
300.818
300.767
300.713
300.66
300.613
300.572
300.534
300.496
300.463
300.431
300.398
300.362
300.333
300.299
300.264
300.232
300.196
300.159
300.12
300.075
300.018
300.041
300.092
300.212
300.32
300.411
300.482
300.566
300.639
300.717
300.784
300.839
300.871
300.883
300.873
300.845
300.803
300.747
300.689
300.648
300.602
300.565
300.53
300.494
300.461
300.429
300.397
300.367
300.334
300.299
300.266
300.233
300.199
300.16
300.106
300.127
300.062
300.1
300.083
300.018
300.04
300.1
300.233
300.332
300.403
300.492
300.566
300.642
300.717
300.788
300.846
300.885
300.898
300.893
300.87
300.832
300.781
300.73
300.678
300.637
300.595
300.56
300.525
300.493
300.459
300.43
300.397
300.366
300.335
300.302
300.27
300.236
300.2
300.147
300.167
300.123
300.063
300.106
300.085
300.018
300.04
300.096
300.227
300.322
300.412
300.498
300.567
300.648
300.718
300.788
300.85
300.894
300.912
300.912
300.894
300.859
300.812
300.761
300.709
300.667
300.623
300.59
300.556
300.523
300.493
300.463
300.428
300.397
300.369
300.337
300.306
300.273
300.238
300.187
300.207
300.143
300.165
300.126
300.064
300.105
300.085
300.019
300.041
300.106
300.23
300.335
300.423
300.494
300.569
300.645
300.718
300.79
300.856
300.902
300.926
300.93
300.914
300.882
300.842
300.793
300.737
300.696
300.656
300.616
300.586
300.553
300.522
300.49
300.459
300.43
300.401
300.372
300.342
300.31
300.276
300.227
300.247
300.186
300.207
300.148
300.169
300.128
300.065
300.108
300.086
300.019
300.041
300.109
300.231
300.335
300.419
300.494
300.569
300.643
300.715
300.789
300.856
300.908
300.938
300.946
300.937
300.907
300.869
300.821
300.774
300.725
300.686
300.65
300.614
300.58
300.549
300.519
300.489
300.461
300.434
300.403
300.377
300.346
300.313
300.267
300.286
300.228
300.248
300.19
300.211
300.15
300.172
300.13
300.065
300.11
300.089
300.018
300.043
300.11
300.218
300.322
300.419
300.492
300.565
300.638
300.711
300.787
300.857
300.914
300.947
300.96
300.954
300.936
300.897
300.851
300.803
300.753
300.709
300.676
300.643
300.605
300.576
300.547
300.518
300.49
300.465
300.438
300.406
300.381
300.349
300.305
300.324
300.269
300.289
300.232
300.253
300.194
300.215
300.153
300.175
300.133
300.067
300.113
300.092
300.019
300.044
300.11
300.224
300.32
300.416
300.487
300.56
300.632
300.706
300.785
300.856
300.915
300.954
300.973
300.971
300.956
300.923
300.881
300.833
300.786
300.738
300.701
300.67
300.633
300.603
300.575
300.546
300.519
300.494
300.468
300.442
300.409
300.384
300.343
300.36
300.308
300.327
300.273
300.293
300.236
300.257
300.197
300.219
300.156
300.179
300.137
300.069
300.116
300.095
300.019
300.046
300.108
300.223
300.31
300.408
300.481
300.556
300.624
300.699
300.777
300.853
300.916
300.961
300.984
300.989
300.975
300.948
300.905
300.861
300.813
300.775
300.732
300.691
300.661
300.63
300.602
300.574
300.547
300.522
300.497
300.472
300.447
300.409
300.378
300.395
300.346
300.364
300.312
300.331
300.277
300.297
300.24
300.261
300.202
300.224
300.16
300.184
300.141
300.072
300.12
300.098
300.02
300.048
300.105
300.217
300.308
300.402
300.478
300.549
300.617
300.69
300.767
300.844
300.913
300.964
300.993
301.003
300.992
300.97
300.934
300.888
300.84
300.801
300.756
300.718
300.687
300.656
300.628
300.601
300.575
300.55
300.526
300.501
300.476
300.454
300.413
300.43
300.382
300.399
300.35
300.368
300.317
300.336
300.282
300.302
300.245
300.266
300.206
300.229
300.165
300.188
300.145
300.075
300.124
300.103
300.021
300.05
300.1
300.215
300.301
300.393
300.469
300.536
300.608
300.679
300.755
300.835
300.909
300.966
301
301.014
301.01
300.989
300.958
300.913
300.868
300.824
300.784
300.745
300.713
300.681
300.654
300.628
300.602
300.578
300.554
300.53
300.505
300.483
300.451
300.463
300.417
300.434
300.386
300.404
300.355
300.373
300.322
300.341
300.287
300.308
300.251
300.272
300.212
300.234
300.17
300.194
300.15
300.079
300.13
300.108
300.023
300.053
300.102
300.217
300.298
300.391
300.46
300.527
300.599
300.666
300.745
300.823
300.901
300.965
301.005
301.024
301.027
301.012
300.98
300.938
300.896
300.85
300.813
300.771
300.739
300.707
300.678
300.653
300.628
300.604
300.581
300.558
300.536
300.516
300.503
300.454
300.476
300.422
300.441
300.392
300.411
300.361
300.38
300.328
300.348
300.293
300.315
300.257
300.279
300.218
300.241
300.176
300.201
300.157
300.084
300.136
300.114
300.024
300.056
300.097
300.213
300.3
300.381
300.451
300.518
300.586
300.654
300.732
300.811
300.892
300.961
301.008
301.034
301.039
301.027
301.004
300.967
300.924
300.879
300.834
300.797
300.763
300.733
300.704
300.678
300.653
300.63
300.608
300.587
300.575
300.576
300.593
300.522
300.602
300.46
300.485
300.431
300.455
300.4
300.424
300.369
300.393
300.336
300.36
300.302
300.326
300.265
300.289
300.226
300.251
300.183
300.21
300.165
300.089
300.144
300.121
300.026
300.06
300.099
300.211
300.296
300.37
300.445
300.507
300.574
300.641
300.718
300.796
300.881
300.953
301.007
301.041
301.051
301.046
301.025
300.994
300.947
300.901
300.859
300.823
300.787
300.757
300.729
300.702
300.678
300.655
300.635
300.625
300.647
300.752
300.96
300.792
301.294
300.7
301.056
300.489
300.553
300.456
300.513
300.423
300.474
300.39
300.438
300.354
300.399
300.316
300.357
300.277
300.312
300.237
300.266
300.193
300.222
300.174
300.095
300.154
300.13
300.028
300.065
300.1
300.212
300.296
300.366
300.437
300.497
300.56
300.628
300.702
300.781
300.865
300.943
301.005
301.044
301.061
301.059
301.043
301.014
300.973
300.925
300.884
300.847
300.813
300.78
300.752
300.727
300.702
300.68
300.666
300.684
300.823
301.241
302.027
302.155
302.961
301.769
303.024
301.55
302.65
300.633
300.927
300.576
300.824
300.528
300.732
300.48
300.663
300.425
300.582
300.365
300.491
300.309
300.398
300.256
300.312
300.205
300.243
300.187
300.103
300.166
300.142
300.031
300.071
300.116
300.229
300.303
300.364
300.424
300.485
300.547
300.614
300.686
300.766
300.847
300.93
301
301.046
301.068
301.072
301.058
301.031
300.995
300.952
300.91
300.872
300.837
300.805
300.775
300.748
300.726
300.706
300.705
300.793
301.204
302.282
303.995
306.271
304.037
306.064
303.915
305.414
303.74
305.256
301.353
302.411
301.207
302.192
301.076
301.936
300.945
301.716
300.776
301.454
300.6
301.141
300.446
300.805
300.318
300.521
300.228
300.317
300.209
300.113
300.184
300.157
300.033
300.078
300.131
300.251
300.323
300.37
300.421
300.478
300.534
300.599
300.67
300.748
300.832
300.915
300.992
301.046
301.074
301.083
301.076
301.052
301.018
300.976
300.934
300.896
300.861
300.829
300.8
300.773
300.748
300.736
300.766
300.998
301.84
303.663
306.303
309.368
309.962
311.58
306.904
308.575
306.837
308.603
306.946
308.777
303.607
305.23
303.453
305.247
303.229
305.122
302.875
304.904
302.303
304.393
301.683
303.611
301.095
302.471
300.6
301.453
300.301
300.647
300.262
300.123
300.216
300.174
300.036
300.083
300.277
300.347
300.388
300.423
300.471
300.524
300.583
300.653
300.728
300.811
300.897
300.981
301.041
301.078
301.092
301.088
301.071
301.038
301
300.958
300.92
300.885
300.853
300.823
300.797
300.774
300.772
300.869
301.342
302.649
305.007
308.289
311.482
313.77
313.342
314.309
310.334
312.066
310.636
312.549
311.202
313.21
307.172
309.167
307.351
309.608
307.354
309.867
307.102
309.974
306.376
309.681
305.257
308.913
303.525
307.354
301.786
304.643
300.618
301.998
300.45
300.127
300.298
300.216
300.172
300.033
300.075
300.099
300.358
300.403
300.434
300.467
300.515
300.569
300.633
300.71
300.793
300.879
300.968
301.035
301.078
301.1
301.101
301.086
301.059
301.022
300.981
300.942
300.907
300.875
300.846
300.82
300.803
300.828
301.051
301.834
303.538
306.361
309.806
312.147
313.623
314.824
314.3
315.077
315.037
313.991
314.778
314.677
315.489
315.585
316.352
311.935
314.143
312.597
315.122
313.004
315.955
313.098
316.568
312.54
316.772
311.634
316.046
309.656
314.723
305.595
311.916
301.892
306.489
303.644
300.592
301.268
300.171
300.126
300.161
300.339
300.82
300.98
300.267
300.015
300.044
300.064
300.095
300.403
300.441
300.471
300.51
300.556
300.617
300.689
300.772
300.857
300.95
301.025
301.077
301.105
301.11
301.101
301.077
301.043
301.003
300.964
300.929
300.897
300.868
300.844
300.835
300.914
301.33
302.412
304.388
307.45
310.471
312.031
312.988
313.492
312.626
313.957
312.594
315.461
314.933
315.761
315.696
316.541
316.442
317.462
317.308
316.667
317.444
317.771
318.633
318.777
319.905
319.651
321.176
320.112
322.279
319.531
322.927
314.344
317.301
319.536
322.028
309.642
313.761
318.034
320.233
316.791
306.065
303.02
306.853
310.345
302.686
300.227
300.129
300.18
300.605
301.749
302.31
300.45
300.016
300.046
300.074
300.106
300.433
300.471
300.507
300.545
300.597
300.671
300.749
300.836
300.931
301.013
301.072
301.107
301.12
301.114
301.095
301.064
301.025
300.985
300.95
300.918
300.889
300.867
300.873
301.042
301.695
303.049
305.224
308.299
310.595
311.733
311.831
309.262
311.244
309.163
311.299
309.574
314.426
312.972
316.144
315.521
316.916
316.133
317.819
316.806
318.601
318.368
319.905
319.641
321.307
321.07
322.79
322.586
324.225
324.132
323.588
324.857
325.433
325.437
320.97
323.322
324.968
314.432
318.106
322.794
323.886
321.306
311.134
306.479
311.112
315.297
305.904
300.322
300.147
300.236
301.27
304.9
303.75
300.861
300.016
300.079
300.048
300.115
300.458
300.5
300.537
300.58
300.648
300.725
300.816
300.906
300.999
301.065
301.108
301.127
301.127
301.112
301.083
301.046
301.007
300.97
300.939
300.91
300.889
300.918
301.202
302.112
303.711
306.017
308.83
310.495
311.197
310.451
306.978
305.285
304.328
307.925
306.452
307.848
306.218
311.519
309.656
314.899
313.314
315.35
313.573
315.916
313.835
318.966
317.692
320.376
318.928
321.938
320.564
323.607
322.345
325.361
325.073
324.578
323.788
325.785
326.141
326.117
325.915
324.784
325.967
326.599
319.097
322.338
325.823
326.626
324.896
315.641
310.84
315.742
319.707
310.114
300.56
300.175
300.36
302.698
308.953
307.291
301.765
300.016
300.083
300.05
300.129
300.481
300.531
300.572
300.625
300.702
300.792
300.883
300.983
301.058
301.107
301.133
301.138
301.126
301.101
301.066
301.027
300.99
300.959
300.93
300.912
300.971
301.394
302.533
304.326
306.725
309.085
310.285
310.585
308.983
305.111
302.316
302.777
301.994
304.804
303.642
304.499
303.204
307.811
306.064
311.652
309.696
311.671
309.58
311.791
309.442
316.804
314.328
318.221
315.327
320.026
317.043
322.934
321.778
318.935
325.476
324.783
323.874
322.783
326.685
326.59
326.289
325.688
326.805
327.213
327.207
323.083
325.66
327.534
328.107
327.308
320.098
315.395
320.119
323.629
314.597
301.086
300.237
300.643
305.316
313.303
311.489
303.556
300.016
300.09
300.052
300.157
300.508
300.564
300.605
300.675
300.769
300.86
300.962
301.045
301.104
301.136
301.147
301.139
301.118
301.085
301.048
301.01
300.977
300.95
300.935
301.03
301.607
302.945
304.875
307.275
309.171
310.017
309.889
307.664
303.9
301.784
300.952
300.875
301.302
301.023
302.283
301.675
302.002
301.418
304.221
302.905
307.659
305.849
307.321
305.456
307.085
305.016
312.375
309.552
313.691
310.419
315.728
312.361
321.545
320.05
315.295
317.032
324.848
323.819
322.649
321.358
327.019
326.575
325.839
324.897
327.729
327.667
327.388
326.236
327.857
328.228
328.706
328.609
323.908
319.719
323.864
326.629
318.891
302.189
300.373
301.25
309.195
317.543
315.646
306.634
300.015
300.1
300.054
300.215
300.542
300.591
300.65
300.739
300.835
300.937
301.03
301.096
301.137
301.155
301.152
301.134
301.104
301.067
301.03
300.996
300.969
300.96
301.107
301.832
303.331
305.39
307.708
309.131
309.705
309.125
306.513
303.178
301.469
300.765
300.7
300.673
300.78
300.721
301.071
300.879
300.955
300.796
301.808
301.263
303.84
302.651
303.499
302.409
303.544
302.364
307.502
305.229
309.219
306.604
313.846
312.103
309.158
310.746
319.951
318.463
313.795
315.367
323.799
322.581
321.273
319.879
326.812
325.999
325.014
323.896
328.104
327.745
327.086
328.301
329.064
328.547
329.009
329.187
326.832
323.463
326.788
328.654
322.651
304.229
300.678
302.543
313.296
321.332
319.503
310.608
300.016
300.121
300.059
300.349
300.577
300.627
300.709
300.81
300.908
301.011
301.087
301.136
301.161
301.164
301.149
301.121
301.086
301.049
301.016
300.987
300.988
301.202
302.073
303.683
305.823
307.951
309.028
309.342
308.325
305.516
302.683
301.273
300.753
300.64
300.641
300.641
300.638
300.656
300.646
300.716
300.676
300.691
300.653
300.903
300.764
301.647
301.17
301.605
301.158
301.962
301.355
304.525
302.977
306.749
304.746
312.271
310.778
308.09
309.402
318.41
316.902
312.786
314.253
322.682
321.393
320.044
318.641
326.241
325.264
324.196
323.062
328.128
327.449
326.648
329.502
329.662
328.582
329.105
329.507
328.87
326.438
328.89
329.895
325.717
307.703
301.364
304.877
317.247
324.527
322.898
314.648
300.017
300.165
300.069
300.657
300.605
300.678
300.781
300.876
300.986
301.074
301.132
301.163
301.173
301.163
301.139
301.105
301.068
301.035
301.009
301.024
301.326
302.326
304.003
306.176
308.072
308.896
308.958
307.536
304.685
302.306
301.141
300.737
300.637
300.613
300.614
300.612
300.612
300.616
300.613
300.633
300.622
300.623
300.606
300.695
300.651
300.906
300.769
301.019
300.838
301.479
301.084
303.247
302.173
306.505
305.379
304.606
303.756
311.361
309.992
307.524
308.709
317.194
315.727
312.25
313.65
321.854
320.58
319.256
317.886
325.761
324.796
323.757
322.644
327.966
327.253
326.455
330.153
330.049
328.567
329.274
329.697
330.196
328.658
330.325
330.617
328.099
311.841
302.84
308.751
320.873
327.134
325.781
318.558
300.019
300.268
300.087
301.378
300.649
300.747
300.843
300.956
301.055
301.125
301.164
301.181
301.175
301.156
301.124
301.089
301.056
301.034
301.08
301.5
302.589
304.294
306.448
308.119
308.747
308.532
306.802
304.02
302.007
301.044
300.729
300.642
300.595
300.604
300.584
300.586
300.582
300.582
300.586
300.584
300.594
300.588
300.58
300.566
300.631
300.601
300.735
300.672
300.87
300.75
301.345
301.001
303.193
302.582
301.951
306.206
305.245
304.425
303.695
310.893
309.595
307.238
308.371
316.482
315.066
311.999
313.357
321.451
320.187
318.871
317.513
325.585
324.64
323.615
322.503
327.947
327.272
326.552
330.615
330.389
328.814
329.827
330.112
331.035
330.262
331.326
331.183
329.914
316.013
305.552
313.246
324.102
329.209
328.176
322.206
300.019
300.519
300.125
302.94
300.717
300.81
300.918
301.035
301.113
301.163
301.186
301.187
301.171
301.143
301.109
301.079
301.069
301.175
301.726
302.862
304.563
306.673
308.104
308.579
308.089
306.147
303.512
301.777
300.976
300.726
300.652
300.604
300.577
300.587
300.567
300.571
300.559
300.562
300.557
300.558
300.559
300.558
300.548
300.541
300.585
300.562
300.671
300.62
300.815
300.706
301.302
300.965
303.088
302.561
301.688
302.112
306.121
305.195
304.378
303.668
310.687
309.433
307.136
308.243
316.126
314.737
311.925
313.247
321.306
320.034
318.707
317.345
325.756
324.845
323.803
322.633
328.322
327.765
327.095
331.106
331.005
329.525
330.8
330.924
331.699
331.435
332.098
331.805
331.276
320.168
309.785
317.725
326.917
330.826
330.133
325.545
300.017
301.121
300.196
305.773
300.774
300.878
301.003
301.1
301.159
301.189
301.197
301.186
301.16
301.129
301.105
301.125
301.343
301.992
303.148
304.834
306.862
308.065
308.393
307.649
305.582
303.123
301.606
300.929
300.727
300.662
300.619
300.573
300.561
300.566
300.552
300.556
300.546
300.549
300.54
300.542
300.539
300.539
300.524
300.519
300.555
300.537
300.634
300.584
300.78
300.675
301.765
301.536
301.228
301.06
300.895
303.057
302.536
302.134
306.204
305.291
304.474
303.755
310.649
309.433
307.205
308.283
315.966
314.598
312.123
313.358
321.359
320.016
318.65
317.283
326.262
325.243
324.058
322.757
329.125
328.55
327.752
331.897
332.028
330.542
331.94
332.078
332.416
332.338
332.889
332.712
332.339
324.029
314.518
322.026
329.31
332.104
331.701
328.456
300.104
302.353
300.803
310.002
300.839
300.963
301.08
301.152
301.189
301.205
301.199
301.177
301.15
301.141
301.224
301.575
302.282
303.441
305.1
306.992
307.988
308.196
307.236
305.118
302.83
301.479
300.898
300.732
300.674
300.632
300.591
300.547
300.551
300.557
300.546
300.534
300.54
300.525
300.529
300.52
300.522
300.518
300.518
300.499
300.496
300.529
300.509
300.61
300.561
300.77
300.656
301.859
301.638
301.332
301.098
300.934
303.126
302.587
302.27
306.569
305.632
304.782
304.022
310.926
309.767
307.582
308.651
315.935
314.624
312.959
314.067
321.4
320.047
318.742
317.498
326.725
325.525
324.234
322.938
330.038
329.258
328.252
333.066
333.3
331.516
332.977
333.288
333.364
333.195
333.815
333.94
333.278
327.422
319.091
325.842
331.256
333.175
333.024
330.832
303.968
305.96
307.94
315.666
300.926
301.045
301.139
301.187
301.209
301.209
301.192
301.174
301.197
301.39
301.848
302.587
303.737
305.357
307.082
307.908
307.993
306.858
304.752
302.617
301.387
300.881
300.74
300.687
300.646
300.606
300.563
300.541
300.538
300.543
300.533
300.521
300.527
300.511
300.516
300.502
300.506
300.496
300.499
300.481
300.478
300.511
300.489
300.578
300.542
300.847
300.737
300.654
302.032
301.829
301.458
301.178
300.978
303.35
302.766
302.512
307.344
306.309
305.355
304.498
311.841
310.709
308.444
309.572
316.314
315.177
314.879
315.91
321.705
320.574
319.555
318.624
327.108
325.939
324.843
323.883
330.792
329.893
328.951
334.405
334.5
332.408
334.134
334.424
334.534
334.097
334.947
335.307
334.201
330.136
323.716
329.201
332.89
334.244
334.225
332.639
303.933
314.743
315.114
322.041
301.013
301.117
301.181
301.211
301.217
301.207
301.199
301.285
301.6
302.14
302.905
304.037
305.604
307.139
307.82
307.778
306.515
304.461
302.46
301.321
300.872
300.75
300.7
300.661
300.623
300.58
300.544
300.527
300.525
300.534
300.52
300.506
300.513
300.495
300.5
300.486
300.49
300.479
300.483
300.464
300.462
300.495
300.474
300.567
300.513
300.877
300.767
300.71
300.628
302.295
302.078
301.637
301.296
301.046
303.739
303.079
302.858
308.596
307.354
306.207
305.183
313.748
312.524
309.91
311.232
317.738
316.849
318.016
319.14
323.086
322.437
321.887
321.356
328.079
327.358
326.827
326.495
331.754
331.197
330.822
335.733
335.877
333.91
336.021
335.942
335.901
335.191
336.02
336.302
335.256
332.39
328.109
331.936
334.143
335.178
334.954
334.001
302.95
320.877
314.916
326.657
301.088
301.167
301.21
301.224
301.218
301.234
301.392
301.839
302.446
303.227
304.341
305.844
307.184
307.724
307.548
306.196
304.218
302.335
301.272
300.869
300.761
300.714
300.676
300.639
300.6
300.561
300.524
300.522
300.536
300.517
300.516
300.509
300.494
300.501
300.481
300.487
300.47
300.475
300.463
300.465
300.446
300.444
300.466
300.459
300.564
300.499
300.935
300.798
300.729
300.649
302.627
302.389
301.869
301.46
301.149
304.287
303.517
303.287
310.258
308.715
307.299
306.052
316.685
315.182
311.908
313.568
320.765
320.045
321.997
323.414
326.319
326.219
326.098
325.811
330.658
330.661
330.764
331.071
333.879
334.033
334.4
336.392
336.396
336.201
336.393
336.374
336.258
335.861
336.017
336.275
335.563
333.748
331.124
333.328
334.655
335.26
334.835
334.379
301.237
323.545
313.27
329.272
301.154
301.206
301.227
301.23
301.265
301.523
302.082
302.761
303.555
304.638
306.062
307.187
307.614
307.301
305.892
304.001
302.226
301.235
300.869
300.773
300.728
300.691
300.655
300.619
300.581
300.546
300.515
300.517
300.524
300.506
300.505
300.498
300.482
300.49
300.468
300.474
300.456
300.461
300.446
300.451
300.426
300.426
300.451
300.432
300.602
300.538
300.493
301.017
300.839
300.764
300.668
303.029
302.776
302.166
301.677
301.292
304.974
304.06
303.803
312.172
310.29
308.572
307.074
320.291
318.355
314.223
316.304
325.303
324.515
326.3
328.096
331.297
331.478
331.542
331.213
334.778
335.202
335.614
336.021
336.437
336.866
337.223
336.155
335.765
336.479
335.456
335.37
336.003
335.684
335.411
335.518
335.343
334.092
332.582
333.763
334.525
334.755
334.344
334.239
300.756
325.582
313.105
331.199
301.199
301.229
301.238
301.304
301.637
302.33
303.067
303.883
304.95
306.284
307.173
307.488
307.033
305.592
303.79
302.117
301.202
300.872
300.784
300.743
300.707
300.672
300.637
300.601
300.566
300.531
300.506
300.507
300.519
300.497
300.497
300.488
300.471
300.479
300.455
300.462
300.441
300.448
300.43
300.436
300.413
300.412
300.442
300.42
300.61
300.55
300.511
300.471
301.131
300.899
300.807
300.692
303.523
303.258
302.534
301.952
301.483
305.79
304.705
304.43
314.26
312.043
310.026
308.272
324.186
321.758
316.721
319.242
330.546
329.511
330.953
333.017
336.3
336.465
336.555
336.316
337.574
337.86
338.115
338.308
336.597
336.659
336.88
334.885
334.695
335.489
328.843
328.143
334.723
335.087
334.54
334.687
334.19
333.967
333.24
333.618
333.946
333.851
333.287
333.614
307.782
327.359
321.517
332.283
301.227
301.245
301.327
301.752
302.546
303.366
304.201
305.25
306.447
307.134
307.338
306.744
305.29
303.577
302.008
301.17
300.878
300.798
300.757
300.723
300.689
300.655
300.62
300.587
300.551
300.52
300.511
300.498
300.502
300.487
300.488
300.478
300.46
300.469
300.443
300.451
300.429
300.436
300.416
300.422
300.404
300.396
300.444
300.473
300.423
300.411
300.629
300.556
300.509
301.281
300.975
300.861
300.725
304.135
303.836
302.97
302.282
301.722
306.764
305.479
305.211
316.717
314.126
311.784
309.745
328.572
325.65
319.624
322.633
335.582
334.488
336.345
337.537
338.484
338.603
338.75
338.749
337.198
337.478
338.027
338.192
335.646
329.491
330.302
327.686
327.89
329.042
321.59
321.345
327.578
334.176
327.491
327.961
327.434
333.21
333.445
333.541
332.764
327.279
327.092
332.642
301.94
329.89
324.165
332.887
301.248
301.342
301.823
302.745
303.632
304.502
305.531
306.551
307.079
307.166
306.435
304.985
303.358
301.897
301.138
300.883
300.813
300.773
300.74
300.707
300.673
300.64
300.607
300.574
300.54
300.504
300.505
300.499
300.518
300.49
300.494
300.479
300.48
300.469
300.45
300.459
300.432
300.441
300.416
300.424
300.403
300.409
300.381
300.383
300.473
300.439
300.42
300.392
300.652
300.565
300.514
301.474
301.073
300.927
300.764
304.882
304.524
303.473
302.664
302.008
307.978
306.442
306.193
320.109
316.967
314.15
311.715
333.993
330.858
323.653
327.357
338.661
338.247
339.197
339.334
338.647
338.772
339.066
339.114
330.727
330.933
331.441
331.597
329.662
322.624
322.93
320.764
320.856
321.865
312.574
312.428
320.467
328.261
320.335
320.656
320.344
333.297
333.368
332.946
326.796
320.278
320.154
327.108
300.912
331.511
321.887
332.885
301.342
301.862
302.886
303.875
304.764
305.763
306.624
307.007
306.959
306.102
304.672
303.127
301.781
301.107
300.89
300.828
300.79
300.756
300.725
300.693
300.66
300.627
300.597
300.565
300.53
300.493
300.501
300.489
300.513
300.483
300.47
300.473
300.46
300.441
300.45
300.422
300.431
300.405
300.413
300.39
300.397
300.373
300.376
300.472
300.437
300.414
300.379
300.411
300.392
300.681
300.578
300.519
301.718
301.202
301.017
300.812
305.82
305.387
304.072
303.107
302.342
309.573
307.685
307.485
325.273
321.229
317.576
314.497
338.48
336.943
329.636
333.844
339.368
339.564
339.777
339.585
331.931
332.162
332.466
332.794
323.348
323.6
323.955
324.242
322.236
313.195
313.379
312.077
312.131
312.759
304.011
303.967
311.885
320.507
311.767
311.991
311.736
331.382
326.057
332.802
331.916
319.949
311.712
311.652
320.004
310.286
331.986
325.599
332.972
301.849
302.978
304.065
305.008
305.963
306.629
306.915
306.713
305.751
304.347
302.879
301.661
301.075
300.896
300.843
300.808
300.775
300.743
300.714
300.682
300.65
300.618
300.589
300.557
300.522
300.482
300.489
300.495
300.477
300.507
300.462
300.466
300.452
300.432
300.442
300.412
300.422
300.394
300.403
300.379
300.386
300.362
300.377
300.359
300.476
300.437
300.408
300.386
300.72
300.596
300.529
302.027
301.38
301.143
300.876
307.077
306.555
304.836
303.638
302.733
311.801
309.38
309.271
332.673
327.496
322.802
318.405
339.864
339.768
336.874
338.811
338.611
339.753
334.212
333.843
324.565
324.795
325.079
334.178
325.391
313.64
313.803
314.035
314.231
312.967
304.214
304.274
303.853
303.876
304.086
303.789
311.834
303.741
303.815
303.737
326.139
319.704
332.969
326.415
311.534
303.717
303.695
311.567
310.238
332.166
329.205
332.595
302.981
304.209
305.204
306.099
306.613
306.794
306.433
305.385
304.012
302.622
301.542
301.046
300.902
300.856
300.825
300.794
300.763
300.732
300.704
300.674
300.643
300.611
300.582
300.552
300.516
300.503
300.471
300.477
300.483
300.492
300.455
300.459
300.445
300.423
300.434
300.403
300.413
300.384
300.394
300.367
300.375
300.353
300.366
300.35
300.371
300.35
300.482
300.439
300.406
300.382
300.772
300.622
300.544
302.411
301.627
301.32
300.963
308.844
308.183
305.869
304.321
303.196
314.987
311.768
311.772
338.753
335.737
330.17
324.375
339.868
340.304
340.126
340.276
333.716
335.749
326.663
326.281
314.438
314.578
314.76
325.898
314.993
304.366
304.408
304.499
304.546
304.133
303.751
319.619
311.412
331.571
325.63
319.612
303.667
303.675
317.065
332.649
330.957
332.964
304.255
305.35
306.175
306.578
306.647
306.124
305.007
303.672
302.356
301.432
301.024
300.91
300.87