/*--------------------------------*- C++ -*----------------------------------*\
  =========                 |
  \\      /  F ield         | OpenFOAM: The Open Source CFD Toolbox
   \\    /   O peration     | Website:  https://openfoam.org
    \\  /    A nd           | Version:  dev
     \\/     M anipulation  |
\*---------------------------------------------------------------------------*/
FoamFile
{
    version     2.0;
    format      ascii;
    class       volVectorField;
    location    "2500";
    object      U;
}
// * * * * * * * * * * * * * * * * * * * * * * * * * * * * * * * * * * * * * //

dimensions      [0 1 -1 0 0 0 0];

internalField   nonuniform List<vector> 
9456
(
(0.00415832 0.00640689 1.37152e-27)
(0.0100765 0.0058521 -3.57095e-28)
(0.00413536 0.0170189 3.34373e-27)
(0.0140976 0.00500172 1.30853e-27)
(0.0109931 0.0173545 0)
(0.00357494 0.0248111 0)
(0.0173326 0.00414804 1.58243e-27)
(0.0156631 0.0169363 6.61505e-28)
(0.0105353 0.0257727 0)
(0.00298694 0.031168 0)
(0.0200034 0.00349625 1.50239e-27)
(0.0189317 0.0155091 -3.54879e-29)
(0.0161579 0.0265331 -9.32284e-28)
(0.00927867 0.0321562 4.47281e-28)
(0.0025943 0.0368249 2.40997e-27)
(0.0222472 0.00295546 7.3408e-28)
(0.0213162 0.01347 0)
(0.0204281 0.0264272 -1.08607e-28)
(0.015253 0.033677 -1.01638e-27)
(0.00796809 0.0375643 3.03445e-27)
(0.00229718 0.0419416 2.62163e-27)
(0.0242374 0.00253092 1.82193e-28)
(0.0232995 0.0114742 0)
(0.0234801 0.0253375 1.45863e-27)
(0.0203645 0.034895 9.84755e-28)
(0.0135176 0.0390515 1.02552e-27)
(0.00700715 0.0425215 1.26427e-27)
(0.00205329 0.0465066 0)
(0.0260541 0.00220486 8.90091e-28)
(0.0250994 0.00975895 0)
(0.0256221 0.0235432 1.56937e-27)
(0.0244164 0.0353055 1.52279e-27)
(0.0189274 0.0409512 -2.86405e-28)
(0.0118372 0.043701 -8.11816e-28)
(0.00625486 0.0469869 7.95125e-29)
(0.00184342 0.0506765 0)
(0.0277171 0.00196975 6.9827e-28)
(0.0266946 0.00842109 3.70083e-29)
(0.0271661 0.0213139 3.94809e-28)
(0.027412 0.0347694 -8.6616e-28)
(0.0237301 0.0426502 0)
(0.0168099 0.0455146 1.1322e-27)
(0.0105184 0.0479661 0)
(0.00559735 0.0511083 9.11249e-28)
(0.00165559 0.0544593 0)
(0.0292513 0.00179962 0)
(0.0281864 0.00746881 0)
(0.0283999 0.0189979 4.66663e-28)
(0.0294885 0.0333881 -8.06975e-28)
(0.0276448 0.0436776 -6.2395e-28)
(0.0217419 0.0477617 2.87946e-27)
(0.014855 0.0494759 0)
(0.00940318 0.0519612 -1.03293e-31)
(0.00502189 0.0548329 3.82942e-28)
(0.00148981 0.057927 0)
(0.0306662 0.00167078 3.25953e-28)
(0.0296211 0.00676735 -1.15512e-27)
(0.0295375 0.0168012 0)
(0.0308988 0.0314285 1.88195e-27)
(0.0306376 0.043834 -2.35933e-28)
(0.0262716 0.0499539 1.99673e-27)
(0.0193211 0.0515551 0)
(0.0132372 0.0532505 6.02354e-28)
(0.00842564 0.0555782 5.9871e-28)
(0.00451815 0.0582613 5.82025e-28)
(0.00134018 0.06108 0)
(0.0318904 0.00156016 -1.12734e-27)
(0.0309648 0.00624002 -5.74492e-28)
(0.0306352 0.0149972 0)
(0.0318695 0.0291072 3.83031e-27)
(0.032772 0.0431379 7.48307e-28)
(0.0301056 0.0516421 6.14628e-28)
(0.0238162 0.0540706 5.8581e-28)
(0.0171376 0.0550247 1.14885e-27)
(0.0118418 0.0567241 1.51809e-28)
(0.00756421 0.0589146 -2.91982e-28)
(0.00405777 0.0613916 3.66199e-28)
(0.00120283 0.0639769 -6.02402e-29)
(0.0329167 0.0014615 -3.25636e-28)
(0.0321525 0.00583387 -2.25392e-27)
(0.0316713 0.0136834 1.55772e-27)
(0.0325823 0.0266947 1.91968e-27)
(0.0342013 0.0417214 -2.23063e-28)
(0.033108 0.0525754 3.37355e-27)
(0.0280575 0.0567114 1.8008e-28)
(0.0211465 0.0573144 4.69689e-28)
(0.0152814 0.0582769 1.04133e-27)
(0.0106107 0.059908 7.59206e-28)
(0.00679332 0.0619974 -2.97915e-28)
(0.00363946 0.0642557 -1.04799e-27)
(0.00107749 0.0666262 -4.77728e-28)
(0.0338259 0.00137421 0)
(0.0331567 0.00548119 1.93755e-28)
(0.032664 0.0127522 6.03732e-32)
(0.0332221 0.0243937 0)
(0.0350971 0.0398126 5.2998e-29)
(0.0353304 0.0526861 2.02382e-27)
(0.0317666 0.0590517 5.14361e-28)
(0.0251988 0.060054 -4.17142e-28)
(0.0187789 0.0602613 1.85807e-27)
(0.0136747 0.0612682 9.45735e-28)
(0.00952048 0.0628917 0)
(0.00609918 0.0647863 5.05925e-28)
(0.00326271 0.0668877 -3.62789e-28)
(0.000960588 0.0690692 0)
(0.0345981 0.00129341 -1.35899e-27)
(0.0340348 0.00515126 0)
(0.0336346 0.0120058 2.06707e-28)
(0.0338826 0.0223806 -1.88341e-27)
(0.0356054 0.0376399 -1.98151e-28)
(0.0368532 0.0520341 5.71716e-29)
(0.0347982 0.0607971 2.25234e-27)
(0.0291123 0.0630014 9.0004e-28)
(0.0223693 0.0627176 2.86225e-28)
(0.0167416 0.0630235 0)
(0.0122467 0.064087 0)
(0.00854318 0.0655925 6.70981e-28)
(0.00546719 0.0673861 1.00163e-27)
(0.00291157 0.0693155 0)
(0.000852551 0.0712858 0)
(0.0352155 0.0012177 -1.62294e-27)
(0.0347797 0.00485038 -1.11229e-27)
(0.034488 0.0113569 1.47567e-27)
(0.0345595 0.0207669 2.83829e-34)
(0.0359411 0.0353883 3.77444e-28)
(0.0377615 0.0507613 -2.62853e-27)
(0.0370988 0.0617884 2.54123e-27)
(0.0326576 0.065862 1.07683e-27)
(0.0259921 0.0656247 0)
(0.0198548 0.0651933 2.77522e-28)
(0.0149695 0.0656048 0)
(0.0109672 0.0666899 0)
(0.00764941 0.0681298 -2.48971e-28)
(0.00487804 0.0697761 3.06096e-29)
(0.00258061 0.0715179 0)
(0.000753451 0.0733337 3.463e-28)
(0.0356916 0.0011443 0)
(0.0353823 0.00458129 -3.68441e-27)
(0.0351852 0.0107835 2.91562e-27)
(0.0352071 0.0195577 1.86835e-27)
(0.0362257 0.033239 2.29353e-27)
(0.0382282 0.0490747 -2.11325e-27)
(0.0386915 0.0620538 -2.53094e-27)
(0.0356403 0.0683421 -2.25239e-27)
(0.029514 0.0688179 -2.55088e-28)
(0.0230368 0.0678013 0)
(0.0176899 0.0674642 5.73555e-28)
(0.0133843 0.0680885 0)
(0.00980511 0.0691321 2.46489e-28)
(0.00681918 0.0704657 -4.61671e-28)
(0.00432693 0.0719558 -9.22155e-28)
(0.00227551 0.0735475 0)
(0.000659281 0.0751998 -2.40622e-28)
(0.0359954 0.00107218 1.33144e-28)
(0.0358668 0.00432026 -2.10905e-27)
(0.035747 0.0102808 -6.3563e-28)
(0.0357716 0.0186808 -7.27651e-28)
(0.0365238 0.0312928 4.59407e-27)
(0.0384277 0.047174 0)
(0.0396933 0.0616439 -2.70761e-27)
(0.0379744 0.0702438 -2.57108e-27)
(0.0327672 0.0720949 -1.15323e-28)
(0.0262007 0.0708004 -2.53985e-28)
(0.0204404 0.0697411 1.30544e-27)
(0.0157914 0.0697863 0)
(0.0119414 0.0703912 9.77099e-28)
(0.0087292 0.0714007 -6.84259e-29)
(0.00604706 0.0726047 -2.14228e-28)
(0.00381166 0.0739434 4.88461e-28)
(0.00199843 0.0754032 6.06073e-28)
(0.000571663 0.0769101 0)
(0.0361154 0.00100283 1.2262e-28)
(0.0361734 0.00405658 4.78976e-28)
(0.0361622 0.00988667 -3.84286e-27)
(0.0362359 0.0179941 -1.17536e-27)
(0.0368089 0.0296515 3.63012e-27)
(0.0384801 0.0452465 0)
(0.0402087 0.0606748 0)
(0.0396733 0.0714531 0)
(0.0356465 0.0751737 -2.47165e-27)
(0.0292805 0.0741606 -2.33108e-28)
(0.0231741 0.0724286 1.67116e-27)
(0.018174 0.0717938 -4.94683e-28)
(0.0140703 0.0719201 2.74334e-28)
(0.0106241 0.0725713 4.64173e-28)
(0.00773532 0.0734672 1.16424e-27)
(0.00532793 0.0745454 2.37109e-32)
(0.00333622 0.0757749 -4.92423e-28)
(0.0017341 0.0771026 1.64943e-27)
(0.000489856 0.0784762 0)
(0.0360195 0.000949104 -1.42027e-27)
(0.0362626 0.00382613 2.67885e-27)
(0.036414 0.00963181 -1.56681e-32)
(0.0365385 0.0174356 1.1903e-27)
(0.0369994 0.0283628 -1.14841e-30)
(0.0384305 0.0433977 1.16007e-27)
(0.0403511 0.0593631 0)
(0.0407848 0.0720253 -3.54507e-28)
(0.038001 0.0778286 2.29982e-27)
(0.032257 0.077698 0)
(0.0258873 0.0755157 1.16027e-28)
(0.0205178 0.0741249 0)
(0.0161598 0.0737347 3.1013e-28)
(0.012508 0.0739714 -5.1838e-28)
(0.0094128 0.0745415 -8.51147e-28)
(0.00681679 0.0753552 -7.16741e-28)
(0.0046591 0.0763311 -5.91431e-28)
(0.00289495 0.0774489 9.90116e-28)
(0.00148409 0.0786607 1.10709e-27)
(0.000410656 0.0799087 0)
(0.0357298 0.000910337 1.4835e-27)
(0.036131 0.00368071 -1.48294e-27)
(0.0364293 0.00946512 2.03742e-27)
(0.0366529 0.0170201 5.07766e-28)
(0.0370848 0.0274049 2.29647e-27)
(0.0382914 0.04173 5.51633e-27)
(0.0402395 0.0579368 -4.31397e-27)
(0.0413596 0.0718977 0)
(0.0397855 0.0799694 5.03583e-27)
(0.0349466 0.0812099 4.68021e-27)
(0.0285918 0.0789345 -1.88661e-27)
(0.0228577 0.0768172 2.20475e-28)
(0.0182048 0.0758184 1.39201e-27)
(0.0143457 0.0756088 0)
(0.0110744 0.0758322 2.45372e-28)
(0.00829618 0.0763579 -1.19996e-27)
(0.00596477 0.0770736 0)
(0.00403927 0.0779639 1.96566e-32)
(0.00248139 0.0789885 5.69206e-28)
(0.00124618 0.0800924 9.65056e-28)
(0.000334153 0.0812205 0)
(0.0353028 0.000887157 -9.56459e-29)
(0.0358202 0.00357154 3.70969e-27)
(0.0362539 0.00931782 6.92033e-28)
(0.0365667 0.0167872 2.2676e-27)
(0.037006 0.0267386 9.25408e-28)
(0.0380508 0.0403209 0)
(0.0399146 0.056475 -1.62339e-27)
(0.0414816 0.0714126 0)
(0.0409691 0.0814337 -5.99399e-27)
(0.0372107 0.0845187 5.14767e-27)
(0.0312057 0.0826314 1.57795e-27)
(0.0251822 0.0798517 2.04803e-28)
(0.0202252 0.0781837 1.3695e-27)
(0.0161408 0.0774893 0)
(0.0126956 0.0773451 5.69174e-28)
(0.00974774 0.0775566 -2.34973e-28)
(0.0072503 0.0780077 0)
(0.00516895 0.0786658 -5.62422e-32)
(0.0034564 0.0794837 5.98998e-28)
(0.00207982 0.0804146 1.02633e-27)
(0.00101504 0.0813962 -8.18528e-28)
(0.000260508 0.0824038 0)
(0.0346984 0.00088053 0)
(0.0353481 0.00351349 -1.36717e-27)
(0.0359039 0.0092167 2.31737e-27)
(0.0362982 0.0167112 3.23907e-27)
(0.0367608 0.0262852 1.38251e-27)
(0.0376962 0.039212 1.35674e-27)
(0.0394237 0.0550716 -1.28003e-27)
(0.0412783 0.0706051 -3.15399e-27)
(0.0416565 0.0823605 -6.25225e-27)
(0.0389912 0.0873831 -5.84206e-27)
(0.0335952 0.0864526 5.08289e-27)
(0.0274729 0.0832693 -7.37368e-28)
(0.0221967 0.0808536 3.8927e-28)
(0.017893 0.0796091 -2.01021e-28)
(0.0142599 0.0790779 1.22925e-27)
(0.0111584 0.078968 -4.9363e-28)
(0.00850593 0.0791434 0)
(0.00626576 0.0795513 1.26097e-28)
(0.0044117 0.0801566 3.93255e-28)
(0.00289436 0.0808918 6.09157e-28)
(0.00169056 0.0817018 0)
(0.000788401 0.0825783 -6.68103e-28)
(0.000189091 0.0834783 0)
(0.0338812 0.00089253 2.07791e-27)
(0.0347102 0.00353147 4.03867e-28)
(0.0353314 0.00917832 -4.17265e-27)
(0.0358521 0.0167823 2.43767e-27)
(0.0363362 0.0259986 6.6465e-28)
(0.0372087 0.0384059 1.33865e-27)
(0.0387997 0.0537819 8.99952e-31)
(0.040815 0.0696535 -5.19629e-27)
(0.0416646 0.0827319 3.96955e-27)
(0.0402538 0.089838 -6.17652e-27)
(0.0356881 0.0901606 0)
(0.0296831 0.0870019 -4.01601e-29)
(0.0241155 0.0838758 -4.86317e-28)
(0.0195683 0.0819853 1.85895e-28)
(0.0157695 0.0810299 0)
(0.0125169 0.0805844 3.67375e-28)
(0.00972107 0.0804743 -7.0023e-28)
(0.0073355 0.0806162 2.2008e-28)
(0.00534204 0.0809935 -6.00201e-28)
(0.00369543 0.0815248 -9.65185e-36)
(0.00235107 0.0821633 -6.22935e-28)
(0.00131697 0.0828764 -5.60639e-28)
(0.000565915 0.0836516 5.0417e-28)
(0.000113499 0.0844402 0)
(0.032909 0.000928324 -8.06343e-29)
(0.0338578 0.00362664 4.89653e-27)
(0.0345715 0.0092291 -6.59283e-28)
(0.0352314 0.0169582 -1.65574e-27)
(0.0357188 0.0258971 1.82497e-27)
(0.036563 0.0378744 1.32055e-27)
(0.0380387 0.0526448 -3.00421e-27)
(0.0401038 0.0686118 -4.16743e-27)
(0.0414873 0.082684 -6.45439e-28)
(0.0409297 0.0916423 6.02181e-28)
(0.0374007 0.0936756 3.84575e-28)
(0.0317622 0.090899 0)
(0.026002 0.0872284 1.6083e-27)
(0.0211799 0.0846425 0)
(0.0172072 0.0832027 5.7615e-28)
(0.0138184 0.0823845 1.74105e-28)
(0.0108956 0.0819789 1.80153e-27)
(0.00838456 0.0818573 5.79441e-28)
(0.00624655 0.0819833 0)
(0.00447783 0.0823094 5.42719e-28)
(0.00301027 0.082781 -4.70415e-28)
(0.00183621 0.0833154 -6.41209e-28)
(0.000948415 0.0839451 -5.88219e-28)
(0.000345121 0.0846206 1.27011e-27)
(4.8272e-05 0.0853515 0)
(0.0317867 0.000976982 -7.90284e-29)
(0.0328478 0.00379868 4.00737e-28)
(0.0336398 0.00937653 2.58362e-27)
(0.0343749 0.0172243 -1.73431e-27)
(0.0349508 0.0260131 -1.01843e-35)
(0.0357719 0.0375466 1.30868e-27)
(0.0371512 0.0517032 -5.99771e-27)
(0.0391785 0.0675562 -4.95629e-27)
(0.0410628 0.0824087 -3.36812e-27)
(0.0411665 0.0929039 3.35063e-27)
(0.0386653 0.0967873 6.25327e-27)
(0.0336168 0.0948584 -5.12446e-27)
(0.0278504 0.0908642 2.33774e-27)
(0.0227573 0.0875838 0)
(0.0185817 0.0855905 5.04508e-28)
(0.0150613 0.0843724 0)
(0.0120205 0.0836458 3.25546e-32)
(0.00939495 0.0832565 1.3883e-27)
(0.00713549 0.0831364 0)
(0.00523712 0.0832453 0)
(0.00365052 0.0835441 -3.86391e-32)
(0.00234882 0.0839084 7.22167e-28)
(0.00133218 0.0843841 -6.66169e-28)
(0.000587241 0.0849197 2.77862e-32)
(0.00011558 0.0854937 1.45969e-28)
(-4.47501e-05 0.0860841 -1.20999e-28)
(0.0304765 0.0010339 0)
(0.0317078 0.00403012 2.26138e-27)
(0.0325028 0.0096458 -2.52769e-32)
(0.0333265 0.0175978 8.64982e-28)
(0.0339921 0.0263405 -1.5188e-27)
(0.0347898 0.0373888 3.85965e-27)
(0.0361669 0.0509582 -1.08467e-27)
(0.0381172 0.0665473 7.93157e-28)
(0.0402271 0.0818121 2.57234e-27)
(0.0410274 0.0937473 6.69224e-27)
(0.0394621 0.0994284 6.54876e-27)
(0.035183 0.0987148 -5.64973e-27)
(0.029575 0.0947326 -4.65695e-27)
(0.0242986 0.0908133 0)
(0.0199104 0.0882125 -6.66693e-28)
(0.0162305 0.0865485 -1.53248e-27)
(0.0130877 0.0854845 -1.31755e-27)
(0.0103533 0.0848101 -1.50756e-28)
(0.00799194 0.084449 1.31813e-27)
(0.00596621 0.0843321 9.27521e-28)
(0.00427349 0.0844451 2.13439e-28)
(0.00285046 0.0846527 3.97747e-28)
(0.00170273 0.0849661 -7.4466e-28)
(0.000828855 0.0853603 -6.2168e-33)
(0.000227259 0.0857881 -1.08211e-28)
(-7.52378e-05 0.0862322 -1.54583e-28)
(-0.000108433 0.0867155 0)
(0.0290158 0.00111084 7.0411e-29)
(0.0303602 0.00432563 0)
(0.0311719 0.0101567 2.05161e-27)
(0.0320689 0.0180665 -1.02248e-35)
(0.0328244 0.0268061 -1.90776e-35)
(0.0336409 0.0374139 1.29153e-27)
(0.0350334 0.0503953 4.0019e-27)
(0.0369536 0.0656104 -7.31973e-28)
(0.0391755 0.0810876 4.09602e-27)
(0.0405158 0.0941464 3.47617e-27)
(0.039811 0.101571 1.45395e-29)
(0.0363977 0.102363 0)
(0.0311443 0.0987344 -5.44795e-27)
(0.0257646 0.0943195 3.99907e-28)
(0.0211794 0.0910637 -2.17596e-27)
(0.0173513 0.0889275 -6.06296e-28)
(0.0140852 0.0874889 -8.7743e-28)
(0.011256 0.0865271 0)
(0.0087955 0.0859079 2.21728e-27)
(0.00666549 0.0855714 1.26488e-27)
(0.00486352 0.0854841 7.31629e-28)
(0.00333625 0.0855334 -4.31281e-28)
(0.00206675 0.0856949 3.73377e-28)
(0.00106214 0.0859429 7.76766e-28)
(0.000331409 0.0862317 0)
(-0.000134075 0.0865638 -9.69607e-29)
(-0.000330234 0.0869265 -1.32398e-27)
(-0.000202533 0.0872466 0)
(0.0274428 0.00122088 1.46221e-28)
(0.0288407 0.00470113 0)
(0.0297154 0.0109018 -6.863e-44)
(0.0305644 0.0185808 -8.3154e-28)
(0.0314751 0.027377 -2.55984e-27)
(0.0323631 0.0375938 0)
(0.0337232 0.0499704 -9.65215e-28)
(0.0356882 0.0647598 3.23406e-27)
(0.0379627 0.0802963 0)
(0.0397131 0.094189 -1.06998e-28)
(0.0397658 0.103221 2.37695e-28)
(0.0372402 0.105677 -3.225e-27)
(0.0324923 0.102771 0)
(0.0271458 0.0980618 -2.79456e-28)
(0.0223858 0.0941531 1.94572e-28)
(0.0184134 0.0914999 -2.20057e-28)
(0.0150225 0.0896682 1.54563e-27)
(0.0120991 0.0883987 2.62451e-28)
(0.00954582 0.0875165 1.3275e-27)
(0.00732119 0.0869616 1.30938e-28)
(0.005412 0.0866605 5.02665e-28)
(0.00379504 0.0865518 4.60329e-28)
(0.00242135 0.0865622 2.21944e-28)
(0.0012896 0.0866625 0)
(0.000432227 0.0868215 2.11709e-28)
(-0.000192883 0.0870361 0)
(-0.000553797 0.0872638 -1.48751e-27)
(-0.000608185 0.0874761 0)
(-0.000299681 0.087662 0)
(0.0258098 0.00135415 1.27936e-34)
(0.0271979 0.00514238 0)
(0.0281671 0.011713 -6.13043e-28)
(0.0289703 0.0191094 -2.59778e-27)
(0.0299747 0.0280248 0)
(0.0309479 0.0378688 -2.43389e-31)
(0.0323001 0.0496566 9.2163e-28)
(0.0343017 0.0639773 -2.17081e-35)
(0.0366205 0.0794655 0)
(0.0386822 0.093946 0)
(0.0393697 0.104423 4.3418e-28)
(0.0377044 0.108563 -6.4438e-27)
(0.0336087 0.106718 -3.07934e-31)
(0.0284098 0.101981 0)
(0.023523 0.0974797 -4.67674e-27)
(0.0194008 0.0942773 1.80858e-28)
(0.0158953 0.0920307 3.30187e-27)
(0.0128674 0.090433 2.88028e-27)
(0.0102336 0.0892792 -7.88948e-28)
(0.00792327 0.0884953 1.24844e-28)
(0.0059232 0.0879754 1.241e-28)
(0.004219 0.0876883 4.65801e-28)
(0.00275954 0.087555 2.36901e-28)
(0.00152277 0.0875078 -1.76559e-28)
(0.000532703 0.0875499 2.22592e-28)
(-0.000231752 0.0876603 2.49081e-28)
(-0.00076146 0.0877595 0)
(-0.000997861 0.0878448 -1.58144e-27)
(-0.000909805 0.0879158 8.65534e-28)
(-0.000412609 0.0879325 0)
(0.0241479 0.00150025 -8.03903e-29)
(0.0255032 0.00564995 0)
(0.0265423 0.0125003 0)
(0.0273411 0.0197277 -1.76994e-27)
(0.0283763 0.0286686 -2.52439e-27)
(0.0294368 0.038182 0)
(0.0308021 0.0494521 3.82579e-28)
(0.0327953 0.0632412 5.63538e-28)
(0.0351777 0.0786233 3.42619e-27)
(0.0374588 0.0934918 0)
(0.0386764 0.105188 -3.64677e-27)
(0.0377983 0.110996 -2.87829e-27)
(0.0344431 0.110454 -3.23349e-27)
(0.0295421 0.106 2.81951e-27)
(0.0245876 0.101026 -4.86458e-27)
(0.0203229 0.0972491 -1.033e-31)
(0.0167026 0.0945742 8.35866e-29)
(0.0135698 0.0926214 3.45345e-27)
(0.0108521 0.0911954 -1.35636e-27)
(0.00847603 0.0901565 2.88894e-27)
(0.00639685 0.0894131 4.76245e-28)
(0.00461218 0.0889273 0)
(0.00307968 0.0886505 0)
(0.00175426 0.088475 -7.70934e-28)
(0.0006484 0.0883967 2.04242e-28)
(-0.00025122 0.0884228 1.18993e-28)
(-0.000932619 0.0884218 0)
(-0.00136877 0.088394 -1.35321e-27)
(-0.00149315 0.088327 6.62712e-28)
(-0.00125819 0.0882258 3.95457e-28)
(-0.000546996 0.088033 -1.64053e-28)
(0.0224474 0.00167719 -2.44771e-27)
(0.0237726 0.0062611 0)
(0.0248111 0.0132591 0)
(0.0256681 0.0204895 1.5474e-27)
(0.0266993 0.0292683 -2.45352e-27)
(0.0278486 0.0385087 1.16616e-27)
(0.0292481 0.0493272 -1.3659e-27)
(0.031206 0.0625673 3.63249e-27)
(0.0336402 0.0777731 3.40367e-27)
(0.0360843 0.0928764 0)
(0.0377292 0.105562 -2.91059e-27)
(0.0375746 0.11296 0)
(0.0349712 0.113889 -3.37148e-27)
(0.0304994 0.110031 6.03749e-27)
(0.0255787 0.104766 7.94979e-30)
(0.0211696 0.100414 -7.32312e-29)
(0.0174471 0.0972693 1.17177e-28)
(0.0142186 0.0949679 7.82013e-29)
(0.0114154 0.0932403 3.67749e-28)
(0.00897129 0.0919438 2.55467e-27)
(0.0068315 0.0909691 9.04514e-28)
(0.0049786 0.0902736 3.09072e-27)
(0.00337195 0.0898407 2.31069e-28)
(0.00197793 0.0895441 4.16417e-28)
(0.000772261 0.089354 -7.28954e-28)
(-0.000236585 0.0892925 0)
(-0.00107464 0.0892331 6.39048e-29)
(-0.00168207 0.0891216 4.82366e-28)
(-0.00204632 0.0889492 -3.94067e-28)
(-0.00206316 0.0887045 4.58028e-28)
(-0.00167865 0.088375 1.00329e-27)
(-0.000703192 0.0879207 0)
(0.0207204 0.00188377 0)
(0.0220154 0.00696024 -4.30641e-27)
(0.0229937 0.0139937 0)
(0.0239424 0.0213528 1.645e-27)
(0.0249668 0.0298215 1.37381e-27)
(0.0261931 0.0388455 1.14805e-27)
(0.0276401 0.049267 -1.33709e-27)
(0.0295626 0.0619779 4.75925e-28)
(0.0320195 0.0768929 3.36911e-27)
(0.0345877 0.092145 0)
(0.036578 0.105599 0)
(0.0370654 0.114461 1.08103e-27)
(0.0352207 0.116954 4.86142e-28)
(0.0312695 0.113979 3.34588e-35)
(0.0264645 0.108642 0)
(0.0219643 0.103782 0)
(0.0181125 0.100132 -6.67569e-29)
(0.0148045 0.0974636 0)
(0.011914 0.0954163 0)
(0.00940353 0.0938612 3.03926e-27)
(0.00720435 0.0926531 0)
(0.00529218 0.0917436 3.13711e-27)
(0.00363089 0.0911322 4.66015e-28)
(0.00217257 0.0907059 4.54913e-28)
(0.000903528 0.0904021 -1.28852e-28)
(-0.000207181 0.0902615 3.18833e-28)
(-0.00116104 0.0901614 -1.30614e-28)
(-0.00195137 0.0899977 -1.04202e-28)
(-0.0025095 0.0897638 -2.39044e-28)
(-0.00281564 0.0894265 -4.93984e-28)
(-0.00273275 0.0889418 4.27794e-27)
(-0.00219186 0.0883288 -1.616e-27)
(-0.000877679 0.0875643 0)
(0.0190401 0.00208581 1.08238e-27)
(0.0202745 0.00766882 0)
(0.0211888 0.0147404 -1.77258e-27)
(0.0221939 0.0222005 -1.55267e-27)
(0.0232147 0.0303426 -9.52902e-28)
(0.0244916 0.0391935 -7.1095e-29)
(0.0259776 0.0492684 -5.46717e-28)
(0.0278719 0.0614681 1.50327e-27)
(0.0303321 0.0759804 3.33369e-27)
(0.032999 0.0913147 3.0831e-27)
(0.035276 0.105344 -2.74921e-27)
(0.0363029 0.115523 0)
(0.0351926 0.119609 -3.59932e-27)
(0.0318384 0.117749 -2.85207e-27)
(0.0272475 0.112598 0)
(0.0226972 0.107324 2.66563e-27)
(0.0187245 0.103164 0)
(0.0153241 0.10011 -3.77773e-27)
(0.0123536 0.097729 4.7159e-29)
(0.00976949 0.0959041 2.81957e-27)
(0.00751151 0.0944557 -2.15339e-27)
(0.00554522 0.0933286 2.28591e-27)
(0.00383603 0.0925319 -1.80338e-27)
(0.0023368 0.0919518 -1.07446e-27)
(0.00101611 0.0915297 2.23226e-28)
(-0.000159965 0.0913169 -4.85365e-29)
(-0.00121145 0.0911783 0)
(-0.0021381 0.0909852 1.17593e-31)
(-0.00290904 0.0907436 1.26945e-28)
(-0.00344023 0.0903523 -5.32828e-28)
(-0.00370825 0.0897975 0)
(-0.00352498 0.0890261 2.07409e-27)
(-0.00273962 0.0880085 -1.77929e-27)
(-0.000513763 0.087041 -7.29983e-29)
(-0.00158961 0.0871304 5.52086e-28)
(0.0174619 0.00227639 -9.75487e-28)
(0.0185998 0.00835091 9.21702e-28)
(0.0194836 0.0155109 0)
(0.0204503 0.0229337 -7.68841e-28)
(0.0214965 0.0308568 -9.28952e-28)
(0.0227812 0.0395365 -2.0947e-27)
(0.0242726 0.0493146 -7.17483e-28)
(0.0261373 0.0610228 1.46585e-27)
(0.0285897 0.0750622 0)
(0.0313439 0.0903848 1.31382e-32)
(0.033852 0.10485 -4.76502e-27)
(0.0353404 0.116164 1.38463e-27)
(0.0349063 0.121831 -2.96342e-27)
(0.0321801 0.12127 0)
(0.0279064 0.116582 4.39614e-28)
(0.023352 0.111011 2.71303e-27)
(0.0192795 0.106368 1.19003e-28)
(0.0157844 0.102892 -3.98229e-27)
(0.0127332 0.10019 -2.07315e-29)
(0.0100766 0.0980658 -2.91472e-27)
(0.00775901 0.0963693 -2.59665e-27)
(0.00573454 0.0950221 2.3361e-27)
(0.00398775 0.0940265 -3.04243e-27)
(0.00245611 0.0932829 -2.96071e-27)
(0.00110347 0.0927268 -1.08883e-27)
(-0.000106802 0.0924402 0)
(-0.00122726 0.0922474 -3.47502e-28)
(-0.00226051 0.0920617 0)
(-0.00318705 0.0918316 1.99222e-28)
(-0.00398513 0.0914769 2.49705e-28)
(-0.00451787 0.0908718 -1.31309e-31)
(-0.00475444 0.0900312 -1.98453e-29)
(-0.00379075 0.0885767 -8.48567e-28)
(-0.00461643 0.0891002 0)
(-0.00264997 0.0873781 7.58154e-28)
(-0.004226 0.0885303 -1.14108e-27)
(-0.00372261 0.0877655 2.637e-28)
(-0.000607969 0.0865916 2.96766e-28)
(-0.00177036 0.0867427 1.71995e-27)
(0.0159947 0.00247526 -1.18461e-28)
(0.0170224 0.00900512 -8.24681e-28)
(0.0178801 0.0162148 0)
(0.0187756 0.0235542 -1.01341e-28)
(0.0198393 0.0313748 9.199e-28)
(0.0210775 0.0398613 -1.70461e-28)
(0.0225618 0.0493834 1.92073e-27)
(0.0243882 0.0606269 -3.44034e-28)
(0.0268077 0.0741498 8.19492e-29)
(0.0296365 0.0893667 -3.50684e-27)
(0.0323336 0.104156 0)
(0.034208 0.116418 3.81151e-27)
(0.0344011 0.123603 8.24011e-28)
(0.0323132 0.124489 7.55184e-28)
(0.0284247 0.120513 5.92151e-28)
(0.0239362 0.114823 4.22502e-28)
(0.0197726 0.109744 -2.47939e-27)
(0.0161774 0.105818 0)
(0.0130571 0.102787 -1.54665e-29)
(0.0103169 0.100359 -3.10535e-27)
(0.00793794 0.0984077 0)
(0.00585492 0.0968381 -2.38709e-27)
(0.00405961 0.0956193 -4.58181e-27)
(0.00251132 0.0947015 -9.30688e-28)
(0.00113943 0.0940066 3.1252e-27)
(-7.02935e-05 0.0935989 2.56713e-28)
(-0.00121123 0.0933524 -6.12692e-28)
(-0.0023136 0.0931836 -2.85555e-28)
(-0.00337881 0.0930061 0)
(-0.00435246 0.0926973 -2.84379e-27)
(-0.00521462 0.0921842 -7.18424e-28)
(-0.0057844 0.0912857 8.96857e-28)
(-0.0052901 0.0896647 7.9835e-29)
(-0.00601272 0.0903537 8.57672e-29)
(-0.00510449 0.0890428 1.52479e-28)
(-0.00299716 0.0870175 7.78202e-28)
(-0.00476939 0.0882762 -1.0952e-27)
(-0.00416798 0.0874336 -4.97456e-28)
(-0.000651055 0.0860855 -5.8997e-28)
(-0.00198561 0.086262 -2.5217e-28)
(0.0146983 0.00271403 -8.41918e-28)
(0.0155665 0.00958771 0)
(0.0163749 0.016806 0)
(0.0172383 0.024137 -7.57949e-28)
(0.0182444 0.0318612 5.02755e-28)
(0.0194241 0.0401753 -1.056e-27)
(0.0208692 0.0494526 1.82454e-27)
(0.0226574 0.060259 6.043e-28)
(0.0250151 0.0732428 0)
(0.0278924 0.0882607 2.62909e-28)
(0.0307481 0.103291 -3.70513e-27)
(0.0329375 0.116336 3.82948e-27)
(0.0336957 0.124926 -3.82636e-27)
(0.0322575 0.127348 8.75101e-28)
(0.0288153 0.12431 0)
(0.0244558 0.118706 -4.52489e-31)
(0.0202296 0.113261 -5.27296e-27)
(0.0165249 0.108887 -1.41344e-28)
(0.0133239 0.105513 0)
(0.0105059 0.102786 3.29251e-27)
(0.0080458 0.100585 0)
(0.0058989 0.0987872 -2.46643e-27)
(0.0040484 0.09733 -2.18408e-27)
(0.00247664 0.0962132 -4.20649e-28)
(0.00110881 0.0953615 1.57044e-31)
(-9.32303e-05 0.09479 2.27079e-27)
(-0.00119464 0.0944709 -2.69137e-29)
(-0.00230901 0.0943257 -4.53247e-28)
(-0.00345849 0.0942096 1.49144e-27)
(-0.00461131 0.0940303 -3.04953e-27)
(-0.00567995 0.0935635 -5.64598e-28)
(-0.00663393 0.0927944 0)
(-0.00657027 0.0910438 -2.82616e-28)
(-0.0071789 0.0918671 -3.81262e-28)
(-0.00593168 0.089668 8.21352e-28)
(-0.00668128 0.0903888 3.64761e-28)
(-0.00573695 0.0888901 -2.48993e-28)
(-0.00335574 0.0865709 5.00876e-28)
(-0.00531879 0.0879949 1.21035e-27)
(-0.00468211 0.0870353 -8.62247e-28)
(-0.000725212 0.0854697 -2.82555e-27)
(-0.00223236 0.0856717 -2.06655e-28)
(0.0135914 0.00298907 1.38976e-28)
(0.0142564 0.0100643 -1.15509e-27)
(0.0150226 0.0173371 5.47969e-28)
(0.0158208 0.0247037 0)
(0.0167295 0.0322987 3.83635e-36)
(0.0178596 0.04048 0)
(0.0192304 0.0494898 -1.20023e-27)
(0.0209768 0.0598981 0)
(0.0232493 0.0723514 -7.71224e-29)
(0.0261301 0.0870723 0)
(0.0291081 0.102274 -5.31814e-28)
(0.0315748 0.115952 -7.84983e-28)
(0.0328141 0.125817 -4.7475e-32)
(0.0320157 0.129801 0)
(0.0290798 0.127903 8.68957e-28)
(0.0249135 0.122605 -7.11926e-28)
(0.0206583 0.116885 -3.06684e-27)
(0.016845 0.112091 -2.40993e-27)
(0.0135436 0.108366 1.77321e-27)
(0.0106461 0.105353 3.51425e-27)
(0.00810145 0.102892 -4.84241e-30)
(0.00587677 0.100863 0)
(0.00396562 0.0991636 -2.25321e-27)
(0.00235472 0.0978208 2.00186e-27)
(0.000993519 0.0967735 -2.20487e-27)
(-0.000182214 0.0960216 1.0352e-27)
(-0.00123372 0.0956062 -1.87566e-27)
(-0.00227833 0.0954426 -3.61678e-29)
(-0.00344612 0.0954245 1.39026e-27)
(-0.00470189 0.0953619 1.62159e-27)
(-0.00601044 0.0951103 -7.4264e-30)
(-0.00722756 0.0944092 0)
(-0.00762044 0.0926739 -3.9739e-28)
(-0.00810527 0.0936145 0)
(-0.00737183 0.0911779 -3.22643e-28)
(-0.00799075 0.0920468 -4.747e-28)
(-0.00664467 0.0896039 8.20176e-28)
(-0.00747898 0.0904083 9.07292e-28)
(-0.00640965 0.0886867 0)
(-0.00377249 0.0860209 -1.27135e-28)
(-0.00596545 0.0876606 1.18358e-27)
(-0.00526404 0.086546 1.55294e-28)
(-0.000811541 0.0847259 -3.16291e-27)
(-0.00250938 0.084952 -4.18486e-28)
(0.0127223 0.00322633 1.49251e-28)
(0.0131817 0.0104347 0)
(0.0138355 0.0177887 -4.46166e-28)
(0.0145435 0.0252003 4.19319e-28)
(0.0153485 0.0327033 1.77235e-27)
(0.0163847 0.0407589 1.0244e-27)
(0.0176839 0.0494876 -1.17407e-27)
(0.01937 0.0595338 0)
(0.0215462 0.071486 0)
(0.0243784 0.0858182 0)
(0.0274359 0.10111 7.28508e-27)
(0.0301429 0.115294 -3.04823e-27)
(0.0317978 0.126293 2.92805e-27)
(0.0316024 0.131818 0)
(0.0292138 0.131233 4.63418e-27)
(0.0253149 0.126481 -3.33657e-31)
(0.0210497 0.120602 -6.90403e-28)
(0.0171495 0.11543 2.77115e-28)
(0.0137339 0.11134 1.99357e-27)
(0.0107448 0.108044 1.72395e-27)
(0.00811391 0.10532 -1.33178e-29)
(0.00580889 0.103059 -5.17961e-30)
(0.00382457 0.101112 -4.48151e-27)
(0.00215933 0.0995319 1.87335e-27)
(0.000779962 0.0982561 0)
(-0.000361596 0.0972988 2.81053e-27)
(-0.0013462 0.0967569 -3.54937e-28)
(-0.00230406 0.0965388 -1.47618e-27)
(-0.00335415 0.0965668 7.56015e-32)
(-0.00466375 0.0966973 1.70773e-27)
(-0.00609006 0.0966212 -9.01291e-28)
(-0.00763268 0.0961939 4.90498e-29)
(-0.00841209 0.0945098 2.1201e-28)
(-0.00875777 0.0955364 2.76025e-28)
(-0.00854163 0.0929693 -1.04287e-27)
(-0.00902099 0.0939554 -8.59958e-28)
(-0.00823999 0.0912926 1.02639e-28)
(-0.00892442 0.0922525 -1.9178e-28)
(-0.0074275 0.0894919 1.94749e-28)
(-0.00835726 0.090394 2.09297e-28)
(-0.00718372 0.0884396 1.53514e-27)
(-0.004247 0.0853528 -5.33394e-28)
(-0.00669922 0.0872535 0)
(-0.00592936 0.0859554 9.07469e-28)
(-0.000906496 0.0838349 -3.53852e-27)
(-0.00282246 0.0840909 0)
(0.0121164 0.00338433 1.57327e-28)
(0.0123994 0.0107182 3.19413e-28)
(0.0128738 0.0181216 3.4644e-28)
(0.0134695 0.0256055 0)
(0.0141411 0.0330713 -3.09729e-28)
(0.0150418 0.0409856 -2.59219e-28)
(0.0162473 0.0494572 -1.15036e-27)
(0.0178497 0.0591652 1.30478e-27)
(0.0199266 0.0706489 0)
(0.0226678 0.0845139 2.33958e-28)
(0.025769 0.0998068 3.60397e-27)
(0.0286537 0.114398 -4.59631e-27)
(0.0306724 0.126374 -3.93774e-27)
(0.031041 0.133388 -3.90877e-27)
(0.0292229 0.134254 1.08942e-27)
(0.0256514 0.130264 1.94637e-27)
(0.0214242 0.124397 -8.27436e-28)
(0.0174341 0.118885 2.74912e-27)
(0.0139158 0.114432 -2.36035e-27)
(0.0108247 0.110842 -2.38746e-28)
(0.00809944 0.107866 0)
(0.0057053 0.105373 8.83032e-33)
(0.0036321 0.103183 -2.30977e-27)
(0.00189484 0.101363 -1.90648e-27)
(0.000471591 0.0998441 -1.66236e-27)
(-0.00066852 0.0986533 1.6292e-27)
(-0.00157934 0.0979133 -9.35793e-28)
(-0.00239295 0.0976045 1.17066e-27)
(-0.00331381 0.0976346 -7.38468e-28)
(-0.00445501 0.0979113 1.43209e-27)
(-0.00602469 0.0981372 -9.72312e-28)
(-0.00769971 0.0979727 0)
(-0.00892912 0.0964981 9.93659e-30)
(-0.00913393 0.0975701 -9.21998e-28)
(-0.00941893 0.0949776 1.51561e-28)
(-0.00974831 0.0960522 6.02711e-29)
(-0.00952896 0.0932766 1.10995e-28)
(-0.0100528 0.0943579 0)
(-0.0092003 0.0913841 -1.10681e-28)
(-0.00995342 0.0924542 -1.15391e-28)
(-0.00831864 0.0893497 1.6882e-27)
(-0.00935026 0.0903671 -2.61896e-28)
(-0.00805921 0.0881358 0)
(-0.00479334 0.0845611 0)
(-0.00754068 0.0867659 0)
(-0.00669689 0.0852651 1.0318e-27)
(-0.00101957 0.0827927 -3.9829e-27)
(-0.003184 0.0830924 9.73483e-27)
(0.011741 0.00347632 1.63638e-28)
(0.0118799 0.0109607 0)
(0.012154 0.0183735 5.55665e-28)
(0.0126029 0.0259258 5.19121e-28)
(0.0131303 0.0333927 -8.74861e-28)
(0.0138732 0.0411633 -1.99451e-27)
(0.0149485 0.0494069 -1.55207e-28)
(0.0164332 0.0587959 2.55892e-27)
(0.0183993 0.0698373 -2.90294e-27)
(0.0210184 0.0831838 0)
(0.0241331 0.0983816 4.54269e-28)
(0.0271411 0.113292 0)
(0.0294543 0.126108 -9.83048e-28)
(0.0303407 0.134519 -3.98186e-27)
(0.0291052 0.136912 -3.87101e-27)
(0.0259231 0.1339 1.09042e-27)
(0.0217952 0.128222 -2.33493e-27)
(0.0177105 0.122438 2.50583e-27)
(0.0140944 0.117631 -2.53034e-27)
(0.010893 0.113757 -3.09291e-32)
(0.00806591 0.110529 1.80199e-27)
(0.00557902 0.107802 2.50033e-29)
(0.00340239 0.105386 1.60869e-29)
(0.00156648 0.103331 -1.92806e-27)
(6.68291e-05 0.101566 8.53291e-29)
(-0.00109886 0.10012 0)
(-0.00198746 0.0991343 -5.60229e-28)
(-0.00264345 0.0986152 4.30213e-28)
(-0.00329059 0.0985913 -1.3488e-27)
(-0.00428529 0.0989712 2.76127e-27)
(-0.0056392 0.0995341 -5.88812e-28)
(-0.00760869 0.0997292 0)
(-0.00914195 0.0985588 -9.65002e-28)
(-0.0091895 0.099651 5.06331e-28)
(-0.00999166 0.0971484 -2.30893e-28)
(-0.0101703 0.0982756 -2.26708e-28)
(-0.0104937 0.0954844 2.54306e-28)
(-0.0108531 0.0966551 3.17738e-30)
(-0.0106171 0.0935924 -5.11309e-28)