/*--------------------------------*- C++ -*----------------------------------*\
  =========                 |
  \\      /  F ield         | OpenFOAM: The Open Source CFD Toolbox
   \\    /   O peration     | Website:  https://openfoam.org
    \\  /    A nd           | Version:  dev
     \\/     M anipulation  |
\*---------------------------------------------------------------------------*/
FoamFile
{
    version     2.0;
    format      ascii;
    class       volScalarField;
    location    "2500";
    object      a;
}
// * * * * * * * * * * * * * * * * * * * * * * * * * * * * * * * * * * * * * //

dimensions      [0 -1 0 0 0 0 0];

internalField   nonuniform List<scalar> 
9851
(
0.100011
0.100011
0.100011
0.100011
0.100011
0.100011
0.100011
0.100011
0.100011
0.100011
0.10001
0.100011
0.100011
0.100011
0.100011
0.10001
0.10001
0.100011
0.100011
0.100011
0.100011
0.10001
0.10001
0.10001
0.100011
0.100011
0.100011
0.100011
0.10001
0.10001
0.10001
0.10001
0.100011
0.100011
0.100011
0.100011
0.100009
0.10001
0.10001
0.10001
0.10001
0.100011
0.100011
0.100011
0.100011
0.100009
0.100009
0.10001
0.10001
0.10001
0.10001
0.100011
0.100011
0.100011
0.100011
0.100009
0.100009
0.100009
0.10001
0.10001
0.10001
0.10001
0.100011
0.100011
0.100011
0.100011
0.100009
0.100009
0.100009
0.100009
0.10001
0.10001
0.10001
0.10001
0.100011
0.100011
0.100011
0.100011
0.100009
0.100009
0.100009
0.100009
0.100009
0.10001
0.10001
0.10001
0.10001
0.100011
0.100011
0.100011
0.100011
0.100008
0.100009
0.100009
0.100009
0.100009
0.100009
0.10001
0.10001
0.10001
0.10001
0.100011
0.100011
0.100011
0.100011
0.100008
0.100008
0.100009
0.100009
0.100009
0.100009
0.100009
0.10001
0.10001
0.10001
0.10001
0.100011
0.100011
0.100011
0.100011
0.100008
0.100008
0.100008
0.100009
0.100009
0.100009
0.100009
0.100009
0.10001
0.10001
0.10001
0.10001
0.100011
0.100011
0.100011
0.100011
0.100008
0.100008
0.100008
0.100008
0.100008
0.100009
0.100009
0.100009
0.100009
0.10001
0.10001
0.10001
0.10001
0.100011
0.100011
0.100011
0.100011
0.100007
0.100008
0.100008
0.100008
0.100008
0.100008
0.100009
0.100009
0.100009
0.100009
0.10001
0.10001
0.10001
0.10001
0.100011
0.100011
0.100011
0.100011
0.100007
0.100007
0.100008
0.100008
0.100008
0.100008
0.100008
0.100009
0.100009
0.100009
0.100009
0.10001
0.10001
0.10001
0.10001
0.100011
0.100011
0.100011
0.100011
0.100007
0.100007
0.100007
0.100008
0.100008
0.100008
0.100008
0.100008
0.100009
0.100009
0.100009
0.100009
0.10001
0.10001
0.10001
0.10001
0.100011
0.100011
0.100011
0.100011
0.100007
0.100007
0.100007
0.100007
0.100008
0.100008
0.100008
0.100008
0.100008
0.100009
0.100009
0.100009
0.100009
0.10001
0.10001
0.10001
0.10001
0.100011
0.100011
0.100011
0.100011
0.100006
0.100007
0.100007
0.100007
0.100007
0.100008
0.100008
0.100008
0.100008
0.100008
0.100009
0.100009
0.100009
0.100009
0.10001
0.10001
0.10001
0.10001
0.100011
0.100011
0.100011
0.100011
0.100006
0.100006
0.100007
0.100007
0.100007
0.100007
0.100008
0.100008
0.100008
0.100008
0.100008
0.100009
0.100009
0.100009
0.100009
0.10001
0.10001
0.10001
0.10001
0.100011
0.100011
0.100011
0.100011
0.100006
0.100006
0.100006
0.100007
0.100007
0.100007
0.100007
0.100008
0.100008
0.100008
0.100008
0.100008
0.100009
0.100009
0.100009
0.100009
0.10001
0.10001
0.10001
0.10001
0.100011
0.100011
0.100011
0.100011
0.100006
0.100006
0.100006
0.100006
0.100007
0.100007
0.100007
0.100007
0.100008
0.100008
0.100008
0.100008
0.100008
0.100009
0.100009
0.100009
0.100009
0.10001
0.10001
0.10001
0.10001
0.100011
0.100011
0.100011
0.100011
0.100006
0.100006
0.100006
0.100006
0.100006
0.100007
0.100007
0.100007
0.100007
0.100008
0.100008
0.100008
0.100008
0.100008
0.100009
0.100009
0.100009
0.100009
0.10001
0.10001
0.10001
0.10001
0.100011
0.100011
0.100011
0.100011
0.100005
0.100006
0.100006
0.100006
0.100006
0.100006
0.100007
0.100007
0.100007
0.100007
0.100008
0.100008
0.100008
0.100008
0.100008
0.100009
0.100009
0.100009
0.100009
0.10001
0.10001
0.10001
0.10001
0.100011
0.100011
0.100011
0.100011
0.100005
0.100005
0.100006
0.100006
0.100006
0.100006
0.100006
0.100007
0.100007
0.100007
0.100007
0.100008
0.100008
0.100008
0.100008
0.100008
0.100009
0.100009
0.100009
0.100009
0.10001
0.10001
0.10001
0.10001
0.100011
0.100011
0.100011
0.100011
0.100005
0.100005
0.100005
0.100006
0.100006
0.100006
0.100006
0.100006
0.100007
0.100007
0.100007
0.100007
0.100008
0.100008
0.100008
0.100008
0.100008
0.100009
0.100009
0.100009
0.100009
0.10001
0.10001
0.10001
0.10001
0.100011
0.100011
0.100011
0.100011
0.100005
0.100005
0.100005
0.100005
0.100006
0.100006
0.100006
0.100006
0.100006
0.100007
0.100007
0.100007
0.100007
0.100008
0.100008
0.100008
0.100008
0.100008
0.100009
0.100009
0.100009
0.100009
0.10001
0.10001
0.10001
0.10001
0.100011
0.100011
0.100011
0.100011
0.100004
0.100005
0.100005
0.100005
0.100005
0.100006
0.100006
0.100006
0.100006
0.100006
0.100007
0.100007
0.100007
0.100007
0.100008
0.100008
0.100008
0.100008
0.100008
0.100009
0.100009
0.100009
0.100009
0.10001
0.10001
0.10001
0.10001
0.100011
0.100011
0.100011
0.100011
0.100004
0.100004
0.100005
0.100005
0.100005
0.100005
0.100006
0.100006
0.100006
0.100006
0.100006
0.100007
0.100007
0.100007
0.100007
0.100008
0.100008
0.100008
0.100008
0.100008
0.100009
0.100009
0.100009
0.100009
0.10001
0.10001
0.10001
0.10001
0.100011
0.100011
0.100011
0.100011
0.100004
0.100004
0.100004
0.100005
0.100005
0.100005
0.100005
0.100006
0.100006
0.100006
0.100006
0.100006
0.100007
0.100007
0.100007
0.100007
0.100008
0.100008
0.100008
0.100008
0.100008
0.100009
0.100009
0.100009
0.100009
0.10001
0.10001
0.10001
0.10001
0.100011
0.100011
0.100011
0.100011
0.100004
0.100004
0.100004
0.100004
0.100005
0.100005
0.100005
0.100005
0.100006
0.100006
0.100006
0.100006
0.100006
0.100007
0.100007
0.100007
0.100007
0.100008
0.100008
0.100008
0.100008
0.100008
0.100009
0.100009
0.100009
0.100009
0.10001
0.10001
0.10001
0.10001
0.100011
0.100011
0.100011
0.100011
0.100011
0.100004
0.100004
0.100004
0.100004
0.100004
0.100005
0.100005
0.100005
0.100005
0.100006
0.100006
0.100006
0.100006
0.100006
0.100007
0.100007
0.100007
0.100007
0.100008
0.100008
0.100008
0.100008
0.100008
0.100009
0.100009
0.100009
0.100009
0.10001
0.10001
0.10001
0.10001
0.100011
0.100011
0.100011
0.100011
0.100011
0.100011
0.100003
0.100004
0.100004
0.100004
0.100004
0.100004
0.100005
0.100005
0.100005
0.100005
0.100006
0.100006
0.100006
0.100006
0.100006
0.100007
0.100007
0.100007
0.100007
0.100008
0.100008
0.100008
0.100008
0.100008
0.100009
0.100009
0.100009
0.100009
0.10001
0.10001
0.10001
0.10001
0.100011
0.100011
0.100011
0.100011
0.100011
0.100011
0.100011
0.100011
0.100011
0.100003
0.100003
0.100004
0.100004
0.100004
0.100004
0.100004
0.100005
0.100005
0.100005
0.100005
0.100006
0.100006
0.100006
0.100006
0.100006
0.100007
0.100007
0.100007
0.100007
0.100008
0.100008
0.100008
0.100008
0.100008
0.100009
0.100009
0.100009
0.100009
0.10001
0.10001
0.10001
0.10001
0.10001
0.100011
0.100011
0.100011
0.100011
0.100011
0.100011
0.100011
0.100011
0.100003
0.100003
0.100003
0.100004
0.100004
0.100004
0.100004
0.100004
0.100005
0.100005
0.100005
0.100005
0.100006
0.100006
0.100006
0.100006
0.100006
0.100007
0.100007
0.100007
0.100007
0.100008
0.100008
0.100008
0.100008
0.100008
0.100009
0.100009
0.100009
0.10001
0.10001
0.100011
0.100011
0.100011
0.100011
0.100011
0.100011
0.100011
0.100011
0.100011
0.100011
0.100011
0.100011
0.100011
0.100003
0.100003
0.100003
0.100003
0.100004
0.100004
0.100004
0.100004
0.100004
0.100005
0.100005
0.100005
0.100005
0.100006
0.100006
0.100006
0.100006
0.100006
0.100007
0.100007
0.100007
0.100007
0.100008
0.100008
0.100008
0.100008
0.100009
0.100009
0.100009
0.100011
0.100013
0.100017
0.100014
0.100022
0.100012
0.100017
0.100011
0.100013
0.100011
0.100011
0.100012
0.100012
0.100011
0.100011
0.100011
0.100011
0.100002
0.100003
0.100003
0.100003
0.100003
0.100004
0.100004
0.100004
0.100004
0.100004
0.100005
0.100005
0.100005
0.100005
0.100006
0.100006
0.100006
0.100006
0.100006
0.100007
0.100007
0.100007
0.100007
0.100008
0.100008
0.100008
0.100008
0.100009
0.10001
0.100014
0.100026
0.100051
0.100042
0.100094
0.100032
0.100075
0.100022
0.100048
0.100014
0.100027
0.100015
0.100012
0.100016
0.100015
0.100011
0.100011
0.100011
0.100011
0.100002
0.100002
0.100003
0.100003
0.100003
0.100003
0.100004
0.100004
0.100004
0.100004
0.100004
0.100005
0.100005
0.100005
0.100005
0.100006
0.100006
0.100006
0.100006
0.100006
0.100007
0.100007
0.100007
0.100007
0.100008
0.100008
0.100008
0.100009
0.100011
0.100023
0.100068
0.1002
0.10021
0.100468
0.100181
0.10043
0.100128
0.100337
0.100071
0.100207
0.100032
0.100097
0.100036
0.100015
0.100037
0.100034
0.100011
0.100013
0.100011
0.100011
0.100002
0.100002
0.100002
0.100003
0.100003
0.100003
0.100003
0.100004
0.100004
0.100004
0.100004
0.100004
0.100005
0.100005
0.100005
0.100005
0.100006
0.100006
0.100006
0.100006
0.100006
0.100007
0.100007
0.100007
0.100007
0.100008
0.100008
0.100009
0.100014
0.100041
0.100188
0.100662
0.10095
0.101963
0.100979
0.102108
0.100832
0.101934
0.100582
0.101502
0.100312
0.100926
0.100123
0.100427
0.100141
0.100029
0.100145
0.100131
0.100012
0.100023
0.100011
0.100012
0.100002
0.100002
0.100002
0.100002
0.100003
0.100003
0.100003
0.100003
0.100004
0.100004
0.100004
0.100004
0.100004
0.100005
0.100005
0.100005
0.100005
0.100006
0.100006
0.100006
0.100006
0.100006
0.100007
0.100007
0.100007
0.100008
0.100009
0.100011
0.10002
0.100075
0.100382
0.101845
0.103243
0.105364
0.104023
0.106757
0.10415
0.107585
0.103518
0.10734
0.102492
0.105873
0.101349
0.103757
0.100537
0.101782
0.100608
0.100103
0.100616
0.100552
0.100018
0.10007
0.100011
0.100014
0.100001
0.100002
0.100002
0.100002
0.100002
0.100003
0.100003
0.100003
0.100003
0.100004
0.100004
0.100004
0.100004
0.100004
0.100005
0.100005
0.100005
0.100005
0.100006
0.100006
0.100006
0.100006
0.100006
0.100007
0.100007
0.100008
0.10001
0.100014
0.100032
0.100146
0.100782
0.103354
0.107523
0.110276
0.110021
0.113625
0.111817
0.116468
0.112439
0.11818
0.111522
0.118218
0.108859
0.116273
0.105158
0.112129
0.102162
0.106455
0.102383
0.100425
0.102381
0.102121
0.100042
0.100279
0.100012
0.100023
0.100001
0.100001
0.100002
0.100002
0.100002
0.100002
0.100003
0.100003
0.100003
0.100003
0.100004
0.100004
0.100004
0.100004
0.100004
0.100005
0.100005
0.100005
0.100005
0.100006
0.100006
0.100006
0.100006
0.100007
0.100008
0.10001
0.100014
0.100023
0.100053
0.100243
0.101481
0.106397
0.11328
0.114438
0.11717
0.12103
0.121146
0.125655
0.123967
0.129556
0.125182
0.131942
0.124366
0.132322
0.121134
0.130375
0.115249
0.125653
0.107458
0.117753
0.107953
0.101626
0.107796
0.10687
0.100149
0.10106
0.100014
0.100063
0.100001
0.100001
0.100001
0.100002
0.100002
0.100002
0.100002
0.100003
0.100003
0.100003
0.100003
0.100004
0.100004
0.100004
0.100004
0.100004
0.100005
0.100005
0.100005
0.100005
0.100006
0.100006
0.100006
0.100008
0.100011
0.100016
0.100026
0.100046
0.100099
0.100389
0.102298
0.109644
0.125819
0.123785
0.12926
0.129867
0.133887
0.134742
0.139456
0.138188
0.143864
0.13978
0.146542
0.13915
0.147111
0.135887
0.145317
0.129463
0.140623
0.119383
0.132266
0.119951
0.105262
0.119255
0.117069
0.100553
0.103469
0.100023
0.100223
0.100001
0.100001
0.100001
0.100001
0.100002
0.100002
0.100002
0.100002
0.100003
0.100003
0.100003
0.100003
0.100004
0.100004
0.100004
0.100004
0.100004
0.100005
0.100005
0.100005
0.100005
0.100006
0.100008
0.100011
0.10002
0.100035
0.100061
0.100104
0.100202
0.100644
0.103297
0.112592
0.130505
0.143415
0.146196
0.137416
0.140771
0.143693
0.147554
0.14889
0.153266
0.152458
0.157583
0.154125
0.160145
0.153633
0.160721
0.150601
0.159156
0.144369
0.15488
0.133966
0.146937
0.134472
0.113502
0.13357
0.130921
0.101901
0.10949
0.100061
0.100763
0.100001
0.100001
0.100001
0.100001
0.100001
0.100002
0.100002
0.100002
0.100002
0.100003
0.100003
0.100003
0.100003
0.100004
0.100004
0.100004
0.100004
0.100004
0.100005
0.100005
0.100005
0.100007
0.100011
0.100024
0.100051
0.100098
0.100166
0.10026
0.100443
0.101123
0.104626
0.115374
0.134092
0.148353
0.150457
0.156277
0.158487
0.150904
0.153811
0.157053
0.160368
0.161914
0.165495
0.1651
0.169218
0.166584
0.171291
0.166166
0.171689
0.163532
0.170401
0.158022
0.166863
0.148352
0.159968
0.148554
0.126265
0.147271
0.144188
0.105426
0.11982
0.100191
0.102254
0.1
0.100001
0.100001
0.100001
0.100001
0.100001
0.100002
0.100002
0.100002
0.100002
0.100003
0.100003
0.100003
0.100003
0.100004
0.100004
0.100004
0.100004
0.100004
0.100005
0.100006
0.10001
0.100025
0.100067
0.100157
0.100303
0.100488
0.100696
0.101028
0.102049
0.106488
0.118087
0.137308
0.152399
0.152531
0.160366
0.162015
0.167346
0.168983
0.163148
0.165447
0.168487
0.170989
0.172449
0.174895
0.174756
0.177106
0.17559
0.177998
0.175189
0.177998
0.173302
0.177144
0.168984
0.17497
0.160851
0.170049
0.160578
0.139197
0.158942
0.155719
0.112461
0.131908
0.100549
0.105489
0.1
0.1
0.100001
0.100001
0.100001
0.100001
0.100001
0.100002
0.100002
0.100002
0.100002
0.100003
0.100003
0.100003
0.100003
0.100004
0.100004
0.100004
0.100004
0.100005
0.100007
0.100018
0.100066
0.100204
0.100499
0.100958
0.101463
0.101905
0.102419
0.104002
0.108943
0.12085
0.140137
0.161099
0.16317
0.165702
0.170322
0.171406
0.175677
0.176597
0.17297
0.174497
0.176681
0.177988
0.178628
0.179621
0.1794
0.180131
0.179468
0.180151
0.179064
0.179868
0.178031
0.179295
0.175641
0.178141
0.170213
0.175656
0.169449
0.150597
0.167628
0.164601
0.122039
0.142879
0.101418
0.110919
0.1
0.100001
0.100001
0.100001
0.100001
0.100001
0.100001
0.100002
0.100002
0.100002
0.100002
0.100003
0.100003
0.100003
0.100003
0.100004
0.100004
0.100004
0.100005
0.100009
0.100035
0.100164
0.100575
0.101466
0.102842
0.10418
0.105045
0.105661
0.10711
0.112065
0.123929
0.142706
0.16285
0.173441
0.173767
0.172209
0.173048
0.177254
0.177688
0.179917
0.180167
0.178889
0.179508
0.180254
0.18063
0.180566
0.180764
0.180336
0.180125
0.179827
0.179129
0.179327
0.17827
0.178813
0.177827
0.177829
0.177692
0.175128
0.177094
0.174078
0.159749
0.172443
0.170032
0.131691
0.152011
0.10405
0.117728
0.1
0.100001
0.100001
0.100001
0.100001
0.100001
0.100001
0.100002
0.100002
0.100002
0.100002
0.100003
0.100003
0.100003
0.100003
0.100004
0.100004
0.100004
0.100011
0.100054
0.100309
0.101224
0.103335
0.106389
0.109069
0.110317
0.110511
0.111377
0.115825
0.127417
0.145774
0.164566
0.173983
0.173835
0.178069
0.177943
0.177941
0.178095
0.18027
0.180243
0.181006
0.180909
0.180876
0.181009
0.180761
0.180632
0.179651
0.178949
0.177851
0.17631
0.176266
0.173656
0.175417
0.171922
0.175427
0.17157
0.176107
0.17252
0.176019
0.174441
0.174793
0.16594
0.173447
0.172079
0.170481
0.140517
0.159093
0.106863
0.124377
0.1
0.100001
0.100002
0.100002
0.100002
0.100001
0.100001
0.100002
0.100002
0.100002
0.100002
0.100003
0.100003
0.100003
0.100003
0.100004
0.100004
0.100011
0.100068
0.100455
0.102006
0.105632
0.110608
0.114732
0.116625
0.116665
0.116792
0.120513
0.131283
0.149054
0.1662
0.175247
0.177733
0.177662
0.179633
0.179217
0.180099
0.179922
0.180736
0.180473
0.179639
0.179135
0.180414
0.180075
0.17817
0.177378
0.174703
0.173135
0.170765
0.167852
0.167647
0.162985
0.166286
0.160134
0.166893
0.159983
0.169603
0.162085
0.172847
0.167098
0.170604
0.173302
0.171587
0.171015
0.166409
0.169678
0.172353
0.17104
0.171224
0.171787
0.148025
0.167747
0.165037
0.159303
0.11036
0.131357
0.1
0.100001
0.100002
0.100002
0.100002
0.100001
0.100001
0.100002
0.100002
0.100002
0.100002
0.100003
0.100003
0.100003
0.100003
0.100004
0.100011
0.100074
0.100553
0.102717
0.107916
0.114904
0.120715
0.123733
0.124012
0.123511
0.126165
0.135869
0.152423
0.167162
0.174489
0.177228
0.176184
0.1787
0.178154
0.178962
0.178237
0.180078
0.179576
0.178564
0.177926
0.174939
0.174084
0.176586
0.175778
0.171627
0.170204
0.165103
0.162614
0.158346
0.154115
0.153638
0.147147
0.151942
0.144027
0.152857
0.150764
0.145845
0.163247
0.158593
0.148848
0.153844
0.16598
0.169114
0.165295
0.161754
0.168707
0.171038
0.17006
0.171033
0.168809
0.168638
0.170888
0.161303
0.147644
0.156362
0.168589
0.166392
0.115028
0.150221
0.142384
0.131147
0.1
0.100002
0.100003
0.100002
0.100001
0.100001
0.100001
0.100002
0.100002
0.100002
0.100002
0.100003
0.100003
0.100003
0.100004
0.10001
0.100073
0.100588
0.103156
0.109768
0.118653
0.126389
0.131041
0.132259
0.131611
0.133112
0.141261
0.155956
0.167717
0.173106
0.173488
0.175258
0.17347
0.177389
0.176413
0.175492
0.174498
0.177209
0.176395
0.173208
0.1723
0.166383
0.165247
0.168873
0.167595
0.160324
0.158228
0.150306
0.147012
0.141156
0.136557
0.136823
0.13138
0.141885
0.13808
0.134956
0.132317
0.144198
0.140013
0.142028
0.13857
0.157065
0.15189
0.142369
0.146972
0.160769
0.165093
0.160371
0.155847
0.16506
0.170527
0.169847
0.169096
0.165376
0.165932
0.169349
0.163115
0.158584
0.168805
0.16713
0.134158
0.114804
0.124323
0.152703
0.145327
0.1
0.100002
0.100003
0.100002
0.100001
0.100001
0.100001
0.100002
0.100002
0.100002
0.100002
0.100003
0.100003
0.100003
0.100008
0.100068
0.10058
0.103287
0.110824
0.121491
0.130993
0.137537
0.140557
0.140689
0.141442
0.147869
0.15981
0.168095
0.17165
0.17025
0.166603
0.16443
0.170589
0.168704
0.173385
0.172102
0.169194
0.168072
0.171325
0.170268
0.164185
0.163154
0.153133
0.151878
0.156351
0.154639
0.144092
0.141511
0.133486
0.131656
0.128659
0.127934
0.130631
0.129321
0.128613
0.128382
0.135376
0.132867
0.131274
0.130286
0.138765
0.136074
0.136507
0.134209
0.15068
0.14576
0.138759
0.14168
0.155228
0.160424
0.155211
0.150061
0.160832
0.16947
0.169268
0.166638
0.161606
0.162641
0.167373
0.164441
0.160376
0.168577
0.167385
0.1366
0.116246
0.126334
0.154794
0.14752
0.100001
0.100003
0.100003
0.100002
0.100001
0.100001
0.100001
0.100002
0.100002
0.100002
0.100002
0.100003
0.100003
0.100006
0.100053
0.100534
0.103218
0.111129
0.123056
0.134056
0.142269
0.147269
0.149292
0.150328
0.155184
0.163374
0.168386
0.170218
0.166468
0.156094
0.158893
0.155222
0.163572
0.161406
0.166827
0.165357
0.160037
0.159038
0.162088
0.161017
0.150865
0.150009
0.135958
0.134855
0.139332
0.137488
0.130411
0.129394
0.128101
0.128388
0.128488
0.129017
0.129855
0.131355
0.130117
0.130356
0.131244
0.132582
0.132653
0.132259
0.132483
0.133468
0.137629
0.134941
0.137556
0.134851
0.145432
0.141936
0.140191
0.140432
0.150108
0.155685
0.150757
0.145812
0.156614
0.167989
0.168327
0.163889
0.15791
0.159483
0.165167
0.165277
0.16177
0.168131
0.167308
0.138383
0.116266
0.126919
0.156432
0.149127
0.100002
0.100003
0.100003
0.100001
0.100001
0.100001
0.100001
0.100002
0.100002
0.100002
0.100002
0.100003
0.100004
0.100039
0.100409
0.103036
0.111024
0.12355
0.135664
0.144536
0.150869
0.155034
0.157888
0.161958
0.166424
0.169012
0.168955
0.162684
0.150015
0.142866
0.139393
0.149566
0.146242
0.154563
0.152285
0.157871
0.156408
0.148215
0.147649
0.149272
0.148706
0.134164
0.133819
0.126235
0.124926
0.128425
0.127426
0.128892
0.129183
0.136478
0.140665
0.134174
0.135923
0.137515
0.138289
0.135175
0.137324
0.139927
0.142865
0.135339
0.13696
0.139329
0.142251
0.140752
0.138176
0.142969
0.140288
0.143462
0.142812
0.145041
0.143099
0.147041
0.151876
0.148869
0.145581
0.153431
0.166316
0.167181
0.161261
0.155261
0.157278
0.163059
0.165733
0.162768
0.167526
0.167099
0.139292
0.11447
0.125858
0.157685
0.150144
0.100003
0.100003
0.100002
0.100001
0.100001
0.100001
0.100001
0.100002
0.100002
0.100002
0.100002
0.100003
0.100023
0.100276
0.102503
0.110499
0.123414
0.135597
0.144506
0.151381
0.156815
0.161496
0.165554
0.168276
0.169501
0.167851
0.15923
0.144088
0.127881
0.132813
0.128017
0.139528
0.136378
0.144141
0.142105
0.146838
0.145694
0.13445
0.134508
0.133845
0.134165
0.123596
0.122245
0.127419
0.125629
0.129087
0.12859
0.144443
0.147091
0.159962
0.163223
0.169146
0.166152
0.146097
0.149491
0.153008
0.156505
0.145707
0.149608
0.153868
0.158327
0.143163
0.146815
0.151061
0.155758
0.148545
0.146267
0.153246
0.150588
0.145419
0.146643
0.154698
0.14991
0.147931
0.150964
0.150384
0.148188
0.153156
0.164714
0.16607
0.159407
0.155325
0.15749
0.161527
0.165947
0.163422
0.16692
0.166891
0.139151
0.111422
0.123161
0.158564
0.150515
0.100004
0.100003
0.100002
0.100001
0.100001
0.100001
0.100001
0.100002
0.100002
0.100002
0.100003
0.100013
0.100174
0.10182
0.109114
0.12248
0.1341
0.141865
0.14915
0.155525
0.161214
0.165676
0.168393
0.169306
0.166598
0.156229
0.138756
0.120432
0.118101
0.114581
0.124299
0.12082
0.129818
0.127308
0.133065
0.131733
0.134349
0.133908
0.120212
0.120665
0.121129
0.120376
0.123443
0.120867
0.147334
0.143889
0.148429
0.148777
0.171794
0.175423
0.187388
0.180442
0.184309
0.190751
0.187819
0.162882
0.167421
0.171965
0.176335
0.160808
0.166074
0.171455
0.176843
0.155552
0.160942
0.166657
0.172548
0.160696
0.15881
0.167256
0.164853
0.150611
0.155032
0.168053
0.161103
0.15108
0.152788
0.153924
0.154633
0.154993
0.163533
0.165261
0.159577
0.157178
0.159196
0.16157
0.166042
0.163858
0.166475
0.166788
0.137912
0.107874
0.118982
0.15909
0.150284
0.100004
0.100002
0.100001
0.100001
0.100001
0.100001
0.100001
0.100002
0.100002
0.100002
0.100007
0.100104
0.101226
0.107341
0.120286
0.131313
0.137305
0.142753
0.149761
0.1573
0.163476
0.167242
0.168269
0.164482
0.153178
0.134061
0.11529
0.108601
0.112798
0.109922
0.117589
0.115292
0.120916
0.119508
0.121991
0.121728
0.121303
0.12186
0.113605
0.111816
0.118264
0.115802
0.139066
0.132822
0.188622
0.183581
0.189961
0.190321
0.192658
0.193374
0.221643
0.223721
0.201635
0.20594
0.21353
0.209927
0.182143
0.187286
0.192331
0.197125
0.178542
0.184529
0.190444
0.196215
0.171185
0.177662
0.184192
0.190672
0.175515
0.174182
0.183186
0.181267
0.160156
0.167252
0.183306
0.175084
0.158438
0.156863
0.161862
0.165015
0.159279
0.163386
0.165048
0.161178
0.161299
0.162697
0.162842
0.166163
0.164184
0.166391
0.166898
0.135073
0.104552
0.113976
0.159308
0.149289
0.100003
0.100001
0.100001
0.100001
0.100001
0.100001
0.100001
0.100002
0.100002
0.100004
0.100059
0.100766
0.105574
0.117583
0.128698
0.133622
0.136123
0.138016
0.144481
0.15483
0.162141
0.164396
0.160278
0.148483
0.128579
0.11139
0.1053
0.105703
0.104155
0.108442
0.106939
0.111088
0.109871
0.112251
0.111936
0.11152
0.112086
0.110889
0.11089
0.114353
0.110501
0.126171
0.119774
0.176329
0.166163
0.234731
0.22981
0.225028
0.226887
0.23641
0.216719
0.219396
0.240926
0.242493
0.221449
0.225694
0.233052
0.229579
0.201763
0.207058
0.21217
0.216967
0.197069
0.203297
0.209316
0.215082
0.188342
0.195336
0.202195
0.208836
0.19159
0.190855
0.199784
0.198428
0.172912
0.181548
0.1993
0.190454
0.169241
0.164786
0.172797
0.177909
0.167034
0.164353
0.165703
0.163991
0.168602
0.169433
0.165019
0.166382
0.164451
0.166839
0.167229
0.130825
0.101883
0.10877
0.159315
0.147285
0.100002
0.100001
0.100001
0.100001
0.100001
0.100001
0.100001
0.100002
0.100003
0.100031
0.100461
0.103975
0.114682
0.126259
0.130839
0.131345
0.128427
0.128394
0.135071
0.146293
0.153392
0.151117
0.139475
0.121168
0.108059
0.103094
0.10188
0.102672
0.101943
0.103947
0.103317
0.104867
0.104506
0.105025
0.105023
0.105247
0.104999
0.107871
0.106151
0.128178
0.117622
0.154044
0.140812
0.222102
0.211529
0.259099
0.258037
0.260372
0.243122
0.243098
0.259943
0.260164
0.236123
0.238726
0.256889
0.258465
0.239191
0.24309
0.249731
0.246618
0.220529
0.225649
0.230517
0.235025
0.215254
0.221381
0.227196
0.232661
0.205808
0.212929
0.219759
0.226245
0.207961
0.207786
0.216303
0.215464
0.1873
0.196811
0.215305
0.206208
0.182124
0.175424
0.185388
0.192159
0.177283
0.165925
0.166908
0.169708
0.178236
0.17837
0.169483
0.166832
0.164753
0.167807
0.168022
0.125285
0.10039
0.104208
0.159008
0.144227
0.100001
0.1
0.100001
0.100001
0.100001
0.100001
0.100002
0.100002
0.100016
0.100298
0.102657
0.111801
0.123807
0.128728
0.128473
0.122755
0.117456
0.118411
0.125507
0.133177
0.134541
0.126541
0.113718
0.105042
0.101795
0.100939
0.100627
0.100442
0.100958
0.10074
0.10139
0.101178
0.101705
0.101555
0.102064
0.101834
0.103823
0.102645
0.110283
0.106016
0.158832
0.139521
0.196793
0.17867
0.254083
0.245646
0.268843
0.267109
0.270055
0.266514
0.259565
0.260075
0.270146
0.270628
0.252483
0.254858
0.268812
0.269858
0.254396
0.257714
0.26322
0.260666
0.237735
0.24242
0.246795
0.250777
0.23239
0.238138
0.243483
0.248396
0.22281
0.229746
0.236245
0.242294
0.223998
0.224287
0.232159
0.231754
0.202315
0.212237
0.230789
0.221776
0.196084
0.187734
0.199103
0.206824
0.189096
0.169231
0.169067
0.177669
0.189389
0.188658
0.176257
0.167258
0.164991
0.169057
0.16892
0.118701
0.100064
0.101408
0.158195
0.139877
0.1
0.1
0.100001
0.100001
0.100001
0.100001
0.100002
0.100009
0.100152
0.10167
0.109142
0.121144
0.127022
0.126929
0.120354
0.112391
0.108967
0.111343
0.116137
0.118072
0.114067
0.107425
0.102726
0.100996
0.100522
0.1002
0.100198
0.10014
0.1003
0.10024
0.100434
0.100365
0.100653
0.10052
0.101481
0.100906
0.105583
0.102649
0.123375
0.112061
0.197889
0.173127
0.234661
0.219213
0.264165
0.259841
0.25527
0.274291
0.272249
0.270894
0.267716
0.270501
0.270709
0.275993
0.277164
0.265422
0.267299
0.277245
0.277738
0.266739
0.269305
0.273439
0.271534
0.252858
0.256892
0.260573
0.26384
0.247887
0.253004
0.25763
0.261764
0.238745
0.245165
0.251015
0.256317
0.239137
0.239762
0.246713
0.246673
0.217339
0.227352
0.245221
0.236706
0.210583
0.201026
0.212979
0.221605
0.201759
0.174542
0.172734
0.187054
0.201239
0.199635
0.184475
0.167979
0.165153
0.171335
0.170518
0.111727
0.100019
0.100382
0.156729
0.13436
0.1
0.1
0.100001
0.100001
0.100001
0.100002
0.100006
0.100078
0.100986
0.106802
0.118297
0.125527
0.126059
0.120039
0.111375
0.105454
0.104525
0.106235
0.107318
0.10598
0.1033
0.101284
0.100523
0.10029
0.100135
0.100029
0.100059
0.100045
0.100088
0.100071
0.100161
0.100113
0.100458
0.100269
0.102076
0.10092
0.113501
0.105536
0.148679
0.127907
0.226151
0.206694
0.247005
0.238177
0.264619
0.261152
0.252091
0.255744
0.276189
0.273714
0.270516
0.26691
0.277861
0.277693
0.278277
0.279875
0.275026
0.276318
0.281684
0.281673
0.276051
0.277769
0.28021
0.279174
0.265437
0.268668
0.271526
0.273972
0.261078
0.265325
0.269019
0.272173
0.252923
0.258428
0.263244
0.267409
0.252747
0.253491
0.259244
0.259394
0.232008
0.241556
0.257731
0.25015
0.22438
0.214264
0.226029
0.234915
0.214165
0.181121
0.177676
0.197066
0.212847
0.210698
0.193442
0.168863
0.16518
0.174806
0.172331
0.106011
0.100012
0.100106
0.154637
0.127129
0.1
0.1
0.100001
0.100001
0.100001
0.100005
0.100049
0.100585
0.104905
0.115471
0.124019
0.125536
0.120286
0.111658
0.105024
0.102271
0.102094
0.102417
0.10209
0.101232
0.100542
0.100266
0.100187
0.100103
0.100026
0.100009
0.100015
0.100008
0.10002
0.100036
0.100025
0.10012
0.100061
0.100645
0.100281
0.104978
0.10166
0.128862
0.113136
0.179879
0.152295
0.234201
0.223904
0.24666
0.241063
0.262936
0.259155
0.247026
0.249943
0.276551
0.273761
0.268393
0.263703
0.28147
0.280985
0.278947
0.280775
0.28097
0.281489
0.283688
0.283453
0.28155
0.282481
0.283557
0.283149
0.274793
0.276962
0.2788
0.280319
0.270979
0.273904
0.276282
0.278267
0.264453
0.268624
0.272019
0.274744
0.264277
0.26476
0.269501
0.26933
0.244609
0.253937
0.269056
0.262405
0.237174
0.226559
0.239056
0.248189
0.226146
0.18903
0.183714
0.207538
0.225538
0.223671
0.203396
0.169984
0.16505
0.178423
0.174893
0.102739
0.100012
0.100035
0.151449
0.119943
0.100001
0.100001
0.100001
0.100001
0.100004
0.100037
0.100438
0.103454
0.1129
0.12233
0.125098
0.121124
0.113002
0.10565
0.102018
0.100877
0.10074
0.100637
0.100411
0.100216
0.100126
0.100106
0.100073
0.100021
0.100007
0.100009
0.100007
0.100006
0.100012
0.10003
0.100017
0.100188
0.100068
0.101183
0.100464
0.110901
0.103821
0.14983
0.125869
0.205982
0.178816
0.232622
0.22752
0.236961
0.235882
0.232979
0.258778
0.254036
0.23851
0.24205
0.276232
0.272634
0.26568
0.25967
0.283071
0.282186
0.279022
0.281184
0.283751
0.283773
0.284551
0.284226
0.284099
0.284625
0.284993
0.284879
0.279909
0.281273
0.282412
0.283355
0.276925
0.278635
0.280128
0.28149
0.273015
0.275926
0.277861
0.279509
0.272308
0.273685
0.275096
0.276125
0.25866
0.266597
0.273021
0.270473
0.251918
0.240875
0.25507
0.262631
0.243256
0.197379
0.190267
0.220466
0.242959
0.240843
0.215179
0.17108
0.164676
0.183713
0.177488
0.101091
0.100011
0.100019
0.148336
0.112512
0.100001
0.100001
0.100002
0.100005
0.100033
0.100323
0.102473
0.110661
0.120493
0.1246
0.122184
0.115226
0.107759
0.102399
0.100705
0.100301
0.100198
0.100131
0.100087
0.100075
0.100068
0.100042
0.100017
0.100007
0.100006
0.100008
0.100007
0.100006
0.100011
0.100046
0.100019
0.100317
0.10013
0.10251
0.100786
0.119818
0.107642
0.17084
0.141808
0.216854
0.198348
0.220521
0.223177
0.226393
0.226605
0.219846
0.217012
0.253336
0.247208
0.228228
0.232845
0.275343
0.270994
0.262994
0.255612
0.283753
0.282714
0.278681
0.281175
0.284974
0.284881
0.285294
0.284866
0.285486
0.285873
0.286234
0.286191
0.282618
0.283551
0.284323
0.284972
0.280969
0.282275
0.283315
0.284121
0.278167
0.279766
0.281207
0.282388
0.274523
0.277165
0.277501
0.279228
0.267456
0.269859
0.275812
0.272097
0.263449
0.257677
0.263475
0.266623
0.256393
0.208075
0.199157
0.237153
0.254145
0.251019
0.231088
0.17258
0.164325
0.189117
0.181679
0.100545
0.100011
0.100017
0.142482
0.109299
0.100004
0.100003
0.100007
0.100034
0.100252
0.101886
0.108892
0.118657
0.123999
0.123014
0.117262
0.110154
0.103844
0.100785
0.100215
0.100103
0.100064
0.100047
0.100043
0.10004
0.100024
0.100012
0.100007
0.100005
0.100006
0.100006
0.100006
0.100009
0.100008
0.100015
0.100084
0.100032
0.100494
0.100207
0.104539
0.101411
0.130256
0.112856
0.18469
0.156928
0.218151
0.205272
0.209927
0.204131
0.20917
0.210872
0.214926
0.214992
0.205644
0.247501
0.239587
0.217173
0.223224
0.27419
0.269211
0.260202
0.251713
0.284077
0.282994
0.278032
0.28086
0.286176
0.285836
0.28544
0.284957
0.286566
0.286764
0.286739
0.286788
0.284809
0.285387
0.285879
0.286282
0.283163
0.283843
0.284425
0.284931
0.280398
0.281454
0.28279
0.283257
0.276998
0.27936
0.277966
0.280627
0.268826
0.272793
0.275226
0.274272
0.265703
0.261545
0.264468
0.26833
0.25893
0.221886
0.209904
0.246078
0.256581
0.2543
0.241668
0.174096
0.163354
0.197809
0.185157
0.100247
0.100015
0.100045