/*--------------------------------*- C++ -*----------------------------------*\
  =========                 |
  \\      /  F ield         | OpenFOAM: The Open Source CFD Toolbox
   \\    /   O peration     | Website:  https://openfoam.org
    \\  /    A nd           | Version:  dev
     \\/     M anipulation  |
\*---------------------------------------------------------------------------*/
FoamFile
{
    version     2.0;
    format      ascii;
    class       volScalarField;
    location    "2500";
    object      alphat;
}
// * * * * * * * * * * * * * * * * * * * * * * * * * * * * * * * * * * * * * //

dimensions      [1 -1 -1 0 0 0 0];

internalField   nonuniform List<scalar> 
9851
(
0.000153957
0.000158359
0.00014887
0.000144148
0.000187495
0.00013121
0.00013133
0.000198823
0.000174351
0.000124074
0.000127179
0.000193661
0.000198407
0.000147924
0.000121854
0.000123377
0.000178231
0.000213409
0.000178975
0.00013386
0.000120377
0.000121172
0.000158411
0.000217022
0.000204106
0.000151969
0.000127852
0.000119369
0.000120538
0.00014712
0.000213887
0.000216724
0.00017591
0.000136999
0.000124472
0.000118774
0.000120269
0.000138456
0.000202432
0.000226837
0.000200261
0.000150911
0.000129853
0.000122168
0.000118302
0.000119681
0.000131866
0.000184418
0.000229339
0.000218107
0.000169297
0.000137128
0.000126079
0.000120753
0.000118019
0.000118966
0.000127678
0.000165102
0.000227896
0.000227599
0.000190804
0.000147359
0.000130344
0.000123386
0.000119697
0.000117747
0.000118343
0.000124965
0.0001536
0.00022089
0.000233345
0.000210925
0.000162359
0.000135414
0.000126454
0.00012165
0.000119081
0.000117594
0.000117733
0.000123365
0.000145266
0.000205089
0.000236952
0.000224643
0.000179837
0.000143761
0.000129772
0.000123728
0.000120436
0.000118551
0.000117466
0.000117344
0.00012277
0.000139086
0.000188108
0.000236857
0.000233328
0.00019858
0.000155041
0.000133905
0.000126086
0.000122008
0.000119625
0.000118152
0.000117373
0.000117106
0.000122484
0.000135033
0.00017245
0.000232452
0.000237317
0.000215599
0.000170059
0.000139623
0.000129047
0.000123643
0.000120757
0.000118944
0.000117875
0.000117301
0.000116967
0.000122347
0.000132432
0.000160689
0.000221789
0.000241799
0.000228385
0.000186319
0.00014921
0.000131888
0.000125568
0.000121818
0.000119805
0.000118461
0.000117661
0.000117244
0.000116894
0.00012228
0.000130645
0.000153207
0.000206857
0.000242774
0.000236587
0.000202668
0.000161017
0.00013671
0.000127985
0.000123337
0.000120668
0.000119082
0.000118112
0.000117487
0.000117197
0.000116875
0.000122221
0.000129462
0.000147407
0.000190426
0.000240812
0.000241709
0.000218465
0.000175501
0.000143589
0.000130584
0.00012505
0.000121523
0.000119757
0.000118562
0.000117832
0.000117359
0.00011716
0.000116875
0.000122121
0.000128642
0.000143379
0.00017675
0.00023387
0.000246115
0.000230904
0.000191529
0.000154006
0.000133888
0.000127099
0.000122772
0.000120447
0.00011904
0.000118184
0.000117614
0.000117245
0.000117132
0.00011688
0.000121926
0.00012794
0.000140731
0.000166412
0.000220544
0.000248925
0.00024097
0.000206011
0.000166645
0.000139783
0.00012921
0.000124402
0.000121163
0.000119581
0.000118519
0.000117889
0.000117434
0.000117154
0.000117109
0.000116902
0.000121741
0.000127478
0.000138911
0.000158607
0.000204558
0.000248352
0.000247011
0.000221698
0.000180625
0.000148078
0.000131996
0.000126221
0.00012218
0.000120124
0.000118906
0.000118157
0.000117624
0.000117286
0.000117085
0.000117087
0.000116964
0.000121608
0.000127102
0.000137403
0.000152795
0.000189216
0.000243584
0.000251025
0.00023482
0.000196259
0.000159081
0.000136426
0.000128095
0.000123721
0.000120707
0.000119343
0.000118397
0.000117826
0.000117421
0.000117165
0.000117027
0.000117075
0.000117067
0.000121506
0.000126662
0.000135822
0.000148217
0.000176745
0.000232308
0.000256441
0.000246032
0.000210596
0.000172065
0.000143629
0.000130309
0.000125355
0.000121592
0.000119769
0.000118695
0.000118003
0.000117547
0.000117262
0.000117066
0.000116974
0.00011707
0.000117183
0.000121411
0.000126172
0.000134285
0.00014441
0.000166951
0.000216482
0.00025641
0.000253656
0.000226183
0.000186086
0.000152805
0.000134087
0.000127014
0.000123026
0.000120266
0.000119034
0.000118164
0.000117694
0.000117346
0.000117123
0.00011699
0.000116932
0.00011707
0.000117283
0.000121382
0.00012586
0.000133066
0.000141444
0.000158978
0.000199491
0.000253187
0.000258127
0.000240439
0.000201605
0.000164475
0.000139759
0.000128805
0.000124527
0.00012111
0.000119374
0.000118383
0.000117789
0.000117441
0.000117178
0.000117005
0.000116925
0.000116907
0.000117076
0.000117387
0.000121419
0.000125669
0.000132015
0.000139117
0.00015259
0.000184854
0.000244387
0.000265326
0.000252855
0.00021639
0.000177815
0.000148067
0.000132024
0.000126014
0.000122439
0.000119829
0.000118637
0.000117877
0.000117525
0.000117222
0.00011703
0.00011692
0.000116873
0.000116902
0.000117097
0.00011751
0.000121533
0.000125559
0.000131151
0.000137349
0.000147587
0.000173101
0.000227953
0.000266379
0.000262229
0.000232469
0.000192064
0.000157867
0.000137055
0.000127662
0.000123825
0.00012062
0.000118929
0.000118054
0.000117548
0.000117287
0.000117045
0.000116926
0.000116856
0.000116836
0.000116916
0.000117132
0.000117662
0.000121712
0.000125515
0.000130531
0.000136123
0.000143939
0.000163455
0.000208969
0.000263611
0.000267383
0.000247864
0.000208174
0.000170031
0.000143784
0.000130461
0.000125182
0.000121842
0.000119375
0.000118277
0.000117613
0.000117296
0.000117083
0.000116918
0.000116849
0.000116809
0.00011683
0.000116957
0.000117192
0.00011784
0.000121882
0.000125535
0.000130135
0.000135203
0.000141341
0.000156143
0.000192126
0.000255887
0.000275133
0.000261508
0.000223263
0.000184247
0.000152568
0.000134693
0.00012661
0.000123105
0.00012017
0.000118567
0.000117786
0.000117297
0.00011709
0.000116933
0.000116826
0.000116784
0.000116793
0.000116862
0.000117044
0.00011729
0.000118016
0.000122043
0.000125677
0.000129945
0.000134493
0.000139646
0.000150757
0.000179418
0.000239311
0.000277098
0.000272074
0.000239868
0.000198615
0.000163466
0.00014061
0.000129082
0.000124324
0.000121316
0.00011903
0.000118001
0.000117401
0.00011706
0.000116944
0.000116826
0.000116753
0.000116752
0.000116819
0.000116942
0.000117204
0.000117439
0.00011816
0.000122174
0.000125834
0.000129823
0.000133998
0.000138835
0.000147133
0.00016956
0.000220812
0.000274298
0.000277436
0.000256722
0.000215089
0.00017601
0.000148115
0.000132789
0.00012564
0.000122484
0.000119815
0.00011831
0.000117586
0.000117112
0.000116931
0.000116848
0.000116761
0.000116722
0.00011677
0.000116902
0.000117109
0.00011746
0.000117652
0.000118287
0.000122263
0.000125939
0.000129877
0.000133725
0.00013851
0.000144887
0.0001622
0.00020326
0.000267788
0.000284519
0.00027054
0.000231241
0.000190782
0.00015754
0.000137919
0.000127881
0.000123608
0.000120896
0.000118789
0.000117787
0.000117266
0.000116978
0.000116879
0.000116817
0.000116753
0.000116743
0.00011685
0.000117057
0.000117465
0.000117919
0.000117881
0.000118408
0.000122331
0.000125986
0.000129957
0.00013349
0.000138403
0.000143628
0.000157195
0.000189684
0.000253169
0.000288573
0.000281514
0.000247465
0.000205893
0.000169212
0.000144436
0.000131211
0.00012483
0.000121974
0.000119537
0.000118093
0.000117409
0.000117126
0.000116981
0.000116939
0.000116883
0.000116828
0.000116856
0.000117033
0.00011731
0.000117845
0.000118603
0.00011837
0.00011851
0.000122364
0.000125994
0.000130014
0.000133439
0.000138285
0.000143018
0.000153829
0.000181022
0.000238213
0.00028612
0.000288118
0.000264867
0.000221862
0.000182415
0.000152529
0.000135788
0.000126899
0.000122965
0.000120535
0.000118563
0.000117617
0.000117251
0.000117165
0.000117173
0.000117176
0.000117123
0.000117082
0.000117176
0.000117347
0.00011774
0.000118349
0.000119342
0.000107909
0.000106946
0.000118567
0.000122375
0.000125979
0.000130011
0.000133423
0.000138111
0.000142895
0.000151595
0.000174946
0.000224916
0.000282306
0.000293014
0.000279335
0.000238574
0.000196994
0.000162615
0.000141154
0.000129961
0.000124074
0.000121513
0.000119283
0.000117943
0.000117426
0.000117329
0.000117443
0.0001176
0.00011764
0.000117629
0.000117669
0.000118103
0.000118573
0.000119302
0.000116543
0.000106338
0.000104531
9.48644e-05
9.6466e-05
0.000118553
0.000122314
0.000125889
0.000129899
0.000133385
0.000137887
0.000142994
0.000149991
0.000169675
0.000213259
0.000274833
0.000299083
0.000289637
0.000254671
0.000212224
0.000174547
0.000148014
0.000133724
0.000126069
0.000122359
0.000120215
0.000118446
0.000117669
0.000117537
0.000117699
0.000118046
0.000118311
0.000118425
0.000118811
0.000119288
0.000120031
0.000120821
0.00012042
0.000114472
9.90638e-05
0.000108795
9.48412e-05
9.54498e-05
9.22309e-05
8.51016e-05
8.4577e-05
0.000118485
0.000122164
0.000125693
0.000129682
0.000133244
0.000137633
0.00014349
0.000148766
0.00016538
0.000202826
0.000266503
0.000303001
0.000297774
0.000270647
0.000228038
0.00018767
0.00015663
0.000138397
0.000128726
0.000123352
0.000121073
0.000119195
0.000118017
0.000117781
0.000117995
0.000118497
0.00011904
0.000119509
0.000119937
0.000120534
0.000121305
0.000119869
0.000109953
0.000106582
0.000103146
8.92356e-05
8.84625e-05
8.61189e-05
8.35979e-05
8.15812e-05
7.5518e-05
7.48067e-05
0.000118412
0.000121911
0.000125402
0.00012939
0.000132998
0.000137299
0.000143882
0.000148244
0.000161827
0.000195039
0.000259061
0.000304666
0.000304454
0.000285339
0.000244068
0.000202089
0.000166911
0.00014419
0.000132176
0.000125185
0.000121747
0.000120033
0.000118613
0.000118091
0.000118274
0.000118965
0.000119817
0.000120649
0.000121211
0.000121892
0.00012261
0.000113345
0.000102888
0.000100191
0.000100727
9.63756e-05
8.81152e-05
7.95358e-05
8.23247e-05
7.6752e-05
7.36814e-05
7.2785e-05
6.75573e-05
6.67236e-05
0.000118314
0.000121484
0.000124956
0.000128991
0.000132657
0.000136922
0.000144054
0.000148022
0.000158948
0.000189699
0.000252154
0.000305561
0.000311615
0.000298056
0.000259497
0.000217246
0.000178867
0.000151556
0.000136245
0.000127852
0.000122717
0.000120699
0.00011937
0.000118618
0.000118575
0.000119371
0.000120613
0.000121969
0.000123188
0.000124117
0.000124776
0.000107931
9.76884e-05
9.60128e-05
9.43141e-05
9.10651e-05
8.76712e-05
8.61336e-05
8.01998e-05
7.10092e-05
7.43588e-05
6.89218e-05
6.57966e-05
6.52519e-05
6.02576e-05
5.99559e-05
0.000118156
0.000120875
0.000124374
0.000128464
0.000132239
0.000136539
0.000143947
0.000147799
0.000156551
0.000184117
0.000243449
0.000306089
0.000320936
0.00030838
0.000274504
0.000232454
0.000192274
0.000160516
0.000141339
0.000131139
0.000124729
0.00012131
0.000120048
0.000119301
0.00011908
0.000119793
0.000121339
0.000123269
0.000125417
0.00012674
0.000126186
0.000109424
9.75117e-05
0.000102255
9.15093e-05
9.47705e-05
8.48899e-05
8.59538e-05
7.91079e-05
7.85629e-05
7.28831e-05
6.38651e-05
6.72969e-05
6.2378e-05
5.91987e-05
5.86231e-05
5.41262e-05
5.42888e-05
0.000117945
0.000120125
0.000123669
0.000127727
0.000131713
0.000136121
0.000143674
0.000148108
0.000154709
0.000177921
0.000231911
0.000304392
0.000331712
0.00031886
0.000289196
0.000247454
0.000206438
0.000171226
0.00014771
0.000134902
0.000127575
0.000122512
0.000120561
0.000119922
0.000119734
0.000120362
0.000122067
0.000124582
0.000127149
0.000129011
0.00012826
0.000123218
0.00011799
0.000114239
0.000107339
0.000114054
9.47984e-05
0.000115085
8.1848e-05
9.64467e-05
7.24081e-05
7.84263e-05
6.67846e-05
5.79204e-05
6.16291e-05
5.70642e-05
5.37118e-05
5.32171e-05
4.91085e-05
4.97918e-05
0.000117698
0.000119275
0.000122824
0.00012681
0.000131024
0.000135652
0.000143317
0.000148515
0.000153335
0.000172553
0.00021991
0.000300562
0.000341632
0.000331182
0.000303559
0.000262494
0.000220798
0.000183149
0.000155617
0.000139576
0.000130822
0.000125046
0.000121322
0.000120412
0.000120344
0.000121023
0.000122805
0.000125707
0.000128278
0.000130203
0.000128896
0.000124828
0.000115374
0.00012645
0.000110421
0.000120511
0.000110051
0.000114252
0.000110771
0.000109864
0.000100375
0.000108378
7.45207e-05
0.000104955
7.02636e-05
5.29086e-05
6.54239e-05
5.98039e-05
4.91178e-05
4.86416e-05
4.51582e-05
4.58074e-05
0.000117418
0.000118392
0.000121874
0.000125781
0.000130119
0.000135041
0.000142887
0.000148776
0.000152518
0.000167962
0.000210545
0.00029637
0.000350114
0.000344106
0.000319053
0.000277142
0.000235421
0.000196056
0.000164831
0.000145442
0.000134621
0.000128063
0.000123292
0.000120992
0.000120828
0.000121627
0.000123462
0.00012625
0.000129036
0.000129911
0.000126942
0.000139145
0.000143326
0.000174462
0.000144878
0.000180511
0.000140366
0.00018255
0.000127369
0.000172464
0.000114083
0.000149538
0.000107475
0.000121798
0.000106737
0.000107051
0.000104156
5.36035e-05
0.000100989
8.91628e-05
4.5244e-05
4.76702e-05
4.21004e-05
4.24557e-05
0.000117065
0.000117573
0.000120837
0.000124581
0.000129024
0.000134245
0.000142379
0.000148922
0.000152052
0.00016403
0.000203014
0.000290007
0.000357723
0.000359329
0.000335945
0.000291953
0.000249848
0.000209546
0.000175438
0.000152563
0.000139443
0.000131686
0.000126421
0.000122644
0.000121384
0.000122011
0.000123763
0.000126465
0.000129523
0.00012923
0.000129572
0.000160086
0.00020407
0.000242616
0.000222879
0.00026863
0.000233564
0.000288188
0.000231089
0.000294559
0.000212987
0.000284745
0.000177784
0.000256717
0.000131323
0.000207902
0.000107143
0.000140505
0.000106634
7.47093e-05
0.000105236
0.000102898
4.3359e-05
5.98385e-05
3.98627e-05
4.02958e-05
0.000116895
0.000117421
0.000120081
0.000123313
0.000127803
0.000133336
0.000141724
0.00014892
0.000151637
0.000160814
0.000194593
0.000276138
0.000362164
0.00037767
0.000353353
0.000308219
0.000263909
0.000223348
0.000187028
0.00016102
0.000145509
0.00013621
0.000130367
0.000126112
0.000123028
0.000122624
0.000124119
0.000126782
0.000129719
0.000128954
0.000143882
0.00020831
0.000283051
0.000303965
0.000313525
0.000358508
0.000340447
0.000387936
0.000354873
0.000409887
0.000355031
0.000419115
0.000337734
0.000412353
0.000299251
0.0003867
0.000235634
0.000337012
0.000147706
0.000256458
0.000150217
9.79254e-05
0.00014728
0.000138051
4.77336e-05
9.2892e-05
3.91632e-05
4.11635e-05
0.000118147
0.000119039
0.000120152
0.000122368
0.000126557
0.000132326
0.000140875
0.000148708
0.000151454
0.00015836
0.000186036
0.000256562
0.000360353
0.000396111
0.000372916
0.000326828
0.000278354
0.000236965
0.000199406
0.00017063
0.000152746
0.000142151
0.000135279
0.000130505
0.000126793
0.000124359
0.00012494
0.000127127
0.000129237
0.000129085
0.000160719
0.000259524
0.000426344
0.000390988
0.000446342
0.000430643
0.000468627
0.000458337
0.000500454
0.000475237
0.000524265
0.00047855
0.000536353
0.000464883
0.000533143
0.000430008
0.000511741
0.000367492
0.00046666
0.000268783
0.000389048
0.000271369
0.000123641
0.000262892
0.000239716
7.72582e-05
0.000108074
4.19031e-05
5.24219e-05
0.000119498
0.000121486
0.000121747
0.000122739
0.000126181
0.000131947
0.00014044
0.000148391
0.00015126
0.00015655
0.000178854
0.000238702
0.000353923
0.000411427
0.000394127
0.000348168
0.000294315
0.000250441
0.000212123
0.000181201
0.00016132
0.000149401
0.000141941
0.00013617
0.000131523
0.000127549
0.000126196
0.000127064
0.000127701
0.000129476
0.000181021
0.000308452
0.000480787
0.000553928
0.000578974
0.000502598
0.000531176
0.000537138
0.000569939
0.000566726
0.000603566
0.000586316
0.000629953
0.00059278
0.000644786
0.000582907
0.000644696
0.000552764
0.000627112
0.000495876
0.000587257
0.00040168
0.000516453
0.000404867
0.000202153
0.00039595
0.000371654
9.37921e-05
0.000162859
5.54769e-05
8.24374e-05
0.000122953
0.000130976
0.000130423
0.000127798
0.000128022
0.000132508
0.000140361
0.000148352
0.000151205
0.000155413
0.000173125
0.000225509
0.000346356
0.00042291
0.000415202
0.000372796
0.000312139
0.000264405
0.000224899
0.000192535
0.000170857
0.000158359
0.000150197
0.000143815
0.000136794
0.000131255
0.000127101
0.000125972
0.000126494
0.000133401
0.000207944
0.000355198
0.000519982
0.000597037
0.000616441
0.000644318
0.000663939
0.000598465
0.000622868
0.000635822
0.000664737
0.000667908
0.000701001
0.000689795
0.000729079
0.000698447
0.000745016
0.000691195
0.000746137
0.000664922
0.000730682
0.000614004
0.000695161
0.000528488
0.000632039
0.000530901
0.000329193
0.000521059
0.000495617
0.000124701
0.00026758
7.6957e-05
9.06185e-05
0.000127023
0.000149617
0.000154142
0.00014673
0.000138467
0.000136585
0.000141648
0.00014894
0.00015148
0.000154898
0.000168952
0.000214738
0.000333652
0.000430291
0.000437841
0.00040005
0.000332303
0.000279032
0.000237684
0.000204038
0.000181437
0.000168404
0.000160594
0.000151831
0.000142626
0.000134089
0.000128501
0.000125816
0.000125667
0.000150998
0.000250557
0.000398557
0.000549819
0.000632439
0.00063821
0.000681464
0.000697087
0.000731333
0.000749299
0.000690379
0.000712153
0.00073008
0.000756248
0.000763085
0.000792483
0.000784671
0.000818706
0.00079283
0.000831837
0.00078583
0.000831002
0.000761827
0.000815654
0.000716628
0.000783713
0.000641667
0.000729447
0.000641766
0.000452789
0.000630039
0.000604272
0.000195567
0.000388776
5.15409e-05
0.000125461
0.000126152
0.000162909
0.00018556
0.000186571
0.000167713
0.000152027
0.000147615
0.000151068
0.000152516
0.000154485
0.000166052
0.000206556
0.000313531
0.0004323
0.00046089
0.000427067
0.000356507
0.000294721
0.00025041
0.000215525
0.000191836
0.000179819
0.000172304
0.000162066
0.000149334
0.000139842
0.000133547
0.000133724
0.000148491
0.000203968
0.000303815
0.000440567
0.000575446
0.000703624
0.000711061
0.000732107
0.000765202
0.000779203
0.000815463
0.000831232
0.000778932
0.000798041
0.000818047
0.000840272
0.000847075
0.000870852
0.000863142
0.000888787
0.000866969
0.000893632
0.000857575
0.000887303
0.000834573
0.000870966
0.000796043
0.000843059
0.000734076
0.000800067
0.000730235
0.000561996
0.000716373
0.000690918
0.000297164
0.000497356
7.36471e-05
0.000191287
0.000139861
0.000189208
0.000216313
0.000217246
0.000189734
0.000166711
0.000157853
0.000155131
0.000154994
0.000163985
0.000199167
0.000292349
0.000428838
0.000481738
0.000454333
0.000385021
0.000312671
0.000263257
0.000226463
0.00020233
0.000191017
0.000186451
0.000180235
0.000173244
0.000174004
0.000184208
0.000204221
0.000230903
0.000280685
0.000361341
0.000477222
0.000594697
0.000722143
0.000813466
0.000822891
0.000791351
0.000803732
0.000844647
0.000855985
0.0008888
0.000899945
0.000858516
0.000874398
0.000890141
0.000906116
0.000907826
0.000920331
0.00091107
0.000917488
0.000903202
0.000905743
0.000890086
0.000865893
0.000871105
0.000857196
0.00084149
0.000858199
0.000797039
0.000833812
0.000788302
0.000650351
0.00077302
0.000748779
0.000399766
0.000587727
0.00013049
0.000265625
0.000140703
0.000204406
0.000241807
0.000244549
0.000209058
0.000176624
0.000161846
0.000157124
0.000163578
0.000192774
0.000271699
0.000420523
0.000498062
0.000480923
0.000416669
0.000334385
0.000276721
0.000237312
0.000211703
0.000202146
0.000202934
0.000210894
0.000236084
0.000275183
0.000312967
0.000323783
0.000332698
0.000359085
0.00042007
0.000510815
0.000614237
0.000738721
0.000829715
0.000835789
0.00088212
0.000887954
0.000865837
0.000874533
0.000908797
0.000915468
0.000931376
0.000933094
0.000917964
0.000926289
0.00092655
0.000930688
0.000918136
0.000916844
0.000864742
0.000819362
0.000797711
0.000739681
0.000772559
0.000694772
0.000787924
0.000694983
0.000829191
0.000724288
0.000821368
0.000788038
0.000806589
0.000712685
0.000788654
0.000770954
0.00075442
0.00048866
0.00065566
0.000172705
0.000337263
0.000137409
0.000214866
0.000266312
0.000269897
0.000214354
0.000177687
0.000162714
0.000164085
0.00018842
0.000253618
0.000410738
0.000508778
0.000505435
0.000450728
0.000359978
0.000292024
0.000248024
0.000220906
0.000211533
0.000219181
0.000249664
0.000308546
0.000392106
0.00043246
0.000425839
0.00041584
0.000426541
0.00046973
0.000535232
0.000632399
0.00075866
0.000880148
0.000894003
0.000901663
0.000920731
0.000920917
0.000918893
0.000920261
0.000932714
0.000931385
0.000928005
0.000926036
0.000931138
0.000929844
0.000899179
0.000877469
0.000779966
0.000748923
0.000689418
0.000644583
0.000628338
0.000570881
0.000608874
0.000534141
0.000620503
0.000537249
0.000670297
0.000557609
0.000752715
0.000607518
0.000748463
0.000791901
0.000715663
0.000759887
0.000718753
0.000746067
0.000775376
0.000719617
0.000689273
0.000767449
0.000561694
0.000729318
0.000706117
0.000659946
0.000217573
0.000411074
0.000136928
0.000229835
0.00029421
0.00028283
0.000209997
0.000175529
0.000167134
0.000186211
0.000241569
0.000399152
0.000514941
0.000529487
0.000485261
0.000388891
0.000310001
0.000259351
0.000228704
0.00021983
0.000232904
0.000284578
0.000388129
0.000502077
0.000525211
0.000500474
0.000475735
0.000476746
0.000500254
0.000550797
0.000646949
0.000779894
0.000888243
0.000920061
0.000917524
0.000921594
0.000922044
0.000926355
0.000924212
0.00092952
0.000928085
0.000924159
0.000921536
0.000857291
0.000861454
0.000863588
0.00085722
0.000722176
0.000699571
0.000606255
0.000576119
0.00052148
0.000480646
0.00046996
0.000418136
0.000456751
0.000392158
0.000457735
0.000448966
0.000382934
0.000596761
0.000487754
0.000390067
0.000476443
0.000568824
0.000715001
0.000578266
0.000551981
0.000681505
0.000758444
0.000747798
0.000758781
0.000696929
0.00068561
0.000753054
0.000676331
0.000562268
0.000635167
0.000733756
0.000714533
0.000273996
0.000584005
0.000515922
0.000421583
0.000138492
0.000257196
0.000326183
0.000278065
0.000199572
0.000176383
0.000186318
0.000233793
0.00038426
0.000517102
0.000551786
0.000516509
0.000421948
0.000330718
0.000271738
0.000236664
0.00022502
0.00024207
0.000309874
0.000458222
0.000581186
0.000587642
0.000555941
0.000517277
0.000501361
0.000514469
0.000565785
0.000660284
0.000791689
0.000893104
0.000917334
0.000914377
0.00090625
0.000921697
0.000918465
0.000902644
0.00089347
0.000917544
0.00091091
0.000871872
0.000872847
0.000678705
0.000684741
0.000684672
0.000677456
0.000551458
0.000532176
0.000449702
0.000426493
0.000376993
0.000346911
0.00034125
0.000306139
0.000380768
0.00032463
0.000328298
0.000290062
0.0003869
0.000323995
0.000334232
0.000341834
0.000486802
0.000433632
0.000351185
0.000387529
0.000534618
0.000599596
0.000527634
0.00047229
0.000600775
0.000747037
0.000740145
0.000710074
0.000614698
0.000624278
0.000730602
0.000688272
0.000652377
0.000730437
0.000715895
0.000447102
0.00026751
0.000363488
0.000604992
0.000545473
0.000144886
0.000305245
0.0003349
0.000252984
0.000193892
0.000189989
0.000229329
0.000369984
0.000515974
0.000571193
0.000545096
0.000458448
0.000355375
0.000285391
0.000244244
0.0002304
0.000245292
0.000323038
0.000508914
0.000637757
0.000636757
0.00060082
0.00054413
0.00051701
0.000530373
0.000575572
0.000670647
0.000800353
0.000891668
0.000909585
0.00083916
0.000831112
0.000864914
0.000852642
0.000884034
0.000874428
0.000835226
0.000820998
0.000861278
0.000848689
0.000701313
0.000719385
0.000520211
0.000529192
0.000521204
0.000519019
0.000409149
0.000397262
0.000330766
0.000325504
0.000290234
0.000294691
0.00030191
0.000279748
0.000302451
0.000295285
0.000315261
0.000302312
0.000295356
0.000297415
0.000326514
0.000313356
0.000323041
0.000303021
0.000414627
0.000372374
0.000322288
0.000338946
0.000464663
0.000520558
0.000455979
0.000403493
0.000523425
0.000726882
0.000723428
0.000644383
0.00053455
0.000549826
0.000677458
0.000694242
0.000663394
0.000718336
0.000709859
0.000475622
0.000286116
0.000390467
0.000621445
0.000567052
0.000177045
0.000356555
0.000320004
0.000220643
0.000201401
0.000228956
0.000357949
0.000512874
0.00058764
0.000571174
0.000496157
0.000383799
0.000301632
0.000252445
0.00023289
0.000245564
0.000325558
0.000535235
0.000674882
0.000673815
0.000623286
0.000568288
0.000535074
0.000543281
0.000587807
0.000676562
0.000803687
0.000883025
0.000896439
0.000759336
0.000737669
0.000710163
0.000774581
0.000756777
0.000806187
0.00079069
0.000732215
0.000714828
0.000743512
0.000747788
0.000547513
0.000570392
0.000403396
0.000417961
0.00039285
0.000396251
0.000329321
0.000337995
0.000316815
0.000337558
0.000324918
0.000329625
0.000330715
0.000326496
0.000305852
0.000321082
0.000333348
0.000325259
0.00030037
0.000308059
0.000318456
0.000338476
0.000316957
0.000312045
0.000327712
0.000312831
0.000360722
0.0003347
0.00033219
0.000324694
0.00039779
0.000451467
0.000395745
0.00035533
0.000455487
0.000701893
0.000701204
0.000575233
0.000467646
0.000484432
0.000613135
0.00069455
0.000669712
0.00069962
0.000696764
0.000497368
0.000290527
0.000405503
0.00063343
0.000583063
0.00026345
0.00037189
0.000274942
0.00022145
0.000234182
0.000348894
0.00050998
0.000600766
0.000594651
0.000532816
0.000416189
0.000320106
0.00026238
0.000235644
0.000244423
0.000323103
0.000539737
0.000696422
0.000701255
0.000632576
0.000580892
0.000557235
0.000553688
0.000600534
0.00068308
0.000798943
0.000865663
0.000876406
0.000729513
0.000553494
0.000531931
0.000606253
0.000578642
0.000652903
0.000629898
0.00069569
0.000674916
0.000606529
0.000589017
0.000603909
0.000620177
0.000440933
0.000471755
0.000382662
0.000387945
0.000349883
0.000365083
0.000354075
0.000350508
0.000319336
0.000320672
0.000320465
0.00031746
0.000317307
0.000318184
0.000329456
0.000323022
0.000318505
0.000316916
0.000333945
0.0003398
0.000331374
0.000325561
0.000351982
0.000344693
0.000354324
0.000345088
0.000335264
0.000335535
0.000366704
0.000352994
0.000355933
0.000397067
0.000360894
0.000340477
0.000405517
0.000663084
0.000675352
0.000512206
0.000418298
0.000435458
0.000550137
0.000688877
0.000671869
0.000678481
0.000679369
0.000511826
0.000275071
0.000360027
0.000641767
0.000594437
0.00040072
0.000351305
0.000251115
0.000247461
0.000343546
0.000507678
0.000611215
0.000614475
0.000568122
0.00045056
0.000342666
0.000272885
0.000238839
0.000239804
0.000311701
0.000534061
0.000705373
0.000718299
0.000638451
0.00058295
0.000570005
0.000574661
0.000611865
0.000692556
0.000786953
0.000843436
0.000847983
0.000684952
0.000407748
0.000406838
0.000369242
0.000467828
0.000438122
0.000520134
0.000494583
0.000568114
0.000544801
0.000472168
0.000463312
0.000476528
0.00047602
0.000382145
0.000375648
0.000337092
0.00033245
0.000345817
0.000341739
0.000326797
0.000334795
0.000334013
0.000339613
0.000351431
0.000345438
0.000317537
0.000319892
0.000323548
0.000328229
0.000322019
0.000321831
0.000323957
0.00032781
0.000337058
0.000330794
0.000327717
0.000328372
0.000355471
0.000345523
0.000347551
0.000338241
0.000350489
0.000375944
0.000358536
0.000367823
0.000350096
0.000367394
0.000360774
0.000366469
0.000377644
0.000602627
0.000646812
0.000460612
0.000389567
0.000405009
0.000496005
0.000678142
0.000669872
0.0006553
0.000661291
0.000516555
0.000237062
0.000321943
0.000647314
0.000599835
0.000419664
0.000305041
0.000267334
0.000341644
0.000509641
0.000619631
0.000633967
0.000598688
0.000485758
0.000367621
0.000286501
0.0002423
0.000235223
0.000291209
0.00051246
0.000705787
0.000727546
0.000647845
0.000575764
0.00056959
0.000587354
0.000634291
0.000697406
0.000770839
0.000818007
0.000810737
0.000634624
0.000361139
0.000271683
0.000249608
0.000312021
0.000285526
0.000360435
0.000336759
0.000406244
0.000383677
0.000447317
0.000427547
0.000352097
0.000346594
0.000368465
0.000360438
0.000326184
0.00031912
0.000343888
0.000340142
0.000340731
0.000343427
0.000357121
0.000363771
0.000383132
0.000359492
0.000366659
0.00038017
0.000373656
0.000332941
0.000338935
0.000345565
0.000352497
0.000331148
0.000335671
0.000341381
0.000347833
0.000333903
0.000334854
0.0003377
0.000342029
0.000349469
0.000340704
0.000346205
0.000340627
0.000383513
0.000371013
0.000352807
0.000361121
0.000382261
0.000370246
0.000395039
0.000386451
0.000379427
0.000544417
0.000608074
0.000426553
0.000387631
0.000398575
0.000456169
0.000665082
0.000664372
0.000630976
0.000643102
0.000442923
0.000190114
0.000296
0.000648845
0.00058641
0.00041405
0.000308415
0.000344493
0.000512107
0.000629363
0.000651338
0.000625384
0.0005218
0.000395822
0.000301389
0.000248032
0.000231692
0.000269911
0.000463577
0.000701118
0.000732492
0.000657214
0.000556665
0.000554532
0.000582824
0.000631855
0.000690196
0.000741997
0.000787473
0.000763884
0.000578021
0.000324038
0.000214518
0.000230795
0.000214138
0.000265098
0.000246667
0.000300478
0.00028305
0.000330013
0.000316416
0.000344623
0.000340296
0.000293287
0.000281952
0.000311255
0.000302852
0.000331453
0.000316981
0.000406204
0.000404399
0.000396017
0.000402733
0.00038573
0.000388483
0.000425008
0.000431933
0.000383182
0.000390299
0.000404243
0.000397319
0.000354694
0.000361745
0.000368943
0.000376104
0.000347429
0.000353411
0.00035968
0.00036604
0.000343107
0.000346798
0.000351301
0.000356196
0.000352091
0.000347666
0.000353137
0.000350261
0.000375056
0.000363357
0.000356175
0.000357181
0.000390561
0.000404849
0.000395589
0.000378572
0.000411531
0.00049658
0.00054864
0.000412522
0.000414617
0.000414863
0.000430273
0.000652285
0.000656375
0.000606781
0.00062414
0.000386211
0.000142493
0.000261298
0.000645504
0.0005006
0.000403248
0.000361567
0.000516109
0.000638036
0.000668652
0.000648127
0.000557805
0.000425412
0.000319667
0.000255413
0.000229755
0.000249606
0.000407163
0.000685177
0.000734387
0.000667852
0.000558594
0.000508472
0.00053684
0.000599241
0.000655871
0.000705084
0.00073854
0.000696976
0.000508859
0.000292844
0.000200346
0.000198642
0.000188323
0.000216544
0.00020515
0.000242056
0.000229125
0.000264431
0.000254253
0.000272297
0.000271433
0.000271789
0.000268623
0.000259748
0.000244709
0.000298894
0.000278978
0.000396072
0.000377677
0.000470038
0.000473826
0.000438067
0.000444751
0.000462018
0.000411038
0.000417808
0.000435604
0.00044255
0.000396988
0.000403204
0.000415843
0.000409475
0.000372344
0.000378562
0.000384753
0.000390875
0.000361245
0.000366255
0.000371143
0.000375895
0.000353566
0.000357024
0.00036046
0.000363732
0.00035625
0.000354917
0.000356176
0.000356705
0.000365981
0.000360608
0.000356452
0.000358444
0.000382141
0.000401594
0.000386287
0.000368439
0.000408392
0.000457677
0.00049453
0.000411759
0.000415561
0.000423197
0.000414518
0.000638424
0.000647336
0.000537835
0.000572046