/*--------------------------------*- C++ -*----------------------------------*\
  =========                 |
  \\      /  F ield         | OpenFOAM: The Open Source CFD Toolbox
   \\    /   O peration     | Website:  https://openfoam.org
    \\  /    A nd           | Version:  dev
     \\/     M anipulation  |
\*---------------------------------------------------------------------------*/
FoamFile
{
    version     2.0;
    format      ascii;
    class       volScalarField;
    location    "2500";
    object      CO2;
}
// * * * * * * * * * * * * * * * * * * * * * * * * * * * * * * * * * * * * * //

dimensions      [0 0 0 0 0 0 0];

internalField   nonuniform List<scalar> 
9851
(
8.86205e-30
4.51162e-29
2.29146e-29
1.67747e-28
1.2407e-28
1.49973e-29
7.12e-28
5.00157e-28
1.38446e-28
6.47983e-30
3.02196e-27
2.05961e-27
5.83738e-28
1.03913e-28
2.51352e-30
1.08854e-26
9.61662e-27
2.55336e-27
4.48057e-28
4.52523e-29
2.922e-30
4.82095e-26
4.10221e-26
1.50093e-26
2.00302e-27
3.33066e-28
2.2263e-29
1.49399e-30
1.85403e-25
1.47435e-25
6.82517e-26
1.09993e-26
1.29345e-27
1.76946e-28
2.41032e-29
3.75049e-30
5.98626e-25
7.16323e-25
3.20306e-25
5.81862e-26
7.90092e-27
1.211e-27
8.70072e-29
3.70338e-29
7.35266e-30
1.19543e-24
2.8161e-24
1.29797e-24
2.92204e-25
5.74934e-26
5.84381e-27
5.89643e-28
1.42713e-28
5.69493e-29
5.50343e-30
6.10763e-24
1.15682e-23
5.35469e-24
1.65421e-24
2.74888e-25
4.10346e-26
4.79997e-27
5.49709e-28
2.0871e-28
7.85872e-29
2.39629e-30
1.65561e-23
3.72146e-23
2.0703e-23
6.34355e-24
1.13761e-24
1.45437e-25
2.15906e-26
2.62007e-27
1.0709e-27
4.47471e-28
3.5488e-29
1.64425e-29
6.90028e-23
1.03347e-22
7.37861e-23
2.42859e-23
5.96022e-24
6.65729e-25
9.07015e-26
1.59745e-26
3.91401e-27
1.87026e-27
2.93825e-28
9.32844e-29
3.84264e-29
9.81194e-23
3.34112e-22
2.65283e-22
1.07682e-22
2.1865e-23
3.56401e-24
4.47378e-25
6.73682e-26
1.59279e-26
6.4436e-27
2.47151e-27
8.32621e-28
3.00815e-28
8.443e-30
2.52808e-22
1.02007e-21
7.20862e-22
3.85852e-22
8.55731e-23
1.97327e-23
2.25062e-24
3.31286e-25
6.47562e-26
2.08745e-26
7.70052e-27
2.42943e-27
1.69168e-27
1.65222e-28
2.90513e-29
5.54919e-22
1.82962e-21
2.0659e-21
1.27541e-21
4.39565e-22
6.45305e-23
1.30645e-23
1.46248e-24
2.4066e-25
5.67537e-26
3.41462e-26
1.67299e-26
5.35519e-27
1.52859e-27
4.72264e-28
4.38752e-29
2.74509e-21
4.58929e-21
6.29919e-21
4.55473e-21
1.55614e-21
3.79463e-22
5.40144e-23
7.25368e-24
1.02271e-24
2.24507e-25
1.00072e-25
5.75085e-26
2.02824e-26
1.10647e-26
4.06488e-27
1.20037e-27
3.19335e-28
4.5565e-21
1.26134e-20
1.84478e-20
1.19742e-20
5.20429e-21
1.51506e-21
2.90045e-22
3.40727e-23
5.67412e-24
7.11294e-25
2.83482e-25
1.66972e-25
7.76783e-26
4.44729e-26
1.10225e-26
6.73812e-27
3.88902e-27
1.74667e-27
8.00405e-21
1.76631e-20
3.06772e-20
2.93282e-20
1.36815e-20
5.02828e-21
1.25546e-21
2.31398e-22
2.34267e-23
3.56966e-24
8.59492e-25
3.90494e-25
2.37041e-25
1.44373e-25
5.73287e-26
2.57665e-26
1.48685e-26
1.95719e-26
1.30606e-26
1.18494e-20
3.77846e-20
6.47989e-20
6.581e-20
4.02303e-20
1.35221e-20
4.11468e-21
9.45137e-22
1.5336e-22
2.10618e-23
2.60447e-24
1.0603e-24
5.01903e-25
2.7478e-25
2.18049e-25
6.58156e-26
1.23028e-25
8.14469e-26
1.7786e-25
9.0796e-26
1.33509e-20
6.18931e-20
9.72597e-20
1.24832e-19
8.79567e-20
4.30935e-20
1.04767e-20
3.17278e-21
6.47913e-22
9.94985e-23
1.29704e-23
3.32172e-24
1.66965e-24
8.93749e-25
6.16962e-25
3.51341e-25
4.26052e-25
6.96144e-25
7.91482e-25
2.02467e-24
1.83093e-24
1.38484e-20
9.01428e-20
1.71422e-19
2.11133e-19
1.66038e-19
9.799e-20
3.57171e-20
9.40977e-21
1.70042e-21
4.43952e-22
4.76864e-23
1.08752e-23
4.15925e-24
1.77172e-24
1.19971e-24
1.44646e-24
2.91878e-24
4.34217e-24
5.2118e-24
1.23634e-23
1.9051e-23
9.88077e-24
4.10494e-20
1.19831e-19
2.38292e-19
4.1681e-19
4.15563e-19
1.82616e-19
9.4564e-20
2.58406e-20
6.979e-21
1.10656e-21
2.80976e-22
3.18487e-23
1.00811e-23
6.01139e-24
4.49183e-24
4.79677e-24
7.72234e-24
2.8022e-23
4.94554e-23
7.782e-23
1.45384e-22
2.00869e-22
8.49759e-23
5.86473e-20
2.05708e-19
4.43301e-19
7.28784e-19
6.53131e-19
5.30597e-19
1.70827e-19
7.84137e-20
1.81293e-20
4.35743e-21
6.57636e-22
1.23967e-22
2.85677e-23
1.04253e-23
9.29143e-24
1.55225e-23
3.49821e-23
9.86242e-23
3.20461e-22
3.69034e-22
7.3094e-22
1.38689e-21
2.11831e-21
1.00558e-21
1.17197e-19
3.13076e-19
5.53776e-19
1.03168e-18
1.30583e-18
1.02397e-18
4.47442e-19
1.81215e-19
6.07741e-20
1.48926e-20
3.43497e-21
3.98626e-22
9.35237e-23
2.38509e-23
2.65956e-23
4.63646e-23
1.6636e-22
3.99134e-22
1.51704e-21
3.94786e-21
4.50772e-21
8.16628e-21
1.61944e-20
2.09413e-20
1.09882e-20
1.64694e-19
5.51652e-19
8.57576e-19
1.82728e-18
2.0056e-18
1.91954e-18
1.03803e-18
4.37269e-19
1.2224e-19
3.81407e-20
9.57311e-21
1.68425e-21
3.20494e-22
9.01461e-23
4.82339e-23
1.78298e-22
5.58126e-22
1.71668e-21
4.71316e-21
1.97103e-20
3.88743e-20
5.45481e-20
8.18494e-20
1.58863e-19
1.46869e-19
3.93746e-20
1.42621e-19
8.65196e-19
1.52375e-18
2.95652e-18
3.32091e-18
3.11762e-18
2.30732e-18
8.98153e-19
3.88358e-19
1.07765e-19
2.6003e-20
5.5218e-21
7.57497e-22
2.50317e-22
1.86995e-22
3.64213e-22
1.74131e-21
6.24519e-21
2.13459e-20
7.71247e-20
2.28683e-19
3.74081e-19
4.52403e-19
8.50886e-19
1.46894e-18
9.78509e-19
4.829e-19
2.0376e-19
1.11284e-18
2.88075e-18
4.46873e-18
4.9085e-18
5.36684e-18
4.38412e-18
2.19871e-18
8.40391e-19
2.85268e-19
5.59927e-20
1.78443e-20
3.64617e-21
6.54578e-22
4.20928e-22
1.2177e-21
5.13989e-21
2.07588e-20
7.85981e-20
2.59689e-19
9.83367e-19
2.01889e-18
3.70102e-18
5.33427e-18
7.69643e-18
1.1282e-17
1.06122e-17
5.29845e-18
4.35572e-19
1.692e-18
4.92207e-18
7.69911e-18
8.15628e-18
9.34633e-18
7.87688e-18
4.20755e-18
1.95393e-18
6.30193e-19
1.84771e-19
3.46286e-20
1.15887e-20
2.07698e-21
9.46873e-22
2.55695e-21
1.285e-20
6.16027e-20
2.82121e-19
8.00816e-19
2.97218e-18
8.58419e-18
1.3548e-17
2.64323e-17
3.67514e-17
5.92269e-17
6.73763e-17
6.26744e-17
2.29923e-17
7.48892e-19
2.1493e-18
7.44934e-18
1.02228e-17
1.64541e-17
1.89731e-17
1.20149e-17
7.94225e-18
3.78727e-18
1.62935e-18
4.28269e-19
1.1313e-19
2.76245e-20
6.42255e-21
1.92671e-21
6.173e-21
3.05355e-20
1.386e-19
7.09203e-19
3.4807e-18
1.20606e-17
3.24582e-17
5.51356e-17
9.65623e-17
1.76014e-16
2.52962e-16
3.29915e-16
4.10866e-16
2.77258e-16
8.4239e-17
9.0183e-19
3.73326e-18
9.14289e-18
1.7306e-17
2.62697e-17
3.13486e-17
2.85234e-17
1.7456e-17
8.17715e-18
3.39011e-18
1.27251e-18
3.26507e-19
6.0688e-20
1.49365e-20
4.72808e-21
1.28146e-20
7.81578e-20
3.8459e-19
1.8214e-18
7.97032e-18
2.94956e-17
9.65993e-17
2.20548e-16
3.68172e-16
6.20894e-16
1.26385e-15
1.64643e-15
2.01209e-15
2.06575e-15
1.19251e-15
2.23122e-16
1.89328e-18
7.63684e-18
1.40937e-17
2.91141e-17
3.73054e-17
4.6671e-17
4.22074e-17
3.41908e-17
1.50511e-17
7.05827e-18
2.72119e-18
6.29759e-19
2.08092e-19
3.4559e-20
1.47537e-20
3.10436e-20
1.56939e-19
9.52004e-19
5.46727e-18
2.46885e-17
9.22619e-17
2.28016e-16
5.89753e-16
1.14082e-15
2.68137e-15
5.46881e-15
1.04676e-14
1.58913e-14
1.75455e-14
1.3234e-14
6.17022e-15
1.2556e-15
3.71353e-18
1.65673e-17
3.13295e-17
3.84572e-17
5.50293e-17
8.40261e-17
8.82289e-17
5.62453e-17
3.4699e-17
1.45107e-17
5.69865e-18
1.71032e-18
3.81385e-19
9.99776e-20
3.52655e-20
1.11237e-19
4.71348e-19
3.05521e-18
1.40722e-17
4.33677e-17
2.27349e-16
6.61493e-16
1.69734e-15
4.97328e-15
1.16474e-14
2.86179e-14
6.33477e-14
1.18099e-13
1.67448e-13
1.55896e-13
8.90649e-14
2.38044e-14
3.30092e-15
4.85454e-18
2.63396e-17
4.93635e-17
7.09222e-17
1.05003e-16
1.18082e-16
1.38645e-16
1.25282e-16
7.42127e-17
2.55652e-17
1.16601e-17
3.36018e-18
1.10499e-18
3.05601e-19
8.30104e-20
2.54698e-19
1.49563e-18
8.10843e-18
3.08421e-17
1.24399e-16
4.87833e-16
1.92322e-15
5.59062e-15
1.67782e-14
5.02744e-14
1.37414e-13
3.40106e-13
7.46272e-13
1.34653e-12
1.74125e-12
1.25424e-12
4.1642e-13
1.00364e-13
2.19904e-15
4.05719e-14
8.836e-18
3.61708e-17
7.97785e-17
1.34711e-16
1.5234e-16
2.04199e-16
2.51493e-16
1.99361e-16
1.4757e-16
6.85755e-17
2.09616e-17
8.15093e-18
2.07821e-18
6.25717e-19
2.62535e-19
4.79005e-19
3.25442e-18
1.85107e-17
1.04841e-16
4.13928e-16
1.31059e-15
5.34308e-15
1.85393e-14
5.9424e-14
1.91336e-13
5.86616e-13
1.63952e-12
4.08638e-12
8.787e-12
1.5241e-11
1.77089e-11
8.46938e-12
1.38519e-12
3.11122e-13
2.24648e-12
1.01116e-14
1.72756e-13
1.49522e-17
4.57607e-17
1.10247e-16
1.99158e-16
3.07654e-16
3.74025e-16
4.09464e-16
4.16057e-16
2.2849e-16
1.41695e-16
5.67274e-17
1.71508e-17
3.91747e-18
1.09361e-18
4.77736e-19
1.31889e-18
8.27433e-18
4.19984e-17
2.52145e-16
9.06329e-16
3.87084e-15
1.56099e-14
5.76902e-14
2.00158e-13
6.68615e-13
2.1819e-12
6.88869e-12
1.99208e-11
4.98616e-11
1.01572e-10
1.67035e-10
1.19015e-10
2.24197e-11
8.88885e-11
1.29297e-11
7.31495e-11
7.63729e-11
1.46752e-12
1.02875e-11
4.29102e-14
7.58209e-13
1.61067e-17
7.78672e-17
1.59948e-16
3.17839e-16
4.40962e-16
6.08268e-16
7.16701e-16
6.77942e-16
5.69543e-16
2.21216e-16
1.17998e-16
3.95809e-17
1.28691e-17
2.30895e-18
1.26938e-18
2.49984e-18
1.51251e-17
1.00405e-16
4.6461e-16
2.48375e-15
1.17761e-14
5.03588e-14
1.77588e-13
6.40868e-13
2.17011e-12
7.2965e-12
2.47801e-11
8.35939e-11
2.51119e-10
6.07125e-10
1.11058e-09
1.24186e-09
3.56184e-10
1.38382e-09
3.33074e-10
6.46288e-11
3.80232e-10
3.70036e-10
6.69938e-12
4.84936e-11
1.81291e-13
3.33815e-12
3.2133e-17
1.25677e-16
2.24472e-16
4.40138e-16
6.52454e-16
9.19456e-16
1.17488e-15
1.09413e-15
9.48888e-16
5.33511e-16
1.86828e-16
8.1649e-17
2.72588e-17
7.86777e-18
2.96634e-18
8.08622e-18
3.8035e-17
2.22158e-16
1.26341e-15
6.71107e-15
3.43448e-14
1.57235e-13
5.60594e-13
1.97977e-12
6.68759e-12
2.2414e-11
7.87358e-11
2.93418e-10
1.07767e-09
3.20768e-09
7.07879e-09
1.09866e-08
4.36735e-09
1.43247e-08
1.43824e-09
5.81615e-09
1.82095e-09
3.13338e-10
1.95364e-09
1.84496e-09
3.06634e-11
2.29706e-10
7.84641e-13
1.49164e-11
5.18277e-17
1.7e-16
3.44191e-16
7.47783e-16
9.86885e-16
1.39983e-15
1.72952e-15
1.75843e-15
1.59375e-15
9.22645e-16
4.19635e-16
1.41196e-16
5.75534e-17
1.78254e-17
6.84579e-18
1.71998e-17
1.0679e-16
5.17668e-16
3.46527e-15
1.81187e-14
9.78884e-14
4.59768e-13
1.72603e-12
6.17361e-12
2.00306e-11
6.46759e-11
2.26139e-10
8.90554e-10
3.76823e-09
1.42676e-08
3.9158e-08
7.69764e-08
4.35499e-08
1.29641e-07
2.19433e-08
7.50136e-08
7.96927e-09
3.23186e-08
9.51427e-09
1.53365e-09
1.0019e-08
9.33418e-09
1.4193e-10
1.10153e-09
3.4496e-12
6.749e-11
1.11353e-16
2.8308e-16
5.4588e-16
1.0889e-15
1.55015e-15
2.20437e-15
2.71701e-15
2.86535e-15
2.87602e-15
1.60355e-15
8.63055e-16
2.74167e-16
1.02202e-16
3.84809e-17
1.74405e-17
4.56427e-17
2.32781e-16
1.61763e-15
8.54462e-15
5.22811e-14
2.85375e-13
1.3584e-12
5.44964e-12
1.85914e-11
6.02946e-11
1.83398e-10
6.04763e-10
2.36601e-09
1.11902e-08
5.03091e-08
1.79663e-07
4.40198e-07
3.47464e-07
9.01194e-07
2.3685e-07
6.90722e-07
1.19733e-07
4.05714e-07
4.23344e-08
1.73325e-07
5.00158e-08
7.62673e-09
5.21766e-08
4.80819e-08
6.63679e-10
5.34125e-09
1.54924e-11
3.09092e-10
3.75239e-16
6.19445e-16
9.8631e-16
1.74907e-15
2.49413e-15
3.44964e-15
5.28522e-15
5.15221e-15
5.40349e-15
3.48414e-15
1.49631e-15
6.76302e-16
2.01624e-16
6.82591e-17
4.16125e-17
1.12411e-16
5.67183e-16
3.50431e-15
2.33209e-14
1.48194e-13
8.44046e-13
4.04018e-12
1.67347e-11
5.43103e-11
1.76034e-10
5.2111e-10
1.5868e-09
5.73442e-09
2.76344e-08
1.50282e-07
6.34223e-07
2.03078e-06
2.12941e-06
4.89057e-06
1.82435e-06
4.47383e-06
1.25264e-06
3.47265e-06
6.40293e-07
2.08993e-06
2.26528e-07
9.15808e-07
2.65429e-07
3.8438e-08
2.75463e-07
2.50473e-07
3.13045e-09
2.61053e-08
7.03711e-11
1.41569e-09
2.32005e-15
2.32696e-15
2.35369e-15
2.57674e-15
4.34946e-15
5.59711e-15
8.09552e-15
1.01609e-14
1.0809e-14
8.11378e-15
3.09697e-15
1.16458e-15
4.32225e-16
1.52103e-16
8.63271e-17
2.83635e-16
1.55137e-15
9.68868e-15
6.65022e-14
4.30553e-13
2.4754e-12
1.24995e-11
5.04835e-11
1.58774e-10
5.0346e-10
1.44733e-09
4.06727e-09
1.35648e-08
6.06432e-08
3.47817e-07
1.92767e-06
6.9567e-06
1.0003e-05
2.07302e-05
1.03019e-05
2.22784e-05
8.73078e-06
2.04059e-05
6.06536e-06
1.58107e-05
3.19707e-06
9.70627e-06
1.18872e-06
4.41791e-06
1.38049e-06
1.95118e-07
1.42094e-06
1.27583e-06
1.47633e-08
1.28065e-07
3.19292e-10
6.44025e-09
1.49725e-14
1.73356e-14
9.41068e-15
6.06647e-15
7.44449e-15
1.03982e-14
1.4284e-14
1.85911e-14
2.12911e-14
1.88182e-14
8.16557e-15
2.40379e-15
8.00991e-16
2.60534e-16
1.86979e-16
6.7266e-16
3.89974e-15
2.78713e-14
1.95736e-13
1.2812e-12
7.4804e-12
3.68716e-11
1.45018e-10
4.72129e-10
1.44643e-09
3.97418e-09
1.0415e-08
3.05988e-08
1.29594e-07
7.18158e-07
3.99737e-06
1.95302e-05
3.42715e-05
5.66888e-05
4.25226e-05
7.13843e-05
4.38562e-05
8.00966e-05
3.71605e-05
7.74599e-05
2.62558e-05
6.19824e-05
1.41658e-05
3.95974e-05
5.57644e-06
1.87391e-05
6.32829e-06
9.74893e-07
6.42626e-06
5.75303e-06
6.96001e-08
6.25075e-07
1.43247e-09
2.89003e-08
1.22579e-13
1.53085e-13
7.3568e-14
2.84137e-14
1.79075e-14
2.0868e-14
2.81667e-14
3.62098e-14
4.32259e-14
4.38011e-14
1.94946e-14
6.26844e-15
1.50641e-15
4.85052e-16
3.84847e-16
1.73458e-15
1.14464e-14
8.30282e-14
5.9931e-13
3.96193e-12
2.30917e-11
1.17432e-10
4.65508e-10
1.45044e-09
4.24397e-09
1.10209e-08
2.68792e-08
6.87997e-08
2.48294e-07
1.47648e-06
8.27842e-06
3.55132e-05
7.94954e-05
0.000108674
0.000105897
0.000144048
0.000124808
0.000174085
0.000131306
0.000192115
0.000121544
0.000192397
9.34567e-05
0.0001717
5.43642e-05
0.000127948
2.27557e-05
6.80606e-05
2.51219e-05
4.42101e-06
2.51468e-05
2.24503e-05
3.26165e-07
2.86489e-06
6.34885e-09
1.28127e-07
8.81079e-13
1.26717e-12
6.94481e-13
2.25254e-13
7.4861e-14
4.75652e-14
5.37948e-14
6.9792e-14
8.9919e-14
1.00838e-13
5.04409e-14
1.55118e-14
3.60998e-15
9.50279e-16
7.63753e-16
4.11426e-15
3.20804e-14
2.44636e-13
1.8538e-12
1.26945e-11
7.46109e-11
3.70577e-10
1.4458e-09
4.59449e-09
1.28708e-08
3.13559e-08
7.05023e-08
1.60362e-07
4.69569e-07
2.50123e-06
1.57036e-05
6.775e-05
0.000140411
0.000152871
0.000181685
0.00022273
0.000223793
0.000271858
0.000253659
0.000313327
0.000266422
0.000338624
0.000257558
0.00034245
0.000223134
0.000321456
0.000160923
0.000271072
7.87028e-05
0.000187477
8.40474e-05
1.72531e-05
8.25648e-05
7.29849e-05
1.48615e-06
1.12712e-05
2.79688e-08
5.58551e-07
5.27387e-12
8.8651e-12
5.39218e-12
2.10737e-12
5.69253e-13
1.78085e-13
1.18608e-13
1.36275e-13
1.79216e-13
2.26763e-13
1.29851e-13
4.14448e-14
9.2628e-15
2.08988e-15
1.38852e-15
9.08655e-15
8.8465e-14
7.01168e-13
5.64751e-12
4.08874e-11
2.4957e-10
1.24237e-09
5.02427e-09
1.52235e-08
4.0598e-08
9.24617e-08
1.90109e-07
3.85395e-07
9.27501e-07
4.01286e-06
2.43392e-05
0.00010205
0.000273859
0.00025211
0.000310602
0.000316892
0.000359995
0.000368908
0.000419606
0.000405656
0.00046682
0.000422479
0.000495398
0.000415432
0.000501182
0.000380249
0.000481545
0.000311621
0.000430899
0.000204896
0.000341548
0.000211165
5.61642e-05
0.000204134
0.000181479
5.87107e-06
3.72131e-05
1.24553e-07
2.31186e-06
2.39164e-11
5.10975e-11
3.7934e-11
1.86356e-11
5.36962e-12
1.27463e-12
3.75416e-13
2.84351e-13
3.44165e-13
4.76673e-13
3.23021e-13
1.10923e-13
2.51731e-14
4.784e-15
2.2313e-15
1.53903e-14
1.99058e-13
1.94113e-12
1.66213e-11
1.2798e-10
8.31888e-10
4.27486e-09
1.74815e-08
5.19533e-08
1.32881e-07
2.83795e-07
5.32954e-07
9.57884e-07
1.9517e-06
6.60726e-06
3.47552e-05
0.000133152
0.000323922
0.000462593
0.000492652
0.000397938
0.000434075
0.00046532
0.00050708
0.000521181
0.000568634
0.000559445
0.000615161
0.000577138
0.00064253
0.00057141
0.000648295
0.000538283
0.00063088
0.000471033
0.00058432
0.000359798
0.000498584
0.000365393
0.000144201
0.000356087
0.000328412
2.04962e-05
0.000101891
5.52599e-07
8.25207e-06
7.49182e-11
2.10444e-10
2.09574e-10
1.15627e-10
4.95487e-11
1.18505e-11
2.25724e-12
7.39667e-13
6.85514e-13
8.87742e-13
7.60361e-13
2.88243e-13
7.00988e-14
1.2548e-14
3.77678e-15
2.16612e-14
3.24958e-13
4.61795e-12
4.72719e-11
3.8568e-10
2.66547e-09
1.44873e-08
5.99873e-08
1.80463e-07
4.45707e-07
9.01933e-07
1.55823e-06
2.48596e-06
4.32535e-06
1.14185e-05
4.84292e-05
0.000162426
0.0003623
0.00051596
0.000538738
0.000601787
0.000625849
0.000543402
0.000574973
0.000609846
0.000645971
0.000662308
0.000701367
0.000696587
0.000741569
0.000712286
0.000763372
0.000707211
0.000767023
0.000678007
0.000752466
0.000618029
0.000713817
0.000513769
0.000638792
0.000516002
0.000279819
0.000502449
0.00046985
5.87618e-05
0.000212356
1.9964e-06
2.45741e-05
1.4885e-10
5.47322e-10
7.73742e-10
6.11506e-10
2.88647e-10
1.03746e-10
1.91157e-11
3.25052e-12
1.54736e-12
1.70792e-12
1.69178e-12
7.12484e-13
1.90593e-13
3.50395e-14
7.06539e-15
2.71272e-14
4.26742e-13
7.37784e-12
1.05742e-10
1.11522e-09
8.1912e-09
4.66341e-08
1.98536e-07
6.15626e-07
1.50035e-06
2.91303e-06
4.70401e-06
6.73497e-06
1.00694e-05
2.06424e-05
6.74928e-05
0.000190896
0.000396622
0.000559728
0.000561139
0.00064631
0.000664258
0.000722128
0.000740124
0.000676304
0.000701391
0.000734189
0.000761536
0.000776639
0.000803129
0.000800735
0.000825845
0.000808864
0.000834491
0.000803872
0.000833745
0.000783147
0.000823957
0.000736153
0.000800096
0.000648098
0.000747143
0.000645022
0.000417206
0.000627414
0.000593068
0.00013465
0.000340752
5.91431e-06
6.00612e-05
1.38842e-10
8.37745e-10
1.67782e-09
2.04257e-09
1.42784e-09
7.25262e-10
1.56496e-10
2.36971e-11
4.93852e-12
3.58118e-12
3.60895e-12
1.67072e-12
5.03242e-13
9.71572e-14
1.62997e-14
2.96801e-14
4.85256e-13
9.26861e-12
1.65626e-10
2.45592e-09
2.44647e-08
1.38018e-07
6.22345e-07
1.99376e-06
4.91537e-06
9.38868e-06
1.42631e-05
1.85545e-05
2.37153e-05
4.01185e-05
9.26501e-05
0.000219713
0.00042682
0.000654108
0.000676841
0.000704388
0.000754778
0.000766614
0.000812488
0.000822333
0.000783078
0.000799669
0.00082226
0.000836233
0.000842057
0.000852634
0.000849293
0.000856943
0.000849086
0.000856362
0.000844041
0.000852455
0.000832508
0.000845747
0.000806565
0.000832909
0.000748455
0.00080603
0.000739838
0.000538858
0.000720095
0.000687771
0.000237312
0.000457604
1.54009e-05
0.000119645
4.9824e-10
2.07791e-09
3.77606e-09
4.1619e-09
2.56244e-09
1.01966e-09
1.8713e-10
2.61863e-11
9.34558e-12
7.75973e-12
3.78096e-12
1.26679e-12
2.60631e-13
4.25737e-14
3.159e-14
4.90451e-13
9.99752e-12
2.0143e-10
3.82059e-09
5.11251e-08
3.23703e-07
1.66085e-06
5.81746e-06
1.46721e-05
2.81741e-05
4.11454e-05
4.95743e-05
5.59431e-05
7.16351e-05
0.000124786
0.000251808
0.000454109
0.000673048
0.000788603
0.000792039
0.000775336
0.000784435
0.000829421
0.00083411
0.000856981
0.00085966
0.000845884
0.000852564
0.000859286
0.000863317
0.000861615
0.000863511
0.000857796
0.000854929
0.000851201
0.000842564
0.00084507
0.000832261
0.0008392
0.000827017
0.000828649
0.000825629
0.000799748
0.00081976
0.000787951
0.000636526
0.000770151
0.0007445
0.000340755
0.000555282
4.65554e-05
0.000195831
8.06405e-10
4.14833e-09
6.56014e-09
7.12041e-09
4.46086e-09
1.20006e-09
1.78116e-10
3.52957e-11
1.83623e-11
8.46321e-12
3.02842e-12
6.7215e-13
1.14801e-13
3.76295e-14
4.18837e-13
9.66404e-12
2.09047e-10
4.53622e-09
7.37679e-08
5.40914e-07
3.24421e-06
1.275e-05
3.43206e-05
6.51488e-05
9.17894e-05
0.00010384
0.000105632
0.000115321
0.000163554
0.000288359
0.000486659
0.00069139
0.000794221
0.000792601
0.00083812
0.000836666
0.000836747
0.000838366
0.000860769
0.000860481
0.000867428
0.000866329
0.000866079
0.000867511
0.000863147
0.000861464
0.000848949
0.000840594
0.000827387
0.000809517
0.00080883
0.000778815
0.000799047
0.000759084
0.000799265
0.000755286
0.000807196
0.000766228
0.000807432
0.000788234
0.000793771
0.000701782
0.000779144
0.000764454
0.000748764
0.000436329
0.000630772
8.08081e-05
0.000270967
1.13108e-09
6.04616e-09
1.04203e-08
1.11854e-08
5.33491e-09
1.10688e-09
1.76149e-10
5.33791e-11
1.96219e-11
7.022e-12
1.66621e-12
3.01893e-13
5.911e-14
3.33592e-13
7.83675e-12
1.98851e-10
4.56686e-09
8.44041e-08
7.06875e-07
4.89215e-06
2.12655e-05
5.88713e-05
0.00010976
0.000151281
0.000169595
0.000169239
0.000171115
0.000212114
0.000328906
0.000521674
0.000708734
0.000807504
0.000834433
0.000833637
0.000854239
0.000849761
0.000859038
0.000857165
0.000864435
0.000861528
0.000849668
0.000843983
0.000858721
0.000854666
0.000831475
0.000822267
0.000790954
0.000772897
0.000745718
0.000712587
0.000710558
0.000657898
0.00069569
0.000627033
0.000702961
0.000626216
0.000733512
0.000649974
0.000770344
0.000705949
0.000745036
0.000776419
0.000756579
0.000753366
0.000706706
0.000739694
0.000766339
0.000750929
0.000752673
0.000760463
0.000517658
0.000720136
0.00069249
0.000633774
0.000123025
0.000349139
1.44405e-09
9.51776e-09
1.55206e-08
1.48301e-08
5.05736e-09
9.10845e-10
1.74424e-10
5.13446e-11
1.63687e-11
4.01306e-12
7.67752e-13
1.25894e-13
2.48112e-13
5.42485e-12
1.51782e-10
4.1564e-09
8.46128e-08
7.81582e-07
6.0484e-06
2.91903e-05
8.36409e-05
0.000155819
0.000214978
0.000244597
0.000245975
0.000240753
0.000270869
0.00037706
0.000557666
0.00071894
0.000799131
0.000828203
0.000816921
0.000844181
0.000838283
0.000845112
0.000837318
0.000857175
0.000851718
0.000837655
0.000830682
0.000794386
0.00078485
0.000813131
0.000803878
0.000755546
0.000739206
0.000681291
0.000653048
0.000606057
0.000559234
0.000555163
0.000482972
0.000538086
0.000452825
0.000549434
0.000527092
0.000474464
0.000663361
0.000612529
0.000508033
0.000561152
0.000693658
0.00072862
0.000686326
0.000647218
0.000724245
0.000752844
0.000742906
0.000751027
0.000725861
0.000723684
0.000749789
0.000654695
0.000515483
0.000604601
0.000728145
0.000706175
0.000179493
0.00054277
0.000464227
0.00034961
2.02296e-09
1.31195e-08
2.08295e-08
1.54148e-08
4.11816e-09
7.06848e-10
1.51803e-10
3.97762e-11
9.52177e-12
1.89278e-12
3.08818e-13
2.20279e-13
3.2862e-12
9.73576e-11
2.91813e-09
7.76565e-08
7.82358e-07
6.5025e-06
3.42888e-05
0.00010413
0.000196633
0.000276368
0.000323089
0.000333436
0.000325555
0.000343313
0.000433865
0.000595398
0.000724648
0.00078391
0.000786943
0.000805369
0.000786018
0.000828232
0.000817775
0.000804624
0.000794129
0.000822934
0.000814216
0.000775249
0.000765445
0.000696025
0.000683566
0.000724016
0.000709558
0.000627152
0.000603563
0.000516153
0.000480061
0.000419458
0.000374293
0.000377823
0.000326387
0.000432861
0.000393896
0.000363347
0.000338605
0.000459321
0.000416797
0.000435297
0.000400395
0.000596275
0.000540843
0.000442015
0.000489124
0.000636761
0.000684262
0.000632806
0.000583654
0.000684138
0.000746584
0.000740051
0.000729353
0.000687892
0.000694324
0.000732537
0.000673476
0.00062795
0.000729602
0.000713204
0.000382417
0.000183041
0.00028254
0.000569195
0.000495725
3.2514e-09
1.88398e-08
2.4285e-08
1.37497e-08
2.98451e-09
5.06579e-10
1.03277e-10
2.27289e-11
4.57024e-12
7.74461e-13
2.4682e-13
2.26693e-12
5.74703e-11
1.76424e-09
5.60684e-08
7.3305e-07
6.4485e-06
3.60074e-05
0.000116304
0.000228091
0.00032718
0.00039441
0.00042346
0.000422414
0.000431149
0.000503747
0.000636419
0.000728291
0.000767605
0.000751638
0.000710226
0.000686989
0.000752829
0.000732731
0.000782397
0.000768861
0.000732845
0.000721303
0.000755041
0.000743965
0.000672161
0.000661326
0.000547221
0.000533739
0.000582616
0.000563694
0.000448632
0.000421219
0.000347331
0.000331811
0.000305004
0.000300878
0.000323889
0.000313155
0.000309149
0.000310306
0.000369311
0.000346064
0.000332053
0.000326733
0.000406285
0.000382505
0.000382137
0.000360834
0.000528859
0.000477929
0.000411185
0.000436912
0.00057767
0.000633792
0.000578229
0.000523412
0.00063866
0.000734398
0.000733119
0.000702453
0.000647529
0.000659203
0.000710897
0.00068689
0.00064674
0.000726785
0.000715178
0.000408906
0.000200982
0.000305866
0.000591243
0.000519099
6.65806e-09
2.60353e-08
2.52859e-08
1.12804e-08
1.91345e-09
2.99408e-10
5.64026e-11
1.09865e-11
1.91505e-12
3.94611e-13
1.54833e-12
3.33995e-11
9.90807e-10
3.33661e-08
5.76363e-07
5.99843e-06
3.54124e-05
0.000120265
0.000246174
0.000361701
0.000447764
0.000498742
0.000517238
0.000527083
0.000582069
0.00067454
0.000730882
0.000751359
0.000709957
0.000596502
0.000625455
0.000586229
0.000674733
0.000651996
0.000708514
0.00069332
0.000630011
0.000620257
0.000650339
0.000639617
0.000523158
0.000514625
0.000363623
0.000351778
0.000398767
0.000379838
0.000321911
0.00031364
0.000305884
0.000313513
0.000314316
0.000324439
0.000338131
0.00035861
0.000328409
0.000334599
0.000349563
0.000368016
0.000349938
0.00034936
0.000354946
0.000371255
0.000403267
0.000375162
0.00040449
0.000376539
0.000476182
0.000443797
0.000431405
0.000431849
0.00052531
0.000584048
0.000533231
0.000482541
0.000594797
0.000718109
0.000722538
0.000673159
0.000609411
0.000626895
0.000687435
0.000694951
0.000660958
0.000721572
0.000713931
0.000428298
0.000203007
0.000313687
0.000608411
0.000536182
1.65185e-08
3.16006e-08
2.34558e-08
7.14615e-09
9.88202e-10
1.50608e-10
2.68868e-11
4.68543e-12
8.37127e-13
1.22987e-12
1.86416e-11
5.34632e-10
1.70186e-08
4.11566e-07
4.69786e-06
3.36288e-05
0.000119447
0.000252285
0.000380407
0.000474985
0.000541591
0.00058392
0.000612449
0.000657151
0.000707914
0.000737134
0.000736878
0.000668003
0.000530629
0.000453145
0.000416428
0.000523653
0.000488748
0.000575357
0.000551914
0.000608754
0.00059411
0.00049927
0.00049455
0.000507835
0.00050314
0.000343961
0.00034034
0.000280819
0.000267858
0.000304771
0.000294832
0.000322856
0.000328144
0.000425077
0.000478375
0.000389126
0.000411875
0.000432881
0.000443267
0.000393691
0.000421206
0.000454008
0.000490732
0.000387254
0.000409101
0.000438538
0.000474596
0.000442839
0.000416945
0.000470629
0.000443527
0.000462692
0.00045865
0.000490947
0.000464463
0.000498578
0.000546541
0.00051947
0.000486405
0.000564143
0.000700331
0.000710276
0.000646385
0.000584589
0.000606696
0.000666079
0.000699145
0.000670917
0.000715052
0.000711748
0.00043858
0.00018459
0.000304158
0.000621496
0.000547025
3.17456e-08
3.0976e-08
1.86922e-08
3.42039e-09
4.42139e-10
6.87687e-11
1.15048e-11
1.98364e-12
1.32895e-12
1.16779e-11
2.84706e-10
8.42608e-09
2.48235e-07
3.18878e-06
2.82123e-05
0.00011443
0.000251519
0.000380955
0.000476469
0.0005497
0.000607285
0.000656684
0.000699824
0.000729503
0.000742924
0.000724297
0.000629589
0.000466244
0.00029377
0.000345175
0.000294806
0.000414753
0.000382258
0.000461349
0.000440985
0.000487269
0.000476502
0.000349717
0.000351929
0.000340948
0.000344955
0.000252318
0.000235255
0.000314299
0.000291581
0.000329398
0.000325276
0.000525401
0.000558588
0.000698979
0.000738967
0.000811485
0.000774591
0.000530587
0.000572029
0.000614727
0.000657064
0.000516699
0.000563824
0.000614736
0.000667789
0.000478942
0.000522839
0.000573303
0.000628645
0.000533099
0.00051089
0.000588288
0.000561884
0.000486822
0.000505534
0.000601199
0.00054494
0.000512389
0.000542635
0.000538927
0.000517983
0.000566194
0.000684147
0.000699057
0.000629564
0.000589361
0.000612496
0.000652286
0.000701167
0.000677361
0.000708914
0.000709869
0.000438066
0.000150241
0.000276679
0.000630526
0.000551267
3.78495e-08
2.74047e-08
1.06228e-08
1.37031e-09
1.87216e-10
2.88808e-11
4.90545e-12
2.0205e-12
8.99912e-12
1.51399e-10
4.13171e-09
1.29542e-07
2.00817e-06
2.07339e-05
0.000100472
0.000242441
0.00036609
0.000451019
0.000528824
0.000596791
0.000656577
0.000703843
0.000732251
0.000741285
0.000710727
0.000596461
0.000408314
0.000214595
0.000189262
0.000152815
0.000253741
0.000217781
0.000309837
0.000284518
0.000341332
0.000328677
0.000351596
0.000348568
0.000203067
0.000205813
0.000220162
0.000208692
0.000265294
0.00023384
0.00056599
0.000525882
0.000576368
0.000581719
0.000843497
0.000886378
0.00102579
0.000929898
0.00097595
0.0010537
0.001018
0.000721805
0.00077559
0.00082937
0.000881138
0.000687857
0.000749458
0.000812322
0.000875265
0.000619581
0.000682094
0.00074825
0.000816407
0.00066966
0.000652148
0.000744301
0.000721439
0.000549542
0.000601671
0.000749719
0.000671209
0.000549902
0.00056387
0.000583989
0.000593953
0.000588437
0.000673402
0.000691927
0.000634699
0.000611782
0.000633241
0.000656088
0.00070222
0.000681814
0.000705366
0.000709523
0.000426808
0.000108021
0.000232467
0.000635932
0.000549677
3.56059e-08
1.93429e-08
4.0175e-09
5.33556e-10
7.53146e-11
1.23883e-11
4.0947e-12
8.38972e-12
9.00163e-11
2.0905e-09
6.09291e-08
1.19386e-06
1.41141e-05
8.15015e-05
0.00022002
0.000335778
0.000400873
0.000462949
0.000541294
0.000619649
0.000683254
0.000721616
0.000731191
0.000688411
0.000563795
0.000358059
0.000160057
8.97615e-05
0.000132737
0.000102878
0.000181456
0.000158203
0.000214223
0.000200573
0.000222807
0.000221266
0.000212587
0.000219762
0.000146631
0.000124105
0.000201875
0.000171877
0.000468468
0.000393583
0.00104269
0.000986515
0.00105658
0.00106131
0.00107827
0.00108819
0.00140175
0.00142667
0.00116577
0.00121637
0.00130571
0.00126327
0.000937228
0.000997442
0.00105654
0.00111278
0.000885783
0.00095517
0.00102384
0.00109095
0.000794017
0.000868309
0.000943391
0.00101807
0.000834219
0.000823117
0.000921057
0.000903809
0.00065816
0.000737924
0.000918866
0.000826258
0.000635331
0.000614993
0.000672986
0.000710814
0.000641017
0.000675772
0.000692588
0.000653243
0.000662805
0.000678645
0.000672571
0.000704027
0.000685514
0.000706321
0.000711618
0.000398942
6.60159e-05
0.000177334
0.000638237
0.000540606
2.69728e-08
1.06855e-08
1.5028e-09
2.04143e-10
3.20398e-11
9.6558e-12
1.07349e-11
6.62886e-11
1.12049e-09
2.82297e-08
6.71498e-07
8.90274e-06
6.23769e-05
0.000191376
0.000307357
0.000359884
0.000388675
0.00041456
0.000491196
0.000600403
0.00067222
0.000692738
0.000645009
0.000515312
0.000301129
0.00011913
5.53086e-05
5.85315e-05
4.27781e-05
8.61733e-05
7.10345e-05
0.000112469
0.000100455
0.000122572
0.000120207
0.000113763
0.000120049
0.000111097
0.000108327
0.000165292
0.000117876
0.000312576
0.000233669
0.000902667
0.000785849
0.00155003
0.00150048
0.00144193
0.00146357
0.00156979
0.00134332
0.00137506
0.00161192
0.00163024
0.00138553
0.00143506
0.00152071
0.00148032
0.0011556
0.0012174
0.00127709
0.00133314
0.00109197
0.00116411
0.00123398
0.00130103
0.000984695
0.0010649
0.00114379
0.00122043
0.00101254
0.00100826
0.00110558
0.00109467
0.000799471
0.000896452
0.00109654
0.000996615
0.000756501
0.000705278
0.000794953
0.000853763
0.000729884
0.000688233
0.000702046
0.000689679
0.000746782
0.000755677
0.000700258
0.000707386
0.000688615
0.000712801
0.000717465
0.000355898
2.99141e-05
0.000117147
0.000638435
0.000521193
1.53054e-08