/*--------------------------------*- C++ -*----------------------------------*\
  =========                 |
  \\      /  F ield         | OpenFOAM: The Open Source CFD Toolbox
   \\    /   O peration     | Website:  https://openfoam.org
    \\  /    A nd           | Version:  dev
     \\/     M anipulation  |
\*---------------------------------------------------------------------------*/
FoamFile
{
    version     2.0;
    format      ascii;
    class       volScalarField;
    location    "2500";
    object      G;
}
// * * * * * * * * * * * * * * * * * * * * * * * * * * * * * * * * * * * * * //

dimensions      [1 0 -3 0 0 0 0];

internalField   nonuniform List<scalar> 
9851
(
4298.55
4305.14
4306.66
4310.95
4313.27
4315.64
4315.98
4319.12
4322.28
4325.46
4320.22
4324.16
4328.13
4332.11
4336.11
4323.69
4328.42
4333.17
4337.96
4342.77
4347.62
4326.41
4331.89
4337.41
4342.99
4348.62
4354.29
4360.01
4328.39
4334.59
4340.86
4347.21
4353.63
4360.13
4366.69
4373.3
4329.65
4336.56
4343.54
4350.63
4357.82
4365.12
4372.51
4379.98
4387.51
4330.21
4337.8
4345.48
4353.26
4361.19
4369.26
4377.47
4385.79
4394.2
4402.7
4330.11
4338.35
4346.68
4355.14
4363.77
4372.57
4381.55
4390.7
4399.99
4409.39
4418.88
4329.36
4338.22
4347.18
4356.29
4365.57
4375.07
4384.78
4394.71
4404.84
4415.14
4425.58
4436.12
4328
4337.44
4347
4356.71
4366.63
4376.78
4387.17
4397.84
4408.76
4419.92
4431.29
4442.81
4454.45
4326.05
4336.04
4346.16
4356.45
4366.96
4377.72
4388.77
4400.11
4411.77
4423.74
4435.99
4448.47
4461.13
4473.93
4323.54
4334.06
4344.7
4355.53
4366.59
4377.93
4389.58
4401.56
4413.91
4426.61
4439.68
4453.07
4466.74
4480.61
4494.64
4320.51
4331.51
4342.65
4353.98
4365.56
4377.43
4389.63
4402.21
4415.18
4428.58
4442.39
4456.61
4471.22
4486.14
4501.3
4516.65
4316.98
4328.43
4340.03
4351.83
4363.88
4376.24
4388.96
4402.08
4415.63
4429.65
4444.15
4459.14
4474.59
4490.49
4506.75
4523.29
4540.04
4312.99
4324.86
4336.89
4349.11
4361.6
4374.41
4387.6
4401.21
4415.29
4429.87
4445
4460.67
4476.9
4493.67
4510.94
4528.63
4546.64
4564.9
4308.56
4320.83
4333.24
4345.86
4358.75
4371.97
4385.58
4399.63
4414.19
4429.28
4444.95
4461.25
4478.17
4495.72
4513.89
4532.64
4551.87
4571.47
4591.35
4303.72
4316.35
4329.13
4342.11
4355.36
4368.95
4382.94
4397.39
4412.36
4427.9
4444.07
4460.9
4478.43
4496.68
4515.65
4535.32
4555.66
4576.56
4597.88
4619.52
4298.51
4311.46
4324.58
4337.89
4351.47
4365.39
4379.72
4394.52
4409.86
4425.79
4442.38
4459.69
4477.74
4496.6
4516.27
4536.75
4558.04
4580.09
4602.79
4625.99
4649.55
4292.96
4306.2
4319.62
4333.23
4347.1
4361.32
4375.95
4391.06
4406.72
4422.99
4439.94
4457.64
4476.15
4495.51
4515.78
4536.97
4559.09
4582.13
4606.04
4630.7
4655.94
4681.6
4287.11
4300.59
4314.28
4328.16
4342.3
4356.78
4371.68
4387.05
4402.98
4419.53
4436.79
4454.82
4473.7
4493.48
4514.24
4536.02
4558.85
4582.74
4607.67
4633.61
4660.42
4687.89
4715.87
4280.97
4294.68
4308.6
4322.72
4337.1
4351.81
4366.92
4382.52
4398.68
4415.48
4432.98
4451.28
4470.45
4490.58
4511.73
4533.97
4557.38
4581.97
4607.77
4634.77
4662.93
4692.1
4722.05
4752.59
4274.59
4288.49
4302.61
4316.93
4331.52
4346.43
4361.74
4377.53
4393.87
4410.86
4428.56
4447.07
4466.47
4486.85
4508.3
4530.9
4554.75
4579.9
4606.41
4634.29
4663.54
4694.14
4725.91
4758.62
4792.1
4267.99
4282.05
4296.35
4310.84
4325.6
4340.67
4356.15
4372.09
4388.59
4405.72
4423.57
4442.23
4461.8
4482.36
4504.03
4526.89
4551.05
4576.61
4603.66
4632.24
4662.39
4694.12
4727.41
4762.09
4797.94
4834.66
4261.19
4275.4
4289.84
4304.48
4319.37
4334.59
4350.19
4366.25
4382.86
4400.1
4418.06
4436.83
4456.5
4477.18
4498.98
4522.01
4546.38
4572.2
4599.61
4628.71
4659.56
4692.19
4726.66
4762.94
4800.92
4840.28
4880.6
4254.22
4268.55
4283.11
4297.87
4312.88
4328.2
4343.9
4360.06
4376.75
4394.06
4412.08
4430.9
4450.63
4471.37
4493.23
4516.33
4540.81
4566.78
4594.4
4623.81
4655.13
4688.45
4723.83
4761.32
4801
4842.69
4885.94
4930.34
4247.11
4261.53
4276.19
4291.04
4306.14
4321.54
4337.32
4353.54
4370.28
4387.62
4405.67
4424.51
4444.24
4464.98
4486.83
4509.94
4534.43
4560.44
4588.14
4617.68
4649.25
4683
4719.04
4757.44
4798.36
4841.86
4887.66
4935.34
4984.39
4239.87
4254.36
4269.1
4284.02
4299.19
4314.65
4330.47
4346.72
4363.48
4380.84
4398.87
4417.68
4437.38
4458.07
4479.86
4502.9
4527.32
4553.27
4580.93
4610.47
4642.09
4676.01
4712.41
4751.43
4793.24
4838.01
4885.75
4936.22
4988.96
5043.36
4232.53
4247.08
4261.87
4276.84
4292.05
4307.54
4323.39
4339.65
4356.41
4373.74
4391.73
4410.49
4430.1
4450.69
4472.37
4495.28
4519.56
4545.37
4572.88
4602.29
4633.8
4667.67
4704.13
4743.45
4785.81
4831.43
4880.48
4933.01
4988.82
5047.39
5107.98
4225.11
4239.69
4254.52
4269.52
4284.75
4300.26
4316.11
4332.36
4349.08
4366.37
4384.3
4402.96
4422.46
4442.91
4464.43
4487.16
4511.24
4536.82
4564.09
4593.25
4624.52
4658.16
4694.45
4733.7
4776.24
4822.34
4872.19
4926.04
4984.04
5045.98
5111.34
5179.16
4217.63
4232.22
4247.07
4262.09
4277.32
4292.82
4308.65
4324.87
4341.54
4358.76
4376.59
4395.14
4414.5
4434.77
4456.09
4478.58
4502.4
4527.71
4554.66
4583.48
4614.39
4647.65
4683.57
4722.49
4764.8
4810.93
4861.15
4915.73
4975.03
5039.29
5108.38
5181.7
5258.01
4210.11
4224.7
4239.55
4254.56
4269.78
4285.26
4301.05
4317.21
4333.82
4350.94
4368.66
4387.07
4406.26
4426.34
4447.42
4469.64
4493.14
4518.1
4544.68
4573.07
4603.52
4636.28
4671.67
4710.04
4751.82
4797.52
4847.61
4902.4
4962.32
5027.84
5099.3
5176.83
5259.5
5322.14
5324.77
4202.55
4217.13
4231.96
4246.96
4262.15
4277.59
4293.33
4309.42
4325.94
4342.95
4360.54
4378.79
4397.78
4417.64
4438.46
4460.38
4483.54
4508.09
4534.22
4562.13
4592.03
4624.19
4658.92
4696.58
4737.59
4782.52
4831.94
4886.37
4946.29
5012.24
5084.92
5164.67
5252.59
5324.97
5322.6
5368.72
5371.16
4194.98
4209.53
4224.34
4239.3
4254.45
4269.84
4285.51
4301.52
4317.93
4334.82
4352.26
4370.32
4389.11
4408.72
4429.27
4450.86
4473.64
4497.76
4523.39
4550.74
4580.03
4611.5
4645.47
4682.27
4722.35
4766.26
4814.62
4868.07
4927.33
4993.01
5065.85
5146.82
5223.41
5214.04
5317.95
5261
5310.77
5370.88
5367.88
5418.14
5420.37
4187.41
4201.92
4216.69
4231.61
4246.7
4262.02
4277.61
4293.53
4309.83
4326.58
4343.85
4361.72
4380.28
4399.63
4419.87
4441.12
4463.5
4487.16
4512.27
4539.02
4567.62
4598.33
4631.46
4667.31
4706.31
4749.01
4796.04
4848.08
4905.97
4970.6
5042.78
5123.5
5203.3
5190.86
5251.06
5362.28
5301.34
5354.12
5419.58
5415.83
5470.68
5472.67
4179.85
4194.31
4209.03
4223.89
4238.92
4254.16
4269.66
4285.47
4301.64
4318.24
4335.33
4353
4371.32
4390.39
4410.31
4431.2
4453.17
4476.36
4500.93
4527.05
4554.93
4584.81
4617.01
4651.84
4689.67
4731.01
4776.5
4826.85
4882.89
4945.67
5016.3
5095.85
5177.36
5162.48
5239.05
5225.33
5289.96
5409.23
5343.57
5399.89
5471.32
5466.69
5526.65
5528.38
4172.31
4186.71
4201.37
4216.17
4231.12
4246.28
4261.68
4277.37
4293.4
4309.84
4326.74
4344.19
4362.26
4381.04
4400.63
4421.14
4442.69
4465.39
4489.41
4514.9
4542.04
4571.08
4602.28
4635.99
4672.59
4712.48
4756.29
4804.74
4858.62
4919.01
4987.18
5064.53
5146.69
5129.69
5210.32
5194.04
5276.5
5261.27
5330.76
5458.96
5387.98
5448.27
5526.4
5520.76
5586.43
5587.86
4164.81
4179.14
4193.73
4208.45
4223.32
4238.39
4253.68
4269.24
4285.13
4301.4
4318.11
4335.33
4353.14
4371.62
4390.87
4410.99
4432.1
4454.31
4477.76
4502.61
4529.02
4557.21
4587.41
4619.95
4655.2
4693.59
4735.65
4782.06
4833.59
4891.26
4956.37
5030.47
5111.92
5093.17
5176.63
5158.14
5244.66
5226.74
5315.74
5298.83
5373.62
5511.72
5434.8
5499.48
5585.14
5578.38
5650.39
5651.5
4157.35
4171.6
4186.12
4200.75
4215.54
4230.5
4245.67
4261.11
4276.84
4292.93
4309.44
4326.43
4343.97
4362.15
4381.05
4400.78
4421.44
4443.15
4466.03
4490.24
4515.92
4543.26
4572.49
4603.86
4637.73
4674.53
4714.76
4759.06
4808.13
4862.91
4924.64
4994.85
5074.01
5054.3
5138.72
5118.47
5207.62
5187.4
5280.41
5260.66
5356.92
5338.14
5418.71
5567.84
5484.22
5553.79
5647.95
5639.92
5718.99
5719.73
4149.94
4164.11
4178.54
4193.09
4207.77
4222.63
4237.68
4252.98
4268.56
4284.47
4300.77
4317.52
4334.79
4352.66
4371.21
4390.54
4410.75
4431.95
4454.27
4477.83
4502.78
4529.29
4557.55
4587.8
4620.32
4655.51
4693.85
4735.96
4782.53
4834.34
4892.52
4958.6
5034.53
5014.52
5097.7
5076.58
5166.26
5144.4
5239.68
5217.61
5317.69
5295.93
5400.13
5379.26
5466.14
5627.63
5536.48
5611.48
5715.24
5705.73
5792.74
5793.02
4142.59
4156.67
4171.01
4185.46
4200.04
4214.78
4229.71
4244.87
4260.29
4276.02
4292.11
4308.62
4325.62
4343.18
4361.37
4380.3
4400.06
4420.75
4442.49
4465.42
4489.65
4515.35
4542.67
4571.82
4603.05
4636.7
4673.17
4713.05
4757.02
4805.85
4860.47
4922.29
4994.6
4974.68
5055.36
5034.09
5122.07
5099.5
5194.73
5171.29
5273
5249.11
5356.61
5332.78
5445.44
5422.32
5516.17
5691.44
5591.86
5672.91
5787.47
5776.28
5872.3
5872.11
4135.3
4149.29
4163.53
4177.88
4192.36
4206.98
4221.78
4236.79
4252.05
4267.59
4283.48
4299.75
4316.47
4333.72
4351.56
4370.09
4389.39
4409.57
4430.75
4453.04
4476.57
4501.46
4527.88
4555.98
4585.98
4618.16
4652.86
4690.58
4731.94
4777.71
4828.79
4886.43
4954.95
4935.29
5012.9
4991.87
5076.91
5054.37
5147.45
5123.46
5224.56
5199.58
5307.99
5282.39
5397.49
5371.75
5493.16
5467.8
5569.15
5759.76
5650.79
5738.62
5865.32
5852.19
5958.46
5957.69
4128.08
4141.97
4156.12
4170.36
4184.73
4199.23
4213.9
4228.76
4243.86
4259.22
4274.89
4290.92
4307.37
4324.31
4341.8
4359.93
4378.78
4398.45
4419.06
4440.72
4463.55
4487.67
4513.21
4540.31
4569.14
4599.93
4632.97
4668.67
4707.56
4750.29
4797.82
4851.43
4915.9
4897
4971.01
4950.3
5031.95
5009.75
5099.53
5075.68
5174.27
5148.85
5256.26
5229.75
5345.26
5318.04
5441.02
5413.57
5543.85
5516.55
5625.73
5833.18
5714
5809.43
5949.42
5934.07
6052.05
6050.56
4120.93
4134.72
4148.76
4162.91
4177.16
4191.54
4206.08
4220.79
4235.72
4250.89
4266.35
4282.15
4298.34
4314.97
4332.11
4349.84
4368.24
4387.41
4407.46
4428.49
4450.63
4473.99
4498.69
4524.84
4552.58
4582.07
4613.56
4647.37
4683.96
4723.87
4767.95
4817.56
4874.28
4929.91
4909.87
4987.76
4965.94
5051.99
5028.55
5123.5
5098.25
5202.9
5175.9
5290.28
5262.07
5385.41
5356.43
5488.05
5458.83
5598.51
5569.53
5687
5912.57
5782.72
5886.7
6040.6
6022.92
6154.13
6151.75
4113.86
4127.54
4141.49
4155.52
4169.66
4183.92
4198.32
4212.88
4227.64
4242.63
4257.89
4273.45
4289.37
4305.7
4322.51
4339.85
4357.81
4376.49
4395.97
4416.38
4437.84
4460.45
4484.33
4509.58
4536.29
4564.59
4594.65
4626.71
4661.18
4698.5
4739.41
4785.14
4837.4
4902.73
4882.43
4944.44
4923.4
5005.33
4982.29
5073.15
5048.31
5148.96
5122.09
5233.45
5204.62
5326.79
5296.57
5428.76
5397.67
5539.19
5507.82
5658.16
5627.38
5754.09
5999.27
5858.29
5971.89
6139.9
6120.02
6266.01
6262.54
4106.86
4120.44
4134.28
4148.21
4162.23
4176.36
4190.63
4205.05
4219.64
4234.45
4249.5
4264.84
4280.5
4296.54
4313.01
4329.97
4347.5
4365.69
4384.63
4404.42
4425.19
4447.06
4470.14
4494.52
4520.29
4547.5
4576.26
4606.74
4639.25
4674.21
4712.23
4754.37
4802.26
4862.61
4843.31
4915.66
4894.33
4959.59
4937.4
5023.7
4999.29
5095.37
5068.93
5175.8
5147.06
5265.83
5234.82
5365.72
5333.05
5475.33
5441.59
5594.74
5560.53
5723.37
5690.24
5827.62
6094.94
5941.51
6066.06
6248.68
6227.32
6389.37
6384.66
4099.95
4113.42
4127.16
4140.97
4154.88
4168.89
4183.02
4197.29
4211.72
4226.35
4241.2
4256.31
4271.72
4287.47
4303.62
4320.22
4337.33
4355.05
4373.44
4392.63
4412.72
4433.85
4456.13
4479.68
4504.55
4530.77
4558.38
4587.45
4618.2
4651
4686.39
4725.27
4769.1
4824.64
4806.68
4873.51
4853.31
4928.82
4906.31
4975.26
4951.78
5042.73
5016.76
5118.46
5090.16
5203.79
5172.83
5299.74
5266.12
5406.77
5371.1
5524.91
5487.8
5654.56
5616.67
5794.27
5757.89
5907.95
6201.1
6032.96
6169.79
6369.05
6346.75
6526
6520.14
4093.21
4106.49
4120.11
4133.82
4147.61
4161.49
4175.49
4189.62
4203.89
4218.34
4233
4247.89
4263.05
4278.53
4294.36
4310.6
4327.31
4344.57
4362.44
4381.03
4400.45
4420.84
4442.33
4465.04
4489.05
4514.37
4540.96
4568.8
4598
4628.86
4661.85
4697.78
4737.92
4783.71
4833.8
4814.91
4884.4
4863.21
4942.01
4918.21
4991.23
4966.33
5062.16
5034.43
5142.06
5111.65
5232.49
5198.99
5334.72
5298.04
5449.47
5410.2
5577.05
5535.81
5718.26
5675.81
5870.88
5830.04
5995.29
6318.45
6132.7
6283.2
6503.39
6479.67
6677.53
6670.96
4099.73
4113.15
4126.75
4140.42
4154.19
4168.05
4182.03
4196.15
4210.43
4224.9
4239.57
4254.5
4269.71
4285.23
4301.13
4317.46
4334.27
4351.64
4369.66
4388.42
4408.07
4428.76
4450.63
4473.8
4498.26
4523.94
4550.72
4578.58
4607.71
4638.55
4671.84
4708.62
4750.2
4803.65
4785.16
4842.73
4822.9
4895.11
4872.83
4954.92
4929.74
5007.22
4980.74
5081.59
5051.91
5165.77
5132.98
5261.43
5225.07
5370.24
5330.08
5493.27
5449.82
5631.26
5585.03
5785.4
5737.35
5953.04
5906.25
6089.39
6447.87
6240.57
6406.64
6653.45
6627.2
6846.37
6839.51
4106.38
4119.77
4133.33
4146.97
4160.71
4174.55
4188.51
4202.63
4216.9
4231.37
4246.07
4261.02
4276.26
4291.83
4307.79
4324.18
4341.07
4358.54
4376.66
4395.58
4415.44
4436.46
4458.77
4482.39
4507.22
4533.06
4559.79
4587.44
4616.39
4647.33
4681.13
4718.8
4767.42
4750.42
4810.56
4791.33
4851.33
4830.58
4905.38
4881.94
4967.23
4940.59
5022.88
4994.68
5100.62
5068.82
5189.13
5153.76
5290.13
5250.63
5405.77
5361.71
5537.59
5489.33
5686.91
5634.81
5855.33
5800.63
6040.47
5985.96
6189.83
6590.45
6357.3
6494.32
6521.32
6820.7
6790.4
7035.5
7028.06
4112.98
4126.32
4139.85
4153.46
4167.16
4180.98
4194.92
4209.02
4223.29
4237.76
4252.47
4267.44
4282.7
4298.31
4314.31
4330.74
4347.69
4365.21
4383.42
4402.47
4422.59
4443.99
4466.74
4490.71
4515.71
4541.47
4567.9
4595.25
4624.11
4655.3
4689.55
4727.6
4772.88
4755.2
4816.84
4796.82
4859.39
4837.69
4914.94
4890.32
4978.69
4950.54
5037.88
5007.85
5118.92
5084.87
5211.76
5173.62
5318.09
5275.18
5440.68
5392.28
5581.73
5528.03
5743.4
5684.43
5927.59
5865.09
6133.29
6032.77
6064.75
6286.17
6255.02
6591.15
6719.66
6693.9
6465.89
6434.45
6341.73
6563.01
7006.83
6800.25
6912.95
6936.1
7247.31
7238.79
4119.52
4132.81
4146.3
4159.88
4173.55
4187.34
4201.26
4215.34
4229.59
4244.06
4258.77
4273.74
4289.02
4304.64
4320.65
4337.11
4354.07
4371.62
4389.89
4409.11
4429.55
4451.36
4474.44
4498.59
4523.51
4548.94
4574.97
4602.07
4630.99
4662.31
4696.58
4741.51
4724.77
4777.62
4759.2
4822.31
4801.5
4866.69
4844.03
4923.57
4897.76
4989.08
4959.39
5051.9
5019.98
5136.18
5099.74
5233.14
5192.06
5344.67
5298.09
5474.25
5421.12
5625.1
5565.36
5800.24
5737.97
5705.46
6000.16
5966.31
5896.18
5931.61
6107.74
6223
6188.72
6073.94
6308.83
6665.84
6773.81
6531.69
6497.68
6400.58
6634.74
7028.86
7170.12
7151.37
6887.1
7005.77
7486.44
7276.8
7409.15
7422
4126
4139.25
4152.7
4166.23
4179.87
4193.62
4207.51
4221.56
4235.8
4250.25
4264.94
4279.91
4295.18
4310.8
4326.8
4343.24
4360.18
4377.74
4396.09
4415.56
4436.36
4458.47
4481.71
4505.82
4530.41
4555.38
4581.05
4608.03
4636.88
4667.96
4701.6
4744.53
4727.35
4781.61
4762.63
4826.85
4805.3
4873.06
4849.44
4931.07
4904.07
4998.04
4966.86
5064.61
5030.7
5151.91
5113.01
5252.69
5208.55
5369.25
5318.88
5506.05
5448.08
5673.08
5640.77
5608.45
5576.39
5860.44
5824.3
5762.77
5728.8
6038.91
6002.67
5927.77
5965.48
6152.82
6274
6237.23
6115.93
6364.49
6743.36
6857.65
6600.35
6461.1
6563.14
6709.38
7129.7
7258.97
6977.79
7103.72
7544.03
7687.67
7685.99
7393.55
7533.39
4132.42
4145.62
4159.02
4172.51
4186.1
4199.81
4213.66
4227.68
4241.89
4256.32
4270.99
4285.93
4301.18
4316.76
4332.72
4349.1
4365.99
4383.56
4402.09
4421.88
4442.94
4465.16
4488.36
4512.17
4536.31
4560.85
4586.25
4613.04
4641.51
4671.78
4711.97
4696.01
4746.7
4728.96
4784.79
4765.28
4830.36
4808.14
4878.31
4853.76
4937.22
4909.04
5005.31
4972.68
5075.65
5039.7
5165.61
5124.24
5270.05
5222.83
5391.95
5337.74
5544.57
5513.21
5482.24
5451.92
5694.68
5660.69
5626.86
5593.29
5889.76
5851.48
5788.09
5752.04
6078.18
6039.36
5959.67
5999.68
6198.55
6326.48
6286.74
6158.64
6421.87
6824.25
6945.41
6671.77
6523.44
6631.06
6787.06
7235.45
7372.94
7072.87
7206.62
7678.7
7830.88
7829.39
7516.3
7665.6
4138.77
4151.92
4165.27
4178.7
4192.24
4205.9
4219.71
4233.69
4247.86
4262.25
4276.88
4291.78
4306.97
4322.49
4338.37
4354.66
4371.51
4389.2
4408.01
4428.01
4449.12
4471.26
4494.2
4517.58
4541.26
4565.45
4590.62
4616.98
4644.59
4673.61
4712.83
4696.77
4748.03
4729.95
4787.08
4767.07
4832.73
4809.94
4882.26
4856.83
4941.77
4912.46
5010.69
4976.66
5084.65
5046.74
5177.18
5133.39
5285.31
5234.98
5422.16
5393.09
5364.47
5336.88
5560.08
5527.35
5495.15
5463.57
5716.08
5680.43
5645.08
5610.02
5919.42
5813.33
5878.95
5775.35
6118.06
6076.63
5992.12
6034.5
6245.15
6380.51
6337.6
6202.3
6481.08
6908.8
7037.22
6746.08
6587.91
6701.75
6868.1
7346.67
7493.07
7172.49
7314.69
7820.72
7982.77
7980.79
7645.88
7805.13
4145.06
4158.15
4171.43
4184.8
4198.28
4211.89
4225.64
4239.56
4253.68
4268.02
4282.6
4297.43
4312.55
4327.97
4343.72
4359.93
4376.86
4394.8
4413.79
4433.77
4454.74
4476.62
4499.18
4522.1
4545.39
4569.34
4594.07
4619.61
4646.04
4681.35
4666.87
4713.03
4696.79
4748.54
4730.26
4788.37
4767.91
4833.84
4810.57
4884.72
4858.52
4944.52
4914.15
5014.13
4978.71
5091.59
5051.78
5186.67
5140.51
5298.49
5245.25
5432.71
5402.48
5372.79
5343.91
5575.39
5541.29
5507.8
5474.99
5737.54
5700.21
5663.27
5626.67
5949.54
5838.77
5906.9
5798.88
6158.89
6114.8
6025.42
6070.2
6293.13
6436.4
6390.18
6247.38
6542.32
6997.04
7133.21
6823.52
6654.83
6775.44
6952.59
7463.66
7619.57
7277.01
7428.19
7970.41
8142.06
8139.57
7782.44
7952.02
4151.27
4164.28
4177.49
4190.79
4204.2
4217.75
4231.44
4245.3
4259.36
4273.63
4288.13
4302.88
4317.88
4333.16
4348.79
4365.05
4382.24
4400.33
4419.24
4439
4459.68
4481.22
4503.35
4525.9
4548.92
4572.44
4596.45
4620.93
4646.08
4681.06
4666.65
4712.69
4696.43
4748.28
4729.95
4788.57
4767.8
4833.59
4809.95
4885.55
4858.73
4945.36
4913.99
5015.71
4978.93
5096.56
5054.91
5194.36
5145.71
5321.61
5293.09
5237.79
5264.95
5442.97
5411.62
5380.87
5350.9
5590.57
5555.07
5520.22
5486.12
5759.21
5720.12
5681.52
5643.3
5980.41
5864.63
5935.43
5822.73
6200.95
6154.15
6059.65
6107.02
6342.75
6494.25
6444.59
6293.96
6605.75
7089.22
7233.92
6904.26
6724.68
6852.53
7040.98
7586.72
7752.65
7386.85
7547.45
8127.4
8307.72
8304.94
7925.91
8106.11
4157.39
4170.31
4183.45
4196.67
4210.01
4223.48
4237.09
4250.88
4264.86
4279.05
4293.46
4308.09
4322.95
4338.08
4353.73
4370.25
4387.63
4405.62
4424.2
4443.6
4463.94
4485.15
4506.95
4529.18
4551.78
4574.67
4597.77
4621.16
4652.17
4639.28
4680.32
4665.9
4711.8
4695.6
4747.27
4728.99
4787.68
4766.78
4831.8
4807.93
4884.64
4857.3
4944.41
4912.11
5015.4
4977.22
5099.66
5056.21
5211.3
5186.1
5148.37
5327.27
5297.69
5240.7
5268.76
5452.89
5420.38
5388.53
5357.51
5605.62
5568.62
5532.32
5496.85
5781.12
5740.16
5699.76
5659.78
6012.06
5890.95
5964.6
5846.9
6244.46
6194.84
6094.78
6144.99
6394.01
6554.28
6501.23
6342.16
6671.94
7186
7339.82
6988.93
6798.05
6933.57
7133.85
7716.02
7892.46
7502.11
7672.8
8291.19
8478.98
8476.31
8076.37
8267.12
4163.41
4176.24
4189.29
4202.43
4215.69
4229.07
4242.6
4256.31
4270.19
4284.28
4298.57
4313.05
4327.75
4342.86
4358.79
4375.59
4392.9
4410.52
4428.61
4447.58
4467.64
4488.58
4510.07
4531.9
4553.96
4576.06
4598.29
4620.6
4651.32
4638.58
4679.1
4664.82
4710.29
4694.24
4745.44
4727.32
4785.6
4764.8
4828.34
4804.36
4882.08
4854.21
4941.61
4908.48
5012.99
4973.59
5100.46
5055.25
5213.52
5187.27
5161.13
5135.6
5332.16
5301.58
5242.93
5271.8
5462.32
5428.59
5395.57
5363.45
5620.42
5581.78
5543.94
5506.99
5803.2
5760.21
5717.85
5675.97
6044.44
5917.69
5994.33
5871.29
6289.59
6236.96
6130.78
6184.07
6447.33
6617.13
6560.58
6392.36
6741.47
7287.79
7450.96
7077.94
6875.27
7018.58
7231.54
7851.83
8038.99
7623.26
7804.49
8461.53
8654.7
8652.44
8233.83
8435.02
4169.33
4182.07
4195.02
4208.07
4221.22
4234.51
4247.95
4261.56
4275.34
4289.3
4303.45
4317.77
4332.41
4347.79
4364.09
4380.92
4397.9
4414.98
4432.55
4451.16
4470.99
4491.66
4512.78
4534.13
4555.53
4576.92
4598.14
4625.47
4614.09
4650.07
4637.5
4677.36
4663.33
4708.05
4692.25
4742.65
4724.81
4782.21
4761.71
4823.4
4799.51
4877.8
4849.47
4937.07
4903.21
5007.84
4967.49
5110.78
5087.33
5051.14
5214.98
5187.84
5160.37
5134.14
5336.12
5304.5
5244.15
5273.83
5471.07
5436.02
5401.77
5368.5
5634.77
5594.37
5554.84
5516.3
5825.31
5780.11
5735.6
5691.64
6077.49
5944.79
6024.55
5895.76
6336.56
6280.5
6167.57
6224.17
6503.05
6683
6622.71
6444.67
6814.55
7394.75
7567.84
7171.4
6956.23
7107.68
7334.25
7994.33
8192.43
7750.82
7942.78
8637.89
8833.47
8832.01
8398.25
8609.73
4175.14
4187.76
4200.61
4213.55
4226.61
4239.79
4253.13
4266.63
4280.29
4294.11
4308.1
4322.34
4337.21
4353.03
4369.47
4386.06
4402.54
4419.07
4436.26
4454.66
4474.23
4494.56
4515.25
4536.07
4556.81
4577.19
4597.1
4624.33
4613.07
4648.43
4636.1
4675.06
4661.38
4704.96
4689.56
4738.76
4721.32
4777.62
4757.46
4817.09
4793.4
4871.91
4843.21
4930.42
4896.13
5011.93
4991.07
4958.02
5108.93
5084.83
5034.2
5057.11
5215.43
5187.57
5158.3
5131.56
5338.93
5306.27
5244.17
5274.66
5478.9
5442.47
5406.92
5372.45
5648.44
5606.13
5564.8
5524.57
5847.29
5799.67
5752.78
5706.55
6111.08
5972.11
6055.02
5920.16
6385.32
6325.42
6205.15
6265.32
6561.16
6751.92
6687.64
6498.88
6891.2
7507.33
7691.15
7269.66
7041.04
7201.48
7442.32
8143.68
8353.04
7884.89
8087.98
8818.96
9015.56
9014.65
8569.74
8790.41
4180.81
4193.33
4206.06
4218.89
4231.83
4244.91
4258.13
4271.5
4285.03
4298.71
4312.59
4326.99
4342.33
4358.41
4374.72
4390.88
4406.83
4423
4440.04
4458.28
4477.58
4497.5
4517.71
4537.82
4557.51
4576.62
4600.85
4590.56
4622.71
4611.6
4646.29
4634.25
4672.15
4658.89
4701.02
4686.15
4733.8
4716.85
4771.84
4752.07
4809.79
4786.25
4864.58
4835.82
4920.98
4886.71
5006.74
4985.67
4958.42
4939.08
5105.89
5081.2
5029.05
5052.37
5214.69
5186.07
5154.98
5127.8
5340.42
5306.7
5242.88
5274.16
5485.59
5447.71
5410.81
5375.09
5661.18
5616.83
5573.58
5531.57
5868.97
5818.7
5769.16
5720.46
6145.12
5999.33
6085.42
5944.2
6435.66
6371.65
6243.34
6307.46
6621.84
6824.11
6755.42
6555.05
6971.64
7626.1
7820.98
7373.16
7130.35
7300.34
7556.33
8300.26
8520.74
8025.78
8240.42
9003.75
9202.13
9201.41
8748.07
8976.26
4186.36
4198.75
4211.36
4224.07
4236.89
4249.84
4262.94
4276.19
4289.58
4303.13
4317.11
4331.96
4347.67
4363.71
4379.67
4395.31
4410.88
4426.92
4443.94
4462.05
4481.03
4500.46
4519.87
4538.92
4557.4
4575.03
4599.32
4589.23
4620.62
4609.78
4643.59
4631.88
4668.6
4655.81
4696.28
4682.05
4727.78
4711.45
4764.92
4745.52
4801.61
4778.3
4855.55
4827.27
4920.53
4903.06
4874.56
5000.42
4979.03
4951.26
4931.88
5101.73
5076.65
5022.88
5046.46
5212.67
5183.33
5150.51
5122.92
5340.44
5305.72
5240.21
5272.28
5490.96
5451.57
5413.28
5376.26
5672.78
5626.26
5581
5537.13
5890.07
5836.86
5784.49
5733.13
6179.24
6026.12
6115.43
5967.63
6487.41
6418.95
6281.59
6350.28
6684.93
6899.77
6826
6613.12
7056.2
7751.35
7957.34
7482.31
7224.3
7404.42
7676.74
8464.14
8695.6
8173.96
8400.57
9192.49
9393.73
9392.89
8932.9
9167.31
4191.76
4204.02
4216.5
4229.07
4241.77
4254.6
4267.57
4280.68
4293.94
4307.53
4321.91
4337.2
4352.96
4368.72
4384.17
4399.38
4414.78
4430.84
4447.86
4465.78
4484.28
4502.9
4521.29
4539.21
4556.41
4572.67
4597.51
4587.67
4618.15
4607.66
4640.32
4629.02
4664.37
4652.08
4690.77
4677.22
4720.89
4705.23
4757.16
4738.09
4792.46
4769.66
4844.46
4817.29
4913.46
4896.07
4856.32
4871.63
4993.22
4971.73
4943.23
4923.87
5096.49
5071.04
5015.8
5039.51
5209.31
5179.36
5144.79
5116.88
5338.9
5303.27
5236.15
5269
5494.83
5453.91
5414.19
5375.83
5683
5634.22
5586.87
5541.08
5910.29
5853.88
5798.49
5744.36
6212.93
6052.23
6144.71
5990.16
6540.48
6467.21
6319.71
6393.54
6750.41
6978.99
6899.46
6673.16
7144.73
7883.01
8100.95
7597.6
7322.79
7514.02
7803.35
8635.35
8878.05
8330.05
8568.1
9385.26
9590.68
9589.67
9124.1
9363.43
4197
4209.13
4221.46
4233.9
4246.46
4259.16
4272
4284.99
4298.24
4312.15
4327
4342.43
4357.98
4373.26
4388.23
4403.18
4418.54
4434.64
4451.55
4469.07
4486.85
4504.56
4521.92
4538.69
4554.61
4574.76
4585.9
4565.91
4595.46
4615.4
4605.29
4636.61
4625.83
4659.48
4647.82
4684.52
4671.65
4713.39
4698.32
4748.87
4730.14
4782.15
4760.33
4831.43
4805.74
4905.52
4888.12
4848.85
4863.69
4985.18
4963.66
4934.42
4915.13
5090.12
5064.33
5007.81
5031.61
5204.52
5174.03
5137.89
5109.7
5335.76
5299.3
5230.73
5264.29
5497.04
5454.57
5413.46
5373.79
5691.67
5640.54
5591.03
5543.28
5929.33
5869.51
5810.95
5753.92
6246.07
6077.38
6173.1
6011.47
6594.95
6516.26
6357.57
6437.03
6818.11
7061.6
6975.72
6734.87
7237.1
8021.65
8252.51
7718.81
7426.11
7629.22
7936.55
8814.45
9067.56
8493.81
8743.4
9582.61
9793.81
9792.81
9321.37
9564.16
4202.09
4214.06
4226.25
4238.55
4250.97
4263.54
4276.26
4289.2
4302.69
4317.07
4332.13
4347.42
4362.54
4377.3
4391.9
4406.73
4422.09
4438.11
4454.71
4471.65
4488.65
4505.44
4521.78
4537.4
4551.99
4583.88
4572.82
4564.14
4593.18
4612.42
4602.69
4632.64
4622.4
4654.15
4643.21
4677.72
4665.58
4705.5
4690.89
4740.2
4721.89
4770.8
4750.23
4827.22
4814.43
4792.84
4896.91
4879.74
4840.78
4855.22
4976.31
4954.81
4924.91
4905.7
5082.66
5056.59
4998.97
5022.82
5198.42
5167.43
5129.87
5101.41
5331.05
5293.76
5223.94
5258.1
5497.43
5453.43
5411.02
5370.16
5698.59
5645.05
5593.37
5543.62
5946.87
5883.47
5821.61
5761.59
6278.43
6101.41
6200.2
6031.31
6650.41
6565.41
6394.65
6480.02
6887.78
7147.56
7054.59
6797.79
7333.75
8168.04
8411.88
7845.9
7534.59
7749.81
8076.86
9001.33
9263.83
8665.22
8927.23
9785.77
10002.6
10002.6
9524.63
9769.12
4207
4218.81
4230.85
4243
4255.29
4267.75
4280.4
4293.51
4307.42
4322.08
4337.06
4351.97
4366.56
4380.87
4395.25
4410.02
4425.3
4441.08
4457.22
4473.52
4489.72
4505.6
4520.92
4535.4
4548.89
4581.68
4570.71
4562.24
4590.7
4609.22
4599.88
4628.47
4618.75
4648.61
4638.4
4670.69
4659.27
4697.43
4683.27
4731.07
4713.4
4758.58
4739.46
4819.23
4806.9
4777.28
4787.96
4887.67
4870.83
4832.31
4846.29
4966.68
4945.25
4914.7
4895.64
5074.09
5047.86
4989.29
5013.09
5191.08
5159.68
5120.6
5091.93
5324.68
5286.55
5215.58
5250.27
5495.93
5450.35
5406.73
5364.81
5703.53
5647.52
5593.62
5541.87
5962.61
5895.42
5830.12
5766.96
6309.48
6123.75
6225.28
6049.21
6706.34
6614.49
6426.49
6522.2
6958.88
7236.77
7135.46
6861.58
7434.62
8322.17
8579.01
7979.45
7647.7
7875.54
8224.66
9195.66
9466.64
8845.21
9119.14
9996.7
10215
10218.6
9732.77
9981.42
4211.72
4223.37
4235.24
4247.26
4259.44
4271.82
4284.58
4298.06
4312.28
4326.92
4341.58
4355.98
4370.08
4384.07
4398.33
4412.98
4428.05
4443.47
4459.09
4474.71
4490.11
4505.09
4519.39
4532.83
4550.11
4560.19
4542.33
4579.32
4568.44
4588.05
4605.86
4596.9
4624.14
4614.94
4642.98
4633.45
4663.67
4652.92
4689.33
4675.69
4721.42
4704.64
4770.18
4753.65
4744.52
4728.15
4810.9
4799.1
4780.43
4877.86
4861.43
4823.47
4836.99
4956.24
4934.93
4903.84
4885.03
5064.42
5038.12
4978.74
5002.48
5182.32
5150.62
5110.02
5081.2
5316.55
5277.65
5205.66
5240.77
5492.38
5445.25
5400.43
5357.55
5706.08
5647.56
5591.41
5537.64
5976.14
5904.9
5835.98
5769.62
6333.5
6143.44
6245.74
6061.13
6762.47
6661.34
6469.54
6562.07
7031.02
7329.21
7216.69
6924.03
7539.18
8484.11
8754.39
8119.41
7764.97
8006.82
8380.23
9396.95
9675.9
9033.88
9318.34
10215.9
10426.9
10441.8
9947.81
10201.8
4216.24
4227.72
4239.44
4251.33
4263.43
4275.88
4288.96
4302.76
4317.03
4331.4
4345.58
4359.47
4373.16
4386.97
4401.09
4415.55
4430.32
4445.3
4460.35
4475.27
4489.88
4503.96
4517.32
4529.78
4558.05
4548.14
4540.47
4576.8
4566.08
4585.25
4602.37
4593.78
4619.72
4611.02
4637.38
4628.48
4656.81
4646.68
4681.23
4668.25
4711.41
4695.7
4763.07
4746.79
4737.98
4715.63
4723.5
4802.31
4791.07
4772.78
4867.63
4851.65
4814.32
4827.34
4945.03
4923.89
4892.51
4874.05
5053.66
5027.43
4967.36
4990.95
5172.11
5140.22
5098.13
5069.25
5306.39
5266.86
5194.07
5229.5
5486.4
5437.81
5391.83
5348.1
5705.91
5644.87
5586.47
5530.59
5982.65
5908.8
5837.65
5769.1
6336.41
6163.55
6250.59
6088.59
6816.12
6717.17
6456.55
6576.64
7101.33
7424.14
7304.77
6993.46
7647.01
8654.67
8938.7
8266.58
7886.92
8144.64
8544.08
9605.77
9892.17
9230.04
9525.44
10445.5
10625.3
10678.1
10170.1
10431.9
4220.55
4231.85
4243.43
4255.24
4267.4
4280.12
4293.51
4307.39
4321.44
4335.38
4349.06
4362.49
4375.92
4389.57
4403.5
4417.7
4432.09
4446.58
4461.02
4475.24
4489.06
4502.3
4514.83
4526.56
4555.88
4546.11
4538.6
4574.18
4563.69
4582.35
4598.79
4590.56
4615.3
4607.05
4631.91
4623.55
4650.19
4640.65
4673.19
4660.99
4701.14
4686.67
4755.78
4739.91
4731.61
4709.8
4717.43
4793.54
4782.87
4765
4857.09
4841.55
4804.97
4817.42
4933.16
4912.28
4880.75
4862.75
5041.78
5015.72
4955.22
4978.52
5160.39
5128.44
5084.75
5056.02
5293.83
5253.87
5180.59
5216.19
5477.56
5427.56
5380.5
5336.08
5703.25
5640.22
5580.1
5522.57
5977.86
5905.38
5835.1
5766.74
6334.92
6172.77
6249.18
6077.17
6837.82
6705.75
6454.79
6575.51
7131
7524.72
7296.07
6982.71
7761.12
8833.96
9131.42
8422.13
8015.25
8288.77
8721.34
9821.92
10116.6
9434.21
9740.31
10692.9
10872
10966.6
10400.4
10677.4
4224.62
4235.76
4247.25
4259.1
4271.49
4284.51
4298.02
4311.74
4325.41
4338.86
4352.05
4365.15
4378.39
4391.85
4405.53
4419.4
4433.37
4447.33
4461.14
4474.67
4487.74
4500.24
4512.05
4523.1
4536.7
4553.67
4544.05
4571.54
4561.27
4579.43
4595.23
4587.33
4610.95
4603.11
4626.67
4618.77
4643.86
4634.88
4665.29
4653.97
4690.92
4677.67
4748.39
4733
4725.16
4704.18
4711.35
4784.66
4774.56
4757.09
4846.23
4831.14
4795.49
4807.32
4920.63
4900.1
4868.55
4851.1
5028.82
5003.04
4942.33
4965.2
5146.92
5115.03
5069.81
5041.39
5278.85
5238.44
5165.15
5200.72
5468.29
5417.4
5368.44
5321.65
5700.56
5637.06
5576.59
5518.86
5976.36
5903.9
5833.64
5765.28
6333.59
6171.8
6247.89
6075.36
6836.8
6703.95
6453.33
6574.26
7130.01
7519.28
7294.38
6980.87
7757.85
9021.23
9332.07
8585.76
8014.54
8290.73
8903.75
10046.6
10349.2
9647.55
9963.79
10975
11858.4
11393.1
10643.1
10945.6
4228.44
4239.46
4250.98
4263.06
4275.74
4288.9
4302.3
4315.68
4328.89
4341.84
4354.65
4367.53
4380.57
4393.79
4407.17
4420.65
4434.15
4447.56
4460.77
4473.63
4486.03
4497.86
4509.04
4519.48
4534.76
4532.77
4551.43
4541.95
4568.9
4558.85
4576.54
4591.76
4584.16
4606.79
4599.31
4621.7
4614.23
4637.86
4629.45
4657.63
4647.24
4686.34
4698.35
4680.26
4668.82
4740.97
4726.06
4718.66
4705.24
4775.7
4766.14
4749.15
4835.07
4820.47
4785.93
4797.12
4907.4
4887.35
4856.03
4839.18
5014.63
4989.29
4928.62
4950.95
5131.58
5099.87
5053.16
5025.3
5263.28
5221.82
5147.59
5183.13
5464.66
5414.07
5346.96
5305.1
5699.11
5635.6
5575.14
5517.41
5975.05
5902.63
5832.4
5764.03
6332.47
6170.71
6246.75