/*--------------------------------*- C++ -*----------------------------------*\
  =========                 |
  \\      /  F ield         | OpenFOAM: The Open Source CFD Toolbox
   \\    /   O peration     | Website:  https://openfoam.org
    \\  /    A nd           | Version:  dev
     \\/     M anipulation  |
\*---------------------------------------------------------------------------*/
FoamFile
{
    version     2.0;
    format      ascii;
    class       volScalarField;
    location    "2500";
    object      H2O;
}
// * * * * * * * * * * * * * * * * * * * * * * * * * * * * * * * * * * * * * //

dimensions      [0 0 0 0 0 0 0];

internalField   nonuniform List<scalar> 
9851
(
8.44621e-30
4.29992e-29
2.18394e-29
1.59876e-28
1.18249e-28
1.42936e-29
6.78591e-28
4.76688e-28
1.31949e-28
6.17577e-30
2.88016e-27
1.96297e-27
5.56347e-28
9.9037e-29
2.39557e-30
1.03746e-26
9.16538e-27
2.43355e-27
4.27033e-28
4.31289e-29
2.78489e-30
4.59473e-26
3.90972e-26
1.4305e-26
1.90904e-27
3.17437e-28
2.12183e-29
1.42389e-30
1.76703e-25
1.40517e-25
6.50492e-26
1.04832e-26
1.23276e-27
1.68643e-28
2.29722e-29
3.57451e-30
5.70537e-25
6.82711e-25
3.05276e-25
5.5456e-26
7.53019e-27
1.15418e-27
8.29245e-29
3.52961e-29
7.00765e-30
1.13933e-24
2.68396e-24
1.23707e-24
2.78493e-25
5.47956e-26
5.5696e-27
5.61975e-28
1.36016e-28
5.42771e-29
5.2452e-30
5.82104e-24
1.10254e-23
5.10344e-24
1.57659e-24
2.6199e-25
3.91091e-26
4.57474e-27
5.23915e-28
1.98916e-28
7.48996e-29
2.28385e-30
1.57793e-23
3.54684e-23
1.97315e-23
6.04589e-24
1.08423e-24
1.38613e-25
2.05775e-26
2.49713e-27
1.02065e-27
4.26474e-28
3.38228e-29
1.5671e-29
6.57649e-23
9.84972e-23
7.03238e-23
2.31463e-23
5.68055e-24
6.34491e-25
8.64455e-26
1.5225e-26
3.73035e-27
1.7825e-27
2.80038e-28
8.89072e-29
3.66233e-29
9.35153e-23
3.18435e-22
2.52835e-22
1.0263e-22
2.0839e-23
3.39678e-24
4.26386e-25
6.4207e-26
1.51805e-26
6.14124e-27
2.35554e-27
7.93552e-28
2.867e-28
8.04683e-30
2.40946e-22
9.72207e-22
6.87037e-22
3.67746e-22
8.15578e-23
1.88068e-23
2.14501e-24
3.15741e-25
6.17177e-26
1.9895e-26
7.33919e-27
2.31543e-27
1.6123e-27
1.5747e-28
2.76881e-29
5.28881e-22
1.74377e-21
1.96896e-21
1.21556e-21
4.1894e-22
6.15025e-23
1.24515e-23
1.39385e-24
2.29368e-25
5.40906e-26
3.2544e-26
1.59449e-26
5.10391e-27
1.45686e-27
4.50104e-28
4.18165e-29
2.61628e-21
4.37394e-21
6.00362e-21
4.341e-21
1.48312e-21
3.61658e-22
5.14799e-23
6.91331e-24
9.74718e-25
2.13973e-25
9.53768e-26
5.481e-26
1.93307e-26
1.05455e-26
3.87414e-27
1.14404e-27
3.04351e-28
4.3427e-21
1.20215e-20
1.75822e-20
1.14123e-20
4.96009e-21
1.44396e-21
2.76436e-22
3.24739e-23
5.40787e-24
6.77918e-25
2.7018e-25
1.59138e-25
7.40334e-26
4.23861e-26
1.05053e-26
6.42195e-27
3.70654e-27
1.66472e-27
7.62847e-21
1.68343e-20
2.92377e-20
2.7952e-20
1.30395e-20
4.79234e-21
1.19655e-21
2.2054e-22
2.23275e-23
3.40216e-24
8.19162e-25
3.72171e-25
2.25918e-25
1.37599e-25
5.46387e-26
2.45575e-26
1.41709e-26
1.86535e-26
1.24477e-26
1.12934e-20
3.60117e-20
6.17583e-20
6.2722e-20
3.83426e-20
1.28876e-20
3.92161e-21
9.00788e-22
1.46164e-22
2.00735e-23
2.48226e-24
1.01055e-24
4.78352e-25
2.61887e-25
2.07818e-25
6.27273e-26
1.17256e-25
7.76251e-26
1.69514e-25
8.65356e-26
1.27245e-20
5.89888e-20
9.2696e-20
1.18975e-19
8.38295e-20
4.10715e-20
9.98513e-21
3.0239e-21
6.17511e-22
9.48297e-23
1.23618e-23
3.16585e-24
1.59131e-24
8.51812e-25
5.88013e-25
3.34855e-25
4.06061e-25
6.63479e-25
7.54343e-25
1.92967e-24
1.74502e-24
1.31986e-20
8.5913e-20
1.63378e-19
2.01226e-19
1.58247e-19
9.3392e-20
3.40412e-20
8.96824e-21
1.62063e-21
4.23121e-22
4.54489e-23
1.03649e-23
3.96409e-24
1.68859e-24
1.14342e-24
1.37858e-24
2.78182e-24
4.13842e-24
4.96725e-24
1.17833e-23
1.81571e-23
9.41714e-24
3.91232e-20
1.14208e-19
2.27111e-19
3.97252e-19
3.96064e-19
1.74048e-19
9.01268e-20
2.46281e-20
6.65153e-21
1.05464e-21
2.67792e-22
3.03543e-23
9.60803e-24
5.72932e-24
4.28106e-24
4.57169e-24
7.35998e-24
2.67071e-23
4.71348e-23
7.41684e-23
1.38562e-22
1.91444e-22
8.09885e-23
5.58954e-20
1.96055e-19
4.225e-19
6.94587e-19
6.22484e-19
5.057e-19
1.62812e-19
7.47343e-20
1.72786e-20
4.15297e-21
6.26778e-22
1.1815e-22
2.72272e-23
9.93615e-24
8.85545e-24
1.47941e-23
3.33406e-23
9.39964e-23
3.05424e-22
3.51718e-22
6.96642e-22
1.32182e-21
2.01892e-21
9.58396e-22
1.11698e-19
2.98385e-19
5.27791e-19
9.83275e-19
1.24455e-18
9.75923e-19
4.26447e-19
1.72712e-19
5.79224e-20
1.41938e-20
3.27379e-21
3.79921e-22
8.91353e-23
2.27317e-23
2.53476e-23
4.41891e-23
1.58554e-22
3.80405e-22
1.44586e-21
3.76261e-21
4.29621e-21
7.78309e-21
1.54345e-20
1.99587e-20
1.04726e-20
1.56966e-19
5.25766e-19
8.17336e-19
1.74154e-18
1.91149e-18
1.82947e-18
9.89324e-19
4.16751e-19
1.16504e-19
3.6351e-20
9.12391e-21
1.60522e-21
3.05456e-22
8.59162e-23
4.59706e-23
1.69931e-22
5.31937e-22
1.63612e-21
4.49201e-21
1.87854e-20
3.70502e-20
5.19886e-20
7.80088e-20
1.51408e-19
1.39977e-19
3.7527e-20
1.35929e-19
8.24598e-19
1.45225e-18
2.81779e-18
3.16508e-18
2.97133e-18
2.19905e-18
8.56009e-19
3.70135e-19
1.02708e-19
2.47829e-20
5.2627e-21
7.21953e-22
2.38571e-22
1.7822e-22
3.47123e-22
1.65961e-21
5.95214e-21
2.03443e-20
7.35058e-20
2.17952e-19
3.56528e-19
4.31175e-19
8.10959e-19
1.40001e-18
9.32594e-19
4.60241e-19
1.94199e-19
1.06062e-18
2.74558e-18
4.25904e-18
4.67818e-18
5.11501e-18
4.17841e-18
2.09554e-18
8.00958e-19
2.71883e-19
5.33654e-20
1.7007e-20
3.47508e-21
6.23864e-22
4.01177e-22
1.16056e-21
4.89871e-21
1.97847e-20
7.49101e-20
2.47504e-19
9.37224e-19
1.92416e-18
3.52736e-18
5.08397e-18
7.33529e-18
1.07526e-17
1.01142e-17
5.04983e-18
4.15134e-19
1.61261e-18
4.69111e-18
7.33784e-18
7.77357e-18
8.90777e-18
7.50727e-18
4.01012e-18
1.86224e-18
6.00622e-19
1.76101e-19
3.30037e-20
1.10449e-20
1.97952e-21
9.02443e-22
2.43697e-21
1.2247e-20
5.87121e-20
2.68883e-19
7.63239e-19
2.83272e-18
8.18139e-18
1.29123e-17
2.5192e-17
3.50269e-17
5.64478e-17
6.42148e-17
5.97336e-17
2.19135e-17
7.13752e-19
2.04845e-18
7.0998e-18
9.74307e-18
1.56821e-17
1.80828e-17
1.14511e-17
7.56957e-18
3.60956e-18
1.5529e-18
4.08173e-19
1.07822e-19
2.63283e-20
6.12119e-21
1.8363e-21
5.88335e-21
2.91027e-20
1.32097e-19
6.75925e-19
3.31737e-18
1.14947e-17
3.09351e-17
5.25485e-17
9.20313e-17
1.67755e-16
2.41092e-16
3.14434e-16
3.91587e-16
2.64248e-16
8.02863e-17
8.59513e-19
3.55808e-18
8.71388e-18
1.6494e-17
2.5037e-17
2.98776e-17
2.7185e-17
1.66369e-17
7.79346e-18
3.23104e-18
1.2128e-18
3.11186e-19
5.78404e-20
1.42356e-20
4.50622e-21
1.22133e-20
7.44904e-20
3.66544e-19
1.73593e-18
7.59633e-18
2.81116e-17
9.20666e-17
2.102e-16
3.50896e-16
5.9176e-16
1.20454e-15
1.56917e-15
1.91767e-15
1.96882e-15
1.13655e-15
2.12652e-16
1.80444e-18
7.2785e-18
1.34324e-17
2.7748e-17
3.55549e-17
4.44811e-17
4.02269e-17
3.25865e-17
1.43448e-17
6.72707e-18
2.5935e-18
6.00208e-19
1.98327e-19
3.29374e-20
1.40614e-20
2.9587e-20
1.49575e-19
9.07333e-19
5.21072e-18
2.35301e-17
8.79327e-17
2.17317e-16
5.6208e-16
1.08729e-15
2.55555e-15
5.2122e-15
9.97643e-15
1.51456e-14
1.67222e-14
1.2613e-14
5.88069e-15
1.19668e-15
3.53928e-18
1.57899e-17
2.98594e-17
3.66527e-17
5.24472e-17
8.00833e-17
8.40889e-17
5.36061e-17
3.30708e-17
1.38298e-17
5.43125e-18
1.63007e-18
3.6349e-19
9.52863e-20
3.36107e-20
1.06017e-19
4.49231e-19
2.91185e-18
1.34118e-17
4.13327e-17
2.16681e-16
6.30454e-16
1.6177e-15
4.73992e-15
1.11009e-14
2.72751e-14
6.03753e-14
1.12558e-13
1.59591e-13
1.48581e-13
8.48857e-14
2.26874e-14
3.14603e-15
4.62675e-18
2.51037e-17
4.70472e-17
6.75944e-17
1.00076e-16
1.12541e-16
1.32139e-16
1.19403e-16
7.07304e-17
2.43656e-17
1.1113e-17
3.20251e-18
1.05314e-18
2.91261e-19
7.91153e-20
2.42747e-19
1.42545e-18
7.72796e-18
2.93949e-17
1.18561e-16
4.64942e-16
1.83297e-15
5.32829e-15
1.59909e-14
4.79154e-14
1.30966e-13
3.24147e-13
7.11254e-13
1.28334e-12
1.65954e-12
1.19539e-12
3.9688e-13
9.56547e-14
2.09586e-15
3.86682e-14
8.42139e-18
3.44735e-17
7.6035e-17
1.2839e-16
1.45192e-16
1.94617e-16
2.39692e-16
1.90007e-16
1.40645e-16
6.53577e-17
1.99781e-17
7.76846e-18
1.98069e-18
5.96357e-19
2.50216e-19
4.56529e-19
3.10171e-18
1.76422e-17
9.99211e-17
3.94506e-16
1.2491e-15
5.09236e-15
1.76694e-14
5.66356e-14
1.82358e-13
5.5909e-13
1.56258e-12
3.89463e-12
8.37468e-12
1.45259e-11
1.68779e-11
8.07197e-12
1.32019e-12
2.96523e-13
2.14107e-12
9.63712e-15
1.6465e-13
1.42506e-17
4.36134e-17
1.05074e-16
1.89813e-16
2.93218e-16
3.56475e-16
3.9025e-16
3.96534e-16
2.17768e-16
1.35046e-16
5.40656e-17
1.63461e-17
3.73365e-18
1.0423e-18
4.55319e-19
1.257e-18
7.88607e-18
4.00277e-17
2.40314e-16
8.63801e-16
3.68921e-15
1.48774e-14
5.49832e-14
1.90766e-13
6.37242e-13
2.07952e-12
6.56546e-12
1.8986e-11
4.75219e-11
9.68062e-11
1.59197e-10
1.13431e-10
2.13677e-11
8.47176e-11
1.2323e-11
6.97171e-11
7.27892e-11
1.39866e-12
9.80477e-12
4.08967e-14
7.22632e-13
1.5351e-17
7.42135e-17
1.52442e-16
3.02925e-16
4.20271e-16
5.79726e-16
6.83071e-16
6.46131e-16
5.42818e-16
2.10836e-16
1.12461e-16
3.77236e-17
1.22652e-17
2.20061e-18
1.20982e-18
2.38254e-18
1.44154e-17
9.56937e-17
4.42809e-16
2.36721e-15
1.12235e-14
4.79958e-14
1.69255e-13
6.10796e-13
2.06828e-12
6.95413e-12
2.36173e-11
7.96714e-11
2.39336e-10
5.78636e-10
1.05847e-09
1.18358e-09
3.39471e-10
1.31889e-09
3.17445e-10
6.15962e-11
3.62391e-10
3.52673e-10
6.38503e-12
4.62181e-11
1.72784e-13
3.18152e-12
3.06252e-17
1.1978e-16
2.13939e-16
4.19485e-16
6.21839e-16
8.76312e-16
1.11976e-15
1.04279e-15
9.04363e-16
5.08477e-16
1.78061e-16
7.78178e-17
2.59797e-17
7.49859e-18
2.82715e-18
7.70679e-18
3.62503e-17
2.11733e-16
1.20413e-15
6.39617e-15
3.27332e-14
1.49857e-13
5.3429e-13
1.88688e-12
6.37379e-12
2.13623e-11
7.50412e-11
2.7965e-10
1.02711e-09
3.05716e-09
6.74664e-09
1.04711e-08
4.16242e-09
1.36525e-08
1.37075e-09
5.54323e-09
1.7355e-09
2.98635e-10
1.86197e-09
1.75839e-09
2.92246e-11
2.18928e-10
7.47823e-13
1.42165e-11
4.93958e-17
1.62023e-16
3.2804e-16
7.12694e-16
9.40577e-16
1.33414e-15
1.64836e-15
1.67592e-15
1.51897e-15
8.79352e-16
3.99945e-16
1.34571e-16
5.48529e-17
1.6989e-17
6.52457e-18
1.63927e-17
1.01779e-16
4.93377e-16
3.30266e-15
1.72685e-14
9.32951e-14
4.38195e-13
1.64504e-12
5.88392e-12
1.90907e-11
6.16412e-11
2.15528e-10
8.48766e-10
3.59141e-09
1.35981e-08
3.73206e-08
7.33644e-08
4.15064e-08
1.23558e-07
2.09137e-08
7.14938e-08
7.59533e-09
3.08021e-08
9.06783e-09
1.46169e-09
9.54883e-09
8.8962e-09
1.3527e-10
1.04985e-09
3.28774e-12
6.43232e-11
1.06128e-16
2.69797e-16
5.20266e-16
1.03781e-15
1.47742e-15
2.10094e-15
2.58952e-15
2.7309e-15
2.74106e-15
1.52831e-15
8.22558e-16
2.61302e-16
9.74067e-17
3.66752e-17
1.66221e-17
4.3501e-17
2.21858e-16
1.54173e-15
8.14368e-15
4.98279e-14
2.71984e-13
1.29466e-12
5.19392e-12
1.7719e-11
5.74654e-11
1.74792e-10
5.76386e-10
2.25499e-09
1.06651e-08
4.79484e-08
1.71233e-07
4.19543e-07
3.3116e-07
8.58907e-07
2.25737e-07
6.58311e-07
1.14115e-07
3.86677e-07
4.03479e-08
1.65192e-07
4.76689e-08
7.26886e-09
4.97283e-08
4.58257e-08
6.32537e-10
5.09062e-09
1.47655e-11
2.94589e-10
3.57631e-16
5.90379e-16
9.40029e-16
1.66699e-15
2.3771e-15
3.28778e-15
5.03722e-15
4.91045e-15
5.14994e-15
3.32066e-15
1.4261e-15
6.44567e-16
1.92164e-16
6.50561e-17
3.96599e-17
1.07136e-16
5.40569e-16
3.33988e-15
2.22266e-14
1.4124e-13
8.0444e-13
3.8506e-12
1.59495e-11
5.17619e-11
1.67774e-10
4.96658e-10
1.51234e-09
5.46534e-09
2.63377e-08
1.4323e-07
6.04463e-07
1.93549e-06
2.02949e-06
4.66109e-06
1.73875e-06
4.2639e-06
1.19386e-06
3.3097e-06
6.10248e-07
1.99187e-06
2.15898e-07
8.72835e-07
2.52974e-07
3.66343e-08
2.62538e-07
2.3872e-07
2.98356e-09
2.48804e-08
6.70691e-11
1.34926e-09
2.21118e-15
2.21778e-15
2.24325e-15
2.45583e-15
4.14537e-15
5.33448e-15
7.71565e-15
9.68413e-15
1.03018e-14
7.73305e-15
2.95165e-15
1.10993e-15
4.11944e-16
1.44966e-16
8.22764e-17
2.70326e-16
1.47858e-15
9.23406e-15
6.33817e-14
4.1035e-13
2.35925e-12
1.1913e-11
4.81146e-11
1.51323e-10
4.79836e-10
1.37941e-09
3.87642e-09
1.29283e-08
5.77976e-08
3.31497e-07
1.83722e-06
6.63027e-06
9.53363e-06
1.97575e-05
9.81854e-06
2.12331e-05
8.32111e-06
1.94484e-05
5.78075e-06
1.50689e-05
3.04706e-06
9.25082e-06
1.13294e-06
4.21061e-06
1.31572e-06
1.85962e-07
1.35426e-06
1.21597e-06
1.40706e-08
1.22056e-07
3.0431e-10
6.13806e-09
1.427e-14
1.65222e-14
8.96911e-15
5.78182e-15
7.09517e-15
9.9103e-15
1.36137e-14
1.77187e-14
2.02921e-14
1.79352e-14
7.78241e-15
2.291e-15
7.63406e-16
2.48309e-16
1.78205e-16
6.41096e-16
3.71675e-15
2.65635e-14
1.86551e-13
1.22108e-12
7.1294e-12
3.51415e-11
1.38213e-10
4.49976e-10
1.37856e-09
3.7877e-09
9.92633e-09
2.9163e-08
1.23513e-07
6.84459e-07
3.8098e-06
1.86138e-05
3.26634e-05
5.40288e-05
4.05273e-05
6.80348e-05
4.17983e-05
7.63383e-05
3.54168e-05
7.38253e-05
2.50238e-05
5.9074e-05
1.3501e-05
3.77393e-05
5.31478e-06
1.78598e-05
6.03135e-06
9.29148e-07
6.12472e-06
5.48308e-06
6.63343e-08
5.95744e-07
1.36525e-09
2.75442e-08
1.16827e-13
1.45902e-13
7.0116e-14
2.70805e-14
1.70673e-14
1.98888e-14
2.6845e-14
3.45108e-14
4.11976e-14
4.17458e-14
1.85799e-14
5.97431e-15
1.43573e-15
4.62292e-16
3.66789e-16
1.65319e-15
1.09093e-14
7.91322e-14
5.71189e-13
3.77602e-12
2.20082e-11
1.11922e-10
4.43665e-10
1.38238e-09
4.04483e-09
1.05037e-08
2.56179e-08
6.55714e-08
2.36644e-07
1.4072e-06
7.88997e-06
3.38468e-05
7.57652e-05
0.000103575
0.000100928
0.000137289
0.000118951
0.000165916
0.000125144
0.0001831
0.00011584
0.000183369
8.90714e-05
0.000163643
5.18133e-05
0.000121945
2.1688e-05
6.4867e-05
2.39431e-05
4.21357e-06
2.39668e-05
2.13969e-05
3.1086e-07
2.73046e-06
6.05094e-09
1.22115e-07
8.39736e-13
1.20771e-12
6.61893e-13
2.14685e-13
7.13483e-14
4.53333e-14
5.12705e-14
6.65172e-14
8.56997e-14
9.61064e-14
4.8074e-14
1.4784e-14
3.44059e-15
9.05689e-16
7.27915e-16
3.92121e-15
3.05751e-14
2.33157e-13
1.76682e-12
1.20989e-11
7.11099e-11
3.53188e-10
1.37796e-09
4.3789e-09
1.22668e-08
2.98846e-08
6.71941e-08
1.52837e-07
4.47535e-07
2.38387e-06
1.49667e-05
6.4571e-05
0.000133822
0.000145698
0.000173159
0.000212279
0.000213292
0.000259102
0.000241757
0.000298625
0.00025392
0.000322734
0.000245473
0.000326381
0.000212664
0.000306372
0.000153372
0.000258353
7.50099e-05
0.00017868
8.01036e-05
1.64435e-05
7.86906e-05
6.95602e-05
1.41641e-06
1.07424e-05
2.66564e-08
5.32342e-07
5.0264e-12
8.44913e-12
5.13916e-12
2.00849e-12
5.42542e-13
1.69728e-13
1.13043e-13
1.29881e-13
1.70806e-13
2.16123e-13
1.23758e-13
3.95e-14
8.82816e-15
1.99182e-15
1.32337e-15
8.66018e-15
8.43139e-14
6.68267e-13
5.38251e-12
3.89688e-11
2.3786e-10
1.18407e-09
4.78852e-09
1.45092e-08
3.8693e-08
8.81231e-08
1.81189e-07
3.67311e-07
8.8398e-07
3.82457e-06
2.31971e-05
9.72619e-05
0.000261008
0.00024028
0.000296028
0.000302022
0.000343103
0.000351598
0.000399917
0.000386621
0.000444916
0.000402655
0.000472153
0.000395938
0.000477665
0.000362407
0.000458949
0.000296999
0.00041068
0.000195282
0.000325521
0.000201256
5.35288e-05
0.000194555
0.000172963
5.59558e-06
3.54669e-05
1.18709e-07
2.20338e-06
2.27941e-11
4.86998e-11
3.6154e-11
1.77612e-11
5.11766e-12
1.21482e-12
3.57801e-13
2.71008e-13
3.28015e-13
4.54306e-13
3.07864e-13
1.05718e-13
2.39919e-14
4.55952e-15
2.1266e-15
1.46681e-14
1.89717e-13
1.85004e-12
1.58414e-11
1.21974e-10
7.92853e-10
4.07427e-09
1.66612e-08
4.95155e-08
1.26645e-07
2.70479e-07
5.07946e-07
9.12937e-07
1.86012e-06
6.29723e-06
3.31244e-05
0.000126904
0.000308722
0.000440886
0.000469535
0.000379266
0.000413707
0.000443486
0.000483286
0.000496726
0.000541952
0.000533194
0.000586296
0.000550057
0.000612381
0.000544597
0.000617875
0.000513025
0.000601277
0.000448931
0.000556902
0.000342915
0.000475189
0.000348248
0.000137435
0.000339378
0.000313002
1.95345e-05
9.71097e-05
5.26669e-07
7.86486e-06
7.14028e-11
2.0057e-10
1.99741e-10
1.10201e-10
4.72237e-11
1.12944e-11
2.15132e-12
7.0496e-13
6.53348e-13
8.46086e-13
7.24683e-13
2.74718e-13
6.68095e-14
1.19592e-14
3.59956e-15
2.06448e-14
3.0971e-13
4.40127e-12
4.50538e-11
3.67583e-10
2.5404e-09
1.38075e-08
5.71725e-08
1.71995e-07
4.24793e-07
8.59611e-07
1.48511e-06
2.36931e-06
4.12239e-06
1.08827e-05
4.61568e-05
0.000154804
0.000345299
0.000491749
0.000513458
0.000573549
0.000596482
0.000517904
0.000547994
0.00058123
0.00061566
0.00063123
0.000668457
0.000663901
0.000706772
0.000678864
0.000727553
0.000674027
0.000731032
0.000646193
0.000717158
0.000589029
0.000680323
0.000489661
0.000608818
0.000491789
0.000266689
0.000478873
0.000447803
5.60045e-05
0.000202391
1.90272e-06
2.3421e-05
1.41865e-10
5.2164e-10
7.37436e-10
5.82812e-10
2.75103e-10
9.88777e-11
1.82187e-11
3.098e-12
1.47475e-12
1.62778e-12
1.6124e-12
6.79052e-13
1.8165e-13
3.33953e-14
6.73386e-15
2.58543e-14
4.06718e-13
7.03165e-12
1.00781e-10
1.06289e-09
7.80684e-09
4.44459e-08
1.8922e-07
5.86738e-07
1.42995e-06
2.77634e-06
4.48329e-06
6.41894e-06
9.59688e-06
1.96738e-05
6.43259e-05
0.000181939
0.000378012
0.000533464
0.000534809
0.000615983
0.000633089
0.000688243
0.000705395
0.00064457
0.000668479
0.000699738
0.000725802
0.000740197
0.000765444
0.000763162
0.000787093
0.00077091
0.000795334
0.000766151
0.000794624
0.000746399
0.000785294
0.00070161
0.000762553
0.000617687
0.000712085
0.000614755
0.00039763
0.000597974
0.000565239
0.000128332
0.000324763
5.6368e-06
5.72429e-05
1.32327e-10
7.98436e-10
1.59909e-09
1.94673e-09
1.36084e-09
6.9123e-10
1.49152e-10
2.25852e-11
4.70679e-12
3.41314e-12
3.43961e-12
1.59232e-12
4.79628e-13
9.25983e-14
1.55348e-14
2.82874e-14
4.62486e-13
8.8337e-12
1.57855e-10
2.34068e-09
2.33167e-08
1.31542e-07
5.93143e-07
1.90021e-06
4.68473e-06
8.94814e-06
1.35938e-05
1.76839e-05
2.26025e-05
3.8236e-05
8.83027e-05
0.000209404
0.000406792
0.000623415
0.000645081
0.000671336
0.000719362
0.000730643
0.000774363
0.000783747
0.000746334
0.000762146
0.000783677
0.000796994
0.000802545
0.000812625
0.000809441
0.000816733
0.000809244
0.000816179
0.000804436
0.000812455
0.000793444
0.000806062
0.000768718
0.000793826
0.000713335
0.000768209
0.000705123
0.000513573
0.000686306
0.000655499
0.000226177
0.000436132
1.46783e-05
0.000114031
4.74861e-10
1.98041e-09
3.59887e-09
3.96661e-09
2.4422e-09
9.71814e-10
1.78349e-10
2.49575e-11
8.90706e-12
7.39562e-12
3.60355e-12
1.20735e-12
2.48402e-13
4.0576e-14
3.01077e-14
4.67438e-13
9.5284e-12
1.91979e-10
3.64131e-09
4.87262e-08
3.08514e-07
1.58292e-06
5.54449e-06
1.39836e-05
2.68521e-05
3.92147e-05
4.72482e-05
5.33181e-05
6.82738e-05
0.000118931
0.000239992
0.000432801
0.000641466
0.0007516
0.000754874
0.000738955
0.000747627
0.000790502
0.000794971
0.000816769
0.000819322
0.000806192
0.000812559
0.000818966
0.000822807
0.000821185
0.000822992
0.000817546
0.000814813
0.00081126
0.000803029
0.000805417
0.000793208
0.000799822
0.000788211
0.000789767
0.000786888
0.000762221
0.000781294
0.000750978
0.000606658
0.000734013
0.000709566
0.000324766
0.000529226
4.43709e-05
0.000186642
7.68566e-10
3.95367e-09
6.25232e-09
6.7863e-09
4.25154e-09
1.14375e-09
1.69758e-10
3.36395e-11
1.75007e-11
8.06609e-12
2.88632e-12
6.40611e-13
1.09415e-13
3.58638e-14
3.99183e-13
9.21058e-12
1.99238e-10
4.32337e-09
7.03065e-08
5.15533e-07
3.09198e-06
1.21517e-05
3.27102e-05
6.20918e-05
8.74824e-05
9.8968e-05
0.000100675
0.00010991
0.00015588
0.000274828
0.000463824
0.000658948
0.000756954
0.000755409
0.000798793
0.000797407
0.000797485
0.000799027
0.00082038
0.000820104
0.000826726
0.000825679
0.00082544
0.000826805
0.000822645
0.000821042
0.000809114
0.000801151
0.000788563
0.000771532
0.000770877
0.00074227
0.000761553
0.000723465
0.000761761
0.000719845
0.00076932
0.000730275
0.000769545
0.000751247
0.000756525
0.000668852
0.000742584
0.000728583
0.00071363
0.000415855
0.000601174
7.70163e-05
0.000258252
1.078e-09
5.76246e-09
9.93131e-09
1.06605e-08
5.08458e-09
1.05494e-09
1.67884e-10
5.08744e-11
1.87011e-11
6.69251e-12
1.58802e-12
2.87728e-13
5.63364e-14
3.17939e-13
7.46903e-12
1.8952e-10
4.35257e-09
8.04436e-08
6.73706e-07
4.6626e-06
2.02676e-05
5.61089e-05
0.00010461
0.000144183
0.000161637
0.000161298
0.000163086
0.000202161
0.000313473
0.000497195
0.000675478
0.000769614
0.000795279
0.00079452
0.000814155
0.000809888
0.00081873
0.000816944
0.000823873
0.000821102
0.000809799
0.00080438
0.000818427
0.000814562
0.00079246
0.000783683
0.00075384
0.00073663
0.000710727
0.00067915
0.000677217
0.000627027
0.000663046
0.000597611
0.000669976
0.000596832
0.000699093
0.000619476
0.000734197
0.000672823
0.000710076
0.000739987
0.000721078
0.000718016
0.000673546
0.000704985
0.00073038
0.000715694
0.000717356
0.000724779
0.000493368
0.000686345
0.000659996
0.000604036
0.000117252
0.000332757
1.37629e-09
9.07116e-09
1.47923e-08
1.41343e-08
4.82005e-09
8.68105e-10
1.66239e-10
4.89354e-11
1.56006e-11
3.82475e-12
7.31726e-13
1.19986e-13
2.36469e-13
5.1703e-12
1.4466e-10
3.96137e-09
8.06425e-08
7.44908e-07
5.76459e-06
2.78206e-05
7.97162e-05
0.000148508
0.000204891
0.00023312
0.000234433
0.000229456
0.000258159
0.000359368
0.000531498
0.000685205
0.000761634
0.000789342
0.000778589
0.000804569
0.000798948
0.000805457
0.000798028
0.000816954
0.000811752
0.000798349
0.000791704
0.000757111
0.000748023
0.000774976
0.000766157
0.000720094
0.00070452
0.000649323
0.000622405
0.000577619
0.000532993
0.000529113
0.000460309
0.000512838
0.000431577
0.000523653
0.00050236
0.0004522
0.000632235
0.000583788
0.000484195
0.000534821
0.000661109
0.000694431
0.000654122
0.000616849
0.000690262
0.000717518
0.000708046
0.000715786
0.000691801
0.000689726
0.000714606
0.000623974
0.000491295
0.000576231
0.000693978
0.000673039
0.000171071
0.000517302
0.000442444
0.000333205
1.92804e-09
1.25039e-08
1.98521e-08
1.46915e-08
3.92492e-09
6.7368e-10
1.4468e-10
3.79098e-11
9.07497e-12
1.80397e-12
2.94327e-13
2.09943e-13
3.13201e-12
9.27893e-11
2.78121e-09
7.40126e-08
7.45648e-07
6.19738e-06
3.26799e-05
9.92442e-05
0.000187407
0.0002634
0.000307929
0.00031779
0.000310279
0.000327204
0.000413506
0.000567461
0.000690645
0.000747126
0.000750017
0.000767579
0.000749136
0.000789369
0.000779402
0.000766868
0.000756866
0.000784319
0.000776011
0.000738872
0.000729528
0.000663365
0.000651491
0.000690043
0.000676263
0.000597724
0.000575242
0.000491933
0.000457535
0.000399775
0.00035673
0.000360094
0.000311072
0.00041255
0.000375413
0.000346297
0.000322716
0.000437768
0.000397239
0.000414872
0.000381607
0.000568296
0.000515465
0.000421274
0.000466173
0.000606882
0.000652154
0.000603113
0.000556268
0.000652036
0.000711552
0.000705325
0.00069513
0.000655614
0.000661744
0.000698164
0.000641874
0.000598484
0.000695367
0.000679738
0.000364473
0.000174453
0.000269283
0.000542486
0.000472464
3.09884e-09
1.79558e-08
2.31454e-08
1.31045e-08
2.84447e-09
4.82809e-10
9.84307e-11
2.16624e-11
4.35579e-12
7.3812e-13
2.35238e-13
2.16056e-12
5.47736e-11
1.68146e-09
5.34375e-08
6.98653e-07
6.14592e-06
3.43178e-05
0.000110847
0.000217388
0.000311828
0.000375903
0.00040359
0.000402593
0.000410918
0.000480109
0.000606556
0.000694117
0.000731587
0.000716368
0.0006769
0.000654753
0.000717504
0.000698349
0.000745685
0.000732783
0.000698457
0.000687457
0.000719612
0.000709056
0.000640621
0.000630295
0.000521543
0.000508694
0.000555278
0.000537243
0.000427581
0.000401454
0.000331034
0.000316241
0.000290693
0.00028676
0.000308691
0.000298461
0.000294643
0.000295745
0.000351982
0.000329826
0.000316472
0.000311401
0.00038722
0.000364556
0.000364206
0.000343903
0.000504043
0.000455503
0.000391891
0.000416411
0.000550564
0.000604052
0.000551097
0.000498852
0.000608692
0.000699938
0.000698719
0.000669491
0.000617145
0.000628271
0.00067754
0.000654659
0.000616393
0.000692682
0.00068162
0.000389719
0.000191552
0.000291514
0.0005635
0.000494741
6.34564e-09
2.48136e-08
2.40994e-08
1.07511e-08
1.82366e-09
2.85359e-10
5.3756e-11
1.0471e-11
1.82519e-12
3.76094e-13
1.47567e-12
3.18323e-11
9.44315e-10
3.18005e-08
5.49318e-07
5.71696e-06
3.37507e-05
0.000114622
0.000234623
0.000344729
0.000426754
0.000475339
0.000492968
0.000502351
0.000554757
0.000642889
0.000696587
0.000716103
0.000676644
0.000568512
0.000596106
0.000558722
0.000643073
0.000621402
0.000675269
0.000660787
0.000600449
0.000591153
0.000619823
0.000609604
0.00049861
0.000490477
0.00034656
0.000335272
0.000380055
0.000362015
0.000306806
0.000298923
0.000291531
0.000298802
0.000299568
0.000309215
0.000322265
0.000341783
0.000312999
0.000318899
0.00033316
0.000350748
0.000333518
0.000332967
0.000338291
0.000353835
0.000384345
0.000357558
0.00038551
0.00035887
0.000453838
0.000422973
0.000411162
0.000411585
0.000500661
0.000556643
0.00050821
0.000459899
0.000566888
0.000684413
0.000688635
0.000641572
0.000580816
0.000597479
0.000655179
0.000662342
0.000629944
0.000687714
0.000680431
0.000408201
0.000193482
0.000298967
0.000579862
0.000511023
1.57434e-08
3.01178e-08
2.23552e-08
6.81083e-09
9.41833e-10
1.43541e-10
2.56252e-11
4.46558e-12
7.97847e-13
1.17216e-12
1.77669e-11
5.09546e-10
1.622e-08
3.92254e-07
4.47742e-06
3.20508e-05
0.000113842
0.000240447
0.000362557
0.000452697
0.000516178
0.000556521
0.000583711
0.000626315
0.000674696
0.000702545
0.000702301
0.000636658
0.00050573
0.000431882
0.000396888
0.000499081
0.000465814
0.000548359
0.000526017
0.000580189
0.000566233
0.000475843
0.000471344
0.000484005
0.000479531
0.000327821
0.00032437
0.000267642
0.000255289
0.000290471
0.000280998
0.000307706
0.000312746
0.000405131
0.000455928
0.000370867
0.000392549
0.000412569
0.000422467
0.000375218
0.000401442
0.000432704
0.000467706
0.000369083
0.000389905
0.00041796
0.000452326
0.000422059
0.000397381
0.000448545
0.000422715
0.000440981
0.000437129
0.00046791
0.000442669
0.000475184
0.000520895
0.000495095
0.000463581
0.000537672
0.000667469
0.000676948
0.000616055
0.000557158
0.000578228
0.000634825
0.000666339
0.000639435
0.0006815
0.00067835
0.000418
0.000175928
0.000289886
0.000592334
0.000521357
3.0256e-08
2.95225e-08
1.78151e-08
3.25989e-09
4.21393e-10
6.55419e-11
1.0965e-11
1.89056e-12
1.26659e-12
1.11299e-11
2.71347e-10
8.0307e-09
2.36587e-07
3.03915e-06
2.68885e-05
0.00010906
0.000239717
0.000363079
0.000454112
0.000523906
0.00057879
0.000625871
0.000666987
0.000695272
0.000708064
0.000690311
0.000600047
0.000444366
0.000279985
0.000328978
0.000280973
0.000395291
0.000364321
0.000439701
0.000420293
0.000464405
0.000454143
0.000333307
0.000335415
0.00032495
0.000328768
0.000240478
0.000224216
0.000299552
0.000277899
0.000313941
0.000310013
0.000500747
0.000532377
0.000666181
0.000704292
0.000773408
0.000738245
0.00050569
0.000545188
0.000585882
0.000626233
0.000492454
0.000537367
0.000585891
0.000636454
0.000456468
0.000498306
0.000546402
0.000599147
0.000508084
0.000486917
0.000560684
0.000535518
0.000463979
0.000481813
0.000572989
0.000519369
0.000488346
0.000517173
0.000513639
0.000493677
0.000539626
0.000652045
0.000666255
0.000600023
0.000561707
0.000583756
0.000621678
0.000668266
0.000645577
0.00067565
0.000676559
0.000417511
0.000143191
0.000263696
0.000600939
0.0005254
3.60735e-08
2.61188e-08
1.01243e-08
1.30602e-09
1.78432e-10
2.75256e-11
4.67527e-12
1.9257e-12
8.57685e-12
1.44295e-10
3.93784e-09
1.23464e-07
1.91394e-06
1.9761e-05
9.57575e-05
0.000231064
0.000348912
0.000429856
0.00050401
0.000568788
0.000625768
0.000670817
0.000697891
0.000706502
0.000677378
0.000568473
0.000389154
0.000204526
0.000180381
0.000145644
0.000241835
0.000207563
0.000295299
0.000271167
0.000325316
0.000313254
0.000335098
0.000332212
0.000193538
0.000196155
0.000209831
0.0001989
0.000252845
0.000222867
0.000539432
0.000501206
0.000549323
0.000554422
0.000803918
0.000844786
0.000977652
0.000886265
0.000930156
0.00100426
0.000970228
0.000687936
0.000739197
0.000790453
0.000839792
0.00065558
0.000714291
0.000774205
0.000834194
0.000590509
0.000650088
0.00071314
0.000778098
0.000638237
0.000621547
0.000709376
0.000687586
0.000523756
0.000573439
0.00071454
0.000639714
0.000524099
0.000537411
0.000556586
0.000566083
0.000560825
0.000641804
0.00065946
0.000604917
0.000583075
0.000603527
0.000625303
0.00066927
0.000649822
0.000672268
0.00067623
0.000406781
0.000102952
0.000221559
0.000606092
0.000523885
3.39352e-08
1.84353e-08
3.82899e-09
5.0852e-10
7.17806e-11
1.1807e-11
3.90256e-12
7.99605e-12
8.57924e-11
1.99241e-09
5.80701e-08
1.13784e-06
1.34518e-05
7.76772e-05
0.000209696
0.000320022
0.000382062
0.000441226
0.000515895
0.000590573
0.000651193
0.000687756
0.000696881
0.000656108
0.00053734
0.000341257
0.000152547
8.55497e-05
0.000126509
9.80503e-05
0.000172941
0.000150779
0.000204171
0.000191162
0.000212352
0.000210884
0.000202612
0.00020945
0.00013975
0.000118281
0.000192403
0.000163812
0.000446486
0.000375115
0.00099376
0.000940225
0.00100701
0.00101151
0.00102768
0.00103713
0.00133598
0.00135973
0.00111107
0.00115929
0.00124445
0.00120399
0.00089325
0.000950639
0.00100696
0.00106056
0.000844219
0.000910351
0.000975799
0.00103976
0.000756759
0.000827566
0.000899124
0.000970303
0.000795075
0.000784494
0.000877838
0.000861399
0.000627277
0.000703298
0.00087575
0.000787487
0.00060552
0.000586136
0.000641407
0.00067746
0.000610938
0.000644063
0.00066009
0.000622591
0.000631704
0.000646801
0.000641012
0.000670992
0.000653348
0.000673178
0.000678226
0.000380223
6.29182e-05
0.000169013
0.000608289
0.000515239
2.57071e-08
1.01841e-08
1.43229e-09
1.94564e-10
3.05364e-11
9.20272e-12
1.02312e-11
6.31781e-11
1.06791e-09
2.6905e-08
6.39989e-07
8.48499e-06
5.945e-05
0.000182396
0.000292935
0.000342997
0.000370437
0.000395108
0.000468148
0.00057223
0.000640677
0.000660232
0.000614744
0.000491132
0.000286999
0.00011354
5.27133e-05
5.5785e-05
4.07709e-05
8.21298e-05
6.77014e-05
0.000107192
9.5741e-05
0.000116821
0.000114567
0.000108425
0.000114416
0.000105884
0.000103244
0.000157536
0.000112345
0.000297909
0.000222705
0.000860311
0.000748975
0.0014773
0.00143008
0.00137427
0.00139489
0.00149613
0.00128029
0.00131054
0.00153628
0.00155374
0.00132052
0.00136772
0.00144935
0.00141086
0.00110137
0.00116027
0.00121716
0.00127059
0.00104073
0.00110948
0.00117608
0.00123998
0.00093849
0.00101493
0.00109012
0.00116316
0.000965032
0.000960945
0.00105371
0.0010433
0.000761957
0.000854388
0.00104509
0.000949851
0.000721004
0.000672184
0.000757651
0.000813702
0.000695635
0.000655939
0.000669104
0.000657317
0.00071174
0.000720218
0.000667399
0.000674194
0.000656303
0.000679355
0.000683799
0.000339198
2.85105e-05
0.00011165
0.000608478
0.000496737
1.45873e-08