/*--------------------------------*- C++ -*----------------------------------*\
  =========                 |
  \\      /  F ield         | OpenFOAM: The Open Source CFD Toolbox
   \\    /   O peration     | Website:  https://openfoam.org
    \\  /    A nd           | Version:  dev
     \\/     M anipulation  |
\*---------------------------------------------------------------------------*/
FoamFile
{
    version     2.0;
    format      ascii;
    class       volScalarField;
    location    "2500";
    object      k;
}
// * * * * * * * * * * * * * * * * * * * * * * * * * * * * * * * * * * * * * //

dimensions      [0 2 -2 0 0 0 0];

internalField   nonuniform List<scalar> 
9851
(
0.000166215
0.000172755
0.00015529
0.000146621
0.000218368
0.000123101
0.000122267
0.000233126
0.000191467
0.000109277
0.00011279
0.000221811
0.000229864
0.000144103
0.000105432
0.000106899
0.000191878
0.000250832
0.000192231
0.0001204
0.000103323
0.000103608
0.00015739
0.000253866
0.00023156
0.000145455
0.000111201
0.000101911
0.000101664
0.000136485
0.00024553
0.000250686
0.000180967
0.000121828
0.000106529
0.000101031
0.000100411
0.000123109
0.000222702
0.00026249
0.000218426
0.000139744
0.000111726
0.000103561
0.000100419
9.92628e-05
0.000113623
0.00019139
0.000264122
0.000244862
0.000165465
0.0001194
0.000106424
0.000101609
0.000100033
9.8283e-05
0.000107596
0.000161079
0.000258816
0.000258037
0.000196881
0.000131377
0.000110115
0.000103032
0.000100262
9.97085e-05
9.7613e-05
0.000103831
0.000141091
0.000244289
0.000264116
0.000225946
0.000150708
0.000114954
0.000104857
0.000100776
9.9467e-05
9.95159e-05
9.71525e-05
0.00010136
0.000128326
0.000218937
0.000266632
0.000245719
0.000174609
0.000123664
0.00010708
0.000101468
9.92837e-05
9.88364e-05
9.93568e-05
9.68546e-05
9.97736e-05
0.000119281
0.000191236
0.000264032
0.00025717
0.000200421
0.000136963
0.000110689
0.000102454
9.93157e-05
9.83133e-05
9.83573e-05
9.92446e-05
9.66614e-05
9.87647e-05
0.000113127
0.00016601
0.000255367
0.000261372
0.000223806
0.000155828
0.000116247
0.000103954
9.94953e-05
9.78504e-05
9.75165e-05
9.80317e-05
9.91631e-05
9.65224e-05
9.81019e-05
0.000109085
0.000146736
0.00023726
0.000265314
0.000241218
0.000177312
0.000126222
0.000106198
9.99564e-05
9.73926e-05
9.67622e-05
9.69663e-05
9.77959e-05
9.90981e-05
9.64214e-05
9.76566e-05
0.000106333
0.000134359
0.000213479
0.000264635
0.000252466
0.00019869
0.000140231
0.000110467
0.000100866
9.73905e-05
9.60416e-05
9.5966e-05
9.65874e-05
9.761e-05
9.90469e-05
9.63442e-05
9.73288e-05
0.00010446
0.000125573
0.000187825
0.000260246
0.000259287
0.000219279
0.000158029
0.000117189
0.000102569
9.75724e-05
9.53782e-05
9.50416e-05
9.54064e-05
9.62965e-05
9.74746e-05
9.90071e-05
9.62693e-05
9.70531e-05
0.000103125
0.000119505
0.000165612
0.000248717
0.000263963
0.000235671
0.000178297
0.000128241
0.000105351
9.81083e-05
9.51144e-05
9.41714e-05
9.42864e-05
9.50163e-05
9.6082e-05
9.73573e-05
9.89775e-05
9.61947e-05
9.68061e-05
0.000102032
0.000115431
0.000148796
0.000228203
0.000266337
0.000249837
0.000196837
0.000143136
0.000110688
9.92229e-05
9.5201e-05
9.33914e-05
9.3261e-05
9.37551e-05
9.47396e-05
9.59061e-05
9.72675e-05
9.89524e-05
9.61349e-05
9.65812e-05
0.000101072
0.000112478
0.000136866
0.000204139
0.000264634
0.000259066
0.000216342
0.000160205
0.000118927
0.000101447
9.55514e-05
9.29345e-05
9.22822e-05
9.2587e-05
9.34186e-05
9.44922e-05
9.57665e-05
9.72028e-05
9.89313e-05
9.61159e-05
9.63742e-05
0.0001002
0.000110029
0.00012823
0.000180152
0.000257449
0.000264596
0.000233813
0.000179322
0.000131027
0.000105278
9.6385e-05
9.29468e-05
9.1396e-05
9.1502e-05
9.21178e-05
9.31115e-05
9.43045e-05
9.56628e-05
9.71472e-05
9.89185e-05
9.61507e-05
9.61946e-05
9.9408e-05
0.000107741
0.000121675
0.000160085
0.000241201
0.00027104
0.000249719
0.000197434
0.00014632
0.000111943
9.80668e-05
9.3161e-05
9.08477e-05
9.04468e-05
9.08873e-05
9.17542e-05
9.28672e-05
9.41728e-05
9.55793e-05
9.70984e-05
9.89137e-05
9.62025e-05
9.60603e-05
9.87287e-05
0.000105626
0.000116396
0.000145003
0.000218581
0.000271505
0.00026225
0.000216533
0.000163342
0.000121544
0.000101166
9.3775e-05
9.08079e-05
8.95232e-05
8.97402e-05
9.04103e-05
9.14859e-05
9.27041e-05
9.40625e-05
9.55169e-05
9.70605e-05
9.89162e-05
9.62424e-05
9.60098e-05
9.82656e-05
0.000103814
0.000112223
0.00013334
0.000193098
0.000267563
0.000269896
0.000235801
0.000181948
0.000134706
0.000106216
9.50599e-05
9.09611e-05
8.89964e-05
8.86586e-05
8.91362e-05
9.00917e-05
9.12916e-05
9.2576e-05
9.39744e-05
9.54662e-05
9.7041e-05
9.89275e-05
9.62937e-05
9.6039e-05
9.79852e-05
0.000102338
0.00010902
0.000124341
0.000169603
0.000255984
0.000279582
0.000254033
0.000200575
0.000150435
0.00011428
9.76079e-05
9.14578e-05
8.89496e-05
8.77536e-05
8.79471e-05
8.87021e-05
8.98955e-05
9.113e-05
9.24652e-05
9.39201e-05
9.54277e-05
9.70421e-05
9.89543e-05
9.63846e-05
9.61757e-05
9.78478e-05
0.000101257
0.000106635
0.000117625
0.00015104
0.000233825
0.000283193
0.000269712
0.000220554
0.000167703
0.000125101
0.000101877
9.25838e-05
8.90724e-05
8.72375e-05
8.6875e-05
8.74252e-05
8.84637e-05
8.97282e-05
9.10001e-05
9.24062e-05
9.38868e-05
9.5407e-05
9.70666e-05
9.90003e-05
9.65378e-05
9.64222e-05
9.78368e-05
0.000100568
0.000104921
0.000112847
0.000136974
0.000206276
0.000280587
0.000280035
0.000241658
0.000186953
0.000139072
0.000108182
9.47359e-05
8.94735e-05
8.716e-05
8.60394e-05
8.62807e-05
8.70877e-05
8.82984e-05
8.95928e-05
9.0932e-05
9.23818e-05
9.38675e-05
9.54195e-05
9.71303e-05
9.90813e-05
9.67567e-05
9.66999e-05
9.79652e-05
0.000100202
0.000103716
0.000109567
0.000126777
0.000179745
0.000271088
0.00029144
0.00026233
0.000206036
0.000155812
0.000117374
9.82125e-05
9.03547e-05
8.72501e-05
8.56128e-05
8.52942e-05
8.58651e-05
8.68769e-05
8.81735e-05
8.95152e-05
9.09042e-05
9.23596e-05
9.38821e-05
9.54796e-05
9.72515e-05
9.92219e-05
9.69999e-05
9.70042e-05
9.8275e-05
0.000100122
0.000102945
0.000107483
0.00011966
0.000158987
0.000249738
0.000296895
0.000280522
0.000227156
0.000173316
0.000129638
0.000103484
9.21981e-05
8.7572e-05
8.55642e-05
8.45628e-05
8.48086e-05
8.55987e-05
8.67373e-05
8.81121e-05
8.94824e-05
9.08881e-05
9.23732e-05
9.39456e-05
9.56011e-05
9.74659e-05
9.94374e-05
9.72249e-05
9.73115e-05
9.86391e-05
0.000100254
0.000102543
0.00010647
0.00011502
0.000144026
0.000223006
0.000295229
0.00029239
0.000250397
0.000193073
0.000144343
0.000111129
9.51412e-05
8.83448e-05
8.56425e-05
8.4205e-05
8.39283e-05
8.44853e-05
8.54224e-05
8.67046e-05
8.81036e-05
8.94886e-05
9.09157e-05
9.24451e-05
9.40833e-05
9.58305e-05
9.78078e-05
9.97429e-05
9.74552e-05
9.76047e-05
9.8977e-05
0.000100616
0.00010246
0.00010611
0.000112241
0.000133584
0.00019667
0.000287588
0.000303953
0.000272314
0.000213507
0.000161814
0.000121464
9.95706e-05
8.99689e-05
8.59277e-05
8.41601e-05
8.32931e-05
8.35025e-05
8.4268e-05
8.53918e-05
8.67602e-05
8.81676e-05
8.9562e-05
9.10029e-05
9.25978e-05
9.4344e-05
9.62876e-05
9.84033e-05
0.000100129
9.77069e-05
9.79084e-05
9.927e-05
0.000101034
0.000102554
0.000106095
0.000110781
0.000126672
0.000175467
0.000269408
0.000311627
0.000291602
0.000235059
0.00018022
0.000134855
0.000105988
9.25369e-05
8.6626e-05
8.42198e-05
8.29662e-05
8.26884e-05
8.32234e-05
8.42311e-05
8.55243e-05
8.69497e-05
8.83563e-05
8.97421e-05
9.12055e-05
9.28856e-05
9.48008e-05
9.691e-05
9.93283e-05
0.000100851
9.79594e-05
9.81924e-05
9.95309e-05
0.000101444
0.000102836
0.000106247
0.000110179
0.000122216
0.000160894
0.000248299
0.000311749
0.000305282
0.000259168
0.000199856
0.000150512
0.000114739
9.63888e-05
8.80926e-05
8.44603e-05
8.28906e-05
8.21103e-05
8.23118e-05
8.31777e-05
8.4418e-05
8.58762e-05
8.73426e-05
8.87423e-05
9.01265e-05
9.16539e-05
9.34076e-05
9.5499e-05
9.78046e-05
0.000100471
0.000101046
0.000101942
9.81761e-05
9.84582e-05
9.97823e-05
0.000101796
0.000103204
0.000106437
0.000110158
0.000119369
0.000150927
0.000229234
0.000308752
0.000315782
0.000281824
0.000221099
0.000167993
0.000126109
0.000101614
9.03925e-05
8.50795e-05
8.29201e-05
8.17934e-05
8.15885e-05
8.22391e-05
8.34109e-05
8.49057e-05
8.65083e-05
8.80196e-05
8.94403e-05
9.0902e-05
9.27233e-05
9.48712e-05
9.73616e-05
9.98616e-05
0.000101942
0.000101584
0.000101205
0.000102272
9.83037e-05
9.86261e-05
9.99441e-05
0.000102026
0.00010359
0.000106664
0.000110532
0.000117458
0.000143319
0.000212588
0.0003006
0.00032616
0.0003007
0.000242763
0.000186733
0.000139941
0.000108819
9.35009e-05
8.64658e-05
8.30966e-05
8.16774e-05
8.10872e-05
8.14333e-05
8.24991e-05
8.40127e-05
8.57774e-05
8.75147e-05
8.91011e-05
9.08446e-05
9.27757e-05
9.5e-05
9.7541e-05
9.9213e-05
9.92802e-05
0.000101368
0.000100015
0.000101397
0.000102419
0.000102313
0.000101277
0.000102616
9.83505e-05
9.86714e-05
9.99753e-05
0.000102116
0.000103871
0.00010691
0.000111414
0.000116293
0.000137298
0.00019776
0.000291268
0.000334588
0.000316781
0.000265356
0.00020648
0.000155725
0.00011826
9.79068e-05
8.84205e-05
8.36377e-05
8.168e-05
8.07912e-05
8.07997e-05
8.16844e-05
8.3195e-05
8.51049e-05
8.71303e-05
8.9136e-05
9.10317e-05
9.30947e-05
9.55153e-05
9.82298e-05
9.9535e-05
0.00010019
0.000100338
0.000102284
0.000101666
0.000102425
0.000103009
0.000103084
0.000101386
0.000102972
9.83866e-05
9.85639e-05
9.98724e-05
0.000102084
0.000104023
0.000107072
0.000112303
0.000115922
0.000132443
0.000185441
0.000282788
0.000341176
0.000330489
0.000287743
0.000226972
0.000173311
0.000130066
0.000103872
9.12028e-05
8.48935e-05
8.18316e-05
8.06696e-05
8.03687e-05
8.10063e-05
8.2426e-05
8.44915e-05
8.68346e-05
8.92909e-05
9.1591e-05
9.39139e-05
9.66473e-05
9.97916e-05
0.000100948
0.000102336
0.000101044
0.000102224
0.00010236
0.000103218
0.000102969
0.000103636
0.000103555
0.000103808
0.000101549
0.000103341
9.83677e-05
9.82478e-05
9.95671e-05
0.000101912
0.000104061
0.000107163
0.000112994
0.000115963
0.00012858
0.000175274
0.000274657
0.000347504
0.000345025
0.000308968
0.000247794
0.000192021
0.000144257
0.000111821
9.50116e-05
8.68323e-05
8.24016e-05
8.06765e-05
8.01239e-05
8.0506e-05
8.17288e-05
8.38831e-05
8.66175e-05
8.95985e-05
9.27523e-05
9.58204e-05
9.90665e-05
0.000102746
0.000103652
0.000106324
0.000103613
0.000105548
0.000103497
0.000105081
0.000104181
0.000104216
0.000104706
0.000105119
0.000104082
0.000104568
0.000101745
0.000103712
9.82434e-05
9.77077e-05
9.9076e-05
0.000101557
0.000103997
0.000107228
0.000113416
0.000116255
0.00012559
0.000165576
0.000264054
0.00035351
0.000362723
0.000328666
0.000269006
0.000211327
0.000160527
0.000121967
0.000100202
8.95039e-05
8.37836e-05
8.08931e-05
8.00357e-05
8.01757e-05
8.11771e-05
8.32818e-05
8.63356e-05
9.00042e-05
9.41318e-05
9.85209e-05
0.000103609
0.000110008
0.000110051
0.000118007
0.000108606
0.00011497
0.00010725
0.000111697
0.000105844
0.000108547
0.000106258
0.000105356
0.000106573
0.000106679
0.000104629
0.000105383
0.00010198
0.00010412
9.8025e-05
9.69427e-05
9.83786e-05
0.000100949
0.000103781
0.000107234
0.00011368
0.000117041
0.00012357
0.000156372
0.000249311
0.000356907
0.000383302
0.00034972
0.000290898
0.000230859
0.000178147
0.000134509
0.000107023
9.31194e-05
8.58916e-05
8.16666e-05
8.00902e-05
8.00004e-05
8.07954e-05
8.27596e-05
8.6e-05
9.04025e-05
9.55455e-05
0.000102052
0.000112046
0.000131965
0.000132943
0.000165216
0.000128478
0.000157449
0.000121891
0.000145857
0.000114809
0.000130743
0.000109488
0.000117908
0.000110051
0.000106544
0.000110189
0.000109818
0.000105193
0.000106203
0.000102258
0.000104583
9.77264e-05
9.60083e-05
9.74414e-05
0.000100073
0.000103333
0.000107134
0.000113857
0.000118046
0.000122369
0.000148485
0.000232307
0.000357355
0.000405018
0.000373892
0.000314163
0.000250863
0.000196426
0.000148969
0.000115845
9.79121e-05
8.87014e-05
8.34406e-05
8.05083e-05
7.99905e-05
8.05931e-05
8.241e-05
8.56765e-05
9.05791e-05
9.67581e-05
0.000106669
0.000131379
0.000192446
0.000220611
0.000337362
0.000218517
0.00034121
0.000199483
0.000314773
0.000170905
0.000265541
0.000141553
0.000204399
0.000120601
0.000152888
0.00012237
0.000108971
0.000122601
0.00012091
0.000105674
0.00010789
0.000102609
0.000104941
9.73583e-05
9.49941e-05
9.62954e-05
9.89488e-05
0.000102614
0.000106831
0.000113929
0.000118996
0.000121822
0.000141906
0.000216255
0.000355887
0.000426686
0.000400495
0.000340873
0.000271398
0.000215226
0.00016508
0.000126577
0.000104189
9.2526e-05
8.58422e-05
8.18598e-05
8.02609e-05
8.05801e-05
8.22801e-05
8.5512e-05
9.06677e-05
9.82131e-05
0.000113105
0.000161027
0.000337776
0.00047677
0.000717179
0.000546342
0.000825805
0.000542204
0.000880248
0.000468412
0.00083579
0.000358973
0.000686012
0.000244173
0.000474582
0.000163442
0.000284351
0.000170336
0.000117517
0.000171326
0.000165004
0.000106794
0.000113598
0.00010295
0.000105331
9.69139e-05
9.401e-05
9.4959e-05
9.76083e-05
0.000101618
0.000106292
0.000113868
0.000119819
0.000121811
0.000136591
0.000201171
0.000349596
0.000447884
0.000432108
0.000371812
0.000293663
0.00023411
0.000182326
0.000139367
0.000112167
9.75937e-05
8.93367e-05
8.42525e-05
8.13977e-05
8.08609e-05
8.23229e-05
8.55483e-05
9.09017e-05
0.000100224
0.000124962
0.000215969
0.000529072
0.000935557
0.00124282
0.00115625
0.00149318
0.0012788
0.00168964
0.00130189
0.00179103
0.00119896
0.00176712
0.000951783
0.00159161
0.000600109
0.00123567
0.000319851
0.000716575
0.000341675
0.000152255
0.000343839
0.000322403
0.000110152
0.000137141
0.000103161
0.00010689
9.65857e-05
9.35077e-05
9.37802e-05
9.61502e-05
0.000100347
0.000105578
0.000113617
0.000120489
0.000122012
0.000132641
0.000186277
0.000332795
0.000464926
0.000469302
0.000406702
0.000319538
0.000253196
0.000200224
0.00015387
0.000122037
0.000104256
9.41416e-05
8.79266e-05
8.40487e-05
8.20454e-05
8.27774e-05
8.59448e-05
9.17579e-05
0.000103564
0.000142054
0.000309125
0.000865192
0.0015013
0.00169668
0.00181732
0.00213123
0.00207511
0.00241496
0.00224727
0.00265442
0.0023146
0.00280967
0.00224178
0.00284321
0.00198626
0.00271403
0.00150592
0.00236394
0.000810101
0.00173056
0.000861965
0.000277431
0.000860403
0.000789754
0.000122945
0.000223468
0.000103184
0.000112199
9.76506e-05
9.49431e-05
9.37262e-05
9.51033e-05
9.90219e-05
0.000104699
0.000113169
0.000120981
0.000122497
0.000129938
0.000172944
0.000307677
0.000473552
0.000508857
0.000447288
0.000350892
0.000273582
0.000218211
0.000169781
0.00013371
0.000112575
0.000100699
9.32425e-05
8.81473e-05
8.51427e-05
8.44477e-05
8.73883e-05
9.41901e-05
0.000109895
0.000166801
0.000429425
0.00121826
0.00253347
0.00235002
0.00273077
0.00271298
0.00296669
0.00300621
0.00330684
0.00324331
0.00362463
0.00338707
0.00387472
0.00338675
0.00399989
0.00318412
0.00394667
0.00271028
0.00364462
0.00189471
0.00300622
0.00198076
0.000650086
0.00196489
0.00181293
0.000170468
0.000482526
0.000104105
0.000132461
0.000100768
0.00010017
9.69939e-05
9.58933e-05
9.86868e-05
0.000104392
0.000113099
0.000121398
0.000123078
0.000128311
0.00016213
0.000281187
0.000474759
0.000547229
0.000492679
0.000389415
0.000297048
0.000236389
0.00018651
0.000147049
0.000122829
0.000109109
0.00010073
9.45356e-05
9.03137e-05
8.87334e-05
9.14504e-05
0.000100209
0.000122573
0.000205618
0.000574006
0.00154461
0.0028575
0.00349399
0.0036447
0.00318649
0.00336274
0.00356462
0.00378991
0.00395649
0.00424423
0.0043072
0.0046926
0.00455953
0.00506586
0.00465114
0.00529591
0.00451711
0.00532392
0.00407893
0.00507807
0.00323886
0.0044586
0.00338866
0.00151265
0.00342037
0.00328291
0.000326628
0.00114683
0.000109223
0.000201756
0.000108074
0.000117268
0.000112241
0.00010409
0.000101431
0.00010528
0.000113598
0.000122119
0.000123879
0.000127498
0.000153806
0.000257825
0.000471751
0.000582117
0.00054087
0.000436533
0.000325071
0.000255497
0.000203695
0.000161782
0.000134803
0.000120012
0.000110896
0.000104362
9.94342e-05
9.84091e-05
0.000102175
0.000115112
0.000149672
0.000270067
0.00075273
0.00183504
0.00307429
0.00373882
0.00384268
0.00427479
0.00439063
0.00398117
0.00413997
0.00449385
0.00471415
0.00502966
0.00532021
0.0055143
0.00590824
0.0058806
0.00639942
0.00606246
0.00672405
0.00599563
0.00682442
0.0055995
0.00663537
0.00476699
0.00604972
0.00497899
0.0029321
0.00504782
0.00491867
0.000743532
0.00236086
0.000126542
0.0003957
0.000120529
0.000157437
0.000160701
0.000140109
0.000118957
0.00011161
0.000116052
0.000123685
0.00012511
0.000127509
0.000147727
0.000237221
0.000459085
0.000611675
0.000594124
0.000491901
0.000359493
0.000276116
0.000221097
0.000177208
0.000148538
0.000133198
0.000125492
0.000120083
0.000118751
0.000122264
0.000132554
0.000154317
0.000211188
0.000389761
0.000999288
0.00209852
0.00321972
0.00392109
0.00391269
0.00448806
0.00456842
0.00517942
0.00528725
0.00490035
0.00505325
0.00556853
0.00578186
0.00624303
0.00651994
0.00684268
0.00721396
0.00730245
0.00778701
0.00755794
0.00818072
0.00755285
0.00834199
0.0072078
0.00821679
0.00641731
0.00769589
0.00667029
0.00456425
0.00676255
0.00664711
0.00162873
0.00393592
0.000180346
0.000859174
0.000118749
0.000184776
0.000224515
0.000222918
0.000179347
0.000139438
0.000125875
0.000127651
0.000127327
0.000128056
0.000143766
0.000219506
0.000433334
0.000632973
0.000650247
0.000552186
0.00040325
0.000299466
0.000238579
0.000192871
0.000162689
0.000149313
0.000146671
0.000151502
0.000166009
0.000189928
0.000220879
0.000263513
0.000353783
0.000639855
0.00130007
0.00231973
0.00332376
0.00438842
0.00462518
0.00477003
0.00537165
0.00543446
0.00619178
0.00627125
0.00595477
0.00608793
0.00674448
0.00692318
0.00750547
0.00772287
0.00816482
0.00844845
0.00868178
0.00904499
0.00899082
0.00947269
0.00905072
0.00969638
0.00879149
0.00966546
0.00808891
0.00927116
0.00836009
0.00628965
0.00846549
0.00836703
0.00296873
0.00562003
0.000315768
0.0017626
0.000146661
0.000234382
0.00028464
0.000283637
0.000221576
0.00016134
0.000139144
0.000131992
0.000129762
0.000141677
0.000205189
0.000403898
0.000644642
0.000705385
0.000616889
0.000457559
0.000327848
0.000256438
0.000208018
0.000177265
0.000166924
0.000178389
0.000218102
0.000287777
0.000378044
0.000467555
0.000562751
0.000699887
0.00100247
0.00162339
0.00250237
0.00336348
0.00442468
0.00553683
0.00554183
0.00547755
0.00551685
0.00632064
0.0063439
0.00718279
0.00719405
0.00704966
0.00713058
0.00787683
0.00797182
0.00862702
0.00871148
0.00926103
0.00931503
0.00975105
0.00982577
0.0100965
0.0102373
0.0102706
0.0105397
0.0101693
0.0106997
0.00965376
0.0105842
0.00992392
0.00801414
0.0100519
0.00996853
0.00452462
0.00732199
0.000811049
0.0029103
0.000151217
0.000265372
0.000337928
0.000340243
0.000258792
0.000174294
0.000143324
0.000133801
0.00014166
0.000194537
0.000374016
0.000647288
0.000756109
0.000683852
0.000522201
0.000364039
0.000275688
0.000222987
0.000190597
0.000185523
0.000221131
0.000331129
0.000546841
0.000806424
0.000998102
0.00107182
0.00115806
0.00139368
0.00192038
0.00265354
0.00340826
0.00444833
0.00554386
0.0055059
0.0063166
0.00628317
0.00634874
0.00633904
0.00717451
0.00712717
0.0079052
0.00779361
0.00799908
0.00797383
0.00869397
0.00862611
0.00926917
0.00915405
0.0097595
0.00961745
0.0101896
0.0100334
0.0105565
0.0104057
0.0108444
0.0107563
0.0110416
0.0110924
0.0109176
0.0113091
0.0111526
0.00963799
0.0112897
0.0112451
0.0105759
0.00612917
0.0089375
0.00139456
0.00419654
0.000146132
0.000289216
0.000392818
0.000395324
0.000266859
0.000173787
0.000143318
0.000143457
0.000187735
0.000345428
0.000645609
0.00079934
0.000750435
0.000596482
0.000409805
0.000298236
0.000237871
0.000203462
0.00020157
0.000268003
0.000485136
0.000897217
0.00134989
0.00154856
0.00154096
0.00155273
0.00172396
0.00214512
0.00273296
0.00344779
0.00451181
0.00586502
0.00624335
0.00625751
0.00684704
0.00673782
0.00705081
0.0069534
0.00765823
0.00750651
0.00816205
0.00796966
0.00849999
0.00833906
0.00899451
0.00880458
0.00940755
0.00914885
0.00974732
0.00934575
0.0100478
0.00948829
0.010374
0.00968327
0.0107813
0.0100658
0.0112708
0.0106633
0.0115541
0.011259
0.0114457
0.0115432
0.0116812
0.0112062
0.0101929
0.0110579
0.0116831
0.0118774
0.0118102
0.0117093
0.00771358
0.0108706
0.0105252
0.00939881
0.00223163
0.00570326
0.000144682
0.000325381
0.000459288
0.000425095
0.000255244
0.000166143
0.000149589
0.000184846
0.000325167
0.000638662
0.000835472
0.000818608
0.000677027
0.00046573
0.000326094
0.000253571
0.000214404
0.000214796
0.000307893
0.000647127
0.0013017
0.00188577
0.00199529
0.00189027
0.00182724
0.0019373
0.00226392
0.00273905
0.0034576
0.00460015
0.00582094
0.00643256
0.00631374
0.00663484
0.0065369
0.00701377
0.00685339
0.00734241
0.00717778
0.00776363
0.00754735
0.00805965
0.00776595
0.00858326
0.00833528
0.00883259
0.0084788
0.00887589
0.00838204
0.00880227
0.00806553
0.00877495
0.00776066
0.00897854
0.00769115
0.00945391
0.00895786
0.00816821
0.0109182
0.0103963
0.0089382
0.00973185
0.0113411
0.0116374
0.0113844
0.0109128
0.0117571
0.0116772
0.0115856
0.0119532
0.0119711
0.0118722
0.0120039
0.0101093
0.00803745
0.00948253
0.0114087
0.0111222
0.00345253
0.00874876
0.0077634
0.00603237
0.000151403
0.000394792
0.000538601
0.000413289
0.000222375
0.000166455
0.00018573
0.000311821
0.000624499
0.000864391
0.000885861
0.000757705
0.000533526
0.000360416
0.00027105
0.000225053
0.000222789
0.000332162
0.000774444
0.00167059
0.00229843
0.00231313
0.00214549
0.00199036
0.00202489
0.00227294
0.00272685
0.00345823
0.00461856
0.00575958
0.006221
0.0064221
0.00627934
0.00670266
0.00655937
0.00685169
0.00662234
0.00732235
0.00708777
0.007466
0.00716412
0.00734805
0.00697558
0.00810868
0.00772864
0.00787068
0.00736527
0.00734849
0.0066964
0.00674628
0.00583291
0.00638761
0.00525891
0.00745675
0.00674497
0.00607418
0.00547325
0.0080711
0.00721833
0.00763484
0.0068946
0.0103189
0.00953828
0.00770464
0.0086564
0.0109285
0.0114865
0.0109696
0.0102474
0.0116042
0.0120151
0.0119778
0.0120723
0.0117309
0.0118686
0.0121538
0.0107121
0.0101406
0.011859
0.0116326
0.00683112
0.00390421
0.00565691
0.00941224
0.00853825
0.000175585
0.000519055
0.000557043
0.000355903
0.000203022
0.000193643
0.000303982
0.000610086
0.000886976
0.000949512
0.000838109
0.000612311
0.000403991
0.000290867
0.000235055
0.000228442
0.000338602
0.000841874
0.00194523
0.00260339
0.0025696
0.00232681
0.00208116
0.00203788
0.00225163
0.00268276
0.00345481
0.00460743
0.00565534
0.00603
0.00564306
0.00552714
0.00602469
0.00583284
0.00640658
0.00620508
0.00626151
0.00598115
0.00685948
0.00655617
0.00662049
0.00627957
0.00602674
0.00565375
0.00688997
0.00644141
0.00608193
0.00554165
0.00510679
0.0046392
0.00447761
0.00412495
0.00496394
0.00455902
0.00427996
0.00406306
0.00618258
0.00552232
0.00499694
0.00458331
0.00680737
0.00600031
0.00638763
0.00571487
0.00938275
0.00839712
0.00648016
0.00739846
0.0102133
0.0110602
0.0102368
0.00926484
0.011189
0.0122034
0.0122208
0.0120164
0.0113506
0.0115454
0.0121616
0.01127
0.0107507
0.0121746
0.0120369
0.00760617
0.00458151
0.00651759
0.0100801
0.00928925
0.000267258
0.000650922
0.000516175
0.000270784
0.000218283
0.000303178
0.000598804
0.000904954
0.00100884
0.000916511
0.000698883
0.000457608
0.000315472
0.000245706
0.000229959
0.000335944
0.000853139
0.00209454
0.00281628
0.00275817
0.00240875
0.00215161
0.00205692
0.0022311
0.00265796
0.00342759
0.00456718
0.0055004
0.00581377
0.00487701
0.0047948
0.00452772
0.00524175
0.00501492
0.00571852
0.00547142
0.0053183
0.00502251
0.0059479
0.00562733
0.00531897
0.00501018
0.00438097
0.00410636
0.00509449
0.0047099
0.00433361
0.00410344
0.0039907
0.00391852
0.00395196
0.00387355
0.00384862
0.00385546
0.00431075
0.00412553
0.00401322
0.00393699
0.0051345
0.00471113
0.00442821
0.00425007
0.00573562
0.00537245
0.00519091
0.00490798
0.00820231
0.00716056
0.00560065
0.00626853
0.00921042
0.0103231
0.00923396
0.00808301
0.0104761
0.0122776
0.0123485
0.0117701
0.0106854
0.0109564
0.0119956
0.0117601
0.0113218
0.012364
0.0123187
0.00840257
0.00505204
0.00730491
0.0107366
0.0100365
0.000490111
0.000674249
0.000398925
0.000269653
0.000311927
0.000592002
0.000922488
0.00106306
0.000992122
0.000789437
0.000522467
0.000345162
0.000258701
0.000229938
0.000321065
0.000836721
0.00212468
0.0029459
0.00288223
0.00242747
0.00218234
0.00211764
0.00224576
0.00266383
0.00338962
0.00446148
0.00527342
0.00555385
0.00454746
0.00324514
0.00309018
0.00372234
0.0034715
0.00420365
0.00395485
0.0047384
0.0044646
0.00418832
0.00392227
0.00472226
0.00445512
0.00386685
0.0036528
0.00356393
0.00337472
0.003915
0.0037423
0.00388438
0.00384348
0.00396317
0.00414611
0.00391585
0.00392366
0.00396483
0.00399729
0.00414452
0.00410925
0.00411872
0.00417821
0.00459537
0.00440947
0.0043244
0.00430839
0.0051599
0.00483827
0.00490099
0.00462621
0.00702018
0.00617006
0.0052366
0.00558857
0.00805757
0.00933794
0.00812053
0.00698161
0.00953175
0.0121993
0.0123701
0.0112812
0.00980467
0.0101611
0.0116277
0.0121643
0.0118588
0.0124753
0.0125093
0.00922341
0.00514222
0.00785915
0.011393
0.0108137
0.000794585
0.000598807
0.000342427
0.000337865
0.000592617
0.000939374
0.00111345
0.00106202
0.000882438
0.000596032
0.000383426
0.000273169
0.000230476
0.000291397
0.000769581
0.00209624
0.00300032
0.00295981
0.00243107
0.00217798
0.00216432
0.00233427
0.00270338
0.00337516
0.00429427
0.00498743
0.00522421
0.00411632
0.00215018
0.00216499
0.00188179
0.00265166
0.00240725
0.00313206
0.00288747
0.00365352
0.00338797
0.00309898
0.00290839
0.00346013
0.00328086
0.00315985
0.0029274
0.00358045
0.00340361
0.0037837
0.00370449
0.00437614
0.00459276
0.00489583
0.00508446
0.00547058
0.00526748
0.00427634
0.00440286
0.00455225
0.00471698
0.00434261
0.00443617
0.00457172
0.00473786
0.00453963
0.00452554
0.00457403
0.00468868
0.00506924
0.00478882
0.00501589
0.00476113
0.00617592
0.00566721
0.00529537
0.00540508
0.00703996
0.00827295
0.00717818
0.00626553
0.00852302
0.0119671
0.012263
0.0105919
0.00885594
0.00928444
0.0110652
0.0124875
0.0123574
0.0125056
0.0126657
0.0100098
0.00460035
0.00793992
0.0120719
0.0116172
0.000812445
0.000473517
0.000386051
0.000595247
0.00096511
0.00115901
0.00113202
0.000970373
0.000676675
0.00042869
0.000292603
0.000232443
0.000263524
0.000646356
0.00198503
0.00300186
0.00300234
0.00244591
0.00213887
0.00216219
0.00240629
0.00281028
0.00337137
0.00410348
0.00467546
0.00481843
0.00364661
0.0017546
0.00123461
0.00107531
0.00152159
0.0013325
0.00189031
0.00170375
0.00228495
0.00208387
0.00270035
0.00249053
0.00227454
0.00211849
0.00269378
0.00247227
0.00317043
0.00288765
0.00480193
0.0046253
0.00475093
0.00482228
0.00565967
0.00590951
0.00665534
0.00580828
0.00604384
0.00649354
0.00627644
0.00492699
0.00513199
0.00535165
0.00557854
0.00484425
0.00503243
0.00524448
0.00547337
0.00480177
0.00493037
0.00509848
0.00529637
0.00527711
0.00502952
0.00537267
0.00515708
0.00582424
0.00562133
0.00558528
0.0055547
0.00642735
0.00739036
0.00664447
0.00604134
0.00767894
0.011557
0.0120339
0.00980087
0.00804312
0.00850468
0.0103915
0.0127718
0.0128273
0.0124455
0.0127975
0.0106404
0.00375616
0.00746218
0.0127689
0.0124283
0.000754193
0.000482219
0.000604872
0.000987154
0.00120781
0.00119733
0.00105373
0.000762764
0.000483165
0.000315247
0.00023781
0.000241339
0.000522453
0.00173406
0.00297365
0.00302096
0.00247165
0.00203832
0.0020924
0.00239236
0.00282503
0.00332834
0.00386671
0.00434482
0.00436518
0.00315184
0.00145329
0.000843423
0.000992879
0.000876748
0.0012358
0.0011046
0.00150488
0.00136877
0.00176751
0.00163911
0.00200118
0.0018891
0.00200518
0.00176016
0.00258564
0.0022842
0.00430763
0.00383113
0.00731695
0.0071705
0.00704199
0.00724134
0.00668357
0.00677907
0.00834695
0.0086164
0.00674627
0.00701955
0.00756904
0.00729459
0.0057136
0.00596157
0.00621952
0.00648132
0.00551797
0.00575524
0.00600394
0.00626046
0.0053354
0.0055413
0.00576811
0.0060082
0.00576188
0.00555604
0.00597967
0.00576956
0.00587518
0.00583588
0.00616534
0.00594694
0.00628831
0.00691456
0.00656433
0.00615191
0.0072317
0.0110403
0.0116963
0.00906402
0.00760432
0.0080413
0.00973729
0.0130647
0.0133072
0.0123284
0.0128983
0.0109535
0.00271489
0.00646697
0.0134614
0.0131367
0.000725245
0.000641634
0.00101238
0.00125044
0.0012635
0.0011299
0.000853071
0.000544026
0.000344487
0.000245836
0.00022569
0.000414205
0.001423
0.00288398
0.00302579
0.00251023
0.00200481
0.00187026
0.00217038
0.00266294
0.00313546
0.00359289
0.00394906
0.00382767
0.0026307
0.00120482
0.000720092
0.000767155
0.000686298
0.000909655
0.000824288
0.00109783
0.00100177
0.00128001
0.00119244
0.00141212
0.00135468
0.0015727
0.00146405
0.00218362
0.00176812
0.00328091
0.00270717
0.00678871
0.00610974
0.0100969
0.0100558
0.00882986
0.00909899
0.00992436
0.00783835
0.00809815
0.00932147
0.00958881
0.00761015
0.00789621
0.00847245
0.00818472
0.00652143
0.00678599
0.00705788
0.00733226
0.00625829
0.00651386
0.00677326
0.00703524
0.00600391
0.00624941
0.00650172
0.00675594
0.00642152
0.0062242
0.00669371
0.00648068
0.00614389
0.0063258
0.00687434
0.00658414
0.00644285
0.00686818
0.00674535
0.00647013
0.00720329
0.0104944
0.0113179
0.00855223
0.00757391
0.0079811
0.0092084
0.0133892
0.0138162
0.0121643
0.0129707
0.0109176
0.00153139
0.00502828
0.0141372
0.0137064
0.000800061
0.0010312
0.00129696
0.0013212
0.00120574
0.00093897
0.000613954
0.000378805
0.000257944
0.000216521
0.000329182
0.00110951
0.00268474
0.003019
0.0025739
0.00201798
0.0017417
0.00174132
0.0021423
0.00265447
0.00306268
0.00334003
0.00313986
0.00205071
0.000991506
0.000624355
0.000614845
0.000725273
0.000673579
0.000843574
0.000783574
0.000963001
0.000904612
0.00105468
0.00101456
0.001132
0.00107805
0.00147273
0.0012678
0.00324878
0.00237847
0.00524358
0.00424709
0.00971103
0.00898858
0.0116394
0.0117734
0.0122867
0.00983626
0.00998139
0.0114724
0.0112433
0.00875936
0.00904129
0.0101582
0.0104557
0.00838535
0.00867331
0.00925997
0.00896602
0.00729797
0.00756239
0.00783315
0.00810678
0.00701122
0.00726506
0.00751772
0.00776923
0.00674184
0.00700188
0.00725788
0.00750734
0.0071763
0.00697249
0.00747688
0.00724711
0.00670647
0.00700553
0.00766753
0.00733276
0.00680879
0.00706847
0.00716198
0.0070811
0.00741341
0.01001
0.0109666
0.00843146
0.0077768
0.0081387
0.00898965
0.0137188
0.0143694
0.0119748
0.0130114
0.0104221
0.000508787
0.00323856
0.0148297
0.0140711
0.00109883