/*--------------------------------*- C++ -*----------------------------------*\
  =========                 |
  \\      /  F ield         | OpenFOAM: The Open Source CFD Toolbox
   \\    /   O peration     | Website:  https://openfoam.org
    \\  /    A nd           | Version:  dev
     \\/     M anipulation  |
\*---------------------------------------------------------------------------*/
FoamFile
{
    version     2.0;
    format      ascii;
    class       volScalarField;
    location    "2500";
    object      nut;
}
// * * * * * * * * * * * * * * * * * * * * * * * * * * * * * * * * * * * * * //

dimensions      [0 2 -1 0 0 0 0];

internalField   nonuniform List<scalar> 
9851
(
0.000131396
0.000135175
0.000127066
0.000123046
0.00016009
0.000111986
0.000112105
0.000169793
0.000148873
0.000105888
0.00010856
0.000165397
0.000169463
0.000126299
0.00010399
0.00010531
0.000152219
0.000182312
0.000152863
0.000114278
0.000102729
0.000103428
0.000135295
0.000185423
0.000174376
0.000129787
0.000109139
0.000101864
0.000102885
0.000125632
0.000182752
0.000185195
0.000150277
0.000116987
0.000106251
0.000101357
0.000102655
0.000118239
0.000172975
0.000193864
0.000171128
0.000128911
0.000110873
0.00010428
0.000100953
0.000102147
0.000112609
0.000157568
0.000196022
0.000186421
0.000144658
0.000117122
0.000107646
0.000103069
0.000100709
0.000101539
0.000109039
0.000141068
0.000194807
0.000194566
0.000163081
0.0001259
0.000111317
0.000105341
0.000102165
0.000100476
0.000101007
0.00010672
0.000131241
0.000188818
0.000199501
0.000180315
0.000138754
0.00011568
0.00010799
0.000103857
0.000101636
0.000100346
0.00010049
0.000105348
0.000124114
0.000175317
0.000202608
0.000192081
0.000153732
0.000122847
0.000110852
0.000105657
0.000102817
0.000101183
0.000100237
0.000100155
0.000104843
0.000118842
0.000160809
0.000202539
0.000199539
0.000169794
0.00013252
0.000114413
0.000107696
0.000104185
0.000102124
0.000100843
0.000100155
9.99522e-05
0.000104603
0.000115374
0.000147423
0.000198785
0.000202979
0.000184384
0.000145396
0.00011933
0.000110253
0.000105603
0.00010311
0.00010154
0.000100605
0.000100094
9.98327e-05
0.000104481
0.000113145
0.000137369
0.000189675
0.000206827
0.000195352
0.000159334
0.000127556
0.000112707
0.000107274
0.000104041
0.000102295
0.000101125
0.000100422
0.000100046
9.97774e-05
0.000104424
0.00011163
0.000130977
0.00017691
0.000207676
0.000202396
0.000173351
0.000137684
0.000116859
0.000109364
0.000105362
0.000103054
0.000101678
0.000100828
0.000100273
0.000100006
9.97629e-05
0.000104378
0.000110622
0.000126014
0.000162861
0.00020601
0.000206799
0.000186897
0.000150103
0.000122767
0.000111612
0.00010685
0.000103809
0.000102275
0.00010123
0.000100587
0.000100163
9.99738e-05
9.9764e-05
0.000104289
0.000109912
0.000122563
0.000151163
0.000200078
0.000210587
0.000197568
0.000163844
0.000131706
0.000114463
0.000108624
0.000104897
0.000102885
0.00010166
0.000100906
0.000100399
0.000100066
9.995e-05
9.97695e-05
0.000104128
0.000109318
0.000120302
0.000142315
0.000188683
0.000213007
0.000206205
0.000176266
0.000142547
0.000119529
0.000110453
0.000106311
0.000103515
0.000102143
0.00010121
0.000100655
0.000100245
9.99876e-05
9.99296e-05
9.97869e-05
0.000103971
0.000108919
0.000118743
0.000135641
0.000175014
0.000212526
0.000211394
0.000189717
0.000154536
0.000126653
0.000112862
0.000107893
0.000104408
0.000102627
0.000101562
0.000100901
0.000100428
0.000100118
9.99289e-05
9.99121e-05
9.98378e-05
0.00010386
0.000108598
0.000117449
0.000130668
0.000161882
0.000208453
0.000214847
0.000200972
0.000167943
0.000136092
0.000116676
0.000109518
0.000105746
0.000103142
0.000101957
0.000101127
0.000100619
0.000100253
0.000100015
9.98788e-05
9.99012e-05
9.99306e-05
0.000103773
0.000108221
0.000116097
0.000126751
0.000151209
0.000198807
0.000219498
0.000210593
0.000180237
0.00014723
0.00012286
0.000111433
0.000107169
0.000103924
0.000102342
0.000101399
0.000100791
0.000100381
0.000100117
9.9931e-05
9.9834e-05
9.98964e-05
0.00010003
0.000103693
0.000107809
0.000114787
0.000123489
0.000142825
0.000185263
0.00021948
0.000217137
0.000193605
0.000159252
0.000130735
0.000114688
0.000108605
0.000105168
0.000102784
0.00010171
0.000100944
0.000100525
0.000100207
9.99975e-05
9.98656e-05
9.97984e-05
9.98965e-05
0.000100117
0.000103668
0.000107536
0.000113744
0.000120948
0.000135997
0.000170717
0.000216724
0.000220979
0.000205834
0.000172564
0.000140746
0.000119564
0.00011016
0.000106475
0.000103526
0.000102023
0.000101153
0.000100624
0.000100309
0.000100064
9.98975e-05
9.98111e-05
9.97775e-05
9.99028e-05
0.000100206
0.0001037
0.000107372
0.000112845
0.000118956
0.000130525
0.000158187
0.000209192
0.00022715
0.000216481
0.000185245
0.00015219
0.000126696
0.000112938
0.000107764
0.000104685
0.000102431
0.00010139
0.000100716
0.000100399
0.000100121
9.99377e-05
9.98242e-05
9.97664e-05
9.97731e-05
9.99203e-05
0.000100308
0.000103797
0.000107277
0.000112104
0.000117441
0.000126238
0.000148118
0.000195121
0.000228061
0.000224528
0.000199034
0.000164413
0.000135103
0.000117263
0.000109198
0.000105886
0.000103126
0.000101659
0.00010089
0.000100436
0.000100196
9.99686e-05
9.98477e-05
9.97701e-05
9.97358e-05
9.97848e-05
9.99505e-05
0.000100439
0.00010395
0.000107241
0.000111573
0.000116389
0.000123112
0.000139859
0.000178868
0.000225695
0.00022895
0.000212233
0.000178231
0.000145542
0.000123043
0.000111613
0.000107071
0.000104189
0.000102058
0.000101101
0.000100511
0.000100222
0.000100021
9.98617e-05
9.97834e-05
9.97308e-05
9.9731e-05
9.98214e-05
0.000100002
0.000100593
0.000104094
0.00010726
0.00011123
0.000115597
0.000120889
0.000133597
0.000164444
0.00021908
0.000235595
0.000223938
0.000191169
0.000157736
0.000130583
0.000115255
0.000108309
0.000105287
0.000102757
0.000101366
0.000100677
0.00010024
0.000100046
9.98923e-05
9.97826e-05
9.97274e-05
9.97182e-05
9.97584e-05
9.98954e-05
0.000100087
0.000100743
0.000104228
0.00010738
0.000111063
0.000114989
0.000119437
0.000128982
0.000153558
0.000204884
0.000237282
0.000232999
0.00020541
0.000170059
0.000139934
0.000120336
0.000110445
0.000106348
0.000103753
0.000101779
0.000100882
0.00010035
0.000100039
9.99211e-05
9.98009e-05
9.97194e-05
9.97007e-05
9.97397e-05
9.98272e-05
0.000100033
0.000100214
0.000100863
0.000104338
0.000107509
0.000110956
0.000114564
0.000118739
0.000125876
0.000145113
0.00018904
0.000234883
0.000237599
0.000219864
0.000184185
0.000150693
0.000126779
0.000113635
0.000107494
0.00010477
0.000102467
0.000101161
0.000100524
0.000100102
9.99295e-05
9.98382e-05
9.97436e-05
9.96927e-05
9.97156e-05
9.98108e-05
9.99701e-05
0.000100251
0.000100396
0.000100971
0.000104415
0.000107596
0.000111002
0.000114325
0.000118454
0.000123949
0.000138807
0.000174005
0.000229306
0.000243668
0.000231711
0.000198041
0.000163363
0.000134869
0.000118044
0.000109426
0.00010575
0.000103411
0.00010159
0.000100715
0.000100249
9.99855e-05
9.98814e-05
9.98103e-05
9.97372e-05
9.97109e-05
9.9785e-05
9.99443e-05
0.000100275
0.000100645
0.000100592
0.000101074
0.000104474
0.000107636
0.000111066
0.000114119
0.00011836
0.000122869
0.000134514
0.000162375
0.000216785
0.000247142
0.000241124
0.000211952
0.000176326
0.000144883
0.000123644
0.000112292
0.000106813
0.00010435
0.000102244
0.000100992
0.00010039
0.000100128
9.99865e-05
9.99323e-05
9.98669e-05
9.98021e-05
9.98084e-05
9.99425e-05
0.000100163
0.000100601
0.000101229
0.00010101
0.00010116
0.0001045
0.00010764
0.00011111
0.000114076
0.000118252
0.000122337
0.000131628
0.000154955
0.000203972
0.000245042
0.000246787
0.000226876
0.000190026
0.00015621
0.000130591
0.000116232
0.000108599
0.000105212
0.000103115
0.000101409
0.000100583
0.000100253
0.000100162
0.000100151
0.000100137
0.000100073
0.000100021
0.000100084
0.000100214
0.000100532
0.000101034
0.00010186
9.20736e-05
9.12637e-05
0.000101209
0.000104507
0.000107623
0.000111104
0.000114058
0.000118096
0.000122224
0.000129712
0.000149745
0.000192577
0.00024177
0.000250987
0.000239284
0.000204357
0.000168719
0.000139242
0.000120844
0.000111236
0.000106179
0.000103969
0.000102041
0.000100877
0.000100419
0.000100319
0.0001004
0.000100517
0.000100534
0.000100508
0.000100524
0.000100878
0.000101263
0.000101867
9.94894e-05
9.07554e-05
8.92237e-05
8.09436e-05
8.2321e-05
0.000101197
0.00010445
0.000107541
0.000111004
0.000114018
0.000117903
0.000122305
0.000128327
0.000145227
0.000182588
0.000235365
0.000256191
0.000248118
0.00021816
0.000181779
0.000149485
0.000126735
0.000114475
0.000107901
0.000104705
0.000102854
0.000101324
0.000100643
0.000100515
0.000100637
0.000100916
0.000101127
0.000101207
0.00010152
0.000101911
0.000102529
0.000103185
0.000102818
9.77485e-05
8.45659e-05
9.28866e-05
8.09699e-05
8.14636e-05
7.87253e-05
7.26137e-05
7.2176e-05
0.000101136
0.00010432
0.000107371
0.000110815
0.000113891
0.000117678
0.000122722
0.000127271
0.000141542
0.00017365
0.000228223
0.000259547
0.000255097
0.000231862
0.000195345
0.000160739
0.000134129
0.000118491
0.000110188
0.000105571
0.000103603
0.00010198
0.000100958
0.00010074
0.000100908
0.00010132
0.000101769
0.000102152
0.000102501
0.000102995
0.000103637
0.000102393
9.38988e-05
9.10288e-05
8.80744e-05
7.6177e-05
7.5532e-05
7.35245e-05
7.13492e-05
6.96362e-05
6.44368e-05
6.38389e-05
0.000101074
0.000104103
0.000107116
0.000110561
0.000113675
0.000117385
0.000123049
0.000126816
0.000138489
0.000166971
0.000221847
0.000260972
0.000260825
0.000244464
0.000209095
0.00017311
0.000142952
0.000123467
0.000113157
0.000107155
0.000104195
0.000102713
0.000101484
0.000101021
0.000101163
0.000101738
0.00010245
0.000103146
0.000103609
0.000104176
0.000104773
9.68394e-05
8.7883e-05
8.55886e-05
8.60188e-05
8.23119e-05
7.52434e-05
6.7898e-05
7.02929e-05
6.55289e-05
6.28866e-05
6.2129e-05
5.76446e-05
5.69416e-05
0.00010099
0.000103735
0.000106732
0.000110214
0.000113378
0.000117055
0.000123187
0.000126616
0.000136014
0.000162389
0.000215924
0.000261733
0.000266964
0.00025537
0.000222328
0.000186111
0.000153209
0.00012979
0.000116655
0.000109451
0.000105039
0.000103297
0.000102147
0.000101488
0.000101437
0.000102103
0.000103149
0.000104292
0.000105318
0.000106097
0.000106645
9.22322e-05
8.3459e-05
8.20364e-05
8.056e-05
7.77936e-05
7.48725e-05
7.35676e-05
6.84862e-05
6.06204e-05
6.3493e-05
5.88453e-05
5.6158e-05
5.57e-05
5.14164e-05
5.11668e-05
0.000100853
0.000103212
0.000106232
0.000109759
0.000113015
0.000116721
0.000123088
0.000126418
0.000133947
0.000157598
0.000208457
0.000262175
0.000274951
0.000264223
0.000235201
0.000199157
0.000164709
0.00013748
0.000121031
0.000112278
0.000106775
0.000103834
0.00010274
0.000102088
0.000101885
0.000102481
0.000103788
0.000105423
0.000107243
0.000108359
0.000107869
9.35282e-05
8.33263e-05
8.73907e-05
7.81821e-05
8.09783e-05
7.25137e-05
7.34314e-05
6.75616e-05
6.71042e-05
6.22402e-05
5.4523e-05
5.7465e-05
5.32601e-05
5.05276e-05
5.00429e-05
4.6185e-05
4.63313e-05
0.000100671
0.000102569
0.000105627
0.000109124
0.00011256
0.000116358
0.000122848
0.000126674
0.000132359
0.000152284
0.000198565
0.000260707
0.00028418
0.000273207
0.000247801
0.000212023
0.000176859
0.000146667
0.000126501
0.000115513
0.000109224
0.000104876
0.000103192
0.000102633
0.00010246
0.000102983
0.000104428
0.000106564
0.000108743
0.000110319
0.000109665
0.000105342
0.000100852
9.76636e-05
9.17305e-05
9.74871e-05
8.09985e-05
9.83486e-05
6.99194e-05
8.24035e-05
6.18423e-05
6.6992e-05
5.70349e-05
4.94495e-05
5.26277e-05
4.87253e-05
4.58454e-05
4.54295e-05
4.1904e-05
4.24942e-05
0.000100459
0.00010184
0.000104903
0.000108335
0.000111964
0.00011595
0.000122536
0.000127013
0.000131172
0.000147672
0.000188275
0.000257414
0.000292671
0.00028377
0.000260119
0.000224925
0.000189178
0.000156897
0.000133288
0.000119529
0.000112016
0.000107056
0.000103856
0.000103066
0.000102996
0.000103564
0.000105076
0.000107544
0.000109728
0.000111359
0.000110229
0.000106752
9.86567e-05
0.000108168
9.44056e-05
0.000103075
9.40701e-05
9.77003e-05
9.46632e-05
9.39221e-05
8.57569e-05
9.2621e-05
6.36514e-05
8.96662e-05
6.00109e-05
4.51726e-05
5.58729e-05
5.10686e-05
4.19254e-05
4.15251e-05
3.85337e-05
3.90947e-05
0.000100219
0.000101084
0.000104088
0.000107451
0.000111187
0.000115422
0.00012216
0.00012723
0.000130463
0.000143722
0.00018024
0.000253807
0.000299929
0.000294844
0.000273403
0.000237489
0.000201721
0.00016797
0.000141195
0.000124566
0.000115281
0.000109652
0.000105555
0.000103575
0.000103423
0.000104096
0.000105654
0.000108026
0.000110395
0.00011113
0.000108585
0.000119052
0.000122656
0.000149398
0.00012399
0.00015461
0.000120114
0.000156367
0.000108957
0.000147695
9.75485e-05
0.000127992
9.18538e-05
0.000104174
9.11843e-05
9.14956e-05
8.89748e-05
4.5769e-05
8.6262e-05
7.61524e-05
3.86201e-05
4.06981e-05
3.5925e-05
3.62352e-05
9.99177e-05
0.000100385
0.0001032
0.000106424
0.000110247
0.000114736
0.000121718
0.000127346
0.000130055
0.00014034
0.000173778
0.000248333
0.000306432
0.000307885
0.000287885
0.000250194
0.000214099
0.000179544
0.000150296
0.000130678
0.000119423
0.000112766
0.000108246
0.000105001
0.000103912
0.000104438
0.000105927
0.000108227
0.00011083
0.000110568
0.000110864
0.000137048
0.000174862
0.000208053
0.000191074
0.000230523
0.000200297
0.00024745
0.000198177
0.000252996
0.000182583
0.000244534
0.000152278
0.000220324
0.000112355
0.000178213
9.15769e-05
0.000120243
9.11405e-05
6.37994e-05
8.99386e-05
8.79262e-05
3.70127e-05
5.10923e-05
3.40161e-05
3.43929e-05
9.9773e-05
0.000100256
0.000102553
0.000105339
0.000109199
0.000113953
0.000121152
0.000127336
0.000129693
0.000137575
0.000166553
0.000236432
0.000310214
0.000323597
0.000302806
0.000264143
0.000226162
0.000191385
0.00016024
0.000137936
0.000124631
0.000116653
0.000111637
0.000107983
0.000105332
0.000104977
0.000106246
0.000108515
0.000111016
0.000110352
0.00012315
0.000178495
0.000242925
0.000260969
0.000269308
0.000308262
0.000292684
0.000333905
0.000305261
0.000353095
0.000305449
0.000361211
0.000290469
0.000355369
0.000257127
0.000333057
0.000202133
0.00028988
0.000126429
0.000220121
0.000128585
8.36575e-05
0.000126057
0.000118119
4.07501e-05
7.9336e-05
3.342e-05
3.51351e-05
0.000100844
0.000101639
0.000102614
0.00010453
0.000108132
0.000113085
0.000120419
0.000127147
0.000129527
0.000135465
0.000159211
0.000219645
0.000308637
0.000339386
0.000319572
0.0002801
0.000238555
0.000203068
0.00017086
0.000146181
0.000130841
0.000121752
0.000115855
0.000111756
0.000108569
0.000106475
0.000106963
0.000108825
0.000110621
0.000110485
0.000137609
0.000222588
0.000367097
0.000336439
0.000384608
0.000371071
0.00040422
0.000395358
0.000432207
0.000410231
0.000453202
0.0004132
0.000463896
0.000401286
0.000461127
0.000370836
0.000442368
0.000316375
0.000402884
0.000230777
0.000335141
0.000233013
0.000105735
0.000225677
0.000205651
6.59659e-05
9.23677e-05
3.57591e-05
4.47487e-05
0.000102
0.000103732
0.000103978
0.000104846
0.000107807
0.000112757
0.000120041
0.000126868
0.000129352
0.000133905
0.000153049
0.000204332
0.0003031
0.000352488
0.000337748
0.000298397
0.000252248
0.000214632
0.000181771
0.00015525
0.000138197
0.000127972
0.000121571
0.000116619
0.000112632
0.00010922
0.000108053
0.000108787
0.000109324
0.000110842
0.000155051
0.000264777
0.00041449
0.000478973
0.00050099
0.000433918
0.000458987
0.000464389
0.000493231
0.000490527
0.000522986
0.000507858
0.000546351
0.000513603
0.000559493
0.000504929
0.000559427
0.000478409
0.000543902
0.000428468
0.000508752
0.000346142
0.000446494
0.000348905
0.000173253
0.000341118
0.000319952
8.01168e-05
0.000139418
4.73446e-05
7.03846e-05
0.000104954
0.000111843
0.000111394
0.000109169
0.000109378
0.000113233
0.000119968
0.000126827
0.000129296
0.000132921
0.000148132
0.000193018
0.000296585
0.000362299
0.000355805
0.000319511
0.000267536
0.000226614
0.000192733
0.000164973
0.000146378
0.000135655
0.000128652
0.000123178
0.000117158
0.000112408
0.000108844
0.00010787
0.00010831
0.000114231
0.000178192
0.000305146
0.000448715
0.000516908
0.000534
0.000558837
0.000576181
0.000518358
0.000539893
0.000551459
0.000577016
0.000579889
0.00060916
0.000599277
0.000634045
0.000606941
0.000648147
0.000600514
0.000649115
0.00057726
0.000635412
0.000532289
0.000603953
0.000457022
0.000548142
0.000459099
0.000283048
0.000450415
0.000428069
0.000106625
0.00022968
6.56803e-05
7.74048e-05
0.000108435
0.000127773
0.000131663
0.000125348
0.000118303
0.000116713
0.000121063
0.000127323
0.000129523
0.000132471
0.000144541
0.000183779
0.000285671
0.000368589
0.000375194
0.000342871
0.00028483
0.000239166
0.000203707
0.000174844
0.000155454
0.000144271
0.000137569
0.000130056
0.000122168
0.000114854
0.000110064
0.00010776
0.000107631
0.000129343
0.000214828
0.000342654
0.000474869
0.000548134
0.000553177
0.000591676
0.000605501
0.000635941
0.00065184
0.000599691
0.000618964
0.0006349
0.000658064
0.000664139
0.000690136
0.000683215
0.000713253
0.000690381
0.000724768
0.000684156
0.000723974
0.000662904
0.000710399
0.000622875
0.00068217
0.000556572
0.000634138
0.000556585
0.00039057
0.000546164
0.000523385
0.000167533
0.000334725
4.39937e-05
0.000107265
0.000107692
0.000139128
0.00015851
0.000159395
0.000143297
0.000129907
0.000126157
0.000129135
0.000130402
0.000132108
0.00014204
0.000176763
0.000268407
0.00037027
0.000394922
0.000366026
0.000305584
0.000252628
0.00021463
0.000184705
0.000164377
0.000154063
0.000147614
0.000138839
0.000127935
0.000119811
0.000114425
0.000114579
0.000127235
0.000174818
0.000260675
0.000379059
0.000497378
0.00061114
0.000617833
0.000636519
0.000665908
0.000678289
0.000710434
0.000724348
0.000678137
0.000695042
0.00071271
0.000732312
0.000738243
0.000759157
0.000752303
0.000774802
0.00075558
0.000778961
0.00074726
0.000773329
0.000726983
0.000758931
0.000692972
0.000734356
0.00063815
0.000696439
0.000634658
0.000486131
0.000622304
0.000599722
0.000255197
0.000429376
6.28787e-05
0.000163784
0.00011942
0.000161615
0.000184805
0.000185627
0.000162132
0.000142474
0.00013493
0.000132631
0.000132534
0.000140257
0.000170425
0.00025024
0.000367262
0.000412753
0.000389391
0.000330028
0.000268024
0.000225658
0.000194096
0.000173386
0.000163672
0.000159752
0.000154433
0.000148468
0.000149162
0.000157952
0.000175135
0.000198026
0.000240778
0.000310296
0.000410935
0.000514373
0.000627534
0.00070853
0.000716821
0.000689019
0.000699962
0.000736176
0.00074616
0.000775021
0.000784812
0.000748388
0.000762365
0.000776104
0.000790124
0.000791499
0.000802454
0.000794208
0.000799771
0.000787188
0.000789274
0.000775608
0.000754342
0.000758924
0.00074664
0.000732899
0.000747442
0.000693682
0.00072605
0.000685872
0.000563818
0.00067228
0.000650791
0.00034415
0.00050854
0.00011151
0.000227855
0.000120137
0.000174604
0.000206602
0.000208976
0.000178663
0.000150972
0.000138363
0.000134346
0.000139896
0.000164938
0.000232536
0.000360097
0.000426701
0.000412172
0.000357159
0.000286642
0.000237206
0.000203407
0.000181432
0.000173222
0.000173895
0.000180749
0.000202436
0.000236127
0.000268709
0.000278055
0.000285693
0.000308379
0.000361089
0.000440266
0.000531698
0.000642255
0.000722837
0.000728122
0.000769101
0.000774198
0.000754819
0.000762462
0.000792583
0.000798422
0.000812301
0.000813805
0.000800526
0.000807834
0.000807893
0.000811491
0.000800249
0.000798997
0.000753318
0.000713527
0.000694614
0.000643684
0.000672538
0.00060432
0.000685879
0.000604426
0.000721874
0.000630022
0.000714998
0.000685746
0.000701893
0.000618783
0.000686031
0.000670388
0.000655754
0.000421618
0.000568308
0.000147711
0.000289824
0.000117316
0.000183535
0.00022755
0.000230653
0.000183219
0.000151895
0.000139121
0.000140325
0.000161197
0.000217037
0.000351673
0.000435839
0.000433159
0.000386354
0.000308589
0.00025033
0.000212594
0.000189328
0.000181278
0.000187837
0.000214036
0.000264745
0.000336839
0.000371856
0.000366296
0.000357653
0.000366817
0.000404265
0.000461774
0.000547886
0.000659884
0.000767076
0.00077947
0.000786159
0.000803002
0.000803127
0.000801418
0.000802609
0.000813467
0.000812286
0.000809012
0.000807222
0.000811853
0.000810677
0.000783467
0.000764418
0.000678961
0.000651697
0.000599527
0.000560146
0.000545977
0.000495494
0.000528872
0.000463279
0.000539029
0.000465944
0.000582629
0.000483819
0.000654728
0.000527725
0.000650697
0.000688851
0.000622286
0.000660579
0.000624115
0.000648343
0.000674286
0.000625606
0.000599271
0.000667283
0.000485549
0.000633484
0.000612921
0.000572051
0.000186278
0.000353908
0.000116898
0.00019632
0.000251402
0.000241738
0.00017951
0.000150068
0.000142922
0.000159285
0.000206703
0.000341708
0.000441069
0.000453739
0.00041595
0.000333382
0.000265752
0.000222311
0.000196017
0.000188397
0.000199613
0.000244029
0.000333249
0.000431807
0.000452314
0.00043128
0.000409928
0.000410684
0.000431147
0.000475758
0.000560979
0.000678556
0.000774039
0.000802133
0.00079978
0.000803662
0.000803991
0.000807715
0.00080575
0.000810615
0.000809303
0.000805504
0.000803127
0.000746449
0.000749944
0.000752195
0.000746519
0.000628199
0.000608333
0.000526488
0.000500016
0.000452111
0.000416282
0.000406979
0.000361524
0.000395373
0.000338823
0.000396296
0.000388517
0.000330989
0.000517909
0.000422839
0.000337374
0.000412569
0.000493967
0.000621348
0.000502067
0.000478862
0.000592164
0.000659317
0.000649894
0.000659631
0.000605538
0.000595699
0.000654608
0.000586534
0.000486005
0.000550176
0.000637453
0.000620418
0.000234912
0.000505111
0.000445386
0.000362948
0.000118228
0.0002197
0.000278754
0.000237695
0.000170614
0.000150818
0.000159354
0.000200026
0.000328918
0.000442868
0.000472805
0.000442727
0.000361726
0.000283525
0.000232945
0.000202848
0.00019285
0.000207478
0.000265764
0.000393645
0.000500354
0.000506833
0.000479978
0.000446651
0.000432755
0.000444158
0.000489363
0.000573063
0.000688959
0.000778103
0.000799141
0.000796752
0.000789396
0.000803441
0.000800486
0.000786322
0.000778193
0.000799547
0.000793651
0.000758881
0.000759597
0.000589676
0.000594776
0.000595193
0.000588749
0.000478347
0.000461388
0.000389111
0.000368733
0.000325487
0.000299204
0.00029434
0.000263739
0.000328809
0.000280082
0.000283045
0.00024993
0.000334267
0.000279643
0.000288625
0.000294952
0.000421846
0.000375308
0.000303263
0.000335014
0.000463672
0.000520543
0.000457551
0.000409134
0.000521542
0.000649304
0.000643193
0.00061698
0.000533646
0.000542012
0.000634833
0.000597144
0.000565383
0.000634582
0.000621692
0.000385215
0.000229358
0.000312419
0.000523581
0.000471242
0.000123685
0.000260776
0.000286259
0.00021627
0.000165777
0.00016248
0.000196186
0.000316659
0.000441849
0.000489389
0.000467221
0.000393017
0.000304674
0.000244664
0.000209361
0.000197468
0.000210243
0.000277074
0.000437339
0.000549492
0.00054987
0.000519603
0.000470831
0.000447274
0.000458827
0.000498637
0.000582621
0.000696614
0.000776654
0.00079187
0.00072977
0.000722452
0.000752773
0.000741814
0.00076982
0.000761274
0.000726437
0.000713918
0.000749389
0.00073829
0.000609039
0.000624607
0.000450481
0.000458134
0.000451675
0.000449602
0.000353488
0.000343008
0.000285096
0.000280456
0.000249902
0.000253701
0.000260043
0.000240886
0.000260398
0.000254223
0.000271823
0.000260509
0.000254419
0.000256145
0.000281714
0.000270191
0.000278591
0.000261181
0.000358738
0.0003218
0.000278047
0.00029262
0.000402447
0.000451399
0.0003949
0.00034903
0.000453905
0.000631598
0.000628552
0.00055954
0.000463614
0.000476957
0.000588342
0.000602501
0.000575174
0.000624013
0.000616461
0.000410042
0.000245422
0.000335791
0.00053809
0.000490148
0.000151151
0.000304685
0.000273564
0.000188642
0.000172224
0.000195848
0.000306323
0.000439142
0.000503432
0.000489552
0.000425343
0.000329051
0.0002586
0.000216407
0.000199616
0.000210482
0.000279237
0.000460015
0.000581754
0.000582364
0.000539716
0.0004926
0.000463921
0.000471039
0.000510161
0.000588294
0.00069961
0.000768928
0.000779802
0.000658807
0.000640305
0.000615937
0.000672987
0.000657232
0.000700882
0.00068722
0.000635392
0.000620203
0.000645426
0.000649013
0.000473899
0.000493626
0.000347867
0.000360341
0.000339029
0.000341823
0.000283673
0.000291086
0.000272758
0.000290648
0.000279747
0.000283845
0.000284848
0.000281317
0.000263403
0.000276538
0.000287168
0.000280289
0.000258811
0.000265412
0.000274381
0.000291698
0.000273372
0.000268992
0.000282627
0.000269653
0.000311678
0.000288949
0.00028664
0.000280204
0.000344076
0.00039101
0.000342328
0.000307019
0.000394553
0.000609631
0.000609067
0.000499123
0.000405185
0.000419862
0.000532153
0.000602866
0.000580831
0.000607656
0.000605048
0.000428981
0.000249213
0.00034878
0.000548677
0.000504182
0.000225005
0.000317897
0.000235061
0.000189357
0.0002003
0.000298544
0.000436614
0.000514625
0.000509647
0.00045676
0.000356827
0.000274451
0.000224939
0.000201991
0.000209511
0.000277125
0.000463882
0.000600429
0.000606371
0.000548121
0.00050403
0.000483881
0.000481011
0.000522117
0.000594454
0.000695636
0.000753644
0.000761754
0.000632086
0.000478658
0.000459668
0.000525038
0.000500771
0.000566013
0.000545821
0.000603478
0.000585302
0.000524789
0.000509609
0.000522574
0.000536619
0.000380092
0.000406645
0.000329322
0.000333778
0.000301262
0.000314281
0.000304915
0.00030187
0.000275482
0.000276916
0.000276264
0.00027379
0.000273768
0.00027458
0.000284033
0.000278623
0.000274893
0.000273712
0.000287886
0.000293034
0.000285914
0.000281081
0.000303749
0.000297313
0.000305899
0.000297777
0.000289511
0.000289686
0.000316712
0.00030476
0.000307604
0.000343535
0.000311997
0.000294127
0.000350947
0.000575644
0.000586403
0.000444102
0.000362138
0.000377154
0.000477177
0.000597977
0.000582817
0.000589168
0.00058988
0.000441551
0.000235842
0.000309587
0.000556053
0.000514136
0.000342467
0.000300349
0.000214718
0.000211643
0.000293939
0.000434598
0.000523524
0.000526595
0.000487015
0.000386297
0.000293804
0.000233958
0.000204743
0.000205559
0.000267323
0.000458957
0.000608148
0.000621132
0.000553237
0.000505914
0.000495241
0.000499751
0.000532523
0.000603056
0.000685375
0.000734156
0.000736497
0.000592693
0.00035141
0.000350965
0.000318195
0.000404157
0.000378243
0.000449755
0.000427493
0.00049147
0.000471215
0.00040715
0.000399554
0.000410786
0.000410405
0.000328687
0.000322991
0.000290223
0.000286103
0.000297832
0.000294293
0.000282464
0.000289569
0.000289647
0.000294735
0.000305431
0.000300002
0.000274457
0.000276714
0.000280109
0.000284397
0.00027824
0.000278325
0.000280437
0.000284062
0.000291026
0.000285845
0.00028345
0.000284312
0.000307224
0.000298506
0.000300669
0.00029248
0.000302743
0.000324795
0.000310242
0.000317974
0.000302574
0.000317744
0.000311948
0.000316715
0.00032675
0.000522898
0.000561412
0.000399122
0.000337217
0.000350743
0.000429994
0.000588653
0.000581146
0.000568899
0.000574111
0.000445614
0.000203077
0.000276648
0.000560957
0.000518841
0.000358802
0.000260829
0.000228629
0.000292289
0.000436238
0.000530683
0.000543258
0.000513205
0.000416472
0.00031521
0.000245646
0.000207723
0.00020164
0.00024972
0.000440263
0.00060839
0.000628933
0.000561072
0.000499456
0.000494778
0.000510804
0.000552122
0.000607367
0.000671364
0.000711872
0.000703697
0.000548484
0.000310717
0.000233553
0.000214413
0.000268593
0.000245599
0.000310625
0.000290073
0.000350312
0.000330776
0.000385776
0.000368721
0.000302576
0.000297884
0.000316726
0.000309764
0.000280565
0.00027432
0.000297489
0.00029402
0.000294809
0.000297176
0.000310573
0.000316625
0.000334388
0.000313125
0.00031966
0.000331956
0.000326034
0.000288812
0.000294321
0.000300396
0.000306735
0.000287038
0.000291304
0.000296618
0.000302595
0.000289035
0.000290196
0.000293027
0.000297168
0.000302762
0.000295085
0.000300339
0.000295394
0.000331583
0.000321046
0.000306081
0.000312859
0.000330548
0.000320285
0.000341794
0.000334377
0.000328378
0.000472184
0.000527613
0.000369568
0.000335628
0.000345251
0.000395405
0.000577292
0.0005764
0.00054766
0.000558249
0.000381983
0.000162685
0.000254075
0.000562329
0.000507194
0.000354057
0.00026376
0.000294708
0.000438312
0.000538974
0.000558104
0.00053607
0.000447369
0.000339397
0.000258423
0.000212651
0.000198621
0.000231434
0.000398106
0.00060407
0.000632801
0.000568578
0.000482207
0.00048112
0.000506471
0.000549779
0.000600977
0.000646135
0.000685019
0.000662608
0.000499043
0.000278473
0.000184009
0.000198127
0.00018371
0.000227805
0.000211865
0.000258373
0.000243325
0.000283794
0.000272106
0.000296254
0.0002926
0.00025168
0.000241847
0.000267392
0.00026002
0.000286189
0.000273292
0.000354691
0.000352739
0.000345855
0.000351767
0.000336978
0.000339454
0.000373626
0.00037991
0.000335261
0.000341832
0.000354679
0.000348308
0.000308937
0.000315452
0.000322104
0.000328722
0.000302261
0.000307876
0.000313755
0.00031972
0.000297947
0.000301572
0.00030592
0.000310624
0.000305924
0.000302042
0.000307317
0.00030475
0.000324859
0.000315157
0.000309921
0.000310283
0.000338174
0.00035047
0.000342748
0.000328199
0.000356422
0.000430616
0.000475948
0.000357479
0.000359242
0.000359577
0.000373012
0.000566157
0.000569469
0.000526571
0.00054175
0.000332844
0.000121804
0.000223981
0.000559436
0.000432871
0.000344872
0.000309304
0.000441709
0.000546361
0.000572901
0.00055554
0.00047823
0.000364772
0.000274106
0.000218993
0.000196971
0.00021401
0.000349517
0.000589959
0.000634054
0.000577281
0.000483104
0.000439934
0.000465195
0.000520462
0.000570489
0.000613506
0.000641881
0.000603964
0.000438798
0.000251446
0.000171731
0.000170232
0.00016134
0.000185677
0.000175854
0.000207659
0.000196521
0.000226884
0.000218151
0.000233557
0.000232865
0.000233077
0.000230362
0.000222946
0.00020984
0.000257287
0.00023977
0.000344918
0.000328146
0.000414498
0.000417472
0.000385429
0.00039149
0.000407538
0.000360915
0.000367096
0.000384456
0.000390739
0.000348775
0.000354586
0.00036633
0.000360428
0.000325638
0.000331479
0.000337297
0.000343046
0.000315472
0.000320291
0.000325004
0.000329596
0.000308087
0.000311567
0.000315031
0.000318351
0.000310507
0.000309358
0.000310962
0.000311409
0.000317766
0.000313631
0.000311113
0.0003123
0.000331548
0.000348143
0.00033536
0.000320189
0.000354188
0.000396917
0.00042903
0.000356989
0.000360516
0.000367213
0.000359481
0.000554115
0.000561628
0.000466741
0.000496531
0.000294145
7.86008e-05