/*--------------------------------*- C++ -*----------------------------------*\
  =========                 |
  \\      /  F ield         | OpenFOAM: The Open Source CFD Toolbox
   \\    /   O peration     | Website:  https://openfoam.org
    \\  /    A nd           | Version:  dev
     \\/     M anipulation  |
\*---------------------------------------------------------------------------*/
FoamFile
{
    version     2.0;
    format      ascii;
    class       volScalarField;
    location    "2500";
    object      O2;
}
// * * * * * * * * * * * * * * * * * * * * * * * * * * * * * * * * * * * * * //

dimensions      [0 0 0 0 0 0 0];

internalField   nonuniform List<scalar> 
9851
(
0.23301
0.23301
0.23301
0.23301
0.23301
0.23301
0.23301
0.23301
0.23301
0.23301
0.23301
0.23301
0.23301
0.23301
0.23301
0.23301
0.23301
0.23301
0.23301
0.23301
0.23301
0.23301
0.23301
0.23301
0.23301
0.23301
0.23301
0.23301
0.23301
0.23301
0.23301
0.23301
0.23301
0.23301
0.23301
0.23301
0.23301
0.23301
0.23301
0.23301
0.23301
0.23301
0.23301
0.23301
0.23301
0.23301
0.23301
0.23301
0.23301
0.23301
0.23301
0.23301
0.23301
0.23301
0.23301
0.23301
0.23301
0.23301
0.23301
0.23301
0.23301
0.23301
0.23301
0.23301
0.23301
0.23301
0.23301
0.23301
0.23301
0.23301
0.23301
0.23301
0.23301
0.23301
0.23301
0.23301
0.23301
0.23301
0.23301
0.23301
0.23301
0.23301
0.23301
0.23301
0.23301
0.23301
0.23301
0.23301
0.23301
0.23301
0.23301
0.23301
0.23301
0.23301
0.23301
0.23301
0.23301
0.23301
0.23301
0.23301
0.23301
0.23301
0.23301
0.23301
0.23301
0.23301
0.23301
0.23301
0.23301
0.23301
0.23301
0.23301
0.23301
0.23301
0.23301
0.23301
0.23301
0.23301
0.23301
0.23301
0.23301
0.23301
0.23301
0.23301
0.23301
0.23301
0.23301
0.23301
0.23301
0.23301
0.23301
0.23301
0.23301
0.23301
0.23301
0.23301
0.23301
0.23301
0.23301
0.23301
0.23301
0.23301
0.23301
0.23301
0.23301
0.23301
0.23301
0.23301
0.23301
0.23301
0.23301
0.23301
0.23301
0.23301
0.23301
0.23301
0.23301
0.23301
0.23301
0.23301
0.23301
0.23301
0.23301
0.23301
0.23301
0.23301
0.23301
0.23301
0.23301
0.23301
0.23301
0.23301
0.23301
0.23301
0.23301
0.23301
0.23301
0.23301
0.23301
0.23301
0.23301
0.23301
0.23301
0.23301
0.23301
0.23301
0.23301
0.23301
0.23301
0.23301
0.23301
0.23301
0.23301
0.23301
0.23301
0.23301
0.23301
0.23301
0.23301
0.23301
0.23301
0.23301
0.23301
0.23301
0.23301
0.23301
0.23301
0.23301
0.23301
0.23301
0.23301
0.23301
0.23301
0.23301
0.23301
0.23301
0.23301
0.23301
0.23301
0.23301
0.23301
0.23301
0.23301
0.23301
0.23301
0.23301
0.23301
0.23301
0.23301
0.23301
0.23301
0.23301
0.23301
0.23301
0.23301
0.23301
0.23301
0.23301
0.23301
0.23301
0.23301
0.23301
0.23301
0.23301
0.23301
0.23301
0.23301
0.23301
0.23301
0.23301
0.23301
0.23301
0.23301
0.23301
0.23301
0.23301
0.23301
0.23301
0.23301
0.23301
0.23301
0.23301
0.23301
0.23301
0.23301
0.23301
0.23301
0.23301
0.23301
0.23301
0.23301
0.23301
0.23301
0.23301
0.23301
0.23301
0.23301
0.23301
0.23301
0.23301
0.23301
0.23301
0.23301
0.23301
0.23301
0.23301
0.23301
0.23301
0.23301
0.23301
0.23301
0.23301
0.23301
0.23301
0.23301
0.23301
0.23301
0.23301
0.23301
0.23301
0.23301
0.23301
0.23301
0.23301
0.23301
0.23301
0.23301
0.23301
0.23301
0.23301
0.23301
0.23301
0.23301
0.23301
0.23301
0.23301
0.23301
0.23301
0.23301
0.23301
0.23301
0.23301
0.23301
0.23301
0.23301
0.23301
0.23301
0.23301
0.23301
0.23301
0.23301
0.23301
0.23301
0.23301
0.23301
0.23301
0.23301
0.23301
0.23301
0.23301
0.23301
0.23301
0.23301
0.23301
0.23301
0.23301
0.23301
0.23301
0.23301
0.23301
0.23301
0.23301
0.23301
0.23301
0.23301
0.23301
0.23301
0.23301
0.23301
0.23301
0.23301
0.23301
0.23301
0.23301
0.23301
0.23301
0.23301
0.23301
0.23301
0.23301
0.23301
0.23301
0.23301
0.23301
0.23301
0.23301
0.23301
0.23301
0.23301
0.23301
0.23301
0.23301
0.23301
0.23301
0.23301
0.23301
0.23301
0.23301
0.23301
0.23301
0.23301
0.23301
0.23301
0.23301
0.23301
0.23301
0.23301
0.23301
0.23301
0.23301
0.23301
0.23301
0.23301
0.23301
0.23301
0.23301
0.23301
0.23301
0.23301
0.23301
0.23301
0.23301
0.23301
0.23301
0.23301
0.23301
0.23301
0.23301
0.23301
0.23301
0.23301
0.23301
0.23301
0.23301
0.23301
0.23301
0.23301
0.23301
0.23301
0.23301
0.23301
0.23301
0.23301
0.23301
0.23301
0.23301
0.23301
0.23301
0.23301
0.23301
0.23301
0.23301
0.23301
0.23301
0.23301
0.23301
0.23301
0.23301
0.23301
0.23301
0.23301
0.23301
0.23301
0.23301
0.23301
0.23301
0.23301
0.23301
0.23301
0.23301
0.23301
0.23301
0.23301
0.23301
0.23301
0.23301
0.23301
0.23301
0.23301
0.23301
0.23301
0.23301
0.23301
0.23301
0.23301
0.23301
0.23301
0.23301
0.23301
0.23301
0.23301
0.23301
0.23301
0.23301
0.23301
0.23301
0.23301
0.23301
0.23301
0.23301
0.23301
0.23301
0.23301
0.23301
0.23301
0.23301
0.23301
0.23301
0.23301
0.23301
0.23301
0.23301
0.23301
0.23301
0.23301
0.23301
0.23301
0.23301
0.23301
0.23301
0.23301
0.23301
0.23301
0.23301
0.23301
0.23301
0.23301
0.23301
0.23301
0.23301
0.23301
0.23301
0.23301
0.23301
0.23301
0.23301
0.23301
0.23301
0.23301
0.23301
0.23301
0.23301
0.23301
0.23301
0.23301
0.23301
0.23301
0.23301
0.23301
0.23301
0.23301
0.23301
0.23301
0.23301
0.23301
0.23301
0.23301
0.23301
0.23301
0.23301
0.23301
0.23301
0.23301
0.23301
0.23301
0.23301
0.23301
0.23301
0.23301
0.23301
0.23301
0.23301
0.23301
0.23301
0.23301
0.23301
0.23301
0.23301
0.23301
0.23301
0.23301
0.23301
0.23301
0.23301
0.23301
0.23301
0.23301
0.23301
0.23301
0.23301
0.23301
0.23301
0.23301
0.23301
0.23301
0.23301
0.23301
0.23301
0.23301
0.23301
0.23301
0.23301
0.23301
0.23301
0.23301
0.23301
0.23301
0.23301
0.23301
0.23301
0.23301
0.23301
0.23301
0.23301
0.23301
0.23301
0.23301
0.23301
0.23301
0.23301
0.23301
0.23301
0.23301
0.23301
0.23301
0.23301
0.23301
0.23301
0.23301
0.23301
0.23301
0.23301
0.23301
0.23301
0.23301
0.23301
0.23301
0.23301
0.23301
0.23301
0.23301
0.23301
0.23301
0.23301
0.23301
0.23301
0.23301
0.23301
0.23301
0.23301
0.23301
0.23301
0.23301
0.23301
0.23301
0.23301
0.23301
0.23301
0.23301
0.23301
0.23301
0.23301
0.23301
0.23301
0.23301
0.23301
0.23301
0.23301
0.23301
0.23301
0.23301
0.23301
0.23301
0.23301
0.23301
0.23301
0.23301
0.23301
0.23301
0.23301
0.23301
0.23301
0.23301
0.23301
0.23301
0.23301
0.23301
0.23301
0.23301
0.23301
0.23301
0.23301
0.23301
0.23301
0.23301
0.23301
0.23301
0.23301
0.23301
0.23301
0.23301
0.23301
0.23301
0.23301
0.23301
0.23301
0.23301
0.23301
0.23301
0.23301
0.23301
0.23301
0.23301
0.23301
0.23301
0.23301
0.23301
0.23301
0.23301
0.23301
0.23301
0.23301
0.23301
0.23301
0.23301
0.23301
0.23301
0.23301
0.23301
0.23301
0.23301
0.23301
0.23301
0.23301
0.23301
0.23301
0.23301
0.23301
0.23301
0.23301
0.23301
0.23301
0.23301
0.23301
0.23301
0.23301
0.23301
0.23301
0.23301
0.23301
0.23301
0.23301
0.23301
0.23301
0.23301
0.23301
0.23301
0.23301
0.23301
0.23301
0.23301
0.23301
0.23301
0.23301
0.23301
0.23301
0.23301
0.23301
0.23301
0.23301
0.23301
0.23301
0.23301
0.23301
0.23301
0.23301
0.23301
0.23301
0.23301
0.23301
0.23301
0.23301
0.23301
0.23301
0.23301
0.23301
0.23301
0.23301
0.23301
0.23301
0.23301
0.23301
0.23301
0.23301
0.23301
0.23301
0.23301
0.23301
0.23301
0.23301
0.23301
0.23301
0.23301
0.23301
0.23301
0.23301
0.23301
0.23301
0.23301
0.23301
0.23301
0.23301
0.23301
0.23301
0.23301
0.23301
0.23301
0.23301
0.23301
0.23301
0.23301
0.23301
0.23301
0.23301
0.23301
0.23301
0.23301
0.23301
0.23301
0.23301
0.23301
0.23301
0.23301
0.23301
0.23301
0.23301
0.23301
0.23301
0.23301
0.23301
0.23301
0.23301
0.23301
0.23301
0.23301
0.23301
0.23301
0.233009
0.233009
0.233009
0.23301
0.233009
0.23301
0.233009
0.23301
0.23301
0.23301
0.23301
0.23301
0.23301
0.23301
0.23301
0.23301
0.23301
0.23301
0.23301
0.23301
0.23301
0.23301
0.23301
0.23301
0.23301
0.23301
0.23301
0.23301
0.23301
0.23301
0.23301
0.23301
0.23301
0.23301
0.23301
0.23301
0.23301
0.23301
0.23301
0.23301
0.23301
0.23301
0.23301
0.23301
0.23301
0.23301
0.23301
0.233009
0.233007
0.233007
0.233002
0.233007
0.233003
0.233008
0.233005
0.233009
0.233007
0.23301
0.233009
0.23301
0.23301
0.23301
0.23301
0.23301
0.23301
0.23301
0.23301
0.23301
0.23301
0.23301
0.23301
0.23301
0.23301
0.23301
0.23301
0.23301
0.23301
0.23301
0.23301
0.23301
0.23301
0.23301
0.23301
0.23301
0.23301
0.23301
0.23301
0.23301
0.23301
0.23301
0.23301
0.23301
0.23301
0.23301
0.23301
0.23301
0.233009
0.233007
0.232999
0.232995
0.232978
0.232994
0.232976
0.232997
0.232978
0.233001
0.232986
0.233005
0.232995
0.233008
0.233003
0.233008
0.23301
0.233008
0.233008
0.23301
0.23301
0.23301
0.23301
0.23301
0.23301
0.23301
0.23301
0.23301
0.23301
0.23301
0.23301
0.23301
0.23301
0.23301
0.23301
0.23301
0.23301
0.23301
0.23301
0.23301
0.23301
0.23301
0.23301
0.23301
0.23301
0.23301
0.23301
0.23301
0.23301
0.23301
0.23301
0.23301
0.233009
0.233004
0.23298
0.232957
0.232922
0.232944
0.2329
0.232942
0.232886
0.232953
0.23289
0.232969
0.232914
0.232988
0.232949
0.233001
0.232981
0.233
0.233008
0.233
0.233001
0.23301
0.233009
0.23301
0.23301
0.23301
0.23301
0.23301
0.23301
0.23301
0.23301
0.23301
0.23301
0.23301
0.23301
0.23301
0.23301
0.23301
0.23301
0.23301
0.23301
0.23301
0.23301
0.23301
0.23301
0.23301
0.23301
0.23301
0.23301
0.23301
0.23301
0.23301
0.23301
0.23301
0.233008
0.232997
0.232955
0.232887
0.232842
0.232846
0.232787
0.232817
0.232741
0.232807
0.232713
0.232822
0.232713
0.232865
0.232745
0.232926
0.232812
0.232975
0.232905
0.232971
0.233003
0.232971
0.232975
0.233009
0.233006
0.23301
0.23301
0.23301
0.23301
0.23301
0.23301
0.23301
0.23301
0.23301
0.23301
0.23301
0.23301
0.23301
0.23301
0.23301
0.23301
0.23301
0.23301
0.23301
0.23301
0.23301
0.23301
0.23301
0.23301
0.23301
0.23301
0.23301
0.23301
0.23301
0.23301
0.233009
0.233006
0.232986
0.232905
0.232793
0.232774
0.232729
0.232666
0.232664
0.23259
0.232618
0.232526
0.232598
0.232486
0.232612
0.23248
0.232665
0.232513
0.232761
0.232591
0.232888
0.23272
0.23288
0.232983
0.232882
0.232897
0.233008
0.232993
0.23301
0.233009
0.23301
0.23301
0.23301
0.23301
0.23301
0.23301
0.23301
0.23301
0.23301
0.23301
0.23301
0.23301
0.23301
0.23301
0.23301
0.23301
0.23301
0.23301
0.23301
0.23301
0.23301
0.23301
0.23301
0.23301
0.23301
0.23301
0.23301
0.233009
0.233009
0.233004
0.232972
0.232852
0.232587
0.23262
0.23253
0.23252
0.232453
0.23244
0.232361
0.232383
0.232288
0.232357
0.232244
0.232368
0.232235
0.232422
0.232265
0.232528
0.232344
0.232693
0.232482
0.232683
0.232923
0.232694
0.232729
0.233001
0.232952
0.23301
0.233006
0.23301
0.23301
0.23301
0.23301
0.23301
0.23301
0.23301
0.23301
0.23301
0.23301
0.23301
0.23301
0.23301
0.23301
0.23301
0.23301
0.23301
0.23301
0.23301
0.23301
0.23301
0.23301
0.23301
0.23301
0.23301
0.23301
0.233009
0.233009
0.233007
0.233
0.232956
0.232804
0.232509
0.232295
0.232248
0.232395
0.232339
0.232291
0.232226
0.232204
0.232131
0.232145
0.232059
0.232118
0.232016
0.232126
0.232008
0.232178
0.232035
0.232282
0.232107
0.232454
0.232239
0.232445
0.232787
0.232459
0.232502
0.232978
0.232852
0.233009
0.232997
0.23301
0.23301
0.23301
0.23301
0.23301
0.23301
0.23301
0.23301
0.23301
0.23301
0.23301
0.23301
0.23301
0.23301
0.23301
0.23301
0.23301
0.23301
0.23301
0.23301
0.23301
0.23301
0.23301
0.23301
0.233009
0.233009
0.233008
0.233006
0.233003
0.232992
0.232935
0.232759
0.23245
0.232212
0.232177
0.232079
0.232042
0.23217
0.232121
0.232067
0.232011
0.231986
0.231926
0.231933
0.231863
0.231909
0.23183
0.231916
0.231824
0.231962
0.231847
0.232054
0.231906
0.232216
0.232022
0.232212
0.232577
0.232233
0.232284
0.232919
0.232682
0.233007
0.232972
0.23301
0.23301
0.23301
0.23301
0.23301
0.23301
0.23301
0.23301
0.23301
0.23301
0.23301
0.23301
0.23301
0.23301
0.23301
0.23301
0.23301
0.23301
0.23301
0.23301
0.23301
0.23301
0.23301
0.233009
0.233008
0.233005
0.233003
0.233
0.232994
0.232978
0.232906
0.232715
0.232397
0.232145
0.232142
0.232011
0.231983
0.231893
0.231866
0.231964
0.231925
0.231875
0.231832
0.231809
0.231768
0.231772
0.231733
0.231759
0.23172
0.231767
0.231721
0.231799
0.231736
0.231872
0.231773
0.232008
0.231855
0.232013
0.232365
0.23204
0.232093
0.232802
0.232483
0.233001
0.232917
0.23301
0.23301
0.23301
0.23301
0.23301
0.23301
0.23301
0.23301
0.23301
0.23301
0.23301
0.23301
0.23301
0.23301
0.23301
0.23301
0.23301
0.23301
0.23301
0.23301
0.23301
0.23301
0.233009
0.233007
0.233002
0.232995
0.232988
0.232981
0.232973
0.232948
0.232867
0.23267
0.23235
0.231999
0.231963
0.231921
0.231843
0.231825
0.231754
0.231738
0.231799
0.231774
0.231739
0.231717
0.231708
0.231692
0.231697
0.231685
0.231697
0.231686
0.231705
0.231692
0.231723
0.231702
0.231763
0.231722
0.231853
0.231764
0.231866
0.232177
0.231897
0.231947
0.232643
0.232302
0.232986
0.232825
0.23301
0.23301
0.23301
0.23301
0.23301
0.23301
0.23301
0.23301
0.23301
0.23301
0.23301
0.23301
0.23301
0.23301
0.23301
0.23301
0.23301
0.23301
0.23301
0.23301
0.233009
0.233007
0.233001
0.232987
0.232966
0.232946
0.232933
0.232923
0.232899
0.232817
0.232621
0.232308
0.231969
0.231791
0.231785
0.231811
0.231797
0.231728
0.23172
0.231685
0.231681
0.231702
0.231692
0.231681
0.231675
0.231678
0.231675
0.231684
0.231688
0.231694
0.231707
0.231703
0.231723
0.231712
0.231731
0.231729
0.231733
0.231773
0.231742
0.231792
0.232026
0.231819
0.231859
0.232483
0.232151
0.232938
0.232707
0.23301
0.23301
0.23301
0.23301
0.23301
0.23301
0.23301
0.23301
0.23301
0.23301
0.23301
0.23301
0.23301
0.23301
0.23301
0.23301
0.23301
0.23301
0.23301
0.233009
0.233005
0.23299
0.232957
0.232909
0.232868
0.232849
0.232847
0.232832
0.232757
0.232564
0.232258
0.231941
0.231782
0.231784
0.231714
0.231716
0.231716
0.231714
0.231679
0.231679
0.231669
0.23167
0.231671
0.231669
0.231675
0.231678
0.231697
0.23171
0.231731
0.231758
0.231759
0.231806
0.231774
0.231836
0.231774
0.231842
0.231762
0.231825
0.231762
0.231791
0.231783
0.231925
0.231805
0.231828
0.231852
0.232335
0.232035
0.232885
0.232591
0.23301
0.23301
0.23301
0.23301
0.23301
0.23301
0.23301
0.23301
0.23301
0.23301
0.23301
0.23301
0.23301
0.23301
0.23301
0.23301
0.23301
0.23301
0.233009
0.233002
0.232977
0.232919
0.23284
0.232776
0.232748
0.232748
0.232745
0.232682
0.232501
0.232203
0.231914
0.231761
0.23172
0.231721
0.231689
0.231696
0.231682
0.231685
0.231673
0.231678
0.231696
0.231705
0.231682
0.231688
0.231724
0.231739
0.231787
0.231815
0.231857
0.231908
0.231911
0.231993
0.231934
0.23204
0.231923
0.232042
0.231876
0.232005
0.231819
0.231918
0.231858
0.231809
0.23184
0.231845
0.231917
0.231866
0.231825
0.231849
0.231846
0.231834
0.23221
0.231897
0.231939
0.23203
0.23282
0.23247
0.23301
0.23301
0.23301
0.23301
0.23301
0.23301
0.23301
0.23301
0.23301
0.23301
0.23301
0.23301
0.23301
0.23301
0.23301
0.23301
0.23301
0.233009
0.233001
0.232965
0.232881
0.232769
0.232678
0.232632
0.23263
0.232638
0.232591
0.232427
0.232148
0.231898
0.231774
0.231729
0.231747
0.231705
0.231714
0.231703
0.231715
0.231685
0.231693
0.231715
0.231726
0.231782
0.231796
0.231753
0.231767
0.231842
0.231867
0.231957
0.232
0.232073
0.232145
0.232152
0.232263
0.232178
0.23231
0.23216
0.232195
0.232276
0.231984
0.232063
0.232224
0.232142
0.231937
0.231883
0.231949
0.232009
0.23189
0.231846
0.231861
0.231849
0.231888
0.231891
0.231851
0.231998
0.232213
0.232075
0.231884
0.231918
0.232732
0.232171
0.232292
0.232469
0.23301
0.23301
0.23301
0.23301
0.23301
0.23301
0.23301
0.23301
0.23301
0.23301
0.23301
0.23301
0.23301
0.23301
0.23301
0.23301
0.233009
0.233
0.232957
0.232849
0.232706
0.232583
0.23251
0.232494
0.232507
0.232479
0.232339
0.232089
0.23189
0.231798
0.231793
0.231765
0.231795
0.231729
0.231746
0.231766
0.231782
0.231738
0.231751
0.231811
0.231826
0.231934
0.231953
0.231891
0.231913
0.23204
0.232077
0.232212
0.232268
0.232361
0.232431
0.232426
0.232505
0.232341
0.232401
0.232448
0.232486
0.2323
0.232366
0.232337
0.232391
0.232088
0.232174
0.232327
0.232254
0.232025
0.231952
0.232032
0.232108
0.231952
0.231856
0.231866
0.231882
0.231946
0.231936
0.231877
0.231969
0.232039
0.231882
0.231907
0.232419
0.232727
0.232573
0.23213
0.232243
0.23301
0.23301
0.23301
0.23301
0.23301
0.23301
0.23301
0.23301
0.23301
0.23301
0.23301
0.23301
0.23301
0.23301
0.23301
0.233009
0.233
0.232954
0.23283
0.232657
0.232504
0.2324
0.232355
0.232357
0.232343
0.232231
0.232026
0.231884
0.231823
0.231848
0.231912
0.231948
0.231846
0.231877
0.2318
0.231821
0.231877
0.231895
0.231843
0.23186
0.231971
0.231987
0.232164
0.232185
0.232109
0.232138
0.232316
0.232359
0.232473
0.232497
0.232538
0.232545
0.232509
0.232526
0.232532
0.23253
0.232439
0.232475
0.232497
0.232505
0.232382
0.232419
0.232419
0.232452
0.232192
0.232271
0.232374
0.232334
0.232117
0.23203
0.232116
0.232201
0.232022
0.231874
0.231876
0.231924
0.232009
0.231991
0.231911
0.231948
0.23201
0.231886
0.231904
0.232378
0.232699
0.232537
0.232096
0.232207
0.23301
0.23301
0.23301
0.23301
0.23301
0.23301
0.23301
0.23301
0.23301
0.23301
0.23301
0.23301
0.23301
0.23301
0.233009
0.233001
0.232955
0.232824
0.232629
0.232451
0.232318
0.232239
0.23221
0.232195
0.23211
0.231967
0.23188
0.231848
0.231912
0.232088
0.232043
0.232104
0.231967
0.232002
0.231914
0.231938
0.232036
0.232051
0.232004
0.232021
0.232201
0.232214
0.232448
0.232466
0.232393
0.232423
0.232512
0.232525
0.232537
0.232525
0.232524
0.232508
0.232487
0.232456
0.232502
0.232493
0.232469
0.232441
0.232469
0.23247
0.232461
0.232436
0.232386
0.23243
0.232385
0.232428
0.232274
0.232324
0.232343
0.232342
0.232198
0.232107
0.232186
0.232264
0.23209
0.2319
0.231893
0.231969
0.232068
0.232041
0.231947
0.231935
0.231988
0.231894
0.231906
0.232348
0.232696
0.232525
0.232069
0.232181
0.23301
0.23301
0.23301
0.23301
0.23301
0.23301
0.23301
0.23301
0.23301
0.23301
0.23301
0.23301
0.23301
0.233009
0.233003
0.232958
0.232825
0.23262
0.232422
0.232276
0.232173
0.232107
0.232063
0.231994
0.231915
0.23187
0.231871
0.231977
0.23219
0.232309
0.232366
0.2322
0.232254
0.23212
0.232157
0.232069
0.232091
0.232238
0.232245
0.232225
0.232232
0.232478
0.232484
0.232576
0.232596
0.232539
0.232554
0.232511
0.232503
0.232353
0.23227
0.232408
0.232373
0.232341
0.232325
0.232401
0.232359
0.232308
0.232251
0.232411
0.232377
0.232332
0.232276
0.232325
0.232365
0.232282
0.232324
0.232295
0.232301
0.232251
0.232292
0.232239
0.232165
0.232207
0.232258
0.232138
0.231927
0.231912
0.232011
0.232106
0.232072
0.23198
0.231929
0.231973
0.231904
0.231909
0.232332
0.232725
0.23254
0.232049
0.232164
0.23301
0.23301
0.23301
0.23301
0.23301
0.23301
0.23301
0.23301
0.23301
0.23301
0.23301
0.23301
0.23301
0.233005
0.232966
0.232833
0.232621
0.232421
0.232273
0.23216
0.232071
0.231995
0.231928
0.231882
0.231861
0.23189
0.232037
0.232289
0.232556
0.232476
0.232554
0.232369
0.232419
0.232297
0.232328
0.232257
0.232273
0.232469
0.232466
0.232483
0.232477
0.23262
0.232646
0.232524
0.232559
0.232501
0.232507
0.232198
0.232146
0.231929
0.231867
0.231755
0.231812
0.23219
0.232126
0.232059
0.231994
0.232211
0.232138
0.232059
0.231977
0.232269
0.232202
0.232124
0.232038
0.232186
0.23222
0.2321
0.232141
0.232257
0.232228
0.23208
0.232167
0.232218
0.232171
0.232177
0.232209
0.232135
0.231952
0.231929
0.232037
0.232099
0.232063
0.232001
0.231926
0.231963
0.231914
0.231912
0.232333
0.232778
0.232582
0.232035
0.232158
0.23301
0.23301
0.23301
0.23301
0.23301
0.23301
0.23301
0.23301
0.23301
0.23301
0.23301
0.23301
0.233007
0.232978
0.232855
0.232635
0.232444
0.232313
0.232192
0.232087
0.231995
0.231922
0.231878
0.231864
0.231911
0.232088
0.232379
0.232678
0.232717
0.232774
0.232618
0.232673
0.232531
0.23257
0.232482
0.232502
0.232466
0.232471
0.232696
0.232692
0.23267
0.232687
0.2326
0.232648
0.232135
0.232197
0.232119
0.232111
0.231706
0.231639
0.231424
0.231572
0.231501
0.231381
0.231436
0.231894
0.231811
0.231728
0.231648
0.231946
0.231851
0.231754
0.231657
0.232052
0.231955
0.231853
0.231748
0.231975
0.232002
0.231859
0.231894
0.23216
0.23208
0.231851
0.231972
0.23216
0.232138
0.232107
0.232092
0.2321
0.231969
0.23194
0.232029
0.232064
0.232031
0.231996
0.231924
0.231956
0.231919
0.231913
0.23235
0.232843
0.232651
0.232027
0.23216
0.23301
0.23301
0.23301
0.23301
0.23301
0.23301
0.23301
0.23301
0.23301
0.23301
0.23301
0.233008
0.232988
0.232884
0.23267
0.232491
0.23239
0.232294
0.232173
0.232052
0.231954
0.231894
0.231879
0.231946
0.232138
0.232456
0.232763
0.232871
0.232805
0.232851
0.232729
0.232765
0.232679
0.2327
0.232665
0.232668
0.232681
0.23267
0.232783
0.232818
0.232698
0.232744
0.232286
0.232401
0.231398
0.231485
0.231376
0.231369
0.231343
0.231327
0.230843
0.230804
0.231207
0.231129
0.230991
0.231057
0.231561
0.231468
0.231376
0.231289
0.23164
0.231533
0.231427
0.231323
0.231782
0.231667
0.231551
0.231436
0.23172
0.231737
0.231586
0.231613
0.231992
0.231869
0.231589
0.231732
0.232028
0.232059
0.231969
0.231911
0.232019
0.231965
0.231939
0.232
0.231985
0.231961
0.23197
0.231921
0.23195
0.231918
0.23191
0.232393
0.232908
0.232736
0.232023
0.232174
0.23301
0.23301
0.23301
0.23301
0.23301
0.23301
0.23301
0.23301
0.23301
0.23301
0.233009
0.232996
0.232914
0.232714
0.232535
0.232454
0.232409
0.232369
0.23225
0.232082
0.231971
0.231939
0.232013
0.232213
0.232544
0.232826
0.232924
0.232919
0.232944
0.232877
0.2329
0.232836
0.232855
0.23282
0.232824
0.232834
0.232824
0.232838
0.232843
0.232754
0.232828
0.232527
0.232649
0.231614
0.231795
0.230613
0.23069
0.23078
0.230747
0.230583
0.230933
0.230884
0.230518
0.230489
0.230868
0.230791
0.230659
0.230721
0.231223
0.231128
0.231035
0.230949
0.231322
0.23121
0.231102
0.230998
0.231487
0.231363
0.231241
0.231123
0.231444
0.231451
0.231301
0.231317
0.231774
0.231624
0.231314
0.231469
0.23184
0.231919
0.231781
0.23169
0.231881
0.231946
0.231924
0.231944
0.231855
0.231842
0.231927
0.231916
0.231945
0.231908
0.231901
0.23246
0.232964
0.232829
0.232023
0.232204
0.23301
0.23301
0.23301
0.23301
0.23301
0.23301
0.23301
0.23301
0.23301
0.233009
0.233002
0.232941
0.232762
0.232575
0.232501
0.232493
0.232536
0.232524
0.232402
0.232215
0.232107
0.232156
0.232356
0.232663
0.232879
0.23296
0.23298
0.232968
0.23298
0.232949
0.232959
0.232935
0.232941
0.232933
0.232933
0.232927
0.232933
0.232877
0.232908
0.232487
0.232683
0.232014
0.232255
0.230825
0.231007
0.230227
0.230251
0.230238
0.230478
0.230476
0.230209
0.230202
0.230604
0.230557
0.230253
0.230226
0.230564
0.230495
0.230377
0.230432
0.2309
0.230808
0.23072
0.230639
0.231008
0.230898
0.230794
0.230696
0.231187
0.23106
0.230938
0.230822
0.231163
0.231159
0.231016
0.231024
0.231527
0.231362
0.231039
0.231198
0.231619
0.231737
0.231565
0.231446
0.231706
0.231914
0.231902
0.231838
0.23169
0.231688
0.231843
0.231907
0.231941
0.231889
0.231887
0.232549
0.232999
0.232916
0.232027
0.232251
0.23301
0.23301
0.23301
0.23301
0.23301
0.23301
0.23301
0.23301
0.23301
0.233005
0.232963
0.23281
0.232615
0.232537
0.232544
0.232637
0.232715
0.232689
0.232565
0.232439
0.232424
0.232565
0.232783
0.232927
0.232981
0.232995
0.233
0.233003
0.232995
0.232999
0.232989
0.232992
0.232984
0.232986
0.232977
0.232982
0.232945
0.232966
0.232821
0.232903
0.231943
0.232288
0.231265
0.231592
0.230353
0.2305
0.230083
0.230118
0.230107
0.230173
0.230209
0.230202
0.230055
0.23004
0.230329
0.230288
0.23006
0.230044
0.230307
0.230248
0.230153
0.230197
0.230605
0.23052
0.230442
0.230371
0.230713
0.23061
0.230514
0.230426
0.230893
0.23077
0.230654
0.230546
0.230886
0.230874
0.230742
0.230742
0.231269
0.231096
0.230771
0.230929
0.23138
0.231525
0.231329
0.231194
0.231503
0.23185
0.23186
0.2317
0.231498
0.231511
0.231724
0.2319
0.231935
0.231863
0.231868
0.232658
0.233008
0.232977
0.232039
0.23232
0.23301
0.23301
0.23301
0.23301
0.23301
0.23301
0.23301
0.23301
0.233007
0.23298
0.232854
0.232658
0.232566
0.232571
0.232681
0.232808
0.232856
0.232809
0.232727
0.232698
0.23277
0.232885
0.232965
0.232994
0.233002
0.233007
0.233007
0.233008
0.233005
0.233006
0.233003
0.233004
0.233
0.233002
0.232985
0.232995
0.232907
0.232963
0.232579
0.232786
0.23128
0.231711
0.230682
0.230926
0.230219
0.230295
0.230386
0.23002
0.230063
0.230108
0.230169
0.230036
0.230035
0.229984
0.229957
0.230116
0.230085
0.229934
0.229931
0.230102
0.230058
0.229988
0.23002
0.230346
0.230274
0.230209
0.230152
0.230446
0.230355
0.230273
0.2302
0.230618
0.230504
0.2304
0.230307
0.230624
0.230607
0.230491
0.230485
0.23101
0.230835
0.230522
0.230671
0.23113
0.231297
0.23109
0.230938
0.231285
0.231754
0.231789
0.231539
0.231294
0.231324
0.231582
0.231885
0.231931
0.231817
0.231836
0.232779
0.23301
0.233001
0.232062
0.232408
0.23301
0.23301
0.23301
0.23301
0.23301
0.23301
0.23301
0.233009
0.232992
0.232893
0.232705
0.232591
0.232586
0.232688
0.232829
0.232921
0.23293
0.232899
0.232881
0.232906
0.232954
0.232988
0.233001
0.233005
0.233008
0.23301
0.233009
0.233009
0.233009
0.233009
0.233007
0.233008
0.233002
0.233006
0.232972
0.232994
0.232763
0.232908
0.232138
0.232505
0.230856
0.231164
0.230525
0.230666
0.230229
0.230293
0.230481
0.230418
0.230004
0.230054
0.230138
0.230213
0.229932
0.22994
0.229962
0.229927
0.229963
0.229945
0.229876
0.229878
0.229953
0.229927
0.229891
0.229906
0.230135
0.230078
0.230029
0.229988
0.230222
0.230148
0.230084
0.23003
0.230375
0.230278
0.230194
0.230122
0.23039
0.230372
0.230276
0.230268
0.230756
0.230589
0.230306
0.230438
0.230891
0.231068
0.230864
0.230706
0.23107
0.231639
0.231699
0.231368
0.231095
0.231133
0.231428
0.231867
0.231928
0.231753
0.231802
0.232888
0.23301
0.233008
0.232094
0.232526
0.23301
0.23301
0.23301
0.23301
0.23301
0.23301
0.233009
0.233
0.232925
0.232751
0.232615
0.232594
0.232684
0.232826
0.232931
0.232972
0.232973
0.232967
0.232973
0.232989
0.233001
0.233006
0.233007
0.233008
0.23301
0.23301
0.23301
0.23301
0.23301
0.23301
0.23301
0.233008
0.233009
0.232999
0.233005
0.232919
0.23298
0.232496
0.232773
0.231614
0.232089
0.23075
0.230915
0.230572
0.230646
0.230291
0.230362
0.230598
0.230556
0.230007
0.230067
0.230195
0.230292
0.229885
0.229902
0.229958
0.229919
0.229881
0.229876
0.229851
0.229857
0.229875
0.229861
0.229847
0.229852
0.229986
0.229949
0.229918
0.229894
0.23006
0.23001
0.22997
0.229936
0.23018
0.230108
0.23005
0.230003
0.230193
0.23018
0.230105
0.230101
0.230536
0.230374
0.23012
0.23023
0.23067
0.230854
0.230637
0.230479
0.230866
0.231502
0.231593
0.231189
0.230878
0.230913
0.23126
0.231845
0.231929
0.231687
0.231753
0.232954
0.23301
0.23301
0.232145
0.232647
0.23301
0.23301
0.23301
0.23301
0.23301
0.233009
0.233003
0.23295
0.232794
0.232642
0.232601
0.232671
0.232806
0.232923
0.232978
0.232995
0.232997
0.232999
0.233003
0.233006
0.233008
0.233008
0.233009
0.23301
0.23301
0.23301
0.23301
0.23301
0.23301
0.23301
0.23301
0.233007
0.233009
0.232989
0.233002
0.232816
0.232941
0.232145
0.232556
0.231203
0.231652
0.230806
0.230874
0.23079
0.230794
0.23083
0.23039
0.230481
0.230774
0.230719
0.230028
0.230106
0.230257
0.230381
0.229869
0.229889
0.229965
0.229918
0.229846
0.229847
0.229838
0.229843
0.229841
0.229832
0.229827
0.229828
0.229908
0.229885
0.229866
0.229851
0.229966
0.229936
0.229909
0.229886
0.230038
0.229989
0.229956
0.229927
0.230066
0.230035
0.230016
0.229995
0.230301
0.230169
0.230062
0.230103
0.230415
0.230612
0.230374
0.230241
0.230576
0.231358
0.231478
0.230971
0.230584
0.230625
0.231055
0.231825
0.231933
0.231592
0.231708
0.232989
0.23301
0.23301
0.232193
0.232789
0.23301
0.23301
0.23301
0.23301
0.233009
0.233004
0.232967
0.232831
0.232672
0.232609
0.232653
0.23277
0.232891
0.232974
0.232999
0.233005
0.233007
0.233008
0.233009
0.233009
0.233009
0.233009
0.23301
0.23301
0.23301
0.23301
0.23301
0.23301
0.23301
0.233009
0.23301
0.233005
0.233008
0.232966
0.232996
0.232667
0.232876
0.231805
0.232294
0.231048
0.231352
0.231037
0.230972
0.230988
0.230971
0.231064
0.23113
0.230507
0.230625
0.230969
0.2309
0.230053
0.230145
0.230315
0.230465
0.22986
0.229883
0.22998
0.229925
0.229828
0.229832
0.229831
0.229839
0.229816
0.229811
0.22981
0.229809
0.229866
0.229851
0.229837
0.229826
0.229902
0.229881
0.229864
0.22985
0.229959
0.229932
0.229907
0.229889
0.230036
0.229982
0.229979
0.229949
0.230159
0.23012
0.230025
0.230082
0.230233
0.230335
0.23024
0.230182
0.230357
0.231176
0.231324
0.230682
0.2304
0.23045
0.230787
0.231796
0.231938
0.231501
0.231631
0.233
0.23301
0.23301
0.232296
0.232845
0.23301
0.23301
0.23301
0.233009
0.233006
0.232978
0.232861
0.232702
0.232618
0.232638
0.232736
0.232852
0.232952
0.232998
0.233007
0.233008
0.233009
0.233009
0.233009
0.233009
0.23301
0.23301
0.23301
0.23301
0.23301
0.23301
0.23301
0.23301
0.23301
0.23301
0.233009
0.23301
0.233002
0.233007
0.232932
0.232985
0.232498
0.23279
0.231598
0.232054
0.231042
0.231257
0.231239
0.231326
0.231231
0.231196
0.231196
0.23118
0.231326
0.230627
0.230778
0.231172
0.231082
0.230081
0.230186
0.230375
0.230546
0.229859
0.229884
0.229998
0.229937
0.229814
0.229822
0.229832
0.229842
0.229806
0.229804
0.229807
0.229804
0.229838
0.229828
0.229819
0.229811
0.229876
0.229864
0.229853
0.229844
0.229932
0.229915
0.229892
0.229885
0.230008
0.229961
0.229983
0.229941
0.230142
0.230078
0.230038
0.230054
0.230206
0.230274
0.230225
0.230143
0.230316
0.23094
0.231148
0.230539
0.230367
0.230407
0.230616
0.23177
0.231953
0.231348
0.231572
0.233006
0.23301
0.23301
0.232347
0.232914
0.23301
0.23301
0.233009
0.233006
0.232983
0.232884
0.232729
0.232629
0.232628
0.232707
0.232816
0.232924
0.232992
0.233007
0.233009
0.23301
0.23301
0.23301
0.23301
0.23301
0.23301
0.23301
0.23301
0.23301
0.23301
0.23301
0.23301
0.23301
0.23301
0.23301
0.233008
0.233009
0.232998
0.233005
0.232891
0.23297
0.232358
0.232702
0.23155
0.231932
0.231161
0.231279
0.231429
0.231493
0.231379
0.231382
0.231445
0.231401
0.231385
0.231522
0.230734
0.230924
0.231371
0.231254
0.230109
0.230228
0.230436
0.23063
0.229864
0.229892
0.230017
0.22995
0.229813
0.229822
0.229838
0.229853
0.229807
0.229806
0.229811
0.229807
0.229835
0.229826
0.229818
0.229811
0.229874
0.229868
0.229861
0.229855
0.229935
0.229925
0.229912
0.229907
0.230036
0.229972
0.230019
0.229958
0.230105
0.230091
0.23004
0.230059
0.230174
0.230268
0.230217
0.230168
0.230311
0.230724
0.23091
0.230442
0.230345
0.230391
0.230496
0.231737
0.231962
0.231234
0.231474
0.233007
0.232995
0.233006
0.232459
0.23294
0.233009
0.233009
0.233006
0.232984
0.232897
0.232751
0.232641
0.232622
0.232683
0.232785
0.232895
0.232982
0.233006
0.233009
0.23301
0.23301
0.23301
0.23301
0.23301
0.23301
0.23301
0.23301
0.23301
0.23301
0.23301
0.23301
0.23301