/*--------------------------------*- C++ -*----------------------------------*\
  =========                 |
  \\      /  F ield         | OpenFOAM: The Open Source CFD Toolbox
   \\    /   O peration     | Website:  https://openfoam.org
    \\  /    A nd           | Version:  dev
     \\/     M anipulation  |
\*---------------------------------------------------------------------------*/
FoamFile
{
    version     2.0;
    format      ascii;
    class       volScalarField;
    location    "2500";
    object      omega;
}
// * * * * * * * * * * * * * * * * * * * * * * * * * * * * * * * * * * * * * //

dimensions      [0 0 -1 0 0 0 0];

internalField   nonuniform List<scalar> 
9851
(
1.26499
1.27801
1.22212
1.19159
1.36403
1.09925
1.09065
1.373
1.28611
1.032
1.03896
1.34109
1.35642
1.14097
1.01386
1.01509
1.26054
1.37584
1.25754
1.05357
1.00579
1.00174
1.16331
1.36912
1.32794
1.12072
1.01889
1.00046
0.988128
1.08639
1.34351
1.35363
1.20422
1.04138
1.00262
0.996791
0.978143
1.04119
1.28748
1.35399
1.27639
1.08403
1.00769
0.993102
0.994709
0.971767
1.009
1.21465
1.34741
1.31349
1.14384
1.01945
0.988641
0.985827
0.993281
0.96793
0.986767
1.14186
1.32858
1.32622
1.20726
1.0435
0.989207
0.978078
0.981371
0.992362
0.966395
0.97293
1.07505
1.29378
1.32388
1.25306
1.08616
0.993732
0.970987
0.970328
0.978658
0.991726
0.966789
0.962144
1.03394
1.24881
1.316
1.27925
1.1358
1.00665
0.965974
0.960354
0.965639
0.976809
0.991221
0.967051
0.951652
1.00369
1.18922
1.30361
1.28882
1.18038
1.03352
0.967452
0.95133
0.953267
0.962687
0.975352
0.990905
0.967076
0.944188
0.980524
1.12608
1.28464
1.28768
1.2138
1.07175
0.974164
0.94287
0.942162
0.948988
0.960374
0.974425
0.9907
0.966842
0.938941
0.964123
1.06819
1.25088
1.28278
1.23479
1.11283
0.98954
0.942249
0.931789
0.936095
0.945911
0.958873
0.973853
0.990529
0.966365
0.935189
0.952549
1.02583
1.20671
1.27426
1.24739
1.14617
1.0185
0.945303
0.922294
0.924339
0.931956
0.943822
0.957946
0.973438
0.990413
0.965731
0.932465
0.944296
0.996502
1.15328
1.26327
1.25381
1.17326
1.05281
0.954564
0.918975
0.913172
0.918786
0.929279
0.942475
0.957346
0.973161
0.99033
0.964971
0.930613
0.938248
0.975048
1.09558
1.2431
1.25347
1.19286
1.08821
0.973693
0.920395
0.903191
0.906739
0.915306
0.927466
0.94163
0.957005
0.972934
0.99027
0.96417
0.929685
0.93335
0.959509
1.04554
1.20946
1.25037
1.2116
1.1167
1.00413
0.926034
0.898323
0.895493
0.902205
0.913044
0.926338
0.941234
0.956718
0.972795
0.990221
0.963403
0.92892
0.927961
0.947238
1.00903
1.16642
1.24519
1.22551
1.14034
1.03669
0.939003
0.898867
0.885613
0.89011
0.899202
0.911628
0.925844
0.940892
0.956537
0.97272
0.990183
0.96272
0.927924
0.922667
0.936821
0.981345
1.11286
1.23505
1.23156
1.16341
1.06776
0.962787
0.90231
0.880087
0.878964
0.886115
0.897456
0.91091
0.925391
0.940669
0.956485
0.972651
0.990163
0.962175
0.92697
0.918564
0.928026
0.959953
1.0587
1.21324
1.23482
1.18579
1.09542
0.993819
0.911142
0.880049
0.86929
0.874177
0.883772
0.896329
0.910343
0.925148
0.940626
0.956454
0.972598
0.990163
0.961736
0.926394
0.915774
0.920192
0.942563
1.01524
1.17984
1.23704
1.20776
1.11842
1.02568
0.929694
0.882093
0.863447
0.863452
0.87098
0.882314
0.895644
0.910082
0.925126
0.940648
0.956454
0.972566
0.990187
0.961296
0.926123
0.913789
0.912692
0.927862
0.980465
1.1311
1.23458
1.22136
1.14559
1.05438
0.957087
0.888363
0.862924
0.854297
0.859651
0.869009
0.881205
0.895327
0.910108
0.92517
0.940708
0.956469
0.972574
0.990237
0.960954
0.926124
0.91258
0.906888
0.916478
0.952618
1.07217
1.22368
1.23082
1.17347
1.08276
0.988466
0.902005
0.864259
0.848686
0.849686
0.856712
0.867415
0.880713
0.89538
0.910195
0.925229
0.940856
0.956511
0.972629
0.990332
0.960883
0.926579
0.912108
0.903244
0.907984
0.931766
1.01973
1.19836
1.24175
1.20124
1.10812
1.02001
0.925969
0.868793
0.847855
0.841213
0.845928
0.854575
0.866537
0.880798
0.895529
0.910287
0.925471
0.941032
0.956597
0.97276
0.990494
0.961162
0.927586
0.912304
0.901365
0.90147
0.916624
0.979374
1.15323
1.24322
1.22313
1.13864
1.04894
0.955544
0.879222
0.848788
0.83565
0.836554
0.843044
0.853411
0.86645
0.881026
0.895741
0.91058
0.925824
0.941209
0.956768
0.97304
0.99079
0.961864
0.928966
0.913346
0.900854
0.897221
0.906342
0.94895
1.09305
1.23739
1.23704
1.17144
1.07777
0.987805
0.898845
0.852136
0.834229
0.828685
0.833162
0.841444
0.852878
0.866685
0.881328
0.896117
0.911023
0.926121
0.941474
0.957108
0.973533
0.991356
0.962849
0.930693
0.915204
0.901487
0.895254
0.899919
0.927724
1.03535
1.21892
1.25124
1.20396
1.10587
1.01915
0.926425
0.859956
0.834789
0.82345
0.824691
0.830843
0.840675
0.853004
0.86703
0.881817
0.896608
0.911439
0.926505
0.941908
0.957666
0.974337
0.992249
0.963931
0.932656
0.917497
0.903545
0.895073
0.896671
0.913757
0.992507
1.17967
1.25692
1.2306
1.13887
1.04825
0.95786
0.876557
0.83725
0.821862
0.817435
0.82178
0.829648
0.840449
0.853353
0.867658
0.882464
0.897186
0.911959
0.927087
0.942616
0.958592
0.975629
0.993495
0.965185
0.934776
0.919898
0.90643
0.896219
0.895791
0.905544
0.962376
1.13026
1.25417
1.2474
1.17523
1.07809
0.990523
0.900607
0.843506
0.822191
0.812555
0.813839
0.819893
0.8291
0.840585
0.854041
0.868632
0.883352
0.89798
0.912667
0.927973
0.943966
0.960239
0.97773
0.995392
0.966683
0.937152
0.922276
0.90967
0.898661
0.896371
0.901619
0.941703
1.08063
1.24274
1.26092
1.20934
1.10902
1.02208
0.93079
0.857205
0.824071
0.811005
0.80709
0.811452
0.818765
0.829005
0.841236
0.855358
0.870086
0.884741
0.8992
0.913806
0.929391
0.94647
0.963306
0.98122
0.998426
0.968358
0.939636
0.924664
0.913009
0.901475
0.898475
0.900624
0.928498
1.03832
1.21732
1.27223
1.23702
1.14233
1.05173
0.963525
0.878617
0.829277
0.811176
0.802766
0.803863
0.809696
0.818347
0.829682
0.842816
0.857467
0.872235
0.886772
0.901079
0.91577
0.932085
0.949938
0.968038
0.986369
1.00168
1.00119
0.97003
0.942123
0.927143
0.916229
0.904837
0.901273
0.901275
0.920266
1.00789
1.19035
1.27705
1.25816
1.17778
1.08193
0.9957
0.90568
0.840871
0.812621
0.801282
0.797544
0.801576
0.80879
0.818956
0.831453
0.845673
0.860633
0.875517
0.889886
0.904279
0.919159
0.936876
0.955768
0.974522
0.996921
0.989358
1.00352
1.00372
0.971412
0.944239
0.929356
0.919119
0.908544
0.904677
0.903741
0.915299
0.986863
1.1643
1.27716
1.27311
1.21193
1.11278
1.02725
0.936154
0.858637
0.816782
0.801347
0.793626
0.79411
0.800278
0.809126
0.820766
0.834812
0.849984
0.865398
0.880385
0.894843
0.910359
0.926571
0.945301
0.964937
0.961104
0.984246
0.969428
0.980488
1.00061
0.994535
1.0053
1.0076
0.972463
0.945849
0.931116
0.921499
0.912025
0.908493
0.907863
0.913739
0.970016
1.13884
1.27625
1.28912
1.24181
1.14446
1.057
0.968805
0.881689
0.826281
0.802454
0.792241
0.788391
0.792225
0.800331
0.810843
0.824466
0.839959
0.856161
0.87258
0.888102
0.903876
0.921631
0.942247
0.95852
0.957879
0.967819
0.990165
0.980564
0.989147
1.00609
1.00141
1.00771
1.01295
0.97341
0.94679
0.932378
0.923322
0.915095
0.912143
0.912666
0.914092
0.956342
1.11062
1.2747
1.30733
1.26709
1.17704
1.0855
1.00116
0.909864
0.841297
0.805988
0.792252
0.785367
0.78539
0.791939
0.801873
0.814787
0.830484
0.847579
0.865678
0.884003
0.901494
0.922442
0.944488
0.958572
0.961112
0.967944
0.969473
0.981044
0.999504
0.990076
1.00021
1.01274
1.01075
1.01083
1.01973
0.974038
0.947105
0.932866
0.924672
0.917823
0.915495
0.917252
0.915864
0.945343
1.07935
1.27201
1.3277
1.2924
1.20989
1.11454
1.03176
0.941569
0.861553
0.814469
0.793348
0.784487
0.781014
0.7844
0.793256
0.805708
0.821554
0.83973
0.85911
0.880685
0.90314
0.928942
0.957893
0.967474
0.983402
0.973707
0.984641
0.982813
0.98856
0.993057
1.01104
1.00341
1.01391
1.02146
1.02214
1.01491
1.028
0.974124
0.946671
0.932634
0.925269
0.920204
0.91867
0.92142
0.919604
0.937612
1.05062
1.26671
1.34837
1.31923
1.2439
1.14373
1.06111
0.974614
0.887162
0.827906
0.797164
0.784676
0.779064
0.77901
0.78536
0.796755
0.812658
0.831847
0.853747
0.877746
0.909204
0.953476
1.0224
1.01993
1.10706
1.01252
1.08399
1.00498
1.05135
1.00103
1.02481
1.01317
1.0246
1.02446
1.03469
1.03212
1.03518
1.02015
1.03786
0.973715
0.945146
0.931379
0.925085
0.922
0.921587
0.925371
0.923951
0.933597
1.02684
1.25556
1.369
1.3488
1.28006
1.17392
1.08884
1.00728
0.917104
0.846021
0.806136
0.786383
0.778699
0.776129
0.77948
0.788558
0.803622
0.823535
0.848338
0.878635
0.925063
1.02171
1.25273
1.29184
1.69168
1.2522
1.61507
1.17742
1.48306
1.09737
1.30239
1.04467
1.14951
1.06273
1.04415
1.07647
1.08441
1.04408
1.05271
1.02693
1.04868
0.972794
0.942735
0.928871
0.923733
0.922908
0.923966
0.929174
0.929401
0.932895
1.0055
1.23387
1.38825
1.38387
1.31759
1.20777
1.11532
1.03831
0.949472
0.869131
0.81915
0.791864
0.77941
0.775191
0.776113
0.782487
0.795736
0.815377
0.84225
0.881796
0.95788
1.19188
1.80273
2.23615
3.11886
2.31466
3.31032
2.12058
3.22182
1.8054
2.82725
1.4582
2.20683
1.20255
1.62849
1.24632
1.08717
1.26997
1.26624
1.05906
1.08667
1.03535
1.06067
0.971456
0.939751
0.925133
0.920871
0.922898
0.925576
0.932617
0.935279
0.933767
0.987365
1.19982
1.4022
1.42262
1.35833
1.24678
1.14278
1.06695
0.982796
0.896469
0.836417
0.802611
0.782859
0.775514
0.774906
0.77913
0.790424
0.80936
0.839311
0.889649
1.01777
1.48295
2.83721
3.88705
4.80047
4.40633
5.34122
4.51406
5.62938
4.29906
5.65888
3.67994
5.35979
2.65828
4.55566
1.79243
3.10781
1.91444
1.23678
1.96414
1.92015
1.08491
1.19439
1.04439
1.07674
0.969937
0.936492
0.920146
0.917163
0.921732
0.926407
0.935506
0.940894
0.936607
0.973286
1.15763
1.40777
1.46161
1.40347
1.29153
1.17374
1.09347
1.0155
0.927288
0.858345
0.817209
0.792229
0.778344
0.775207
0.778166
0.788243
0.807615
0.839921
0.904301
1.13019
1.94805
3.86049
5.35026
5.9736
6.05133
6.47734
6.38454
6.82823
6.56933
7.07928
6.56662
7.22648
6.2503
7.22394
5.3412
6.93367
3.49271
5.95939
3.74888
1.79227
3.82305
3.66675
1.15291
1.60871
1.05233
1.11356
0.968055
0.932693
0.914452
0.912772
0.918936
0.926507
0.937809
0.946229
0.94078
0.964134
1.11842
1.40758
1.49873
1.45026
1.34311
1.20972
1.11953
1.04618
0.960249
0.884741
0.836513
0.807026
0.78761
0.77835
0.778919
0.78853
0.808923
0.845581
0.932874
1.28728
2.51016
4.84715
6.18011
6.50149
6.74813
6.91371
7.08992
7.23248
7.36181
7.51759
7.57771
7.77848
7.7178
8.00071
7.72484
8.14885
7.45017
8.1549
6.40753
7.86186
6.70344
3.31628
6.82552
6.68608
1.40877
2.81673
1.05765
1.23369
0.968338
0.934124
0.913387
0.90982
0.915751
0.925842
0.939792
0.951508
0.945729
0.959201
1.08626
1.40079
1.53433
1.49934
1.39965
1.25274
1.14683
1.07457
0.993685
0.91469
0.860395
0.82708
0.804821
0.788745
0.784228
0.793122
0.816994
0.865518
0.993434
1.50971
3.12061
5.47316
6.90136
6.98497
7.10014
7.31122
7.33929
7.60377
7.65104
7.90606
7.99781
8.19718
8.35256
8.43973
8.67416
8.58632
8.9217
8.56669
9.04634
8.21014
8.97002
8.50065
6.14828
8.70667
8.81557
2.22332
5.22397
1.08373
1.67225
0.987927
0.965662
0.93283
0.914614
0.915403
0.925812
0.942171
0.956888
0.9515
0.95822
1.05933
1.37613
1.56635
1.55247
1.45872
1.30502
1.1776
1.10137
1.02607
0.947177
0.888798
0.852604
0.828574
0.810635
0.801849
0.81243
0.846347
0.921143
1.12119
1.85505
3.70204
5.8336
6.89401
7.29474
7.275
7.34353
7.32643
7.67593
7.68384
8.0658
8.11538
8.4811
8.58898
8.87752
9.05439
9.21147
9.46668
9.44195
9.78838
9.51981
9.98143
9.35703
9.98581
9.71227
8.73084
10.0269
10.2606
4.0769
8.22583
1.22761
2.86649
1.02972
1.0485
1.0076
0.953473
0.92734
0.929765
0.946901
0.962873
0.958098
0.959195
1.0383
1.33576
1.59061
1.60673
1.52013
1.36625
1.21506
1.12745
1.05688
0.980657
0.920924
0.884688
0.861981
0.847241
0.848716
0.875463
0.938728
1.06714
1.38188
2.36423
4.22427
6.01365
6.85131
7.23304
7.19604
7.64944
7.62023
7.68035
7.66813
8.14904
8.16989
8.67348
8.73369
9.20159
9.31834
9.68892
9.8734
10.0955
10.3588
10.3864
10.7402
10.5197
10.9866
10.4306
11.0368
10.8451
10.359
11.2071
11.4904
6.97335
10.2789
1.73185
5.11209
1.11152
1.23216
1.22055
1.11776
1.00553
0.956273
0.958608
0.971428
0.965927
0.962545
1.02204
1.29079
1.60704
1.65951
1.58351
1.43465
1.26213
1.15449
1.08537
1.01352
0.955514
0.923252
0.912208
0.923314
0.97203
1.06452
1.20433
1.43204
1.96215
3.01338
4.65156
6.12429
6.78023
7.15353
7.07312
7.58533
7.54485
8.1445
8.11127
8.17147
8.16405
8.77071
8.78616
9.40019
9.44732
10.0154
10.1142
10.5774
10.7442
11.0471
11.2997
11.3936
11.7427
11.5718
12.0451
11.5301
12.136
11.9843
11.6861
12.3819
12.7002
9.7218
11.7587
3.02084
8.00986
1.10268
1.3281
1.41641
1.39853
1.25157
1.07337
0.99776
0.988503
0.976418
0.969327
1.01215
1.24181
1.61447
1.70949
1.64652
1.5086
1.31961
1.1854
1.11158
1.04421
0.989734
0.969172
0.993616
1.09121
1.29761
1.58523
1.93034
2.29984
2.78054
3.66013
4.98734
6.11971
6.68255
7.18071
7.48613
7.49393
8.06665
8.01201
8.71549
8.65779
8.78107
8.75907
9.46314
9.45387
10.1667
10.173
10.8531
10.904
11.4902
11.6116
12.0317
12.2492
12.4497
12.7764
12.6866
13.1618
12.6756
13.3122
13.1726
12.9382
13.6035
13.9515
11.6331
13.0888
5.02186
10.7617
1.22812
1.45025
1.54022
1.52799
1.36664
1.13242
1.03123
0.995184
0.979088
1.01013
1.20398
1.61404
1.75526
1.70898
1.58424
1.38642
1.22321
1.1364
1.07173
1.02237
1.01987
1.11666
1.41227
1.93832
2.53445
2.96011
3.21325
3.53431
4.16346
5.23175
6.08945
6.53899
7.0509
7.81453
7.73112
7.94978
7.88164
8.58577
8.50207
9.26785
9.1666
9.41979
9.35324
10.1492
10.0893
10.8996
10.8561
11.6607
11.6471
12.3872
12.4491
13.0175
13.1863
13.5331
13.81
13.8754
14.315
13.9167
14.5777
14.4691
14.214
14.9519
15.3176
13.1473
14.3981
7.27333
12.7726
1.2587
1.51985
1.63565
1.62814
1.44849
1.15448
1.03585
0.99594
1.01261
1.17946
1.60842
1.79754
1.77199
1.65914
1.4621
1.27001
1.16223
1.09626
1.05051
1.07101
1.27163
1.83198
2.70131
3.41521
3.71443
3.85471
4.05351
4.51939
5.31829
6.02712
6.41014
6.92612
7.66959
7.56178
8.21296
8.11571
8.41094
8.31391
9.05207
8.92657
9.73186
9.57675
9.99229
9.87063
10.7613
10.63
11.5829
11.4569
12.4375
12.3615
13.2805
13.2941
14.0159
14.1513
14.6402
14.8745
15.1202
15.5381
15.2694
15.911
15.8894
15.5757
16.4565
16.774
16.1278
14.5373
15.7265
9.44113
14.4796
1.24562
1.5758
1.72629
1.71393
1.4565
1.14413
1.03016
1.02231
1.16463
1.59156
1.83582
1.83403
1.73247
1.54388
1.328
1.19137
1.1189
1.07465
1.11194
1.42679
2.26661
3.38898
4.00753
4.16441
4.20687
4.34145
4.69979
5.30623
5.91838
6.2929
6.83727
7.64594
8.00974
7.9596
8.52681
8.38947
8.79792
8.6635
9.41431
9.24122
10.0889
9.87294
10.4699
10.2865
11.2893
11.0923
12.2165
12.0113
13.2084
13.0122
14.169
13.9989
14.9997
14.9129
15.7849
15.8
16.4599
16.7123
16.7291
17.1295
16.8012
16.7572
17.2613
16.9642
16.3318
17.0556
17.3266
17.8961
17.6344
17.5478
15.8863
17.16
17.1721
16.43
11.9801
16.1151
1.23768
1.6574
1.82691
1.7585
1.42189
1.10712
1.04665
1.16047
1.57311
1.86903
1.8942
1.80414
1.62767
1.39698
1.22706
1.14062
1.0938
1.14012
1.54245
2.65185
3.9061
4.36716
4.41129
4.38292
4.45746
4.71727
5.25094
5.75724
6.16352
6.77932
7.52021
8.01932
7.89435
8.25576
8.13057
8.68347
8.50561
9.05782
8.86908
9.63823
9.39745
10.3192
10.0184
10.8627
10.6071
11.7557
11.4509
12.7113
12.3679
13.6927
13.2941
14.6147
14.2348
15.5717
15.1296
16.6929
16.2432
16.0195
17.3042
17.4145
17.2705
17.3676
17.6386
17.6387
18.036
17.7893
18.0259
17.7111
17.8269
18.121
18.6586
18.3728
18.3375
17.2356
16.5378
17.2355
17.8973
17.9269
14.6971
17.3205
17.4307
16.6205
1.2806
1.79696
1.93217
1.73874
1.30338
1.10368
1.16552
1.5589
1.89865
1.9518
1.87363
1.71145
1.47494
1.2712
1.16358
1.10947
1.15524
1.60095
2.91402
4.2439
4.59362
4.56389
4.46997
4.45619
4.67906
5.11741
5.57225
6.03465
6.70367
7.40208
7.78461
8.06035
7.95461
8.34243
8.19423
8.71359
8.5099
9.15812
8.93059
9.71796
9.43148
10.4021
10.0473
11.1175
10.7613
11.986
11.589
12.8737
12.4522
13.7577
13.2312
14.5314
13.8575
15.6888
15.3838
14.9253
14.5766
16.9283
16.6016
16.4092
15.8813
17.8555
17.8196
17.2213
17.5958
18.2431
18.3939
18.6478
18.2992
18.7803
18.5047
18.6225
18.9181
19.1258
19.442
19.1448
17.9389
17.9357
18.6879
18.7112
17.7333
17.0224
18.1068
17.9767
18.1186
1.41962
1.99042
1.94594
1.64564
1.22466
1.1918
1.54946
1.92664
2.00742
1.9402
1.79382
1.55797
1.32598
1.18885
1.12273
1.15685
1.61052
3.03845
4.44788
4.73782
4.67311
4.47805
4.42019
4.55623
4.90735
5.38018
5.92978
6.61404
7.28168
7.61488
7.73266
7.65053
8.00333
7.86293
8.32218
8.15092
8.61948
8.37792
9.15343
8.88021
9.69324
9.34172
10.3501
9.91624
11.192
10.7773
12.0147
11.5775
12.7447
12.3559
13.3199
12.9864
14.1679
13.8987
13.6383
13.5061
15.4717
15.0162
14.6144
14.3065
16.7136
16.1691
16.0536
15.5595
18.2192
17.9163
16.8678
17.4466
18.7119
19.0475
19.1176
18.6002
19.4401
19.3215
19.4429
19.7228
19.8051
20.1466
19.9556
18.7053
18.6912
19.5102
19.5257
18.5498
18.6679
19.4097
18.7331
18.9519
1.76816
2.13638
1.88685
1.43544
1.26744
1.54803
1.95481
2.06073
2.00392
1.87214
1.64311
1.39069
1.21992
1.13539
1.15201
1.59607
3.05526
4.55321
4.84101
4.73617
4.46299
4.36787
4.43377
4.73654
5.21005
5.82632
6.52818
7.15333
7.45545
7.40279
7.48831
7.35094
7.78878
7.63037
8.15903
7.96167
8.37011
8.09817
8.99802
8.67059
9.48686
9.06867
10.2547
9.80198
11.1446
10.7
11.9742
11.6141
12.7775
12.7215
13.4207
13.4296
13.5111
13.7051
14.0712
13.9781
13.9752
14.0462
15.1036
14.757
14.5804
14.5416
16.2704
15.6351
15.8066
15.2618
18.2194
17.6672
16.4346
17.0201
18.9691
19.5227
19.3451
18.524
19.9163
20.1393
20.2745
20.4605
20.2904
20.6539
20.7279
19.507
19.4924
20.347
20.3599
19.5873
20.272
20.9442
19.5681
19.9065
2.17822
2.12096
1.69711
1.42405
1.5573
1.98297
2.11282
2.0657
1.94669
1.72834
1.4642
1.25765
1.1501
1.13836
1.53245
3.01929
4.58022
4.90633
4.75325
4.42872
4.32979
4.37635
4.66883
5.10197
5.70208
6.41352
6.99722
7.29087
7.19437
6.77967
6.72263
7.08966
6.93231
7.42678
7.24569
7.85183
7.62786
7.98098
7.69663
8.66704
8.30221
9.34287
8.87985
10.5537
10.1107
11.2906
10.939
12.7392
12.7322
14.3863
14.9724
14.1743
14.3309
14.4825
14.5579
14.5917
14.7484
14.983
15.265
15.0821
15.0476
15.1249
15.328
16.1257
15.5929
16.0216
15.5358
17.9022
17.2036
16.5343
16.7323
18.8504
19.7389
19.2031
18.1731
20.1507
20.9351
21.0949
21.0041
20.5733
21.0029
21.3353
20.3424
20.3473
21.1744
21.2065
20.8887
21.8037
22.779
20.4891
21.0327
2.32018
1.9937
1.59478
1.59639
2.01612
2.16148
2.12683
2.01677
1.81193
1.54294
1.30504
1.1676
1.12568
1.41758
2.87884
4.5674
4.93354
4.76518
4.39426
4.30505
4.37024
4.67087
5.07655
5.59676
6.26557
6.79342
7.09333
6.94511
6.11872
6.16869
5.91396
6.56096
6.3643
6.96393
6.75443
7.43385
7.18985
7.6114
7.27909
8.4232
7.99419
9.61358
9.06341
12.3369
11.8964
12.7041
12.5878
15.4927
15.8607
16.9027
17.2509
17.911
17.5581
15.5811
15.9112
16.2517
16.5859
15.6074
15.9388
16.3022
16.6789
15.5987
15.8322
16.137
16.4913
16.5001
16.0426
16.6824
16.2785
17.4624
17.1159
17.0685
16.9985
18.4894
19.6001
18.8546
17.8432
20.0427
21.6151
21.8431
21.4191
20.5333
21.0903
21.7976
21.2137
21.2639
21.9822
22.0614
22.4629
22.6533
24.7224
21.5202
22.3907
2.26433
1.81543
1.68855
2.0365
2.21235
2.184
2.08377
1.89081
1.62478
1.36002
1.19116
1.119
1.30691
2.58832
4.50873
4.9341
4.7737
4.35935
4.28239
4.37002
4.71079
5.08997
5.5508
6.11215
6.56783
6.8473
6.64852
5.64693
5.28621
5.01514
5.66503
5.4255
6.08551
5.87352
6.52262
6.29993
6.99978
6.75452
7.51725
7.1118
8.50507
7.98114
11.3001
10.5266
16.1416
15.7313
16.1153
16.227
18.2233
18.6641
19.9031
18.5494
18.9071
19.5615
19.2509
17.0595
17.4367
17.8153
18.1868
16.8767
17.2756
17.6809
18.0881
16.6131
16.9898
17.3994
17.8228
17.4299
17.0443
17.8887
17.4583
17.565
17.5094
18.2477
17.7547
18.2786
19.2948
18.7741
18.0675
19.8138
22.1376
22.4564
21.6444
20.3936
21.0279
22.1464
22.1237
22.2542
22.7248
22.9243
24.2759
23.0885
26.7788
22.7071
23.9794
2.13015
1.82825
2.05244
2.25217
2.24094
2.14535
1.96565
1.705
1.4236
1.21989
1.11831
1.21507
2.25746
4.35578
4.92268
4.77396
4.34708
4.22707
4.34902
4.72358
5.13848
5.53822
5.98438
6.34263
6.58788
6.31576
5.21876
4.58359
5.01133
4.77246
5.42482
5.21369
5.82447
5.62527
6.22815
6.0238
6.75495
6.45625
7.96719
7.27796
9.66984
8.78473
15.0517
14.0185
20.6291
20.3281
20.3611
20.5856
19.8338
19.9705
22.3404
22.6801
20.1224
20.5351
21.3405
20.9429
18.4944
18.8985
19.309
19.7167
18.2557
18.6934
19.1358
19.5811
17.9072
18.3747
18.855
19.3424
18.8343
18.3949
19.4577
18.9321
18.0853
18.5174
19.8933
19.1662
18.5949
19.3138
19.152
18.7445
19.8794
22.5914
23.0005
21.6841
20.4905
21.1629
22.3804
23.0761
23.3678
23.4125
23.8086
26.3945
22.289
28.8728
24.0624
25.7909
2.10294
2.07444
2.29197
2.28867
2.20543
2.03387
1.78381
1.49141
1.25676
1.12257
1.14581
1.93545
4.07133
4.88844
4.77213
4.34837
4.14985
4.25123
4.66553
5.1165
5.4961
5.85633
6.15232
6.33758
5.99524
4.79158
4.19313
4.50653
4.25375
4.89912
4.68735
5.28668
5.09752
5.6417
5.46614
6.04612
5.81743
6.74757
6.35546
9.79438
8.42602
12.752
11.2907
19.6821
18.6189
24.3593
24.0875
22.9092
23.242
24.352
21.718
22.06
24.2459
24.5402
21.8197
22.2688
23.1279
22.7084
20.0266
20.4718
20.9248
21.374
19.8379
20.3373
20.8405
21.345
19.4877
20.058
20.6383
21.2216
20.6808
20.1198
21.5258
20.8108
19.3347
20.1696
22.096
21.0827
19.4326
19.7281
20.1137
20.2072
20.3375
23.0131
23.5653
21.8948
21.0085
21.7343
22.6593
24.1633
24.6002
24.2304
24.8953
28.8333
19.0915
30.5851
25.6627
27.9781
2.18132
2.31188
2.33724
2.25658
2.09941
1.85582
1.56449
1.29999
1.13613
1.0999
1.64424
3.67235
4.8134
4.76627
4.35335
4.12151
4.08443
4.35582
4.88811
5.32472
5.66767
5.94418
6.04037
5.57322
4.35083
3.82133
3.91241
4.33823
4.14069
4.71496
4.53104
5.05825
4.89064
5.4034
5.21736
6.02319
5.67345
7.3238
6.53727
13.372
11.2008
17.2028
15.4271
23.402
22.3486
27.1322
27.0203
27.4275
24.7531
24.8333
27.1778
27.1511
23.5285
23.8991
26.3861
26.6926
23.824
24.3097
25.2244
24.7813
21.8462
22.343
22.8446
23.3381
21.8093
22.3928
22.9711
23.5395
21.5212
22.2405
22.9626
23.6743
23.193
22.4158
24.3546
23.3282
21.2554
22.4032
25.1414
23.7072
21.0738
20.7791
21.915
22.3333
21.5366
23.4781
24.3611
22.482
22.3369
22.9482
23.3429
25.3395
26.0191
25.2706
25.9925
31.5574
14.1976
29.9911
27.6879
30.4154
2.36164
2.36586
2.30894
2.15475
1.9262
1.63378
1.35129
1.15563
1.07681
1.40355
3.20004
4.70772
4.74982
4.35747
4.12341
4.02391
4.04453
4.28953
4.81824
5.26803
5.55092
5.54433
4.96945
3.92272
3.50651
3.55744
3.81209
3.63011
4.11571
3.94417
4.44602
4.28051
4.77642
4.60462
5.31193
5.00613
6.40767
5.72615
9.16498
7.53004
17.3613
15.0398
20.9815
19.3343
26.4185
25.0463
29.108
28.8219
30.3299
29.6401
26.9387
27.0987
29.2495
29.2861
25.6424
26.0287
28.7105
28.9665
26.1863
26.6833
27.6008
27.16
24.0931
24.6307
25.1655
25.6829
24.3735
25.0479
25.6952
26.3103
24.2598
25.1818
26.0821
26.9433
26.6857
25.5724
28.2998
26.795
23.7902
25.4602
29.3994
27.3368
23.5258
22.9822
25.0043
25.3917
23.9251
24.3582
25.367
23.6734
24.3856
24.9402
24.5089
26.7058
27.8875
26.2871
27.3837
34.6274
6.69545
25.1186
29.7855
33.3959
2.41243
2.34234
2.21241
1.98385
1.70598
1.40372
1.18225
1.06842
1.23332
2.70067
4.55004
4.72676
4.36697
4.14302
4.02843
3.9297
3.79026
3.92462
4.35524
4.72602
4.74973
4.19693
3.49484
3.2324
3.25858
3.33307
3.58683
3.43012
3.88624
3.73613
4.21037
4.04389
4.65526
4.40562
5.44117
4.97284
7.70713
6.2715
12.4368
9.84567
20.0522
18.1256
23.4488
21.7962
29.0417
28.1097
27.3124
31.0955
30.7628
31.8123
31.0988
29.1566
29.261
31.3292
31.4825
28.0054
28.3786
31.23
31.4207
28.9524
29.4194
30.2657
29.8618
26.8906
27.4358
27.9677
28.4702
27.7551
28.5075
29.1941
29.8154
28.0199
29.195
30.3014
31.3161
31.5817
29.9631
33.8264
31.6036
27.6062
30.1035
35.7749
32.8484
27.3028
26.0526
28.4882
29.9319
26.5491
25.4017
26.4076
25.4502
27.1931
27.5524
25.9389
28.5552
29.6583
27.8024
29.1214
37.6489
2.78627
16.9365
32.535
36.7238
2.39112
2.25047
2.04584
1.76412
1.46332
1.21358
1.06854
1.12709
2.25162
4.31169
4.69572
4.38178
4.19576
4.07688
3.93582
3.60108
3.25272
3.37805
3.72669
3.81743
3.46817
3.10641
2.97682
3.00591
3.08587
3.07387
3.44038
3.30836
3.73395
3.57748
4.10129
3.90594
4.65351
4.34454
6.02002
5.13303
10.1052
7.63485
15.8157
13.0395
21.5267
19.8066
25.2787
23.3299
30.2541
29.3578
27.5527
29.0381
32.9415
32.4339
33.2046
32.2779
31.5333
31.5505
33.335
33.6671
30.6246
30.952
33.8956
33.9715
32.1735
32.5469
33.216
32.898
30.3737
30.8704
31.3402
31.7695
32.224
33.019
33.6945
34.2585
33.204
34.6814
36.0148
37.1715
38.7909
36.0826
41.8149
38.2778
32.8856
36.1102
43.4921
39.6557
31.2653
29.1987
32.4695
34.5757
30.2733
26.7475
28.0248
27.7371
30.9483
31.4005
28.1457
30.0479
32.3395
29.3541
30.5911
38.4157
1.71747
10.7396
35.1587
39.8381
2.30594
2.08417
1.82975
1.51281
1.25154
1.074
1.07284
1.87409
4.00261
4.65982
4.38779
4.23793
4.19472
4.03245
3.61264
2.97823
2.70509
2.91206
3.02278
2.90281
2.76931
2.73571
2.78665
2.85789
2.85164
3.06446
3.20561
2.91677
3.3568
3.66328
3.49933
4.06893
3.84666
4.79389
4.3525
7.24125
5.63078
12.9468
9.83465
17.9926
15.7905
22.0554
20.4452
25.9646
23.8471
31.259
30.1212
27.8628
29.1779
34.7071
34.0184
34.3987
33.2336
33.9729
33.8884
35.2965
35.8603
33.4889
33.7206
36.7238
36.6468
35.938
36.1435
36.4871
36.3213
34.7211
35.0932
35.4156
35.6914
38.1512
38.941
39.5412
39.9714
40.3645
42.2156
43.8045
45.1038
47.6089
44.7963
51.7317
47.6879
38.4687
43.3703
55.8463
49.166
36.8873
34.4612
40.6452
42.4901
36.1421
28.8751
29.8393
31.9297
37.7474
39.5263
32.377
32.8065
34.426
31.275
33.6673
37.199
1.44573
6.76033
38.5764
44.412
2.14513
1.8686
1.57515
1.28932
1.08904
1.0447
1.61792
3.62959
4.60974
4.39812
4.26423
4.29992
4.23096
3.78823
2.98523
2.37852
2.39732
2.49439
2.49623
2.48584
2.51475
2.58764
2.64811
2.65056
2.70909
3.16192
2.99137
2.86397
3.30741
3.63051
3.46111
4.07742
3.82725
5.15361
4.4518
9.06151
6.57346
15.1945
12.2584
18.8981
17.2602
22.0181
20.5349
26.4854
25.0699
23.6133
31.9931
30.6196
27.6601
29.1858
36.368
35.4423
35.4895
34.0156
36.4956
36.268
37.2284
38.0988
36.6278
36.6992
39.7824
39.4835
40.3977
40.3482
40.1438
40.2404
40.2265
40.3635
40.4163
40.4335
46.1315
46.8773
47.283
47.457
50.3982
52.7673
54.6957
56.216
62.6774
55.8933
68.9888
60.1907
49.6974
58.6216
80.5291
68.8976
49.7083
44.3974
57.0656
60.7715
48.2608
32.8006
33.5577
40.8296
53.6415
58.1193
41.2485
34.7579
38.1645
35.6665
36.2234
28.4297
1.41674
6.09836
41.8048
46.196
1.93392
1.61312
1.33476
1.1051
1.03631
1.45675
3.29196
4.54703
4.42205
4.27942
4.3739
4.40734
4.09769
3.20478
2.29174
2.1207
2.17503
2.22455
2.26226
2.32158
2.40174
2.45491
2.46548
2.50281
2.6324
3.13273
2.95345
2.828
3.27322
3.60948
3.43067
4.13501
3.82762
5.77955
4.67561
10.9929
7.90004
16.2367
14.1015
19.1176
17.7404
21.3771
20.2767
25.6912
24.7131
22.2922
23.1259
32.5106
30.8745
27.1557
28.9323
38.049
36.8216
36.5794
34.7404
39.1012
38.7058
39.2851
40.5401
40.0993
39.8983
43.2675
42.7367
45.8471
45.4446
44.4794
44.996
47.4552
47.1631
46.7788
46.3598
57.3014
57.9002
58.194
58.2649
64.387
68.0345
70.809
72.9302
95.0704
75.0744
109.154
81.9629
73.2193
89.1063
155.258
114.455
71.0307
65.0669
84.7611
88.9413
76.0702
41.4165
41.6095
59.3091
80.3819
80.3149
57.9414
39.1043
40.6599
39.7997
42.0486
28.3168
1.53158
5.87819
46.6606
48.6242
1.67482
1.35859
1.11844
1.03662
1.38665
3.02087
4.47133
4.44395
4.28745
4.42139
4.55672
4.36027
3.59266
2.34924
1.98905
1.98472
2.03886
2.09151
2.15228
2.22857
2.27915
2.29582
2.32424
2.41609
2.62764
2.76277
2.49702
3.08444
2.90631
3.2345
3.59102
3.39751
4.25014
3.84672
6.61239
5.02879
12.5219
9.29921
16.5259
14.9769
19.0583
17.805
21.8106
20.7649
20.284
19.6656
24.8294
23.7465
22.1081
32.8997
30.9343
26.4424
28.5667
39.8489
38.2291
37.7111
35.4882
41.9826
41.3273
41.5852
43.2447
44.2317
43.614
47.2781
46.5448
53.0686
52.002
49.8711
51.1469
57.5163
56.6221
55.3968
54.3906
74.3338
75.1651
75.6734
75.78
90.2246
96.2075
101.237
103.806
199.658
127.628
199.162
157.102
114.936
154.33
201.798
197.983
114.196
99.3506
142.029
159.419
104.056
54.5006
48.8844
78.6938
105.086
104.828
74.6987
41.7763
45.3845
49.6843
46.2417
24.652
6.427
24.7294
48.6872
51.8504
1.40287
1.13432
1.04684
1.37073
2.88045
4.39801
4.45312
4.29045
4.45165
4.67481
4.57117
3.94702
2.60797
1.94841
1.86619
1.90669
1.9539
2.00523
2.07289
2.12183
2.1414
2.1663
2.22855
2.31287
2.71986
2.55324
2.44643
3.03998
2.85123
3.19059
3.58281
3.36554
4.42056
3.89101
7.48704
5.47303
13.2941
10.4443
16.5245
15.1983
18.7477
17.6709
20.9072
20.05
20.004
18.8198
19.2769
23.7775
22.7212
21.1673
33.3323
30.9872
25.6261
28.2425
41.8268
39.6957
38.9183
36.2754
45.2897
44.173
44.1707
46.1469
49.3004
48.1513
51.9773
50.9431
63.376
60.6588
56.8163
59.4443
74.1523
71.5801
68.0187
65.828
105.833
107.162
108.492
108.816
198.424
194.99
206.426
205.509
486.686
228.078
505.357
238.41
196.692
213.9
509.431
495.415
190.61
149.399
200.791
185.962
151.859
67.239
67.6641
102.943
153
154.512
97.34
48.2548
48.6627
56.6791
56.4831
31.5869
7.75472
32.3445
53.2311
52.7328
1.20449
1.08765
1.40121
2.84719
4.35155
4.45741
4.29077
4.46904
4.76188
4.73934
4.25069
2.97282
1.96088
1.7959
1.80591
1.84539
1.88058
1.93742
1.98359
2.00235
2.02516
2.06888
2.13563
2.22605
2.68472
2.51426
2.41442
2.99479
2.80894
3.15184
3.58475
3.33843
4.62957
3.95811
8.19742
5.93698
13.4626
11.0205
16.3265
15.1377
18.2322
17.3398
20.1319
19.4033
19.3547
18.646
18.7558
22.6899
21.6492
20.2621
33.798
31.1457
24.9086
28.1146
44.0753
41.265
40.2525
37.1719
49.1968
47.2401
47.0465
49.1345
55.5615
53.959
58.0294
55.9672
79.89
73.219
67.0174
70.7867
106.42
100.665
90.0115
82.6705
203.438
200.128
191.078
184.05
455.779
480.058
474.453
480.764
894.425
507.601
902.614
511.501
509.14
519.126
899.611
894.286
502.221
206.232
503.443
508.485
210.691
102.495
78.6191
153.184
216.412
220.199
160.127
51.9609
52.2649
72.3769
61.5867
48.3426
154.087
78.8868
55.6469
58.6294
1.3144
1.52879
2.90441
4.34129
4.46143
4.29254
4.47795
4.82461
4.87063
4.50296
3.33723
2.03352
1.75584
1.7342
1.75673
1.77931
1.82213
1.86376
1.87969
1.89853
1.93142
1.98368
2.04702
2.12398
2.35184
2.62855
2.46573
2.9523
2.76425
3.1163
3.59063
3.31696
4.79732
4.02456
8.42863
6.20086
13.3129
11.0825
15.911
14.8297
17.5134
16.7964
19.3927
18.793
18.8182
18.0428
18.2318
21.7126
20.6496
19.4415
34.3334
31.3874
24.4567
28.1008
46.7238
43.0363
41.7815
38.2563
53.9853
50.7237
50.1192
52.2306
63.4247
61.6147
66.8222
61.9686
110.14
94.0319
83.4202
87.1556
173.732
165.087
147.123
112.324
474.861
479.675
475.991
475.206
873.391
886.374
878.585
883.482
2465.32
882.119
2485.27
892.296
902.389
909.112
2451.85
2444.46