/*--------------------------------*- C++ -*----------------------------------*\
  =========                 |
  \\      /  F ield         | OpenFOAM: The Open Source CFD Toolbox
   \\    /   O peration     | Website:  https://openfoam.org
    \\  /    A nd           | Version:  dev
     \\/     M anipulation  |
\*---------------------------------------------------------------------------*/
FoamFile
{
    version     2.0;
    format      ascii;
    class       volScalarField;
    location    "2500";
    object      p_rgh;
}
// * * * * * * * * * * * * * * * * * * * * * * * * * * * * * * * * * * * * * //

dimensions      [1 -1 -2 0 0 0 0];

internalField   nonuniform List<scalar> 
9851
(
0.00400283
0.00558478
0.00482767
0.00559889
0.00853292
0.00389282
0.00543188
0.0102506
0.00871906
0.00286515
0.00502914
0.010819
0.0117141
0.00768519
0.00210556
0.00446306
0.0105021
0.0134601
0.0112101
0.00613265
0.00171602
0.00423458
0.0103905
0.0144746
0.0138609
0.0100743
0.00483151
0.00102132
0.00395531
0.00855406
0.0145016
0.0157095
0.0129402
0.00838384
0.00425716
0.000690606
0.00367278
0.00870102
0.0146485
0.0166958
0.0155022
0.0117716
0.00689757
0.00351667
0.00036567
0.00297472
0.00827429
0.0133552
0.0172681
0.0173875
0.0144199
0.0100237
0.006188
0.00293456
-5.45754e-05
0.00314856
0.00846232
0.0131401
0.017613
0.0185408
0.0169166
0.0131047
0.0087552
0.00530846
0.00241552
-0.00044683
0.0029776
0.00807271
0.0127991
0.0170827
0.0191669
0.0184423
0.0154915
0.011426
0.00796766
0.00483739
0.00184315
-0.000560708
0.00323077
0.00728547
0.0119692
0.0168719
0.0196741
0.0198974
0.0176844
0.0141934
0.0104274
0.00715668
0.00417912
0.00148452
-0.000774805
0.00283989
0.00730672
0.0121913
0.0168306
0.0196181
0.0208346
0.0195269
0.016336
0.0128418
0.00944264
0.00662178
0.00389271
0.00134239
-0.00113954
0.00279808
0.00744489
0.0114961
0.0163277
0.0196398
0.0215375
0.0209044
0.0184588
0.0151033
0.0116594
0.00859385
0.00580599
0.00344343
0.000983932
-0.00129539
0.00270525
0.00688233
0.0105979
0.0158639
0.0194507
0.0215394
0.0218865
0.0201511
0.0171031
0.0136561
0.0108511
0.0080763
0.00532456
0.00302009
0.000832012
-0.00144771
0.00314257
0.00670872
0.0111789
0.0156485
0.0191137
0.0215669
0.0224922
0.0214706
0.018964
0.015892
0.0128153
0.0100596
0.00730099
0.00518756
0.00289708
0.000678467
-0.00150717
0.00321531
0.00685047
0.0110474
0.0148763
0.0187307
0.0214247
0.0227612
0.0225141
0.020553
0.0176798
0.0147874
0.0119771
0.00952004
0.00707314
0.00457922
0.00263084
0.000508897
-0.00159506
0.00322441
0.00639391
0.010113
0.0139966
0.0181382
0.021078
0.0228529
0.0231875
0.0217814
0.0194433
0.0166203
0.0137275
0.0112451
0.00888738
0.00669118
0.00443
0.00229869
0.00035457
-0.0016913
0.00320319
0.0066168
0.0102128
0.0137343
0.0172363
0.0206876
0.0228137
0.0235225
0.0228124
0.0209591
0.0181872
0.0155346
0.0128596
0.010276
0.00848946
0.00603802
0.0043429
0.00213823
0.00025295
-0.0018601
0.00306866
0.00654793
0.00959825
0.0131491
0.0168032
0.0204739
0.0225071
0.0236136
0.023527
0.0220837
0.0198409
0.0172891
0.0148478
0.0122444
0.0101103
0.00794333
0.00594792
0.00420447
0.00200454
0.000263758
-0.0017807
0.00284435
0.00647142
0.00940455
0.0125119
0.0161849
0.0196588
0.0221529
0.0236143
0.0239146
0.023067
0.0211312
0.0188094
0.0163921
0.0137979
0.0115129
0.00978325
0.0078702
0.00590892
0.00392166
0.00206308
0.000158934
-0.00186013
0.00308834
0.00632168
0.00908247
0.0121184
0.0156294
0.0189076
0.0216706
0.0234985
0.0241803
0.0236253
0.022349
0.0200342
0.0177613
0.0156638
0.0134004
0.0114715
0.00929311
0.00773248
0.00588445
0.00391252
0.00206159
0.000215709
-0.00187995
0.00299095
0.00617093
0.00922292
0.0119989
0.0148231
0.0181435
0.021044
0.0231073
0.0241726
0.0241303
0.0230279
0.0211689
0.0191617
0.016726
0.0147253
0.0127823
0.0110019
0.00910565
0.00751833
0.00561115
0.00385792
0.00202614
0.000243275
-0.00182358
0.00303482
0.00603195
0.00863191
0.0116188
0.014161
0.017273
0.0202224
0.0225982
0.0240171
0.0244638
0.0238364
0.0221843
0.0203171
0.018146
0.0162651
0.0141994
0.0126782
0.0107863
0.00908027
0.00749944
0.00566187
0.00395295
0.00215418
0.000343377
-0.00167938
0.00295789
0.00583126
0.00829052
0.0112706
0.0136446
0.0164167
0.019492
0.0219424
0.0235848
0.0243926
0.0242455
0.0230676
0.0214141
0.019563
0.0172425
0.0157948
0.0140586
0.0123694
0.0103986
0.00905039
0.0074747
0.00568358
0.00395597
0.00225508
0.000410201
-0.00165479
0.00271841
0.00565336
0.00798407
0.0108247
0.0131326
0.0155855
0.018429
0.0212323
0.0231981
0.0244059
0.0244846
0.023774
0.0221306
0.0205268
0.0186957
0.0166262
0.0153142
0.0137191
0.0121462
0.0104566
0.00906095
0.0073631
0.0056497
0.00407301
0.00243811
0.000526651
-0.00147621
0.00262349
0.00548768
0.0078943
0.010427
0.0125244
0.0148396
0.0176518
0.0204997
0.0226737
0.0240042
0.0244733
0.0242554
0.0230663
0.0214264
0.0197383
0.0180829
0.0164104
0.014926
0.0136058
0.0119359
0.0105879
0.0090484
0.0075692
0.00590585
0.00427997
0.00265464
0.000831473
-0.00119018
0.00264536
0.005268
0.00773474
0.00992115
0.0119229
0.014364
0.0169401
0.0196612
0.0219769
0.0235867
0.0244955
0.0243454
0.023651
0.0222242
0.0206528
0.018916
0.0174389
0.0160831
0.0147701
0.0131773
0.0118516
0.0106443
0.00908432
0.00767275
0.00607401
0.00456894
0.00284236
0.00107652
-0.000939811
0.00254488
0.00493247
0.00744647
0.00941322
0.0115458
0.0138445
0.0161687
0.0187354
0.0212358
0.0230404
0.024175
0.0244716
0.0239871
0.0229043
0.0213158
0.0198718
0.0183136
0.0169217
0.0157636
0.014666
0.0133569
0.0120845
0.010707
0.0092248
0.00777224
0.00631109
0.00477164
0.00315981
0.00137813
-0.000657255
0.00231436
0.00470126
0.00700086
0.00904109
0.0111299
0.013261
0.0154459
0.017902
0.0204289
0.0223943
0.0237377
0.0244601
0.0241179
0.023319
0.0219128
0.0206285
0.0193041
0.0178476
0.0166242
0.0155357
0.0144292
0.0133648
0.0121816
0.0107418
0.00928028
0.00796125
0.00654779
0.00504169
0.00346122
0.00170078
-0.000372542
0.00219783
0.00457986
0.00665771
0.0087952
0.0105589
0.0126206
0.0147934
0.0170951
0.019571
0.0216932
0.0231582
0.0241514
0.0243425
0.0236436
0.0225897
0.0212315
0.0197919
0.0187268
0.0177626
0.0166336
0.0155722
0.0143598
0.0132327
0.0119686
0.0108084
0.00951331
0.00828064
0.00692917
0.00548677
0.00393215
0.00219945
8.37618e-05
0.00211342
0.00447249
0.00643522
0.00833143
0.010081
0.0121782
0.0142335
0.0162106
0.0187417
0.0209792
0.0225576
0.023867
0.0242055
0.0239552
0.0230129
0.0219361
0.0203861
0.0195124
0.018449
0.0172636
0.0163624
0.0153944
0.0142516
0.0132753
0.012184
0.0111026
0.00994827
0.00874089
0.00747384
0.00609645
0.00455423
0.00269627
0.000517973
0.00197259
0.00422877
0.00612122
0.00787964
0.00980449
0.0115527
0.0134447
0.0155795
0.0180761
0.0202287
0.0219437
0.0233731
0.0240935
0.024156
0.0233778
0.0224163
0.0212782
0.0200055
0.0189444
0.0181084
0.0170551
0.0162302
0.0153165
0.0143803
0.0134891
0.0125416
0.0115287
0.0104552
0.00933964
0.0081337
0.00679317
0.0051612
0.00307828
-0.000481579
0.00120759
0.00189291
0.0039549
0.00577445
0.00753126
0.00940137
0.0109838
0.0128327
0.0149824
0.0172594
0.0194297
0.0212267
0.0228734
0.0238241
0.0240477
0.0237071
0.022614
0.0217298
0.0204931
0.0196504
0.0188072
0.0177308
0.0169097
0.0161826
0.0154207
0.0146392
0.0138267
0.0129729
0.0120613
0.0110969
0.010041
0.00889249
0.00747534
0.00540136
0.00269284
0.00407244
-0.000227458
0.00146864
0.00175371
0.00362128
0.00539107
0.00714664
0.00885473
0.010606
0.0123545
0.0141541
0.016601
0.0186951
0.0205407
0.0223826
0.0233968
0.0238309
0.0236939
0.0231632
0.0221449
0.0210225
0.0200506
0.0190598
0.0183361
0.0175563
0.0169372
0.0163138
0.0156469
0.0149596
0.0142523
0.0135136
0.0127243
0.0118642
0.0108535
0.00965206
0.00739012
0.00845555
0.00538328
0.00699234
0.00667973
0.00299248
0.00440569
4.82997e-05
0.00178365
0.00154671
0.00339353
0.00509759
0.00679584
0.00835432
0.0100626
0.0117834
0.013528
0.0158855
0.0180441
0.0198014
0.0217857
0.0229758
0.0236432
0.02373
0.0232172
0.022411
0.0213864
0.0202647
0.0195744
0.0188027
0.0181594
0.0175968
0.017042
0.0165066
0.0159439
0.0153692
0.0147805
0.0141821
0.0135247
0.0127592
0.0117119
0.00952245
0.010574
0.00834207
0.00576246
0.00791268
0.0070897
0.003345
0.00479369
0.000341206
0.00212282
0.00145556
0.00320163
0.00468862
0.00641554
0.00792748
0.0095355
0.0112151
0.0129032
0.0151107
0.017254
0.0192406
0.0212049
0.0224996
0.0234105
0.0236604
0.0234002
0.0226489
0.0216529
0.0206495
0.019883
0.0191979
0.0185815
0.0181231
0.0176595
0.0172094
0.0167759
0.0163276
0.0158757
0.0154293
0.0149998
0.0144547
0.013629
0.0116837
0.0127452
0.00964074
0.0108803
0.00914721
0.00618979
0.0083986
0.0075623
0.00372264
0.00520976
0.0006483
0.00247765
0.00131003
0.00292037
0.00440075
0.00597836
0.00747779
0.00901088
0.0106417
0.0122648
0.0143622
0.0165558
0.0185884
0.0205546
0.0220202
0.0230572
0.0234621
0.0233752
0.0228039
0.0218765
0.0208911
0.0201007
0.0194514
0.0189181
0.0185219
0.0181307
0.017785
0.0174573
0.0171272
0.0167961
0.0165059
0.0162239
0.0159738
0.0154247
0.0137496
0.0147846
0.0120516
0.0132142
0.0103924
0.0116327
0.00970353
0.00665118
0.0089301
0.0080811
0.00411638
0.00564557
0.000969448
0.00284621
0.0011602
0.00264865
0.00410225
0.00561705
0.00705015
0.00854566
0.0101067
0.0117238
0.013511
0.0158051
0.0178713
0.019865
0.0215018
0.0226501
0.0232712
0.0233445
0.0228777
0.0221398
0.0210739
0.0202836
0.0196392
0.0191096
0.0187242
0.0184466
0.0182052
0.0179861
0.017786
0.0175568
0.0173599
0.017306
0.0172059
0.0171188
0.0157849
0.0168638
0.0143737
0.015562
0.0128691
0.0141406
0.0110246
0.0123747
0.0103132
0.00714126
0.00952789
0.0086489
0.00452153
0.0060969
0.0013018
0.00322504
0.000997134
0.00239417
0.00378138
0.00522407
0.00665898
0.00810128
0.00961924
0.011183
0.0128482
0.0151383
0.0171757
0.0191435
0.0209532
0.0222088
0.0230078
0.023228
0.0229407
0.0221827
0.0213052
0.0204383
0.0197475
0.0192412
0.0188391
0.0186122
0.0184641
0.0183516
0.0182662
0.0181904
0.0180855
0.018031
0.0184091
0.0187485
0.018029
0.0194781
0.0168922
0.0185087
0.0155304
0.0172072
0.0137977
0.0154581
0.011752
0.0133489
0.0110462
0.00766342
0.010238
0.00930831
0.00493364
0.00656364
0.00164238
0.00360927
0.000858237
0.00214452
0.0034951
0.00481515
0.00618943
0.00763185
0.00914658
0.0106281
0.0121998
0.0143185
0.0164609
0.0184972
0.0203493
0.0217937
0.0227055
0.0231031
0.0229725
0.0223555
0.021509
0.0206101
0.019862
0.0192591
0.0188569
0.0186577
0.0185636
0.0185544
0.018573
0.0186258
0.0186896
0.0188414
0.0192205
0.0209388
0.0213697
0.0244704
0.0207976
0.024391
0.0195709
0.0233275
0.0176972
0.0212648
0.0153473
0.0183617
0.0127882
0.0151603
0.0121137
0.0082489
0.0112754
0.0102518
0.00535044
0.00706281
0.00199068
0.00399448
0.000706128
0.00190223
0.00316278
0.00442956
0.00579057
0.00717529
0.00863407
0.0101544
0.0116133
0.0134207
0.015701
0.0177902
0.0197589
0.0213143
0.0223738
0.0229176
0.0229312
0.0225042
0.0217078
0.0207975
0.0199712
0.0193315
0.0188799
0.0186046
0.0185325
0.0185871
0.0187161
0.0188853
0.0190776
0.0194257
0.0204517
0.0241408
0.0278859
0.0331177
0.0296849
0.0365852
0.0297203
0.0386861
0.027472
0.0379002
0.0237377
0.033567
0.0191452
0.0268845
0.0148347
0.0198487
0.0142844
0.00904348
0.0134138
0.0121797
0.00577798
0.00768534
0.00234073
0.00437414
0.00058552
0.00168861
0.00284353
0.00407963
0.00537113
0.00672937
0.00813318
0.00962984
0.0110783
0.0126399
0.0150112
0.0169935
0.0191094
0.0208287
0.0220139
0.0227359
0.0229188
0.0226207
0.0218984
0.020981
0.0200995
0.0193532
0.0188014
0.0184876
0.0183875
0.0184747
0.0186877
0.0189675
0.0193065
0.0198686
0.0216292
0.0279083
0.0380303
0.0440375
0.0443283
0.0524064
0.0490435
0.0598349
0.0508643
0.0646832
0.0485689
0.0653518
0.0412668
0.0606924
0.0303218
0.0496819
0.020276
0.0333956
0.0201418
0.0105994
0.019233
0.0174178
0.0062525
0.00879873
0.0026871
0.00475234
0.00048366
0.00146854
0.00254255
0.00371208
0.00495945
0.00626536
0.00764313
0.00908915
0.010554
0.0119936
0.0142865
0.0161888
0.0183867
0.0203249
0.0216189
0.0224875
0.0228568
0.0227236
0.0221084
0.0211936
0.0202571
0.0194264
0.0187845
0.0183442
0.0181609
0.0182343
0.0184967
0.0188828
0.0193609
0.0201421
0.0231417
0.0341273
0.0502046
0.0520788
0.0599514
0.0677726
0.0701502
0.0795856
0.0779338
0.0900946
0.0819544
0.0972948
0.0808191
0.099684
0.0731221
0.0960352
0.0576802
0.0847155
0.035575
0.0640282
0.0362737
0.014708
0.0350417
0.0314709
0.00696253
0.0115754
0.00302489
0.00518003
0.000399135
0.00126284
0.00224997
0.00334124
0.00453626
0.0058018
0.00713805
0.0085523
0.0100003
0.0114074
0.0135356
0.0153933
0.0176411
0.019738
0.0211904
0.0222224
0.0227717
0.0228079
0.0223281
0.021452
0.0204489
0.0195328
0.018749
0.0181874
0.0178934
0.0178909
0.0181745
0.018642
0.0192502
0.0202701
0.0245261
0.0400362
0.0745304
0.072851
0.0834611
0.0879091
0.0953925
0.100778
0.109925
0.110761
0.122326
0.116535
0.131021
0.116808
0.134762
0.110104
0.132469
0.0945314
0.122321
0.0680196
0.101776
0.0691156
0.0256796
0.0666858
0.0600033
0.0084875
0.0190095
0.00335164
0.00589504
0.000331547
0.00107248
0.00195252
0.00296104
0.00409632
0.00532492
0.0066255
0.00800525
0.00942892
0.0108044
0.0128251
0.0146238
0.016863
0.0190535
0.0207223
0.0219219
0.0226555
0.0228577
0.0225212
0.0217352
0.0207095
0.0196686
0.0187539
0.0180402
0.0176082
0.0174923
0.0177459
0.0182891
0.0190391
0.0203715
0.0258984
0.044669
0.0814916
0.110524
0.114163
0.101475
0.1069
0.117601
0.124072
0.131905
0.139602
0.14294
0.152561
0.149755
0.161809
0.15127
0.166421
0.146101
0.165551
0.132122
0.157384
0.106143
0.138985
0.107334
0.0491361
0.104696
0.0972079
0.0127158
0.0364734
0.00369415
0.0075904
0.000269947
0.000895332
0.00166977
0.00258528
0.00364207
0.00482833
0.0061014
0.00744957
0.00884159
0.0101798
0.0121346
0.0138837
0.016042
0.0183104
0.0202237
0.0215568
0.0224789
0.0228873
0.0227048
0.0220289
0.0210406
0.0199092
0.0188279
0.0179217
0.0173548
0.0171275
0.017283
0.0178965
0.0188265
0.0206469
0.0275369
0.048373
0.0856256
0.116486
0.118434
0.135742
0.137736
0.129125
0.132984
0.145653
0.150356
0.159962
0.165361
0.170947
0.177762
0.178149
0.186645
0.180647
0.191595
0.17723
0.192093
0.165917
0.186466
0.142874
0.171469
0.143564
0.0839652
0.140245
0.131925
0.0230894
0.0652182
0.00405184
0.0118132
0.000188428
0.000704585
0.0013888
0.00221388
0.00319581
0.00431259
0.00555183
0.00687352
0.00823869
0.00954935
0.0113077
0.0131429
0.0151941
0.0175099
0.0196024
0.0211074
0.0222317
0.0228638
0.0229193
0.0223695
0.0214415
0.0202981
0.019093
0.0179665
0.0171813
0.016928
0.0170509
0.0176857
0.0189127
0.0213549
0.0297606
0.0514982
0.0883718
0.120065
0.11809
0.138951
0.139583
0.156872
0.157303
0.15366
0.155753
0.169198
0.171684
0.182234
0.184737
0.191937
0.194468
0.198324
0.201396
0.201475
0.205973
0.200477
0.207884
0.192718
0.20586
0.174272
0.196319
0.173996
0.118105
0.169985
0.161492
0.0429458
0.097491
0.00437565
0.0204673
6.78546e-05
0.00045062
0.00106222
0.00182547
0.00273224
0.00377785
0.00497146
0.00626986
0.00762345
0.00890393
0.0104871
0.0124465
0.014315
0.0166622
0.0188623
0.0205865
0.0218775
0.0227512
0.0230748
0.0227817
0.0219457
0.020874
0.0196275
0.0183846
0.0174785
0.0172684
0.0176835
0.01845
0.0199552
0.0234041
0.0326029
0.0542875
0.0900984
0.129814
0.13928
0.141329
0.15704
0.156227
0.172245
0.170874
0.172856
0.172953
0.185586
0.185243
0.195022
0.194289
0.202042
0.201062
0.207206
0.206564
0.210619
0.210707
0.21176
0.213319
0.208817
0.21368
0.197519
0.209975
0.196138
0.147479
0.191729
0.183736
0.0687035
0.125703
0.00406668
0.0337961
0.000135469
0.000648837
0.001355
0.00222021
0.00322258
0.0043514
0.00564879
0.0069774
0.00823666
0.00972307
0.011703
0.0134457
0.0157672
0.0180345
0.0199768
0.0214021
0.0224694
0.0230844
0.0230936
0.0225137
0.0215737
0.020462
0.0194034
0.0188926
0.0194307
0.0206514
0.0219454
0.0235292
0.0269382
0.0361251
0.0571867
0.0911044
0.128274
0.151539
0.149263
0.154881
0.153598
0.16898
0.166656
0.179581
0.176736
0.183951
0.182005
0.192631
0.190307
0.19932
0.196872
0.204566
0.201506
0.208639
0.204897
0.211839
0.207752
0.214057
0.210475
0.214306
0.212955
0.209494
0.213545
0.207346
0.170311
0.203209
0.19648
0.0929996
0.148066
0.00449931
0.0485678
0.000187815
0.000809609
0.00161114
0.00258091
0.00368081
0.00497314
0.00626641
0.00753587
0.00895377
0.010892
0.0125812
0.0148393
0.0171443
0.019277
0.0208391
0.0220328
0.022863
0.0232038
0.0229285
0.0222658
0.0214345
0.0210081
0.0218144
0.0241204
0.0267588
0.028424
0.0292854
0.0317743
0.040151
0.060343
0.0926532
0.12663
0.147102
0.14429
0.158315
0.155199
0.164023
0.161312
0.173648
0.170251
0.181219
0.177529
0.187617
0.184575
0.19383
0.190327
0.197698
0.193319
0.199732
0.193891
0.201418
0.193638
0.203595
0.194228
0.206622
0.196639
0.210359
0.201053
0.211501
0.207008
0.208591
0.184602
0.204758
0.200388
0.196355
0.113508
0.163926
0.00575358
0.0619353
0.000241204
0.000937719
0.00183589
0.0029096
0.00419825
0.00547452
0.00681882
0.00827095
0.0100511
0.0117015
0.0138739
0.0161849
0.0184346
0.0201699
0.0215378
0.0224935
0.0230452
0.0231383
0.0228098
0.0224055
0.0228438
0.0253806
0.0297624
0.0338649
0.0360383
0.0365908
0.0378805
0.0450801
0.0636732
0.0943267
0.124799
0.142463
0.152111
0.148982
0.159714
0.156076
0.166777
0.163263
0.173684
0.169701
0.177954
0.173362
0.186511
0.182368
0.188622
0.183761
0.187788
0.181659
0.18511
0.176429
0.183007
0.170798
0.18335
0.168121
0.186942
0.169936
0.194795
0.176241
0.203349
0.188846
0.197327
0.204141
0.199904
0.197128
0.183781
0.192318
0.201069
0.197562
0.198927
0.198806
0.129699
0.186217
0.177078
0.161458
0.00897696
0.0764821
0.000279392
0.00103706
0.00202997
0.00326869
0.00461743
0.00597726
0.00742615
0.00907623
0.0107899
0.0128648
0.0151595
0.0174588
0.0193763
0.0209284
0.0220697
0.0227777
0.0230978
0.0231723
0.0232104
0.0245867
0.0289718
0.0355463
0.0413938
0.0446554
0.0452234
0.0455302
0.0510401
0.0677674
0.0959312
0.122042
0.136458
0.144977
0.141434
0.15243
0.148847
0.157117
0.152875
0.165572
0.16136
0.168656
0.163875
0.168373
0.163028
0.178793
0.173666
0.175504
0.169388
0.167989
0.160032
0.158607
0.147285
0.152109
0.135823
0.150498
0.131485
0.153695
0.147956
0.136423
0.179314
0.167742
0.143771
0.156068
0.186347
0.19371
0.184059
0.175539
0.192242
0.195861
0.192027
0.196773
0.191024
0.191474
0.195335
0.165328
0.124566
0.149296
0.186674
0.179037
0.016305
0.12985
0.104338
0.0700059
0.000284135
0.00110252
0.00220672
0.00361455
0.00503095
0.00648945
0.00806366
0.00981353
0.0118193
0.0140689
0.0163776
0.0184714
0.0201639
0.0215175
0.0224583
0.0229424
0.0232568
0.023734
0.025887
0.0319829
0.0406123
0.0484909
0.0534978
0.054988
0.0548671
0.0585709
0.0728328
0.0976228
0.118777
0.130153
0.132886
0.140236
0.134819
0.148666
0.144483
0.149435
0.144758
0.15906
0.154224
0.15768
0.152353
0.151211
0.145316
0.163336
0.15725
0.152369
0.145003
0.136596
0.127223
0.121091
0.109968
0.114378
0.101941
0.126853
0.117792
0.110406
0.104273
0.132378
0.122148
0.127666
0.118976
0.163817
0.150953
0.127245
0.138724
0.172779
0.18308
0.171155
0.160335
0.182287
0.193203
0.190016
0.190713
0.182213
0.18253
0.190094
0.168263
0.153583
0.185564
0.179287
0.0771801
0.0119651
0.0445013
0.134783
0.111289
0.000232512
0.00110151
0.00242485
0.00393566
0.00546455
0.00705241
0.00877867
0.0107344
0.0129177
0.015224
0.0174625
0.0192492
0.0207855
0.0219583
0.0227063
0.0231749
0.0239216
0.0265886
0.0338767
0.0444265
0.0541538
0.0612331
0.0647811
0.0654533
0.067957
0.0794337
0.0996501
0.115386
0.123933
0.124037
0.120756
0.116205
0.130922
0.125812
0.140181
0.135609
0.136669
0.131863
0.147026
0.141733
0.139617
0.134089
0.124633
0.118603
0.137974
0.131138
0.118606
0.110636
0.102463
0.0972479
0.0955722
0.0926969
0.100166
0.0969666
0.094939
0.094211
0.111291
0.105222
0.101046
0.0986735
0.11807
0.111201
0.113602
0.107543
0.147334
0.134893
0.116713
0.124286
0.158106
0.170453
0.15708
0.144865
0.170485
0.188973
0.186904
0.183055
0.171264
0.17255
0.183481
0.170107
0.156968
0.183416
0.178328
0.0836918
0.015201
0.0505595
0.13938
0.117124
7.4962e-05
0.00113335
0.00266709
0.00430959
0.00594802
0.00767892
0.0095913
0.0117081
0.013989
0.0163028
0.0181992
0.0198856
0.0212512
0.02226
0.0229642
0.0238805
0.0267577
0.0345754
0.0464706
0.0577592
0.0665809
0.0725087
0.0754814
0.0781156
0.0869691
0.101381
0.111989
0.117982
0.114758
0.100046
0.106833
0.0993262
0.117591
0.112356
0.127206
0.122499
0.118672
0.114263
0.128648
0.123425
0.113086
0.107995
0.0905349
0.0849748
0.103469
0.0967984
0.0929688
0.0888835
0.0914809
0.0907849
0.0938438
0.0947805
0.0960456
0.0987961
0.0977671
0.0977849
0.0993063
0.101651
0.103743
0.102199
0.101934
0.103531
0.113223
0.108045
0.111742
0.106745
0.132772
0.123522
0.116949
0.118932
0.143802
0.157047
0.143852
0.132216
0.158044
0.183493
0.182743
0.174256
0.15985
0.162287
0.175957
0.170876
0.159672
0.180622
0.176729
0.0893886
0.0166216
0.0543529
0.143564
0.122229
-9.17982e-06
0.00128915
0.00296479
0.00472287
0.00649149
0.00837675
0.0104351
0.0126723
0.0150213
0.0170002
0.018821
0.020356
0.0215769
0.0225159
0.0235887
0.0265059
0.0343848
0.0468358
0.0592402
0.0687744
0.0762705
0.0818902
0.0866954
0.0939336
0.102735
0.109425
0.112434
0.105871
0.0884064
0.0778316
0.0722369
0.0901235
0.0838211
0.100748
0.0956438
0.109941
0.105482
0.0957141
0.0923221
0.103354
0.0993112
0.080144
0.076158
0.0740304
0.0683016
0.0844568
0.0796323
0.0902717
0.088877
0.108192
0.115549
0.104539
0.107785
0.110745
0.111848
0.106478
0.11047
0.115461
0.121207
0.107138
0.109725
0.113905
0.119393
0.117059
0.11228
0.120334
0.115524
0.125496
0.12256
0.124254
0.121615
0.133692
0.145074
0.136403
0.128727
0.14733
0.177292
0.177947
0.165236
0.150163
0.153694
0.168255
0.170992
0.161861
0.17747
0.175079
0.0940367
0.016268
0.0561057
0.147483
0.126806
2.68636e-05
0.0015328
0.00333806
0.00518748
0.00707916
0.00908632
0.0112761
0.013597
0.0156812
0.0175921
0.019284
0.0206835
0.021816
0.0230107
0.0257439
0.0334749
0.0459684
0.0583051
0.0678522
0.0758975
0.0832431
0.0902488
0.0971098
0.102987
0.10739
0.107538
0.0978881
0.077573
0.052914
0.0604396
0.0526499
0.0720252
0.0664397
0.0813156
0.0769526
0.0888688
0.08524
0.0690275
0.0670708
0.0730903
0.070852
0.0621736
0.0558479
0.0773729
0.0701605
0.086377
0.0826419
0.121594
0.124946
0.153754
0.159924
0.170298
0.164952
0.127507
0.134077
0.140828
0.14741
0.126053
0.133647
0.141918
0.150562
0.120682
0.127513
0.135611
0.144626
0.130161
0.126179
0.138663
0.134115
0.1266
0.12756
0.14105
0.132635
0.132568
0.139788
0.136492
0.131191
0.14341
0.170976
0.17312
0.157497
0.147187
0.151035
0.161447
0.170878
0.163767
0.174292
0.173621
0.0975491
0.014488
0.0551671
0.151193
0.130832
0.000159908
0.00184297
0.00374066
0.00567423
0.00765434
0.00979405
0.0120869
0.0142448
0.0162216
0.018042
0.0195966
0.020898
0.0221832
0.0245971
0.0315929
0.0439581
0.0554669
0.0638975
0.0722795
0.0807026
0.0887114
0.0959495
0.101404
0.104674
0.103171
0.0910808
0.0681287
0.041237
0.0355279
0.0305767
0.0450426
0.0396037
0.054117
0.0498779
0.0605111
0.057635
0.0650123
0.0628954
0.0418921
0.0403448
0.0501051
0.0453111
0.062124
0.0532819
0.116296
0.105584
0.125112
0.122651
0.174408
0.180447
0.201216
0.192256
0.199191
0.210177
0.205298
0.15934
0.168023
0.176624
0.184768
0.15435
0.164482
0.174798
0.185075
0.143401
0.153612
0.164486
0.1757
0.151866
0.148884
0.163914
0.160158
0.134229
0.141552
0.164779
0.152269
0.136009
0.14038
0.14106
0.141059
0.144264
0.165388
0.168893
0.154873
0.148063
0.151732
0.158793
0.171008
0.16576
0.171667
0.172616
0.0997914
0.0118633
0.0506191
0.1548
0.134509
0.000357524
0.00217191
0.00413594
0.00612094
0.00822359
0.0104811
0.0126749
0.0147125
0.0166418
0.0183343
0.0197835
0.0211433
0.0232703
0.0291599
0.0406408
0.051011
0.057648
0.0643062
0.0734333
0.0834167
0.0922584
0.0986149
0.101508
0.0983754
0.0850057
0.0602667
0.0335261
0.0212149
0.0255615
0.0215431
0.0322861
0.0290074
0.0372881
0.0351131
0.0394669
0.0386657
0.0398764
0.0398356
0.0297502
0.0240035
0.0445916
0.0366047
0.091992
0.0756992
0.191737
0.177389
0.202831
0.199411
0.213001
0.213172
0.262107
0.264373
0.230913
0.238419
0.250991
0.245153
0.195115
0.204766
0.214116
0.222859
0.187092
0.198433
0.209584
0.220392
0.17204
0.184206
0.19647
0.208607
0.178406
0.17673
0.192421
0.189853
0.150434
0.162875
0.191799
0.176964
0.14745
0.145733
0.15321
0.158642
0.149787
0.162527
0.166244
0.155345
0.153286
0.156187
0.159029
0.171662
0.168089
0.169896
0.172575
0.0983666
0.00889164
0.0428114
0.158297
0.136915
0.000597883
0.00249053
0.00447924
0.00655083
0.00877961
0.0109835
0.0130844
0.0150943
0.0169081
0.0184901
0.019934
0.0218273
0.026613
0.0367648
0.0465224
0.0519428
0.0556369
0.0597613
0.0692769
0.0822625
0.0917944
0.0956688
0.0917725
0.0777957
0.0522842
0.0281534
0.0172196
0.014204
0.0127493
0.0170664
0.0154294
0.0199337
0.0186306
0.0208517
0.0207195
0.0194668
0.0203595
0.0203882
0.0190162
0.0295553
0.0199602
0.058841
0.0429395
0.158467
0.134462
0.269643
0.255273
0.264617
0.265921
0.27836
0.255887
0.2596
0.294415
0.295266
0.265922
0.27304
0.284582
0.279291
0.230695
0.240415
0.24966
0.258169
0.220543
0.232108
0.243214
0.253764
0.202956
0.215866
0.228478
0.240626
0.206734
0.206424
0.221425
0.220194
0.172512
0.187916
0.219497
0.203809
0.165647
0.158078
0.171414
0.180828
0.161774
0.162615
0.166406
0.15873
0.16434
0.165938
0.161419
0.173051
0.170733
0.170181
0.173539
0.0928403
0.00610968
0.032684
0.161775
0.136627
0.000817303
0.00273513
0.00478766
0.00697503
0.00918701
0.0113256
0.0134163
0.015337
0.0170411
0.0185716
0.0203184
0.0241049
0.0327841
0.0421785
0.0469001
0.0486831
0.0479906
0.0510009
0.0607057
0.0743666
0.0828555
0.0804322
0.0663672
0.0426797
0.0240851
0.0150019
0.00968575
0.0083391
0.00810202
0.00855145
0.00846258
0.00822589
0.00852026
0.00708871
0.00770929
0.00718535
0.00667599
0.0134434
0.00934777
0.0519284
0.0302555
0.107141
0.0784743
0.234776
0.209555
0.305969
0.300173
0.294531
0.294112
0.291708
0.310815
0.314316
0.288928
0.292177
0.319205
0.319739
0.295881
0.302067
0.311689
0.307363
0.263626
0.272764
0.28129
0.288993
0.252299
0.263364
0.273779
0.283466
0.233534
0.246317
0.258486
0.269947
0.2347
0.235656
0.249147
0.249175
0.197422
0.21417
0.246142
0.230547
0.187638
0.175509
0.192668
0.20519
0.178291
0.164347
0.167729
0.166892
0.17961
0.179862
0.167683
0.175105
0.173632
0.171652
0.175301
0.0828707
0.00530104
0.0220407
0.164573
0.132945
0.000952922
0.00292003
0.0050894
0.00728201
0.00946186
0.0116173
0.0136336
0.0154496
0.0170758
0.0187452
0.0217493
0.0289119
0.0379534
0.0424819
0.0433544
0.0400278
0.0378743
0.0417507
0.0510657
0.059964
0.0612495
0.0510836
0.0337633
0.020841
0.0142215
0.0097524
0.00585374
0.00651729
0.0045364
0.00516186
0.00311425
0.00385193
0.0014397
0.0023096
0.000145035
0.000589272
0.00245335
0.000601651
0.0152843
0.00666149
0.100868
0.0643826
0.177473
0.139665
0.27547
0.252863
0.316754
0.309623
0.303132
0.292642
0.319214
0.317333
0.322622
0.32719
0.315125
0.31761
0.33551
0.334918
0.319734
0.324567
0.33156
0.328526
0.292338
0.300378
0.3077
0.314142
0.280712
0.290682
0.299852
0.308173
0.261967
0.273901
0.284944
0.295087
0.260738
0.262761
0.274104
0.275263
0.222829
0.239788
0.270338
0.255728
0.211206
0.196061
0.215585
0.229595
0.19783
0.168875
0.171049
0.179233
0.197896
0.196594
0.17792
0.177416
0.17669
0.174167
0.177692
0.0681332
0.00463683
0.0132144
0.165581
0.124587
0.00103542
0.00309434
0.00529965
0.0074893
0.00971233
0.0117991
0.0137305
0.0154557
0.0171162
0.0195617
0.0253223
0.0337688
0.0385278
0.0392949
0.0352131
0.0304613
0.0301733
0.0346909
0.0405529
0.0423452
0.0366376
0.0267625
0.0188009
0.0141426
0.010522
0.00696641
0.00421314
0.00507695
0.00221952
0.00323452
-3.17476e-06
0.0011342
-0.00229401
-0.00119154
-0.00327656
-0.00310812
0.00248292
-0.00208696
0.0344241
0.01379
0.159804
0.115033
0.227952
0.198502
0.284006
0.272165
0.254393
0.31914
0.311479
0.298693
0.288363
0.333286
0.330633
0.325851
0.331484
0.333723
0.335033
0.343981
0.342084
0.336751
0.34
0.344072
0.342445
0.3156
0.322136
0.327889
0.332739
0.304338
0.312684
0.320122
0.326681
0.286747
0.297082
0.3063
0.314474
0.283368
0.28622
0.29467
0.296885
0.247219
0.263477
0.290632
0.278063
0.235055
0.21815
0.238243
0.253201
0.218676
0.176901
0.176708
0.194059
0.217249
0.214088
0.190652
0.180522
0.178995
0.178148
0.181252
0.049092
0.00283637
0.00787629
0.16397
0.110941
0.00110131
0.00320914
0.00544417
0.00768732
0.00987025
0.0118786
0.0137252
0.0154321
0.0175316
0.0220565
0.0296737
0.0348955
0.0359303
0.0322547
0.0269103
0.0243365
0.0257832
0.0286768
0.0297356
0.0271937
0.0224556
0.0178297
0.0144932
0.0114526
0.00825302
0.00508064
0.0029146
0.00400295
0.00056058
0.0017772
-0.00208385
-0.000737827
-0.00466049
-0.00341786
-0.00497455
-0.00549481
0.0120916
-0.00050314
0.072182
0.0363669
0.192612
0.161103
0.233562
0.214393
0.277906
0.26688
0.233963
0.244513
0.316342
0.307867
0.290253
0.278473
0.339467
0.33603
0.323713
0.330037
0.344896
0.344923
0.344931
0.342482
0.346555
0.347984
0.348634
0.348654
0.33237
0.337156
0.341145
0.344262
0.32166
0.327912
0.33321
0.337579
0.306206
0.314106
0.32074
0.326221
0.300947
0.304267
0.309012
0.312094
0.269602
0.283749
0.304063
0.295378
0.256776
0.239323
0.257728
0.272837
0.23801
0.186933
0.184237
0.209586
0.234733
0.230227
0.204022
0.183077
0.180172
0.183617
0.184044
0.0287767
-0.0028949
0.00133716
0.158782
0.0889323
0.00113536
0.0032907
0.00559415
0.00781763
0.0099278
0.0118798
0.0136688
0.0155977
0.0191681
0.0257914
0.0314318
0.032983
0.0299004
0.02461
0.02135
0.0213235
0.0226528
0.0233518
0.0224459
0.0202209
0.0174776
0.0150308
0.0122778
0.00939481
0.00676766
0.00324261
0.00296575
0.00426261
0.0018307
-0.000713203
0.000603361
-0.00361043
-0.00209632
-0.00665136
-0.00525519
-0.0033619
-0.00681722
0.0333133
0.00841361
0.117042
0.071501
0.192854
0.176552
0.216708
0.205148
0.266109
0.254392
0.21538
0.223968
0.310851
0.301431
0.27828
0.264347
0.339355
0.335237
0.318762
0.325575
0.348028
0.346812
0.341747
0.339079
0.348241
0.348426
0.347018
0.348017
0.341071
0.343821
0.345937
0.347404
0.330681
0.33417
0.336944
0.339193
0.318313
0.322984
0.326442
0.328877
0.309788
0.314977
0.312694
0.31896
0.286006
0.296387
0.305232
0.302905
0.273598
0.25654
0.27291
0.28678
0.253688
0.198309
0.192609
0.224014
0.250474
0.245339
0.217097
0.185526
0.178797
0.188027
0.187851
0.0115285
-0.0162691
-0.0130655
0.14752
0.0620155
0.00115579
0.00338263
0.00569956
0.00786373
0.00992908