/*--------------------------------*- C++ -*----------------------------------*\
  =========                 |
  \\      /  F ield         | OpenFOAM: The Open Source CFD Toolbox
   \\    /   O peration     | Website:  https://openfoam.org
    \\  /    A nd           | Version:  dev
     \\/     M anipulation  |
\*---------------------------------------------------------------------------*/
FoamFile
{
    version     2.0;
    format      ascii;
    class       surfaceScalarField;
    location    "2500";
    object      phi;
}
// * * * * * * * * * * * * * * * * * * * * * * * * * * * * * * * * * * * * * //

dimensions      [1 0 -1 0 0 0 0];

internalField   nonuniform List<scalar> 
19533
(
1.68792e-07
1.18217e-07
1.47572e-07
2.96094e-07
4.80751e-07
1.05909e-07
1.23458e-07
4.0805e-07
4.79194e-07
2.97652e-07
6.95387e-07
8.70415e-08
1.04548e-07
4.90235e-07
4.50635e-07
4.36597e-07
7.24987e-07
2.68023e-07
8.61131e-07
7.13616e-08
8.91592e-08
5.52662e-07
4.02715e-07
5.3814e-07
7.38639e-07
4.229e-07
9.01437e-07
2.27723e-07
1.00114e-06
6.0554e-08
7.5783e-08
6.00325e-07
3.47242e-07
6.08165e-07
7.28491e-07
5.48287e-07
9.4587e-07
3.7849e-07
1.03691e-06
1.91958e-07
1.12519e-06
5.24392e-08
6.44232e-08
6.40458e-07
2.92086e-07
6.55584e-07
6.94687e-07
6.41896e-07
9.78414e-07
5.15704e-07
1.0893e-06
3.26092e-07
1.15149e-06
1.65651e-07
1.23407e-06
4.56351e-08
5.50887e-08
6.72046e-07
2.46198e-07
6.86306e-07
6.45019e-07
7.05246e-07
9.89388e-07
6.30912e-07
1.14708e-06
4.57918e-07
1.19835e-06
2.79222e-07
1.25544e-06
1.44292e-07
1.3309e-06
3.97494e-08
4.73732e-08
6.94135e-07
2.11787e-07
7.06442e-07
5.8679e-07
7.44522e-07
9.77478e-07
7.17142e-07
1.19881e-06
5.79172e-07
1.2601e-06
3.9618e-07
1.29156e-06
2.43103e-07
1.34922e-06
1.25963e-07
1.41651e-06
3.48238e-08
4.20538e-08
7.05695e-07
1.87453e-07
7.1848e-07
5.28447e-07
7.64776e-07
9.46583e-07
7.75402e-07
1.23337e-06
6.82577e-07
1.33031e-06
5.08936e-07
1.34532e-06
3.42418e-07
1.37934e-06
2.12984e-07
1.43169e-06
1.10781e-07
1.49201e-06
3.04765e-08
3.87798e-08
7.07819e-07
1.71086e-07
7.2203e-07
4.76829e-07
7.70034e-07
9.01452e-07
8.09811e-07
1.24578e-06
7.62952e-07
1.39771e-06
6.15169e-07
1.4135e-06
4.40745e-07
1.422e-06
2.99781e-07
1.45766e-06
1.87041e-07
1.50586e-06
9.69845e-08
1.55868e-06
2.70283e-08
3.63235e-08
7.04072e-07
1.56848e-07
7.21975e-07
4.33148e-07
7.65687e-07
8.50355e-07
8.21112e-07
1.23651e-06
8.19026e-07
1.45148e-06
7.09159e-07
1.49101e-06
5.37677e-07
1.47945e-06
3.83232e-07
1.4942e-06
2.63201e-07
1.5281e-06
1.64784e-07
1.56999e-06
8.56928e-08
1.61965e-06
2.38297e-08
3.45295e-08
6.93334e-07
1.46902e-07
7.13816e-07
4.02723e-07
7.52477e-07
8.00248e-07
8.15728e-07
1.20945e-06
8.48092e-07
1.48601e-06
7.84469e-07
1.56955e-06
6.30577e-07
1.54994e-06
4.67169e-07
1.54168e-06
3.35748e-07
1.55934e-06
2.31956e-07
1.58998e-06
1.44791e-07
1.62989e-06
7.54524e-08
1.67373e-06
2.0705e-08
3.34461e-08
6.76205e-07
1.43211e-07
6.97007e-07
3.82191e-07
7.34424e-07
7.51281e-07
8.01268e-07
1.17003e-06
8.55133e-07
1.49747e-06
8.36579e-07
1.63794e-06
7.16027e-07
1.62966e-06
5.50845e-07
1.60098e-06
4.07848e-07
1.59961e-06
2.95461e-07
1.61732e-06
2.04609e-07
1.6466e-06
1.28072e-07
1.68289e-06
6.62957e-08
1.72069e-06
1.82354e-08
3.31243e-08
6.55512e-07
1.39635e-07
6.79761e-07
3.64302e-07
7.1489e-07
7.06343e-07
7.79323e-07
1.12315e-06
8.48099e-07
1.4878e-06
8.64699e-07
1.68982e-06
7.84672e-07
1.71279e-06
6.32855e-07
1.67127e-06
4.8053e-07
1.64853e-06
3.58915e-07
1.65218e-06
2.60546e-07
1.67015e-06
1.81066e-07
1.698e-06
1.12963e-07
1.7289e-06
5.80895e-08
1.76374e-06
1.59263e-08
3.39209e-08
6.3233e-07
1.36892e-07
6.58237e-07
3.54309e-07
6.89719e-07
6.70086e-07
7.51084e-07
1.07314e-06
8.29299e-07
1.46223e-06
8.73657e-07
1.71921e-06
8.35258e-07
1.79092e-06
7.0655e-07
1.75008e-06
5.53948e-07
1.70749e-06
4.21571e-07
1.69547e-06
3.15661e-07
1.70141e-06
2.29277e-07
1.71907e-06
1.59937e-07
1.74321e-06
9.8649e-08
1.77132e-06
5.0469e-08
1.8016e-06
1.36411e-08
3.5819e-08
6.05945e-07
1.40015e-07
6.29196e-07
3.51701e-07
6.60874e-07
6.40843e-07
7.18978e-07
1.02214e-06
8.02073e-07
1.42334e-06
8.68171e-07
1.72576e-06
8.67126e-07
1.85597e-06
7.70126e-07
1.83401e-06
6.22662e-07
1.77609e-06
4.85308e-07
1.74595e-06
3.71071e-07
1.73894e-06
2.78123e-07
1.74563e-06
2.02712e-07
1.7629e-06
1.40257e-07
1.78405e-06
8.59547e-08
1.80887e-06
4.321e-08
1.83502e-06
1.15548e-08
3.73195e-08
5.78788e-07
1.44495e-07
6.01546e-07
3.46972e-07
6.3395e-07
6.16368e-07
6.85383e-07
9.72544e-07
7.68591e-07
1.37378e-06
8.51622e-07
1.7147e-06
8.79214e-07
1.90279e-06
8.20297e-07
1.9162e-06
6.87897e-07
1.85288e-06
5.4587e-07
1.80408e-06
4.27155e-07
1.7825e-06
3.27495e-07
1.77875e-06
2.45042e-07
1.78736e-06
1.7825e-07
1.80146e-06
1.22897e-07
1.81999e-06
7.48386e-08
1.84167e-06
3.65773e-08
1.86413e-06
9.4536e-09
3.88775e-08
5.50973e-07
1.49666e-07
5.73625e-07
3.43622e-07
6.04858e-07
5.98723e-07
6.51669e-07
9.26512e-07
7.31445e-07
1.31985e-06
8.22524e-07
1.68943e-06
8.76889e-07
1.92546e-06
8.56534e-07
1.9903e-06
7.46207e-07
1.93552e-06
6.05215e-07
1.87004e-06
4.79869e-07
1.8325e-06
3.77159e-07
1.81757e-06
2.8868e-07
1.81576e-06
2.16634e-07
1.8241e-06
1.55568e-07
1.83546e-06
1.07455e-07
1.85334e-06
6.32042e-08
1.87111e-06
2.96159e-08
1.88897e-06
7.52976e-09
3.98482e-08
5.22136e-07
1.55378e-07
5.45293e-07
3.42534e-07
5.74767e-07
5.84888e-07
6.18847e-07
8.87091e-07
6.91116e-07
1.2653e-06
7.86033e-07
1.64751e-06
8.64465e-07
1.92835e-06
8.74003e-07
2.04967e-06
7.97139e-07
2.01915e-06
6.62526e-07
1.94337e-06
5.31829e-07
1.88934e-06
4.23e-07
1.86145e-06
3.33196e-07
1.85001e-06
2.54424e-07
1.85135e-06
1.89369e-07
1.85636e-06
1.3467e-07
1.86926e-06
9.15081e-08
1.88248e-06
5.18241e-08
1.89534e-06
2.32669e-08
1.90981e-06
5.36039e-09
4.05109e-08
4.92598e-07
1.60203e-07
5.17359e-07
3.42327e-07
5.45561e-07
5.7336e-07
5.86401e-07
8.56005e-07
6.49991e-07
1.21031e-06
7.46174e-07
1.59396e-06
8.39607e-07
1.9152e-06
8.77628e-07
2.08844e-06
8.3521e-07
2.09873e-06
7.1755e-07
2.02259e-06
5.83198e-07
1.95326e-06
4.67866e-07
1.9115e-06
3.7296e-07
1.88978e-06
2.93441e-07
1.88222e-06
2.23544e-07
1.88254e-06
1.63114e-07
1.88881e-06
1.15107e-07
1.89786e-06
7.61343e-08
1.90653e-06
4.06747e-08
1.91676e-06
1.63104e-08
1.92655e-06
3.13416e-09
4.20804e-08
4.62066e-07
1.64265e-07
4.88584e-07
3.42874e-07
5.16905e-07
5.64644e-07
5.54457e-07
8.30911e-07
6.11593e-07
1.1566e-06
7.03805e-07
1.53595e-06
8.04246e-07
1.88619e-06
8.68638e-07
2.10616e-06
8.59889e-07
2.16708e-06
7.66831e-07
2.10514e-06
6.3508e-07
2.02277e-06
5.13662e-07
1.96713e-06
4.12206e-07
1.93373e-06
3.28933e-07
1.91744e-06
2.58212e-07
1.91245e-06
1.93643e-07
1.91223e-06
1.39702e-07
1.9176e-06
9.53854e-08
1.92246e-06
6.0168e-08
1.92796e-06
2.95071e-08
1.93378e-06
9.05292e-09
1.93875e-06
7.84159e-10
4.41147e-08
4.3196e-07
1.6782e-07
4.5856e-07
3.43594e-07
4.87944e-07
5.58444e-07
5.23229e-07
8.09378e-07
5.76005e-07
1.10808e-06
6.60237e-07
1.47495e-06
7.64884e-07
1.83935e-06
8.51153e-07
2.10532e-06
8.69424e-07
2.22001e-06
8.06973e-07
2.18652e-06
6.85447e-07
2.09807e-06
5.59766e-07
2.02806e-06
4.52587e-07
1.98239e-06
3.63525e-07
1.95681e-06
2.8955e-07
1.94495e-06
2.25717e-07
1.93979e-06
1.66066e-07
1.94073e-06
1.16545e-07
1.94206e-06
7.5788e-08
1.94348e-06
4.46467e-08
1.94582e-06
1.75257e-08
1.94629e-06
1.54967e-09
1.9464e-06
-1.55543e-09
4.54932e-08
4.03368e-07
1.71371e-07
4.28497e-07
3.43101e-07
4.59186e-07
5.5233e-07
4.94189e-07
7.88167e-07
5.44597e-07
1.06482e-06
6.19463e-07
1.41187e-06
7.23442e-07
1.78169e-06
8.22631e-07
2.08934e-06
8.67268e-07
2.25261e-06
8.36747e-07
2.26163e-06
7.31863e-07
2.17777e-06
6.05787e-07
2.09443e-06
4.93501e-07
2.03593e-06
3.98989e-07
1.99984e-06
3.2046e-07
1.9814e-06
2.53012e-07
1.97192e-06
1.93539e-07
1.9674e-06
1.39355e-07
1.96515e-06
9.34638e-08
1.96383e-06
5.54415e-08
1.96209e-06
2.83435e-08
1.95887e-06
4.92012e-09
1.95412e-06
-6.13891e-09
1.95087e-06
-3.63186e-09
4.66133e-08
3.75408e-07
1.74693e-07
4.00236e-07
3.40897e-07
4.30829e-07
5.45052e-07
4.6661e-07
7.68405e-07
5.14136e-07
1.02776e-06
5.81844e-07
1.35013e-06
6.81404e-07
1.71962e-06
7.8562e-07
2.05543e-06
8.56587e-07
2.2665e-06
8.53449e-07
2.32501e-06
7.73346e-07
2.2592e-06
6.50425e-07
2.16576e-06
5.34441e-07
2.09485e-06
4.34592e-07
2.04692e-06
3.51901e-07
2.02159e-06
2.803e-07
2.00707e-06
2.17883e-07
1.99706e-06
1.63842e-07
1.99151e-06
1.12999e-07
1.98782e-06
6.94683e-08
1.9829e-06
3.46992e-08
1.97615e-06
1.11319e-08
1.96768e-06
-8.62121e-09
1.95884e-06
-1.41253e-08
1.95261e-06
-6.71106e-09
4.72889e-08
3.48302e-07
1.77168e-07
3.73054e-07
3.39533e-07
4.01735e-07
5.37935e-07
4.38117e-07
7.50431e-07
4.84772e-07
9.94835e-07
5.47258e-07
1.29096e-06
6.41178e-07
1.65401e-06
7.4716e-07
2.0056e-06
8.35523e-07
2.26292e-06
8.60191e-07
2.37256e-06
8.05941e-07
2.33809e-06
6.94445e-07
2.24181e-06
5.74352e-07
2.15839e-06
4.70889e-07
2.09855e-06
3.82965e-07
2.06433e-06
3.09165e-07
2.04495e-06
2.42393e-07
2.03034e-06
1.8455e-07
2.02129e-06
1.34035e-07
2.01463e-06
8.61972e-08
2.0077e-06
4.46435e-08
1.99758e-06
1.32912e-08
1.98642e-06
-7.57165e-09
1.97283e-06
-2.25216e-08
1.9626e-06
-2.4046e-08
1.94302e-06
-9.92663e-09
4.78804e-08
3.23175e-07
1.78101e-07
3.47508e-07
3.38992e-07
3.73741e-07
5.30129e-07
4.09725e-07
7.31727e-07
4.57019e-07
9.64608e-07
5.15152e-07
1.23713e-06
6.01333e-07
1.58721e-06
7.08091e-07
1.94743e-06
8.05439e-07
2.24457e-06
8.53956e-07
2.4017e-06
8.31074e-07
2.40949e-06
7.34378e-07
2.32152e-06
6.14738e-07
2.22632e-06
5.06419e-07
2.15522e-06
4.14203e-07
2.11061e-06
3.36676e-07
2.08538e-06
2.68735e-07
2.06638e-06
2.06461e-07
2.0542e-06
1.51651e-07
2.04427e-06
1.04413e-07
2.03595e-06
5.79499e-08
2.02371e-06
1.8523e-08
2.00978e-06
-1.00762e-08
1.993e-06
-2.7699e-08
1.97908e-06
-3.89781e-08
1.95415e-06
-3.51349e-08
1.92754e-06
-1.38062e-08
4.93764e-08
3.00238e-07
1.78963e-07
3.22469e-07
3.39584e-07
3.4708e-07
5.21582e-07
3.82494e-07
7.13398e-07
4.28308e-07
9.38488e-07
4.83326e-07
1.1903e-06
5.62281e-07
1.52007e-06
6.68617e-07
1.88431e-06
7.71404e-07
2.20895e-06
8.4112e-07
2.41416e-06
8.41532e-07
2.46984e-06
7.70822e-07
2.40148e-06
6.54424e-07
2.29894e-06
5.42097e-07
2.21625e-06
4.45379e-07
2.1603e-06
3.64514e-07
2.12727e-06
2.94781e-07
2.1045e-06
2.30615e-07
2.0889e-06
1.71667e-07
2.07611e-06
1.19787e-07
2.06697e-06
7.33762e-08
2.05407e-06
2.75782e-08
2.03771e-06
-9.40156e-09
2.01905e-06
-3.6208e-08
2.00186e-06
-5.04456e-08
1.9728e-06
-5.75964e-08
1.94003e-06
-4.75733e-08
1.90417e-06
-1.82426e-08
5.10631e-08
2.81219e-07
1.79538e-07
2.99823e-07
3.39239e-07
3.23007e-07
5.1277e-07
3.56096e-07
6.98e-07
3.98106e-07
9.14093e-07
4.52832e-07
1.14823e-06
5.25666e-07
1.45464e-06
6.27932e-07
1.81819e-06
7.34916e-07
2.15991e-06
8.20604e-07
2.40964e-06
8.45733e-07
2.51492e-06
7.9648e-07
2.4786e-06
6.93733e-07
2.37565e-06
5.77746e-07
2.28068e-06
4.77657e-07
2.21307e-06
3.92647e-07
2.17191e-06
3.197e-07
2.14497e-06
2.54287e-07
2.12566e-06
1.93902e-07
2.11115e-06
1.36563e-07
2.10075e-06
8.59473e-08
2.08768e-06
3.9746e-08
2.06972e-06
-4.50726e-09
2.04944e-06
-3.97054e-08
2.02958e-06
-6.39128e-08
1.99835e-06
-7.59566e-08
1.96072e-06
-7.82894e-08
1.91851e-06
-6.18694e-08
1.87225e-06
-2.37229e-08
5.14677e-08
2.67343e-07
1.79982e-07
2.80941e-07
3.36698e-07
3.02574e-07
5.05363e-07
3.30622e-07
6.85321e-07
3.68998e-07
8.89978e-07
4.22406e-07
1.11174e-06
4.8966e-07
1.39427e-06
5.86276e-07
1.7498e-06
6.96536e-07
2.10392e-06
7.91053e-07
2.39097e-06
8.39378e-07
2.54358e-06
8.17076e-07
2.54758e-06
7.27517e-07
2.45514e-06
6.14237e-07
2.34904e-06
5.09418e-07
2.27013e-06
4.20588e-07
2.21934e-06
3.45415e-07
2.18602e-06
2.78588e-07
2.16388e-06
2.16085e-07
2.14814e-06
1.56918e-07
2.13645e-06
1.00895e-07
2.1238e-06
4.98018e-08
2.10558e-06
3.95857e-09
2.08333e-06
-3.84938e-08
2.06194e-06
-7.20362e-08
2.02986e-06
-9.53821e-08
1.98906e-06
-1.0426e-07
1.94159e-06
-1.01318e-07
1.88837e-06
-7.79383e-08
1.82921e-06
-2.98261e-08
5.1305e-08
2.57395e-07
1.81141e-07
2.66352e-07
3.33313e-07
2.84534e-07
5.00426e-07
3.07736e-07
6.73533e-07
3.42663e-07
8.67576e-07
3.91637e-07
1.08036e-06
4.54098e-07
1.33994e-06
5.44253e-07
1.68046e-06
6.55813e-07
2.04377e-06
7.56872e-07
2.35811e-06
8.24046e-07
2.55702e-06
8.26044e-07
2.60634e-06
7.58331e-07
2.53432e-06
6.48393e-07
2.42328e-06
5.39999e-07
2.33076e-06
4.48786e-07
2.26811e-06
3.71768e-07
2.22874e-06
3.02641e-07
2.20433e-06
2.38091e-07
2.18637e-06
1.77801e-07
2.17383e-06
1.19557e-07
2.16148e-06
6.32089e-08
2.14368e-06
1.16699e-08
2.12084e-06
-3.34448e-08
2.0985e-06
-7.50951e-08
2.06711e-06
-1.0925e-07
2.02462e-06
-1.30863e-07
1.97351e-06
-1.36148e-07
1.91441e-06
-1.27286e-07
1.84754e-06
-9.62169e-08
1.77483e-06
-3.69601e-08
5.17286e-08
2.50732e-07
1.82811e-07
2.55907e-07
3.30846e-07
2.69051e-07
4.95445e-07
2.89746e-07
6.62934e-07
3.18579e-07
8.48622e-07
3.61856e-07
1.05267e-06
4.19598e-07
1.2916e-06
5.02707e-07
1.6129e-06
6.12094e-07
1.98035e-06
7.19431e-07
2.31389e-06
8.01252e-07
2.55587e-06
8.25316e-07
2.65185e-06
7.80607e-07
2.61019e-06
6.82389e-07
2.4996e-06
5.7208e-07
2.39598e-06
4.74806e-07
2.31981e-06
3.97103e-07
2.27437e-06
3.26266e-07
2.24577e-06
2.61196e-07
2.22555e-06
1.98965e-07
2.21225e-06
1.39345e-07
2.19965e-06
8.13739e-08
2.18328e-06
2.36035e-08
2.16191e-06
-2.94209e-08
2.13901e-06
-7.39587e-08
2.10953e-06
-1.17546e-07
2.06659e-06
-1.51201e-07
2.01396e-06
-1.71268e-07
1.95105e-06
-1.7275e-07
1.87827e-06
-1.57943e-07
1.79647e-06
-1.17794e-07
1.70771e-06
-4.54865e-08
5.19935e-08
2.49075e-07
1.83683e-07
2.50055e-07
3.28987e-07
2.57997e-07
4.89523e-07
2.75212e-07
6.55178e-07
2.97756e-07
8.31802e-07
3.35659e-07
1.0275e-06
3.87339e-07
1.24997e-06
4.61486e-07
1.54973e-06
5.66131e-07
1.91496e-06
6.77688e-07
2.26414e-06
7.6934e-07
2.54164e-06
8.15554e-07
2.68355e-06
7.93665e-07
2.67927e-06
7.11547e-07
2.57834e-06
6.03512e-07
2.46458e-06
5.03452e-07
2.37663e-06
4.17991e-07
2.32167e-06
3.49807e-07
2.28674e-06
2.85313e-07
2.26514e-06
2.2159e-07
2.25034e-06
1.60772e-07
2.23837e-06
1.006e-07
2.22434e-06
4.02994e-08
2.2056e-06
-2.00808e-08
2.18321e-06
-7.36156e-08
2.15679e-06
-1.21238e-07
2.11475e-06
-1.65705e-07
2.06207e-06
-1.99299e-07
1.99739e-06
-2.17572e-07
1.92142e-06
-2.15839e-07
1.83259e-06
-1.93981e-07
1.73237e-06
-1.42372e-07
1.62469e-06
-1.61865e-08
-3.81225e-08
5.21165e-08
2.52583e-07
1.83365e-07
2.4957e-07
3.26885e-07
2.52392e-07
4.84159e-07
2.63601e-07
6.48362e-07
2.82283e-07
8.16269e-07
3.13589e-07
1.0057e-06
3.57753e-07
1.21513e-06
4.22498e-07
1.49171e-06
5.19779e-07
1.84843e-06
6.32877e-07
2.20941e-06
7.32625e-07
2.51581e-06
7.95338e-07
2.70248e-06
7.96759e-07
2.73938e-06
7.33631e-07
2.65727e-06
6.32818e-07
2.53683e-06
5.31269e-07
2.43669e-06
4.43442e-07
2.36988e-06
3.69824e-07
2.32924e-06
3.07298e-07
2.30492e-06
2.45479e-07
2.28865e-06
1.83415e-07
2.27732e-06
1.21775e-07
2.26572e-06
5.91972e-08
2.25016e-06
-4.32485e-09
2.2297e-06
-6.65956e-08
2.20779e-06
-1.24636e-07
2.16831e-06
-1.74806e-07
2.11711e-06
-2.20738e-07
2.05264e-06
-2.54526e-07
1.97487e-06
-2.70975e-07
1.88248e-06
-2.65651e-07
1.77586e-06
-2.37388e-07
1.65244e-06
-7.56675e-08
-9.43364e-08
7.68427e-07
-1.25403e-08
7.74357e-07
-4.40355e-08
5.19409e-08
2.6182e-07
1.81364e-07
2.54778e-07
3.23983e-07
2.52709e-07
4.78873e-07
2.57895e-07
6.40383e-07
2.71838e-07
8.03616e-07
2.952e-07
9.87523e-07
3.32039e-07
1.18546e-06
3.87707e-07
1.43955e-06
4.74949e-07
1.78253e-06
5.85911e-07
2.15117e-06
6.91327e-07
2.48151e-06
7.67052e-07
2.70824e-06
7.89686e-07
2.78868e-06
7.47556e-07
2.73371e-06
6.5718e-07
2.61344e-06
5.56211e-07
2.50024e-06
4.67752e-07
2.42063e-06
3.92564e-07
2.37318e-06
3.25929e-07
2.3449e-06
2.67397e-07
2.32708e-06
2.06984e-07
2.31578e-06
1.45012e-07
2.30713e-06
8.03461e-08
2.29531e-06
1.40204e-08
2.27857e-06
-5.32283e-08
2.26168e-06
-1.20511e-07
2.22663e-06
-1.82975e-07
2.17849e-06
-2.36187e-07
2.11612e-06
-2.84201e-07
2.03841e-06
-3.18031e-07
1.94406e-06
-3.32503e-07
1.83053e-06
-1.51791e-07
-1.68454e-07
8.53164e-07
-1.30423e-07
8.42044e-07
-1.49653e-07
7.75724e-07
-7.70095e-08
7.88711e-07
-1.07294e-07
7.4197e-07
-1.19362e-08
7.45138e-07
-4.71837e-08
5.06405e-08
2.7656e-07
1.79032e-07
2.64356e-07
3.20177e-07
2.588e-07
4.73353e-07
2.58494e-07
6.31952e-07
2.66636e-07
7.92966e-07
2.82777e-07
9.7116e-07
3.11861e-07
1.16087e-06
3.56979e-07
1.39419e-06
4.33358e-07
1.71908e-06
5.38679e-07
2.09083e-06
6.46574e-07
2.4404e-06
7.32607e-07
2.70238e-06
7.73043e-07
2.82665e-06
7.51852e-07
2.80526e-06
6.76112e-07
2.69243e-06
5.78239e-07
2.56782e-06
4.88623e-07
2.47453e-06
4.14039e-07
2.41688e-06
3.48907e-07
2.3836e-06
2.87246e-07
2.3662e-06
2.28309e-07
2.35365e-06
1.69113e-07
2.34733e-06
1.04803e-07
2.34022e-06
3.54118e-08
2.32877e-06
-3.62128e-08
2.31606e-06
-1.07639e-07
2.28791e-06
-1.81823e-07
2.24475e-06
-2.49251e-07
2.18662e-06
-3.06685e-07
2.11136e-06
-3.5713e-07
2.01788e-06
-3.91806e-07
1.90178e-06
-1.9476e-07
-2.08925e-07
8.6818e-07
-1.66789e-07
8.88329e-07
-1.88584e-07
7.96528e-07
-1.3821e-07
8.54895e-07
-1.79619e-07
8.13805e-07
-1.66899e-07
7.5111e-07
-8.29552e-08
7.6079e-07
-1.16942e-07
7.12192e-07
-1.26607e-08
7.15743e-07
-5.0713e-08
4.94057e-08
2.94219e-07
1.77253e-07
2.78531e-07
3.15289e-07
2.69475e-07
4.67714e-07
2.64698e-07
6.23336e-07
2.67404e-07
7.82674e-07
2.77231e-07
9.56124e-07
2.98123e-07
1.14101e-06
3.32025e-07
1.35451e-06
3.96972e-07
1.65875e-06
4.93978e-07
2.02956e-06
6.00196e-07
2.39391e-06
6.93218e-07
2.68696e-06
7.48197e-07
2.85345e-06
7.46323e-07
2.86941e-06
6.87623e-07
2.77188e-06
5.96761e-07
2.63929e-06
5.06841e-07
2.53071e-06
4.32492e-07
2.46092e-06
3.70033e-07
2.42098e-06
3.1152e-07
2.4e-06
2.53452e-07
2.39066e-06
1.91295e-07
2.38574e-06
1.30694e-07
2.38359e-06
6.14177e-08
2.37842e-06
-1.4267e-08
2.37079e-06
-9.09779e-08
2.35119e-06
-1.70955e-07
2.31508e-06
-2.52187e-07
2.26266e-06
-3.25308e-07
2.19259e-06
-3.8791e-07
2.10193e-06
-4.41154e-07
1.98633e-06
-2.32616e-07
-2.43692e-07
9.04851e-07
-2.11264e-07
9.28665e-07
-2.32724e-07
8.71431e-07
-2.05097e-07
7.72596e-07
-1.49982e-07
8.30089e-07
-1.95873e-07
7.88e-07
-1.82269e-07
7.22474e-07
-8.96557e-08
7.32166e-07
-1.266e-07
6.78914e-07
-1.38634e-08
6.83069e-07
-5.48421e-08
4.83832e-08
3.15139e-07
1.73853e-07
2.9778e-07
3.09845e-07
2.84198e-07
4.61e-07
2.76441e-07
6.14558e-07
2.73756e-07
7.72554e-07
2.77824e-07
9.42546e-07
2.91122e-07
1.12492e-06
3.1457e-07
1.32039e-06
3.66535e-07
1.60295e-06
4.53085e-07
1.9689e-06
5.54898e-07
2.34389e-06
6.50438e-07
2.66355e-06
7.16769e-07
2.86939e-06
7.32324e-07
2.92528e-06
6.90642e-07
2.84984e-06
6.09682e-07
2.71431e-06
5.2179e-07
2.59042e-06
4.4706e-07
2.50677e-06
3.86739e-07
2.45782e-06
3.33262e-07
2.43192e-06
2.79635e-07
2.42256e-06
2.21561e-07
2.42206e-06
1.54974e-07
2.42445e-06
8.98222e-08
2.4262e-06
1.36221e-08
2.42495e-06
-6.8467e-08
2.41514e-06
-1.54962e-07
2.38743e-06
-2.43337e-07
2.34346e-06
-3.33005e-07
2.28011e-06
-4.12835e-07
2.19526e-06
-4.81226e-07
2.08242e-06
-2.63673e-07
-2.73547e-07
9.48844e-07
-2.5278e-07
9.75797e-07
-2.7063e-07
8.90452e-07
-2.30262e-07
9.12727e-07
-2.54978e-07
8.49472e-07
-2.24451e-07
7.45181e-07
-1.6296e-07
8.06156e-07
-2.13997e-07
7.61291e-07
-1.98343e-07
6.90167e-07
-9.67204e-08
7.00739e-07
-1.37134e-07
6.43099e-07
-1.48511e-08
6.47851e-07
-5.95658e-08
4.66374e-08
3.39539e-07
1.68676e-07
3.20499e-07
3.03883e-07
3.03956e-07
4.52617e-07
2.92824e-07
6.05767e-07
2.85494e-07
7.62716e-07
2.83893e-07
9.30158e-07
2.90508e-07
1.11158e-06
3.04803e-07
1.29269e-06
3.42614e-07
1.55317e-06
4.16635e-07
1.90978e-06
5.12488e-07
2.29216e-06
6.06869e-07
2.63361e-06
6.80557e-07
2.87585e-06
7.10467e-07
2.97228e-06
6.85378e-07
2.92445e-06
6.16139e-07
2.79244e-06
5.31625e-07
2.655e-06
4.57348e-07
2.55457e-06
3.99278e-07
2.49451e-06
3.50111e-07
2.46229e-06
3.02954e-07
2.45082e-06
2.51409e-07
2.45347e-06
1.90166e-07
2.46222e-06
1.17197e-07
2.47148e-06
4.45245e-08
2.47748e-06
-3.89322e-08
2.47949e-06
-1.32866e-07
2.46066e-06
-2.28241e-07
2.4259e-06
-3.25815e-07
2.37278e-06
-4.25696e-07
2.29664e-06
-5.1422e-07
2.19211e-06
-2.90426e-07
-3.00483e-07
1.00033e-06
-2.88198e-07
1.03131e-06
-3.0452e-07
9.36899e-07
-2.76933e-07
9.6405e-07
-2.97764e-07
8.71643e-07
-2.52408e-07
8.96161e-07
-2.79471e-07
8.27192e-07
-2.45456e-07
7.14699e-07
-1.76879e-07
7.80823e-07
-2.33494e-07
7.32136e-07
-2.1574e-07
6.55335e-07
-1.04167e-07
6.66543e-07
-1.48299e-07
6.03736e-07
-1.63349e-08
6.08798e-07
-6.45959e-08
4.42665e-08
3.6538e-07
1.62528e-07
3.45867e-07
2.96674e-07
3.27932e-07
4.43493e-07
3.13338e-07
5.96751e-07
3.02127e-07
7.53214e-07
2.95303e-07
9.19117e-07
2.9526e-07
1.10039e-06
3.02042e-07
1.27242e-06
3.25502e-07
1.51042e-06
3.85757e-07
1.85302e-06
4.73734e-07
2.23993e-06
5.64977e-07
2.59899e-06
6.41684e-07
2.87436e-06
6.82209e-07
3.01123e-06
6.7169e-07
2.99551e-06
6.14397e-07
2.87322e-06
5.35458e-07
2.72435e-06
4.62382e-07
2.60602e-06
4.05969e-07
2.5318e-06
3.6207e-07
2.49086e-06
3.21605e-07
2.47617e-06
2.77654e-07
2.47984e-06
2.25076e-07
2.49471e-06
1.5769e-07
2.51237e-06
7.63009e-08
2.52958e-06
-7.5944e-09
2.54371e-06
-1.0318e-07
2.53447e-06
-2.06728e-07
2.51008e-06
-3.12483e-07
2.46709e-06
-4.20156e-07
2.40366e-06
-5.32727e-07
2.31462e-06
-3.13377e-07
-3.23353e-07
1.06109e-06
-3.20195e-07
1.097e-06
-3.36387e-07
9.93565e-07
-3.17698e-07
1.02672e-06
-3.37662e-07
9.23371e-07
-3.04121e-07
9.53784e-07
-3.28156e-07
8.51201e-07
-2.76389e-07
8.78632e-07
-3.06877e-07
8.03491e-07
-2.6809e-07
6.81312e-07
-1.91605e-07
7.53123e-07
-2.54443e-07
6.99952e-07
-2.34338e-07
6.17212e-07
-1.12539e-07
6.28893e-07
-1.59933e-07
5.62101e-07
-1.85818e-08
5.66924e-07
-6.93822e-08
4.14711e-08
3.90964e-07
1.5564e-07
3.72447e-07
2.88266e-07
3.54496e-07
4.33343e-07
3.38321e-07
5.86518e-07
3.23821e-07
7.43309e-07
3.12316e-07
9.08766e-07
3.05966e-07
1.09013e-06
3.05826e-07
1.2595e-06
3.15341e-07
1.47462e-06
3.61692e-07
1.79915e-06
4.39943e-07
2.18802e-06
5.25896e-07
2.56131e-06
6.02885e-07
2.86558e-06
6.50651e-07
3.0419e-06
6.51671e-07
3.06176e-06
6.05551e-07
2.95534e-06
5.32294e-07
2.79938e-06
4.60505e-07
2.66263e-06
4.05862e-07
2.57064e-06
3.67207e-07
2.51812e-06
3.34884e-07
2.4974e-06
3.00437e-07
2.50074e-06
2.56806e-07
2.52045e-06
1.99359e-07
2.54654e-06
1.2352e-07
2.57498e-06
3.08836e-08
2.60495e-06
-6.88692e-08
2.60861e-06
-1.77364e-07
2.5965e-06
-2.93218e-07
2.56506e-06
-4.10512e-07
2.51569e-06
-5.32188e-07
2.45562e-06
-3.28336e-07
-3.45345e-07
1.13546e-06
-3.51822e-07
1.18242e-06
-3.70281e-07
1.06428e-06
-3.57726e-07
1.1102e-06
-3.82271e-07
9.88568e-07
-3.52458e-07
1.03054e-06
-3.79597e-07
9.09675e-07
-3.35139e-07
9.45802e-07
-3.64251e-07
8.30301e-07
-3.03168e-07
8.60907e-07
-3.37451e-07
7.78322e-07
-2.93252e-07
6.4457e-07
-2.07234e-07
7.23362e-07
-2.7781e-07
6.65505e-07
-2.55224e-07
5.75356e-07
-1.20923e-07
5.87771e-07
-1.72296e-07
5.15909e-07
-2.04541e-08
5.21112e-07
-7.45431e-08
3.80444e-08
4.14678e-07
1.47408e-07
3.99364e-07
2.77423e-07
3.83485e-07
4.21042e-07
3.67029e-07
5.74702e-07
3.50422e-07
7.32619e-07
3.34797e-07
8.98214e-07
3.23173e-07
1.0801e-06
3.16303e-07
1.25132e-06
3.14394e-07
1.44468e-06
3.45708e-07
1.74916e-06
4.12031e-07
2.1366e-06
4.91722e-07
2.52228e-06
5.65243e-07
2.85181e-06
6.16867e-07
3.0661e-06
6.26589e-07
3.12366e-06
5.89884e-07
3.03858e-06
5.22469e-07
2.88024e-06
4.51517e-07
2.72529e-06
3.9792e-07
2.6128e-06
3.63789e-07
2.54514e-06
3.40277e-07
2.51496e-06
3.17402e-07
2.51534e-06
2.85893e-07
2.53774e-06
2.39569e-07
2.57262e-06
1.733e-07
2.61246e-06
8.6035e-08
2.65363e-06
-1.78234e-08
2.6803e-06
-1.4061e-07
2.68267e-06
-2.63587e-07
2.66517e-06
-3.93373e-07
2.64335e-06
-5.38158e-07
2.64264e-06
-3.48133e-07
-3.7091e-07
1.24231e-06
-3.88161e-07
1.31474e-06
-4.17663e-07
1.17136e-06
-4.12912e-07
1.2526e-06
-4.51391e-07
1.08718e-06
-4.14303e-07
1.16746e-06
-4.62423e-07
9.93827e-07
-4.0043e-07
1.06508e-06
-4.50741e-07
8.98999e-07
-3.73187e-07
9.54028e-07
-4.19204e-07
8.08154e-07
-3.3296e-07
8.4717e-07
-3.76412e-07
7.51584e-07
-3.21427e-07
6.05363e-07
-2.24772e-07
6.91276e-07
-3.03528e-07
6.28058e-07
-2.77859e-07
5.29909e-07
-1.29667e-07
5.43714e-07
-1.86042e-07
4.67576e-07
-2.22628e-08
4.7255e-07
-7.94689e-08
3.39169e-08
4.33894e-07
1.37227e-07
4.25013e-07
2.63797e-07
4.13193e-07
4.06644e-07
3.98103e-07
5.60983e-07
3.80991e-07
7.20436e-07
3.62867e-07
8.86879e-07
3.46429e-07
1.06998e-06
3.33611e-07
1.24528e-06
3.22687e-07
1.42191e-06
3.37672e-07
1.70449e-06
3.90763e-07
2.08543e-06
4.6356e-07
2.48262e-06
5.31588e-07
2.83444e-06
5.82823e-07
3.08449e-06
5.98634e-07
3.18124e-06
5.69125e-07
3.12239e-06
5.06143e-07
2.96731e-06
4.35479e-07
2.79565e-06
3.81251e-07
2.66031e-06
3.50503e-07
2.5731e-06
3.3592e-07
2.52976e-06
3.25565e-07
2.52329e-06
3.0953e-07
2.54588e-06
2.77807e-07
2.58855e-06
2.23678e-07
2.64149e-06
1.4427e-07
2.69426e-06
4.53871e-08
2.74145e-06
-7.90117e-08
2.76457e-06
-2.22561e-07
2.76704e-06
-3.65498e-07
2.77957e-06
-5.29524e-07
2.89471e-06
-3.79467e-07
-4.1031e-07
1.40739e-06
-4.40616e-07
1.50708e-06
-4.70357e-07
1.35547e-06
-4.90817e-07
1.47399e-06
-5.35886e-07
1.27586e-06
-5.21085e-07
1.40516e-06
-5.80364e-07
1.16773e-06
-5.16751e-07
1.29857e-06
-5.92947e-07
1.04098e-06
-4.8723e-07
1.1637e-06
-5.73169e-07
9.10031e-07
-4.35946e-07
1.01132e-06
-5.2029e-07
7.89772e-07
-3.7108e-07
8.58947e-07
-4.45456e-07
7.2787e-07
-3.57941e-07
5.62595e-07
-2.43587e-07
6.61324e-07
-3.36704e-07
5.90923e-07
-3.06089e-07
4.82034e-07
-1.39091e-07
4.96294e-07
-2.00233e-07
4.16707e-07
-2.38095e-08
4.21845e-07
-8.45508e-08
2.88495e-08
4.45611e-07
1.24341e-07
4.46926e-07
2.47324e-07
4.41673e-07
3.89043e-07
4.31008e-07
5.43896e-07
4.15428e-07
7.05493e-07
3.96196e-07
8.74099e-07
3.75935e-07
1.05892e-06
3.57801e-07
1.23953e-06
3.39693e-07
1.40615e-06
3.38872e-07
1.66524e-06
3.77279e-07
2.03479e-06
4.41839e-07
2.44267e-06
5.03872e-07
2.81464e-06
5.51644e-07
3.09733e-06
5.7016e-07
3.23457e-06
5.4545e-07
3.20699e-06
4.84641e-07
3.06069e-06
4.1285e-07
2.87557e-06
3.5565e-07
2.71579e-06
3.25878e-07
2.60481e-06
3.18894e-07
2.54296e-06
3.22813e-07
2.52494e-06
3.23991e-07
2.54404e-06
3.11435e-07
2.59252e-06
2.73883e-07
2.65923e-06
2.05961e-07
2.72801e-06
1.10515e-07
2.79477e-06
-7.95882e-09
2.83749e-06
-1.51988e-07
2.87155e-06
-3.27083e-07
2.94194e-06
-5.27658e-07
3.19029e-06
-4.17008e-07
-4.07376e-07
1.62313e-06
-4.95215e-07
1.74235e-06
-5.29134e-07
1.60283e-06
-5.69074e-07
1.73213e-06
-5.99199e-07
1.54439e-06
-6.29629e-07
1.68587e-06
-6.76865e-07
1.44376e-06
-6.65845e-07
1.59129e-06
-7.27367e-07
1.30668e-06
-6.59335e-07
1.45468e-06
-7.40439e-07
1.14472e-06
-6.20258e-07
1.28921e-06
-7.17195e-07
9.69709e-07
-5.46448e-07
1.10469e-06
-6.54833e-07
7.98332e-07
-4.41385e-07
9.11843e-07
-5.5865e-07
7.29011e-07
-4.25446e-07
5.18225e-07
-2.65416e-07
6.51395e-07
-3.96971e-07
5.67779e-07
-3.55424e-07
4.31258e-07
-1.48432e-07
4.46214e-07
-2.15089e-07
3.63256e-07
-2.46477e-08
3.68376e-07
-8.96034e-08
2.3632e-08
4.42404e-07
1.08991e-07
4.611e-07
2.27141e-07
4.67288e-07
3.66682e-07
4.64242e-07
5.22136e-07
4.53e-07
6.86575e-07
4.34599e-07
8.58556e-07
4.12018e-07
1.04628e-06
3.88882e-07
1.23284e-06
3.6482e-07
1.39534e-06
3.50887e-07
1.63152e-06
3.73e-07
1.98528e-06
4.27225e-07
2.40243e-06
4.82515e-07
2.79329e-06
5.25478e-07
3.10604e-06
5.43122e-07
3.28392e-06
5.20914e-07
3.29199e-06
4.60568e-07
3.16027e-06
3.85161e-07
2.96603e-06
3.22494e-07
2.78199e-06
2.89554e-07
2.64376e-06
2.87042e-07
2.55729e-06
3.0467e-07
2.52194e-06
3.25904e-07
2.53242e-06
3.35675e-07
2.58339e-06
3.20612e-07
2.66137e-06
2.71774e-07
2.7502e-06
1.83771e-07
2.83701e-06
6.82446e-08
2.90675e-06
-7.72658e-08
2.98081e-06
-2.61241e-07
3.13436e-06
-5.19139e-07
3.54425e-06
-8.80392e-07
1.8574e-06
-5.31615e-07
2.00303e-06
-5.52496e-07
1.86454e-06
-6.27087e-07
1.99231e-06
-6.56304e-07
1.82352e-06
-7.0614e-07
1.95461e-06
-7.2965e-07
1.73364e-06
-7.71388e-07
1.86884e-06
-8.11401e-07
1.59881e-06
-8.09386e-07
1.73306e-06
-8.60962e-07
1.42943e-06
-7.98996e-07
1.55967e-06
-8.70063e-07
1.24026e-06
-7.55308e-07
1.36585e-06
-8.42205e-07
1.04077e-06
-6.74872e-07
1.16146e-06
-7.74964e-07
8.36138e-07
-5.48141e-07
9.5365e-07
-6.75586e-07
7.47641e-07
-5.21262e-07
4.81476e-07
-3.0046e-07
6.49502e-07
-4.78205e-07
5.4586e-07
-4.19275e-07
3.78126e-07
-1.58088e-07
3.98495e-07
-2.35262e-07
3.09384e-07
-2.46097e-08
3.12666e-07
-9.28e-08
1.8753e-08
4.19101e-07
9.14865e-08
4.60043e-07
2.0228e-07
4.86138e-07
3.3814e-07
4.96032e-07
4.93813e-07
4.9279e-07
6.61979e-07
4.7784e-07
8.38976e-07
4.54448e-07
1.03114e-06
4.27452e-07
1.2241e-06
3.9795e-07
1.38704e-06
3.73495e-07
1.6039e-06
3.78929e-07
1.93738e-06
4.21349e-07
2.36116e-06
4.68902e-07
2.76988e-06
5.0626e-07
3.11096e-06
5.20782e-07
3.32882e-06
4.98387e-07
3.37694e-06
4.36059e-07
3.2665e-06
3.54445e-07
3.06866e-06
2.82627e-07
2.86219e-06
2.42409e-07
2.69394e-06
2.39503e-07
2.57775e-06
2.66698e-07
2.5169e-06
3.09819e-07
2.51293e-06
3.45482e-07
2.55845e-06
3.60674e-07
2.64423e-06
3.37779e-07
2.75374e-06
2.68228e-07
2.86888e-06
1.51863e-07
2.98004e-06
-5.10621e-09
3.10244e-06
-1.98901e-07
3.35476e-06
-4.81162e-07
3.914e-06
-8.87379e-07
-2.22016e-06
4.6489e-06
-6.44306e-07
-6.59156e-07
2.11578e-06
-6.5444e-07
-6.56174e-07
2.08066e-06
-7.52447e-07
2.19956e-06
-7.74481e-07
1.99438e-06
-8.30981e-07
2.11012e-06
-8.4467e-07
1.85554e-06
-8.93182e-07
1.96736e-06
-9.22514e-07
1.67814e-06
-9.27197e-07
1.78423e-06
-9.66385e-07
1.47732e-06
-9.09854e-07
1.57499e-06
-9.67121e-07
1.26723e-06
-8.60504e-07
1.35689e-06
-9.31288e-07
1.05671e-06
-7.77336e-07
1.14042e-06
-8.58101e-07
8.47438e-07
-6.47288e-07
9.29295e-07
-7.56803e-07
7.31096e-07
-6.02116e-07
4.40906e-07
-3.42337e-07
6.09263e-07
-5.40758e-07
4.85695e-07
-4.63074e-07
3.22521e-07
-1.67778e-07
3.44874e-07
-2.57145e-07
2.56553e-07
-2.23609e-08
2.56688e-07
-9.28085e-08
1.59049e-08
3.69251e-07
7.30645e-08
4.37656e-07
1.70269e-07
4.92223e-07
3.00633e-07
5.2384e-07
4.56258e-07
5.33806e-07
6.29397e-07
5.25614e-07
8.13536e-07
5.03541e-07
1.01206e-06
4.73809e-07
1.21257e-06
4.39299e-07
1.37945e-06
4.0591e-07
1.58157e-06
3.96219e-07
1.89219e-06
4.24555e-07
2.31875e-06
4.64188e-07
2.74427e-06
4.94825e-07
3.11259e-06
5.04865e-07
3.36964e-06
4.80139e-07
3.46063e-06
4.1482e-07
3.37837e-06
3.24259e-07
3.18385e-06
2.39371e-07
2.95889e-06
1.86051e-07
2.76002e-06
1.76471e-07
2.60928e-06
2.08124e-07
2.51533e-06
2.68404e-07
2.48677e-06
3.36085e-07
2.52004e-06
3.83948e-07
2.60903e-06
3.95893e-07
2.74074e-06