/*--------------------------------*- C++ -*----------------------------------*\
  =========                 |
  \\      /  F ield         | OpenFOAM: The Open Source CFD Toolbox
   \\    /   O peration     | Website:  https://openfoam.org
    \\  /    A nd           | Version:  dev
     \\/     M anipulation  |
\*---------------------------------------------------------------------------*/
FoamFile
{
    version     2.0;
    format      ascii;
    class       volScalarField;
    location    "2500";
    object      qr;
}
// * * * * * * * * * * * * * * * * * * * * * * * * * * * * * * * * * * * * * //

dimensions      [1 0 -3 0 0 0 0];

internalField   uniform 0;

boundaryField
{
    lowerOutlet
    {
        type            calculated;
        value           nonuniform List<scalar> 
144
(
1228.83
1232.88
1237.37
1242.27
1247.59
1253.34
1259.53
1266.16
1273.26
1280.85
1288.93
1297.54
1306.69
1316.42
1326.76
1337.75
1349.43
1361.85
1375.06
1389.13
1404.12
1420.12
1437.24
1455.58
1475.3
1496.55
1519.49
1544.32
1571.31
1600.75
1633.01
1668.55
1707.93
1741.25
1789.23
1843.47
1905.3
1976.44
2059.25
2157.02
2274.57
2418.56
2590.16
2808.79
3057.98
3404.05
3777.2
4187.59
-3535.21
3503.79
2886.15
2551.63
2329.55
2145.59
2021.14
1921
1838.63
1769.93
1711.52
1661.16
1617.18
1578.4
1543.91
1505.2
1477.95
1453.11
1430.36
1409.39
1389.99
1371.98
1355.19
1339.49
1324.8
1311.03
1298.07
1285.85
1274.32
1263.42
1253.1
1243.33
1234.08
1225.31
1216.99
1209.11
1201.65
1194.58
1187.89
1181.56
1175.59
1169.96
1164.66
1159.69
1155.04
1150.7
1146.68
1142.98
2106.01
2212.93
2342.85
2497.94
2693.15
2981.85
3313.58
3681.44
4081.47
3091.92
3654.36
3002.09
2621.38
2378.35
2220.4
2079.76
1968.56
1877.85
1802.81
1739.6
2016.2
3139.42
3495.42
3875.62
4293.47
3977.07
3247.57
2786.16
2488.52
2284.28
1685.45
2911.41
3224.99
3588.19
3977.14
4392.54
3807.41
3138.26
2698.86
2431.08
1764.54
1815.49
1873.34
1939.59
1638.45
1597.2
1560.67
1528.03
)
;
    }
    top
    {
        type            calculated;
        value           nonuniform List<scalar> 
100
(
1124.63
1127.13
1130.52
1134.11
1139.5
1142.74
1145.95
1149.12
1148.87
1149.48
1151.02
1153.46
1155.87
1157.81
1159.2
1160.16
1160.97
1162.42
1163.83
1165.18
1166.79
1168.62
1170.56
1172.42
1173.73
1173.41
1170.26
1164.93
1160.66
1160.44
1163.92
1170.67
1179.56
1188.37
1192.95
1195.06
1196.4
1197.42
1198.22
1198.82
1199.17
1199.37
1199.4
1199.28
1199.04
1198.73
1198.34
1197.74
1197.02
1196.12
1195.11
1194.02
1192.84
1191.53
1190.1
1188.59
1187
1185.31
1183.55
1181.71
1179.8
1177.89
1175.83
1173.72
1171.52
1169.29
1166.91
1164.5
1161.94
1159.27
1156.54
1153.68
1150.76
1147.72
1144.6
1141.37
1138.14
1134.86
1131.84
1129.07
1127.45
1137.91
1134.45
1130.99
1127.53
1124.06
1120.6
1117.12
1113.66
1110.2
1106.76
1103.34
1099.94
1096.54
1093.16
1089.81
1083.2
1079.41
1076.43
1074.84
)
;
    }
    sides
    {
        type            calculated;
        value           nonuniform List<scalar> 
100
(
1228.85
1232.14
1235.03
1237.54
1239.66
1241.39
1242.74
1243.73
1244.36
1244.64
1244.59
1244.22
1243.54
1242.56
1241.31
1239.79
1238.03
1236.04
1233.83
1231.42
1228.82
1226.06
1223.14
1220.08
1216.9
1213.61
1210.22
1206.74
1203.2
1199.59
1195.93
1192.22
1188.49
1184.74
1180.97
1177.19
1173.41
1169.64
1165.88
1162.14
1158.41
1154.72
1151.05
1147.41
1143.81
1140.24
1136.71
1133.22
1129.77
1126.4
1143
1146.13
1148.97
1151.52
1153.77
1155.74
1157.43
1158.84
1159.98
1160.85
1161.46
1161.83
1161.96
1161.85
1161.52
1160.98
1160.24
1159.31
1158.19
1156.9
1155.44
1153.83
1152.08
1150.19
1148.18
1146.06
1143.82
1141.49
1139.06
1136.55
1133.97
1131.31
1128.59
1125.81
1122.97
1120.09
1117.17
1114.21
1111.21
1108.18
1105.13
1102.04
1098.94
1095.82
1092.68
1089.52
1086.35
1083.16
1079.97
1076.8
)
;
    }
    front
    {
        type            empty;
    }
    back
    {
        type            empty;
    }
    roller
    {
        type            calculated;
        value           nonuniform List<scalar> 
144
(
4485.94
4135.52
3374.52
2838.34
1864.02
1503.61
1531.06
1460.67
1397.57
1376.07
4940.64
5268.84
5055.64
4366.91
4303.76
2876.85
2345.84
2307.17
1908.61
2117.55
1727.71
1640.03
1468.63
1552.28
1420.01
1422.79
1381.13
1393.7
4051.27
4647.93
2717.94
2247.56
2498.26
2431.69
1832.35
1680.84
1616.83
1596.19
1516.17
1374.17
1377.48
4817.23
5226.32
5165.39
3626.79
4203.26
3902.3
4527.34
3700.05
3016.81
2367.66
1955.34
2165.98
1657.16
1477.14
1414.16
1415.87
5054.45
5274.22
4917.14
2247.36
1768.5
1733.26
1638.2
1563.32
1707.73
1398.38
3763.93
3502.83
3328.92
3162.29
2570.11
2115.97
2068.12
1962.67
1660.35
1929.59
1838.79
1579.87
1811.73
1514.55
1489.28
1428.68
1471.46
1483.52
1401.87
1403.79
1375.12
5152.35
5239.55
4757.07
3905.12
3500.87
3223.89
2957.53
2726.8
2058.23
2004.79
2204.5
1707.89
1617.38
1548.25
1530
1447.88
1501.17
1447.69
1389.17
1386.15
1394.69
1387.74
1384.31
1382.01
1376.88
1375.8
1374.33
3085.81
2578.95
2455.57
2644.8
2178.62
1804.06
2031.95
1996.83
1683.61
1897.86
1867.65
1597.98
1786.49
1755.16
1457.41
1575.99
1438.81
1408.41
1430.3
1438.62
1409.61
1379.07
1383.41
1391.51
1378.3
1380.01
1374.51
1375.01
1374.61
)
;
    }
    burner
    {
        type            calculated;
        value           nonuniform List<scalar> 
16
(
-128320
-126085
-124016
-123219
-126616
-124542
-123178
-126186
-127785
-125629
-123631
-123589
-127175
-125135
-123338
-124468
)
;
    }
}


// ************************************************************************* //
