/*--------------------------------*- C++ -*----------------------------------*\
  =========                 |
  \\      /  F ield         | OpenFOAM: The Open Source CFD Toolbox
   \\    /   O peration     | Website:  https://openfoam.org
    \\  /    A nd           | Version:  dev
     \\/     M anipulation  |
\*---------------------------------------------------------------------------*/
FoamFile
{
    version     2.0;
    format      ascii;
    class       volScalarField;
    location    "2500";
    object      rAU;
}
// * * * * * * * * * * * * * * * * * * * * * * * * * * * * * * * * * * * * * //

dimensions      [-1 3 1 0 0 0 0];

internalField   nonuniform List<scalar> 
9851
(
0.00820783
0.00827635
0.00822524
0.00825797
0.00839629
0.00815907
0.00822883
0.00839023
0.00840278
0.00810424
0.0082048
0.00838678
0.00838813
0.00841617
0.0080545
0.00818879
0.00838916
0.00838017
0.00840029
0.00842555
0.00801045
0.00817657
0.00839749
0.00837911
0.0083864
0.00841597
0.00842981
0.00797178
0.00816606
0.00840467
0.00838197
0.00837812
0.00840273
0.00842598
0.00843212
0.00793761
0.00815545
0.00841183
0.00838906
0.00837297
0.00839
0.00841874
0.00843079
0.00843326
0.00790726
0.00814677
0.00841203
0.00839836
0.00837231
0.00837969
0.00840836
0.00842796
0.00843346
0.00843396
0.00788048
0.00814097
0.00841136
0.00840732
0.00837514
0.00837358
0.00839662
0.00842293
0.0084326
0.00843489
0.00843433
0.00785661
0.00814111
0.00841144
0.00841541
0.00838056
0.00837048
0.00838563
0.00841453
0.00843083
0.0084352
0.00843601
0.00843441
0.00783511
0.00814742
0.0084113
0.00842133
0.00838948
0.00836966
0.00837799
0.00840466
0.00842699
0.0084349
0.00843673
0.00843653
0.0084345
0.0078159
0.00815305
0.00841114
0.00842615
0.00839972
0.00837118
0.00837311
0.00839467
0.00842083
0.00843359
0.00843707
0.00843781
0.00843707
0.00843466
0.00779881
0.00816067
0.00841158
0.00842944
0.00840921
0.00837515
0.00829109
0.00838566
0.008413
0.00843112
0.00843677
0.00843845
0.00843829
0.00843732
0.00843455
0.00778331
0.00817051
0.00841176
0.00843211
0.00841714
0.00838217
0.00826892
0.0083785
0.00840417
0.00842671
0.00843613
0.00843875
0.00843953
0.00843877
0.00843746
0.00843454
0.00776961
0.00818307
0.00841469
0.00843459
0.0084233
0.00839125
0.00834842
0.00822415
0.0083948
0.00842074
0.00843497
0.00843879
0.00843998
0.00843999
0.00843932
0.00843772
0.00843448
0.00775735
0.00819609
0.0084184
0.00843671
0.00842743
0.00840104
0.00837148
0.00808851
0.00838574
0.00841265
0.0084322
0.00843905
0.00844035
0.00844095
0.00844065
0.00843935
0.00843779
0.00843436
0.00774656
0.00820792
0.0084212
0.00843706
0.00843016
0.0084099
0.00837676
0.00818955
0.00837834
0.0084032
0.008427
0.00843878
0.00844103
0.0084415
0.00844143
0.00844102
0.00843964
0.00843775
0.00843422
0.00773714
0.00821913
0.00842346
0.00843806
0.00843257
0.00841685
0.00838497
0.00832456
0.00820625
0.00839421
0.0084197
0.00843633
0.00844187
0.0084424
0.00844197
0.00844185
0.00844101
0.0084399
0.00843781
0.00843409
0.00772909
0.00823
0.00842471
0.00843819
0.00843404
0.00842275
0.00839488
0.00836828
0.00812629
0.00838516
0.00841125
0.00843197
0.00844163
0.00844378
0.00844354
0.00844273
0.00844199
0.00844134
0.00844006
0.00843783
0.00843403
0.00772247
0.00824178
0.00842584
0.00843873
0.0084351
0.00842719
0.00840433
0.00837225
0.00827081
0.00837739
0.00840211
0.00842564
0.00843967
0.00844421
0.00844486
0.00844414
0.0084431
0.00844239
0.00844164
0.00844006
0.00843798
0.00843386
0.00767775
0.00825564
0.00842799
0.0084391
0.00843629
0.0084306
0.00841293
0.00837967
0.00834773
0.00819001
0.00839301
0.00841823
0.00843586
0.00844368
0.00844582
0.00844614
0.00844494
0.00844321
0.00844263
0.0084419
0.0084402
0.00843803
0.00837704
0.00759295
0.00826885
0.00843152
0.00844
0.00843766
0.00843297
0.00841987
0.00838953
0.00836447
0.00813653
0.00838376
0.00840964
0.00843076
0.0084422
0.00844556
0.00844684
0.00844676
0.00844517
0.00844346
0.00844272
0.00844189
0.00844029
0.00842702
0.00826125
0.00771138
0.0082812
0.00843483
0.00843987
0.00843856
0.00843497
0.0084252
0.00839962
0.00836787
0.00831173
0.00837524
0.00840044
0.00842412
0.00843951
0.00844542
0.00844714
0.00844787
0.0084475
0.0084455
0.00844372
0.00844291
0.00844207
0.00844043
0.00840417
0.00843332
0.00771268
0.00829252
0.00843715
0.00843994
0.00843931
0.00843665
0.00842945
0.00840909
0.00837416
0.00835978
0.00823138
0.00839087
0.00841631
0.00843526
0.00844474
0.008447
0.00844836
0.00844887
0.00844791
0.00844556
0.00844388
0.00844304
0.00844221
0.00844048
0.00843824
0.0084338
0.0077157
0.00830149
0.00843874
0.00843996
0.00843975
0.00843788
0.00843275
0.00841696
0.00838357
0.00835977
0.00819237
0.00838102
0.00840749
0.00842942
0.0084425
0.00844738
0.00844818
0.0084493
0.00844935
0.00844822
0.00844585
0.00844403
0.00844303
0.00844225
0.00844062
0.00843851
0.00843382
0.00772092
0.00830912
0.00843899
0.00844022
0.00844006
0.00843856
0.00843515
0.0084237
0.0083947
0.00836188
0.00832284
0.00816638
0.00839767
0.00842231
0.00843902
0.00844677
0.00844893
0.00844949
0.00844997
0.00844989
0.00844842
0.00844614
0.00844409
0.00844322
0.0084425
0.00844094
0.00843859
0.00843391
0.00772874
0.00831577
0.00843875
0.00844031
0.00844004
0.00843893
0.00843708
0.00842881
0.00840546
0.0083677
0.00835411
0.00805073
0.00838859
0.0084138
0.00843394
0.00844501
0.00844899
0.00844996
0.00845044
0.00845054
0.00844997
0.00844863
0.0084463
0.00844413
0.0084433
0.00844282
0.00844107
0.00843856
0.00843391
0.00773953
0.00831843
0.00843832
0.00844014
0.00843985
0.00843935
0.00843822
0.0084324
0.00841412
0.00837751
0.00835327
0.00821659
0.00837833
0.00840556
0.00842774
0.00844186
0.00844849
0.00845029
0.00845081
0.00845105
0.00845094
0.00845046
0.00844901
0.00844636
0.00844422
0.00844354
0.0084429
0.00844104
0.00843856
0.00843388
0.00775392
0.00831961
0.00843807
0.00843967
0.00843974
0.00843951
0.00843865
0.0084348
0.00842102
0.00838852
0.00835556
0.00832406
0.00828154
0.00839534
0.00842093
0.00843818
0.00844702
0.00845061
0.00845135
0.00845163
0.00845145
0.00845108
0.0084507
0.00844917
0.00844637
0.00844433
0.00844357
0.00844287
0.00844098
0.00843844
0.00843378
0.00777223
0.0083201
0.00843804
0.00843936
0.00843975
0.00843928
0.00843857
0.00843621
0.00842603
0.00839935
0.00836069
0.00834821
0.00821587
0.00838433
0.00841193
0.00843358
0.00844546
0.00844991
0.00845173
0.00845249
0.00845245
0.00845189
0.00845126
0.00845068
0.00844899
0.00844647
0.00844438
0.00844359
0.00844287
0.00844096
0.00843835
0.00843372
0.00779488
0.00831517
0.00843805
0.00843929
0.00843933
0.00843907
0.00843856
0.00843698
0.0084291
0.00840801
0.00836944
0.00834659
0.00829272
0.00837339
0.00840175
0.00842635
0.0084427
0.00844979
0.00845203
0.00845276
0.00845298
0.00845275
0.00845199
0.00845124
0.00845067
0.00844916
0.00844655
0.00844443
0.00844359
0.00844287
0.00844092
0.0084383
0.00843357
0.00781556
0.00831286
0.00842162
0.00843907
0.00843892
0.00843912
0.00843815
0.00843686
0.00843126
0.00841418
0.00837847
0.00834839
0.00834566
0.00836281
0.00839128
0.00841759
0.00843747
0.00844862
0.00845279
0.00845306
0.00845349
0.0084534
0.00845294
0.00845199
0.00845127
0.00845077
0.00844924
0.00844647
0.00844435
0.00844349
0.00844273
0.00844056
0.0084382
0.00842245
0.00709585
0.00819623
0.00831507
0.00842024
0.00842085
0.00843871
0.0084389
0.00843777
0.00843665
0.00843271
0.00841838
0.00838657
0.00835128
0.00834309
0.00835393
0.00838031
0.0084084
0.00843077
0.0084451
0.00845231
0.00845474
0.0084543
0.00845399
0.00845365
0.00845299
0.00845196
0.00845127
0.00845078
0.00844903
0.00844621
0.00844401
0.008443
0.00844211
0.00842226
0.00846855
0.0082085
0.00821228
0.00713301
0.00820099
0.00831247
0.00843605
0.00842052
0.00843589
0.00843839
0.00843768
0.00843643
0.00843321
0.00842195
0.00839368
0.00835568
0.00834007
0.00834687
0.00836968
0.00839837
0.00842366
0.00844089
0.00845001
0.00845488
0.00845579
0.00845531
0.00845441
0.00845384
0.00845298
0.00845182
0.00845119
0.0084504
0.0084486
0.0084456
0.0084432
0.00844222
0.00842311
0.00829939
0.00818129
0.00821889
0.00830868
0.00822762
0.00821816
0.0082252
0.00718896
0.0082318
0.00830621
0.00843705
0.00843839
0.00843578
0.00843801
0.00843728
0.00843579
0.00843365
0.00842458
0.00839994
0.0083605
0.00833818
0.00834107
0.00835968
0.00838759
0.00841518
0.00843566
0.00844734
0.00845312
0.00845649
0.00845696
0.0084564
0.00845473
0.00845381
0.00845273
0.00845158
0.0084506
0.00844972
0.00844778
0.00844464
0.0084429
0.00842344
0.00819217
0.00819975
0.00819692
0.00823385
0.00822897
0.00824299
0.00824995
0.00825498
0.00724703
0.00825874
0.00829763
0.00843712
0.00843811
0.00843822
0.00843782
0.00843693
0.00843511
0.00843362
0.00842637
0.00840448
0.00836521
0.0083373
0.00833618
0.00835053
0.00837439
0.00840548
0.00842936
0.00844404
0.00845139
0.0084555
0.0084574
0.00845783
0.00845706
0.00845473
0.00845351
0.00845228
0.00845074
0.00844957
0.00844861
0.00844656
0.00844484
0.00842543
0.00820252
0.00820723
0.00821016
0.00822022
0.00823538
0.00826084
0.00825317
0.00826802
0.00827724
0.00828033
0.00730769
0.00828103
0.00828798
0.00843703
0.00843821
0.00843802
0.0084376
0.0084366
0.00843449
0.0084333
0.00842775
0.00840815
0.00836943
0.00833646
0.0083314
0.00834239
0.00836753
0.00839286
0.00842182
0.00843969
0.00844934
0.00845423
0.00845694
0.00845784
0.00845844
0.00845721
0.00845446
0.0084529
0.00845115
0.00844928
0.00844794
0.00844693
0.00844654
0.00842816
0.0082108
0.00821205
0.00822503
0.00822987
0.00824253
0.00824829
0.00825922
0.00828471
0.00827487
0.00829016
0.00829963
0.00830217
0.00737267
0.00830003
0.0082778
0.00843707
0.00843839
0.00843809
0.00843749
0.00843642
0.008434
0.00843302
0.00842858
0.00841179
0.0083743
0.00833576
0.00832561
0.00833514
0.00835774
0.00838632
0.00841325
0.00843427
0.00844651
0.00845278
0.00845626
0.00845777
0.00845816
0.00845862
0.00845704
0.00845402
0.00845167
0.00844923
0.00844712
0.00844602
0.00844592
0.00842638
0.00820691
0.00819552
0.0082275
0.00821376
0.00824767
0.00823922
0.00826606
0.00826678
0.00827937
0.00830529
0.0082947
0.00830884
0.00831804
0.00832082
0.00744196
0.00831651
0.00826768
0.00843724
0.00843862
0.00843821
0.00843754
0.00843631
0.00843368
0.0084325
0.00842936
0.00841566
0.00838057
0.00833618
0.00831904
0.00832758
0.00834823
0.00836911
0.00840417
0.00842744
0.00844285
0.00845091
0.00845514
0.00845767
0.00845828
0.00845831
0.00845846
0.00845648
0.00845338
0.00844955
0.00844681
0.00844513
0.00844569
0.0084219
0.00817766
0.00817497
0.00819809
0.00818765
0.00821605
0.00818951
0.00824922
0.00821994
0.00827931
0.00825768
0.00829133
0.00832281
0.0083055
0.00831926
0.00833325
0.00833615
0.00751457
0.00833032
0.00825853
0.00843751
0.00843907
0.00843839
0.00843749
0.00843617
0.00843345
0.00843181
0.00842972
0.00841855
0.00838696
0.00833797
0.00831279
0.00831911
0.00833871
0.0083625
0.00838749
0.0084199
0.00843807
0.0084484
0.00845371
0.00845683
0.0084585
0.0084585
0.00845814
0.00845766
0.00845557
0.00845179
0.00844732
0.00844551
0.0084448
0.00841311
0.00816075
0.00813015
0.0081773
0.00814893
0.00818167
0.00815776
0.00819305
0.00817033
0.00822163
0.00819183
0.0082606
0.00821999
0.00826892
0.00833369
0.00828158
0.00829884
0.00834586
0.00834618
0.00759283
0.0083427
0.00825118
0.00843784
0.00843947
0.00843876
0.00843781
0.00843617
0.00843317
0.00843134
0.00842985
0.00842057
0.00839223
0.00834023
0.00830719
0.00830993
0.00832846
0.00835662
0.00838122
0.00841166
0.00843231
0.00844501
0.00845178
0.00845559
0.00845803
0.00845889
0.00845833
0.0084574
0.00845616
0.00845378
0.00845017
0.00844668
0.00844487
0.00839754
0.00808318
0.00801438
0.00808799
0.00800599
0.00809876
0.0080051
0.00811974
0.00802303
0.00815056
0.0080668
0.00818874
0.00812566
0.00821522
0.00818199
0.00822094
0.00832071
0.00823151
0.00825412
0.00835561
0.00833989
0.00767546
0.00835279
0.00824442
0.00843822
0.00843997
0.00843939
0.00843821
0.00843634
0.00843299
0.00843081
0.00842986
0.00842243
0.00839744
0.00834378
0.00830188
0.00829965
0.00831736
0.00834654
0.00837568
0.00840294
0.00842559
0.00844065
0.0084491
0.00845377
0.00820966
0.00845851
0.00845876
0.00845767
0.00845601
0.00845398
0.00845218
0.00844915
0.00844105
0.0083782
0.00794313
0.00786805
0.00791096
0.00780769
0.00789044
0.00777402
0.00789908
0.00776578
0.00793306
0.0077831
0.00800224
0.00784051
0.00810089
0.00793982
0.00817249
0.00807671
0.00817153
0.00828138
0.00817922
0.00819677
0.00835612
0.00830566
0.00776124
0.00835779
0.00824421
0.00843817
0.0084404
0.00844004
0.00843876
0.00843659
0.00843299
0.00843032
0.00842977
0.00842416
0.00840312
0.00835105
0.00829837
0.00828799
0.00830531
0.00833548
0.00836583
0.00839398
0.00841816
0.00843534
0.00844549
0.00845127
0.00804306
0.00842058
0.0084584
0.00845808
0.00845639
0.00845425
0.00845225
0.0084501
0.00843455
0.00839381
0.00779717
0.00759394
0.00771216
0.00762888
0.00766145
0.00755806
0.00763528
0.0075147
0.00764043
0.00749043
0.00767062
0.00751007
0.0077483
0.00757015
0.00788816
0.00767039
0.00805367
0.00784842
0.00804524
0.00822088
0.0080525
0.00807914
0.00833152
0.00824233
0.00784685
0.00834709
0.00825478
0.00843611
0.00844032
0.00844042
0.00843924
0.00843685
0.00843303
0.00842998
0.00842949
0.00842549
0.00840845
0.00836113
0.0082986
0.00827637
0.0082918
0.00832304
0.00835636
0.00838465
0.00841019
0.00842919
0.00844092
0.00844772
0.00825508
0.00835325
0.00844882
0.00845783
0.00845693
0.00845515
0.00845312
0.00844858
0.00842464
0.00837089
0.00808191
0.00754702
0.00734849
0.00746628
0.00738176
0.00739284
0.00729184
0.00737114
0.00728865
0.00739216
0.00726148
0.00741197
0.0072728
0.00747786
0.00732005
0.00761388
0.00740489
0.00781627
0.00757308
0.0078064
0.00811766
0.00782302
0.00787156
0.00828212
0.0081644
0.0079216
0.00831624
0.00827314
0.00843369
0.0084385
0.00843968
0.00843912
0.00843682
0.00843293
0.00842968
0.00842913
0.0084263
0.00841277
0.00837072
0.00830166
0.00826659
0.00827728
0.0083088
0.00834549
0.00837602
0.00840191
0.00842232
0.00843539
0.00844306
0.00842472
0.00838068
0.00844273
0.00845678
0.00845738
0.00845644
0.00845468
0.00844673
0.00841123
0.00834736
0.00819114
0.00716404
0.00715437
0.00730145
0.00722332
0.00721857
0.00717609
0.00718381
0.00709744
0.00715901
0.00709672
0.00717429
0.00707798
0.007184
0.00707462
0.00723603
0.00710198
0.00735642
0.00717258
0.00753863
0.00731734
0.00753013
0.00794003
0.00755557
0.00761401
0.00821716
0.0080212
0.00795967
0.00825395
0.00829852
0.00842808
0.00843162
0.00843518
0.008437
0.0084359
0.00843248
0.00842921
0.00842865
0.00842658
0.0084161
0.00837872
0.00830603
0.00825885
0.0082626
0.00829256
0.00833323
0.00836657
0.00839347
0.00841483
0.00842904
0.0084372
0.00844261
0.0084408
0.0084372
0.00844069
0.00845233
0.00845807
0.00845479
0.00844175
0.00839504
0.00830774
0.00816766
0.00706047
0.00708366
0.00699891
0.00696516
0.00711944
0.0070568
0.00704146
0.00702356
0.0070228
0.00695836
0.00698985
0.0069195
0.00698319
0.00690022
0.00698621
0.00689487
0.00702794
0.00691615
0.00713462
0.00697868
0.00728362
0.00709524
0.00727972
0.00769421
0.00730946
0.00736397
0.0081104
0.00780956
0.00791266
0.00817357
0.00831613
0.00841721
0.00841587
0.0084214
0.00842872
0.00843206
0.00843087
0.00842826
0.00842795
0.00842647
0.00841793
0.00838575
0.00831303
0.00825345
0.00802872
0.00827494
0.00831929
0.00835662
0.00838512
0.00840733
0.008422
0.0084304
0.00843596
0.00844202
0.00841428
0.00818792
0.0081989
0.00843112
0.00845005
0.00842745
0.00837296
0.00827204
0.00812857
0.00699193
0.0069088
0.0069168
0.00689403
0.00690504
0.00688384
0.00698605
0.00693852
0.00690991
0.0068757
0.00685463
0.00679889
0.00682395
0.00676425
0.00681911
0.00675049
0.00682036
0.00674854
0.00685727
0.00676816
0.00695028
0.00682693
0.00706894
0.00691624
0.00707381
0.00744575
0.0071066
0.00715294
0.00795347
0.00757251
0.00789086
0.00808043
0.00836462
0.0083969
0.00839524
0.00839706
0.00840822
0.00842009
0.00842563
0.00842609
0.00842677
0.00842616
0.00841906
0.0083918
0.00832325
0.00825159
0.00795989
0.00825736
0.00830345
0.00834628
0.00837722
0.00840046
0.0084156
0.00842306
0.00842341
0.0084331
0.00841867
0.0080942
0.00795735
0.00832698
0.00842961
0.00839905
0.00834598
0.00823493
0.00810569
0.00781371
0.00685211
0.00673977
0.00685464
0.00682136
0.0067618
0.00674523
0.00683131
0.00678929
0.00675938
0.00673224
0.0067096
0.00666596
0.00668924
0.00664519
0.00669296
0.0066469
0.00669719
0.00665804
0.00673228
0.00667648
0.00680987
0.00672788
0.00690289
0.00678924
0.00691984
0.00723251
0.00695031
0.00699356
0.00775407
0.00735912
0.00760622
0.00797021
0.00843979
0.00837295
0.00837612
0.00837815
0.00839446
0.00841141
0.00842062
0.00842459
0.00842543
0.00842001
0.00839732
0.00833498
0.00825332
0.00816266
0.0082402
0.00828591
0.00833483
0.00836967
0.00839441
0.00841
0.00841669
0.00841787
0.008414
0.00839409
0.00827496
0.00809986
0.00824752
0.00838614
0.00836036
0.0083154
0.00821841
0.00808223
0.00799602
0.00682417
0.00681172
0.00679502
0.00677178
0.00671747
0.00668882
0.00664228
0.00663142
0.00669452
0.00666053
0.00664037
0.00662197
0.00660808
0.00658542
0.00661651
0.00660695
0.00664781
0.00665198
0.00666374
0.00670283
0.00668767
0.00671499
0.00672805
0.00673262
0.00679464
0.00673507
0.00682084
0.00706947
0.00684933
0.00677307
0.0075532
0.00718691
0.00778482
0.00772663
0.00843782
0.00837808
0.00836316
0.00836082
0.00838302
0.00840713
0.00841945
0.00842382
0.00842032
0.00840207
0.00834675
0.00825811
0.00821141
0.00822295
0.00826614
0.00832067
0.00836106
0.00838808
0.0084046
0.00841041
0.00840749
0.00839789
0.00835708
0.00832201
0.00828317
0.00828026
0.00833713
0.00831845
0.00828595
0.00819518
0.00807544
0.00807087
0.00680187
0.00669592
0.00664146
0.00663241
0.00666899
0.00665383
0.00660983
0.00659028
0.00657469
0.00657165
0.00659501
0.00657659
0.00658302
0.00658028
0.00660266
0.00642638
0.00668728
0.00674641
0.00679316
0.00688125
0.0068232
0.00695537
0.00681182
0.006949
0.00676993
0.00691305
0.0067681
0.00668552
0.00667278
0.00668635
0.00654672
0.00435709
0.00455442
0.00738319
0.00680697
0.00788332
0.00767579
0.00844432
0.00837943
0.00834719
0.00834548
0.00837968
0.00840731
0.00841972
0.00842008
0.00840501
0.00835684
0.00826396
0.00820414
0.00820532
0.00824382
0.00830304
0.00835003
0.00838055
0.00839848
0.00840382
0.00839665
0.00837399
0.0083371
0.00829815
0.00828446
0.00829018
0.00829432
0.0082856
0.00825263
0.00816824
0.00805792
0.00806218
0.00781108
0.00662591
0.00655294
0.00657545
0.0065779
0.00658038
0.0065761
0.0065607
0.00655414
0.00658077
0.00657741
0.00657089
0.00657153
0.00643428
0.00664043
0.00680168
0.00685458
0.0069626
0.0070413
0.00708381
0.00719043
0.007111
0.00726119
0.0070865
0.00714236
0.00688359
0.00711902
0.00657925
0.0046995
0.00457916
0.00449234
0.00442357
0.004333
0.00465142
0.00443032
0.0043434
0.00444239
0.00443681
0.00417444
0.00700632
0.00441064
0.00456111
0.00482762
0.00771117
0.00729659
0.00834192
0.00836857
0.00832865
0.00833715
0.00838267
0.00840967
0.00841684
0.0084054
0.00836369
0.00826989
0.00819883
0.0081886
0.00822063
0.00828248
0.00833672
0.00837196
0.00839233
0.0083978
0.00838676
0.00835132
0.00829398
0.00824342
0.00823654
0.00825305
0.00826816
0.00826778
0.00822464
0.0081263
0.00813062
0.00805025
0.00808901
0.00664893
0.0066028
0.00658044
0.00657995
0.00656645
0.00657527
0.00655426
0.00655816
0.00656815
0.00656677
0.00670032
0.0066868
0.006677
0.00669299
0.00690832
0.00694247
0.00710884
0.00717045
0.00727936
0.00735628
0.00738851
0.00748931
0.00730854
0.00744636
0.00711879
0.00549408
0.00560973
0.00489873
0.00516441
0.00559076
0.00535641
0.00475257
0.00454723
0.00485384
0.00482849
0.00441623
0.00418962
0.00421947
0.00419712
0.00434258
0.00441101
0.00421396
0.00456382
0.00512053
0.00480514
0.00425967
0.0043177
0.00718065
0.00486988
0.00526254
0.00569523
0.00832645
0.0083505
0.00830963
0.00834007
0.00839004
0.00840913
0.00840368
0.00836762
0.00827634
0.00819525
0.00817342
0.00819903
0.00825983
0.00832173
0.00836306
0.00838651
0.00839357
0.00838031
0.0083342
0.00825623
0.00820106
0.00820387
0.00822996
0.00825616
0.00825973
0.00818613
0.0080961
0.00810373
0.00805366
0.00808474
0.00781929
0.00641678
0.00640308
0.00658056
0.0065827
0.00660834
0.00662421
0.00657447
0.00658861
0.00666572
0.00665839
0.00698565
0.00696503
0.00696693
0.00698613
0.00722456
0.00725593
0.00741648
0.00746716
0.00756628
0.00762347
0.00754401
0.00759874
0.00573522
0.00590298
0.00599353
0.00609711
0.00574361
0.00592742
0.00564078
0.00576997
0.00502852
0.00529561
0.00568954
0.00548521
0.00490745
0.0046079
0.00490999
0.00510592
0.00463701
0.00421401
0.00423789
0.00432088
0.00459309
0.00454756
0.00428632
0.00440191
0.00452181
0.00426631
0.00431059
0.00537546
0.00595431
0.005832
0.00469317
0.00492397
0.00829988
0.00832196
0.00830218
0.00835447
0.00839566
0.00839944
0.0083695
0.0082828
0.00819399
0.00816027
0.00817933
0.00823608
0.00830464
0.00835348
0.00838153
0.00839048
0.00837791
0.00832518
0.00822886
0.0081698
0.00818052
0.00821483
0.00825213
0.00823767
0.00812503
0.00805055
0.00809054
0.0080519
0.0080842
0.00807437
0.0067234
0.00672015
0.00667505
0.00670493
0.00663629
0.00665141
0.00671663
0.00673876
0.00666805
0.0066888
0.00693265
0.00690161
0.0072785
0.00725317
0.00727745
0.00728803
0.00750362
0.00752146
0.00765668
0.00767679
0.00761221
0.00759781
0.00612509
0.006162
0.00612029
0.00610096
0.00585465
0.00596507
0.00600479
0.00603053
0.00580665
0.00590676
0.00587175
0.00594338
0.00535291
0.00557331
0.00584557
0.00574211
0.00516533
0.00490965
0.00518578
0.00540701
0.00491354
0.00427345
0.00427789
0.00450592
0.00485835
0.00480529
0.00441908
0.00437984
0.00448173
0.00429544
0.00432442
0.00522999
0.00568102
0.00561647
0.00463003
0.00483926
0.0082308
0.00829253
0.00828932
0.00837299
0.00839041
0.00836898
0.00828825
0.00819429
0.00814943
0.00816132
0.00821191
0.00828522
0.00834226
0.00837616
0.00838889
0.00837769
0.00832325
0.0082142
0.0081475
0.00816188
0.0082066
0.00824784
0.00822402
0.00808974
0.00798426
0.00807946
0.0081346
0.0076203
0.00786498
0.0079346
0.00674819
0.00675601
0.00683524
0.00686754
0.00676373
0.00679767
0.00688776
0.00691863
0.00687252
0.00686382
0.00721603
0.00717244
0.00750335
0.00746877
0.00753166
0.00752609
0.00767615
0.00766428
0.00767744
0.00768903
0.00602732
0.00599403
0.00593257
0.00637979
0.00599893
0.00597421
0.00590876
0.0059009
0.00597575
0.00596208
0.0059517
0.0059058
0.00589261
0.00592051
0.00586679
0.00593347
0.00561876
0.00577208
0.00582613
0.00583908
0.00545383
0.00519922
0.00545275
0.0056515
0.00519021
0.00435998
0.00434049
0.00473058
0.00511996
0.00506615
0.00460698
0.00437369
0.00445701
0.00434317
0.00435588
0.0051379
0.00564654
0.00561616
0.0045847
0.00477638
0.00832954
0.00824187
0.00824081
0.00837566
0.00836461
0.00829208
0.00819497
0.00814095
0.00814531
0.00818848
0.00826359
0.00832912
0.0083697
0.00838755
0.00837961
0.00832549
0.00821076
0.00813408
0.00811739
0.00811166
0.00822131
0.00821889
0.00809164
0.00796273
0.00790486
0.00804072
0.00742999
0.00783437
0.0081409
0.00725
0.00729642
0.00712219
0.00716984
0.00704959
0.00708504
0.00696065
0.00700773
0.00710739
0.0071459
0.00712008
0.00709022
0.00743098
0.00738714
0.00759511
0.00756368
0.00765322
0.00762851
0.00768264
0.00766403
0.00766146
0.00751371
0.00589825
0.00592042
0.00590663
0.0063617
0.00588827
0.00590481
0.00591373
0.00591646
0.00588094
0.00582805
0.005859
0.00588105
0.00579259
0.00582194
0.00574947
0.00580391
0.00576475
0.00579346
0.0057007
0.00575252
0.00566557
0.00545387
0.00562919
0.00575546
0.00541524
0.00448086
0.00442752
0.00496106
0.00534591
0.00528587
0.00481498
0.00438488
0.00444504
0.00440619
0.00439907
0.00499593
0.0057759
0.00565807
0.00455218
0.00472917
0.00826867
0.00814276
0.00820485
0.0083558
0.0082937
0.00819558
0.00813446
0.00813198
0.00816698
0.00824163
0.00831385
0.00836226
0.00838577
0.0083834
0.00833333
0.00821449
0.00812397
0.00808453
0.00802742
0.00794585
0.0081662
0.00821726
0.00811388
0.00771899
0.00801777
0.00782827
0.00805729
0.00814884
0.00816579
0.00750816
0.00754945
0.00738443
0.00744368
0.00728863
0.00733315
0.00719787
0.00724601
0.00735668
0.00738932
0.00734842
0.00733921
0.00755907
0.00756133
0.0076625
0.00766463
0.00766405
0.00766172
0.00750294
0.00771128
0.00589996
0.00588455
0.00580315
0.00584902
0.00591873
0.00592351
0.00590502
0.00587846
0.00589802
0.00591102
0.00590776
0.00588856
0.00581441
0.00582846
0.00586635
0.00587947
0.00572615
0.0057648
0.00574956
0.00579925
0.0057249
0.00567592
0.00569767
0.00566594
0.00571485
0.00561123
0.00565325
0.00568276
0.00555569
0.00465772
0.00453591
0.00517085
0.00549554
0.00543676
0.00502292
0.00440956
0.00444515
0.00448066
0.00445165
0.00498835
0.00604511
0.00584684
0.00452987
0.00471397
0.00817238
0.00804743
0.0083415
0.00829326
0.00819467
0.0081293
0.00812036
0.00814844
0.00821982
0.00829817
0.0083536
0.00838383
0.00838773
0.00834746
0.00822747
0.00810869
0.00807399
0.00797239
0.00789663
0.0080512
0.00818844
0.00824031
0.00801367
0.00812697
0.00806117
0.00811741
0.00817313
0.00829534
0.00774489
0.00776462
0.00771686
0.00777398
0.00760474
0.00765937
0.00750707
0.0075535
0.00743072
0.00746765
0.00749819
0.00750494
0.00754066
0.00750728
0.00767636
0.00768897
0.00769275
0.00769595
0.00769984
0.00769277
0.00575303
0.00613318
0.00753772
0.00576394
0.00574241
0.00566773
0.00570714
0.00586641
0.00585133
0.00581799
0.00578217
0.00587625
0.00586302
0.00583901
0.00580372
0.00582277
0.00582809
0.0058368
0.00582832
0.00574805
0.0057794
0.00576673
0.0058032
0.00560686
0.00562746
0.00573071
0.00568141
0.00562173
0.0056241
0.00556837
0.00559454
0.00556732
0.00485011
0.00467935
0.00532778
0.0055319
0.00548292
0.005195
0.00444133
0.00445453
0.00457019
0.00451088
0.00523885
0.00638157
0.00610879
0.00452324
0.00478943
0.00806574
0.00813158
0.00828884
0.00819247
0.00812292
0.00810924
0.00813126
0.00819751
0.00828054
0.00834455
0.00838108
0.00839192
0.00836342
0.00825242
0.00810579
0.00803628
0.00812468
0.0080795
0.00756931
0.00826636
0.00824449
0.00821322
0.00817926
0.00814663
0.00814655
0.00819084
0.00829246
0.0082876
0.00790468
0.0079189
0.00782744
0.00786987
0.00773879
0.00778273
0.00760998
0.00769061
0.0075145
0.00754888
0.00764844
0.00765393
0.00768081
0.00765448
0.00770825
0.00773042
0.00763379
0.00762837
0.0073773
0.00764219
0.00563323
0.00603591
0.00547534
0.00542503
0.00565628
0.00562873
0.00555459
0.00559172
0.00577041
0.00574902
0.00571214
0.0056756
0.00580955
0.0057862
0.00575717
0.00572009
0.0057972
0.00578344
0.0057813
0.00576771
0.00575197
0.0057675
0.00575273
0.00577106
0.00560202
0.00565971
0.00573534
0.00571067
0.00555102
0.00554376
0.00552777
0.00560338
0.0054985
0.00503326
0.00485721
0.00541177
0.00548517
0.00545308
0.00532387
0.00447805
0.00447157
0.0046955
0.00460322
0.00552281
0.00677388
0.00643814
0.00456393
0.00504962
0.00796596
0.0082756
0.00818804
0.00811554
0.00809707
0.00811476
0.00817433
0.00826022
0.0083325
0.00837713
0.00839464
0.0083782
0.0082825
0.00811753
0.00800656
0.00809483
0.00823374
0.00731285
0.00827755
0.00825932
0.00823374
0.00820515
0.00817907
0.00818473
0.00822406
0.0082809
0.0083835
0.00795834
0.00785166
0.00793359
0.00795875
0.00784144
0.00790596
0.00769548
0.00772987
0.00746314
0.00760649
0.00740664
0.00738932
0.00782983
0.0078553
0.00776245
0.0077982
0.0076384
0.0076672
0.00722999
0.00754145
0.0053813
0.0056813
0.00731517
0.00551873
0.00550738
0.0054326
0.00538673
0.0055915
0.00556481
0.0054956
0.00552863
0.00568749
0.00566929
0.00563661
0.00560553
0.00574899
0.00572874
0.00570496
0.00567425
0.00575597
0.00574189
0.00574343
0.00573681
0.00574266
0.00574691
0.0057499
0.00574895
0.00565552
0.00569156
0.00574642
0.00572514
0.00557066
0.0055018
0.00556508
0.00564869
0.00547511
0.00520147
0.00505126
0.00543814
0.00545441
0.00542677
0.00541402
0.00455073
0.00454296
0.00489691
0.0047772
0.00578898
0.00727561
0.00682204
0.00480577
0.0053402
0.00808256
0.00818404
0.00810721
0.00808543
0.0080986
0.0081523
0.00823811
0.0083176
0.00837039
0.00839512
0.00838958
0.00831256
0.00814348
0.00799747
0.00806018
0.00821732
0.00760961
0.00828824
0.00828143
0.0082621
0.00824197
0.00822104
0.00822198
0.00825901
0.00830907
0.00837112
0.00829355
0.00798082
0.00798343
0.007936
0.0079644
0.00776365
0.00788543
0.00753206
0.00755748
0.00762531
0.00745609
0.00760699
0.00758062
0.00781048
0.00786659
0.00770879
0.00775712
0.00754134
0.00756314
0.0051503
0.00537997
0.00713517
0.00534802
0.00566302
0.00520126
0.00523342
0.00546461
0.00545391
0.00542746
0.00538088
0.00558184
0.00555748
0.0054943
0.00552265
0.00564865
0.00563795
0.00561238
0.00558921
0.00572589
0.00571501
0.00570109
0.00567937
0.00574159
0.00574006
0.00575187
0.00575668
0.00576503
0.0057599
0.00579216
0.00576926
0.00569971
0.00572669
0.00580448
0.00576252
0.00562699
0.00553686
0.00563171
0.00568946
0.00552618
0.00535716
0.0052677
0.00544991
0.00550076
0.00547908
0.00547504
0.00470625
0.00478898
0.0051371
0.00500951
0.00606158
0.00727827
0.00723104
0.00509199
0.00560819
0.00798178
0.00810343
0.00807399
0.00808478
0.00813177
0.00821704
0.00830112
0.00836178
0.00839351
0.00839758
0.0083403
0.00818133
0.00802166
0.00803576
0.00819574
0.00808558
0.00828727
0.0083092
0.00830046
0.00828166
0.0082666
0.00826694
0.00804696
0.00834909
0.0083873
0.00841947
0.00798208
0.00796475
0.00799515
0.0080041
0.00796689
0.00798606
0.00776488
0.00791616
0.00773664
0.00774147
0.00798231
0.00771754
0.00791845
0.00795771
0.00730257
0.0074735
0.00759589
0.00764336
0.00712886
0.00747772
0.00521181
0.00544849
0.00507594
0.00504191
0.00533746
0.00530317
0.0052691
0.00531633
0.00547211
0.00546094
0.00545839
0.00541292
0.00562235
0.00559933
0.00553771
0.00556552
0.00566246
0.00566007
0.00564156
0.00562582
0.005758
0.00575871
0.00575469
0.00574116
0.00577847
0.00579807
0.00582186
0.00583886
0.00585039
0.00582613
0.00590254
0.00585093
0.00574823
0.00579505
0.0059264
0.00585312
0.00569824
0.00562057
0.00572383
0.00575935
0.00563245
0.00550136
0.00545962
0.00546761
0.00559924
0.00556106
0.00552742
0.00496388
0.00506577
0.00535888
0.00527152
0.0063692
0.00680643
0.00762818
0.00534294
0.00588577
0.0078835
0.00806307
0.00807136
0.00811461
0.00819646
0.00828483
0.0083519
0.00839109
0.00840286
0.00836509
0.00822656
0.0080607
0.00803915
0.00816425
0.00822619
0.008276
0.00832709
0.00834127
0.00832495
0.00831287
0.00811479
0.00796771
0.00835907