/*--------------------------------*- C++ -*----------------------------------*\
  =========                 |
  \\      /  F ield         | OpenFOAM: The Open Source CFD Toolbox
   \\    /   O peration     | Website:  https://openfoam.org
    \\  /    A nd           | Version:  dev
     \\/     M anipulation  |
\*---------------------------------------------------------------------------*/
FoamFile
{
    version     2.0;
    format      ascii;
    class       volScalarField;
    location    "2500";
    object      rDeltaT;
}
// * * * * * * * * * * * * * * * * * * * * * * * * * * * * * * * * * * * * * //

dimensions      [0 0 -1 0 0 0 0];

internalField   nonuniform List<scalar> 
9851
(
100
100
100
100
100
100
100
100
100
100
100
100
100
100
100
100
100
100
100
100
100
100
100
100
100
100
100
100
100
100
100
100
100
100
100
100
100
100
100
100
100
100
100
100
100
100
100
100
100
100
100
100
100
100
100
100
100
100
100
100
100
100
100
100
100
100
100
100
100
100
100
100
100
100
100
100
100
100
100
100
100
100
100
100
100
100
100
100
100
100
100
100
100
100
100
100
100
100
100
100
100
100
100
100
100
100
100
100
100
100
100
100
100
100
100
100
100
100
100
100
100
100
100
100
100
100
100
100
100
100
100
100
100
100
100
100
100
100
100
100
100
100
100
100
100
100
100
100
100
100
100
100
100
100
100
100
100
100
100
100
100
100
100
100
100
100
100
100
100
100
100
100
100
100
100
100
100
100
100
100
100
100
100
100
100
100
100
100
100
100
100
100
100
100
100
100
100
100
100
100
100
100
100
100
100
100
100
100
100
100
100
100
100
100
100
100
100
100
100
100
100
100
100
100
100
100
100
100
100
100
100
100
100
100
100
100
100
100
100
100
100
100
100
100
100
100
100
100
100
100
100
100
100
100
100
100
100
100
100
100
100
100
100
100
100
100
100
100
100
100
100
100
100
100
100
100
100
100
100
100
100
100
100
100
100
100
100
100
100
100
100
100
100
100
100
100
100
100
100
100
100
100
100
100
100
100
100
100
100
100
100
100
100
100
100
100
100
100
100
100
100
100
100
100
100
100
100
100
100
100
100
100
100
100
100
100
100
100
100
100
100
100
100
100
100
100
100
100
100
100
100
100
100
100
100
100
100
100
100
100
100
100
100
100
100
100
100
100
100
100
100
100
100
100
100
100
100
100
100
100
100
100
100
100
100
100
100
100
100
100
100
100
100
100
100
100
100
100
100
100
100
100
100
100
100
100
100
100
100
100
100
100
100
100
100
100
100
100
100
100
100
100
100
100
100
100
100
100
100
100
100
100
100
100
100
100
100
100
100
100
100
100
100
100
100
100
100
100
100
100
100
100
100
100
100
100
100
100
100
100
100
100
100
100
100
100
100
100
100
100
100
100
100
100
100
100
100
100
100
100
100
100
100
100
100
100
100
100
100
100
100
100
100
100
100
100
100
100
100
100
100
100
100
100
100
100
100
100
100
100
100
100
100
100
100
100
100
100
100
100
100
100
100
100
100
100
100
100
100
100
100
100
100
100
100
100
100
100
100
100
100
100
100
100
100
100
100
100
100
100
100
100
100
100
100
100
100
100
100
100
100
100
100
100
100
100
100
100
100
100
100
100
100
100
100
100
100
100
100
100
100
100
100
100
100
100
100
100
100
100
100
100
100
100
100
100
100
100
100
100
100
100
100
100
100
100
100
100
100
100
100
100
100
100
100
100
100
100
100
100
100
100
100
100
100
100
100
100
100
100
100
100
100
100
100
100
100
100
100
100
100
100
100
100
100
100
100
100
100
100
100
100
100
100
100
100
100
100
100
100
100
100
100
100
100
100
100
100
100
100
100
100
100
100
100
100
100
100
100
100
100
100
100
100
100
100
100
100
100
100
100
100
100
100
100
100
100
100
100
100
100
100
100
100
100
100
100
100
100
100
100
100
100
100
100
100
100
100
100
100
100
100
100
100
100
100
100
100
100
100
100
100
100
100
100
100
100
100
100
100
100
100
100
100
100
100
100
100
100
100
100
100
100
100
100
100
100
100
100
100
100
100
100
100
100
100
100
100
100
100
100
100
100
100
100
100
100
100
100
100
100
100
100
100
100
100
100
100
100
100
100
100
100
100
100
100
100
100
100
100
100
100
100
100
100
100
100
100
100
100
100
100
100
100
100
100
100
100
100
100
100
100
100
100
100
100
100
100
100
100
100
100
100
100
100
100
100
100
100
100
100
100
100
100
100
100
100
100
100
100
100
100
100
100
100
100
100
100
100
100
100
100
100
100
100
100
100
100
100
100
100
100
100
100
100
100
100
100
100
100
100
100
100
100
100
100
100
100
100
100
100
100
100
100
100
100
100
100
100
100
100
100
100
100
100
100
100
100
100
100
100
100
100
100
100
100
100
100
100
100
100
100
100
100
100
100
100
100
100
100
100
100
100
100
100
100
100
100
100
100
100
100
100
100
100
100
100
100
100
100
100
100
100
100
100
100
100
100
100
100
100
100
100
100
100
100
100
100
100
100
100
100
100
100
100
100
100
100
100
100
100
100
100
100
100
100
100
100
100
100
100
100
100
100
100
100
100
100
100
100
100
100
100
100
100
100
100
100
100
100
100
100
100
100
100
100
100
100
100
100
100
100
100
100
100
100
100
100
100
100
100
100
100
100
100
100
100
100
100
100
100
100
100
100
100
100
100
100
100
100
100
100
100
100
100
100
100
100
100
100
100
100
100
100
100
100
100
100
100
100
100
100
100
100
100
100
100
100
100
100
100
100
100
100
100
100
100
100
100
100
100
100
100
100
100
100
100
100
100
100
100
100
100
100
100
100
100
100
100
100
100
100
100
100
100
100
100
100
100
100
100
100
100
100
100
100
100
100
100
100
100
100
100
100
100
100
100
100
100
100
100
100
100
100
100
100
100
100
100
100
100
100
100
100
100
100
100
100
100
100
100
100
100
100
100
100
100
100
100
100
100
100
100
100
100
100
100
100
100
100
100
100
100
100
100
100
100
100
100
100
100
100
100
100
100
100
100
100
100
100
100
100
100
100
100
100
100
100
100
100
100
100
100
100
100
100
100
100
100
100
100
100
100
100
100
100
100
100
100
100
100
100
100
100
100
100
100
100
100
100
100
100
100
100
100
100
100
100
100
100
100
100
100
100
100
100
100
100
100
100
100
100
100
100
100
100
100
100
100
100
100
100
100
100
100
100
100
100
100
100
100
100
100
100
100
100
100
100
100
100
100
100
100
100
100
100
100
100
100
100
100
100
100
100
100
100
100
100
100
100
100
100
100
100
100
100
100
100
100
100
100
100
100
100
100
100
100
100
100
100
100
100
100
100
100
100
100
100
100
100
100
100
100
100
100
100
100
100
100
100
100
100
100
100
100
100
100
100
100
100
100
100
100
100
100
100
100
100
100
100
100
100
100
100
100
100
100
100
100
100
100
100
100
100
100
100
100
100
100
100
100
100
100
100
100
100
100
100
100
100
100
100
100
100
100
100
100
100
100
100
100
100
100
100
100
100
100
100
100
100
100
100
100
100
100
100
100
100
100
100
100
100
100
100
100
100
100
100
100
100
100
100
100
100
100
100
100
100
100
100
100
100
100
100
100
100
100
100
100
100
100
100
100
100
100
100
100
100
100
100
100
100
100
100
100
100
100
100
100
100
100
100
100
100
100
100
100
100
100
100
100
100
100
100
100
100
100
100
100
100
100
100
100
100
100
100
100
100
100
100
100
100
100
100
100
100
100
100
100
100
100
100
100
100
100
100
100
100
100
100
100
100
100
100
100
100
100
100
100
100
100
100
100
100
100
100
100
100
100
100
100
100
100
100
100
100
100
100
100
100
100
100
100
100
100
100
100
100
100
100
100
100
100
100
100
100
100
100
100
100
100
100
100
100
100
100
100
100
100
100
100
100
100
100
100
100
100
100
100
100
100
100
100
100
100
100
100
100
100
100
100
100
100
100
100
100
100
100
100
100
100
100
100
100
100
100
100
100
100
100
100
100
100
100
100
100
100
100
100
100
100
100
100
100
100
100
100
100
100
100
100
100
100
100
100
100
100
100
100
100
100
100
100
100
100
100
100
100
100
100
100
100
100
100
100
100
100
100
100
100
100
100
100
100
100
100
100
100
100
100
100
100
100
100
100
100
100
100
100
100
100
100
100
100
100
100
100
100
100
100
100
100
100
100
100
100
100
100
100
100
100
100
100
100
100
100
100
100
100
100
100
100
100
100
100
100
100
100
100
100
100
100
100
100
100
100
100
100
100
100
100
100
100
100
100
100
100
100
100
100
100
100
100
100
100
100
100
100
100
100
100
100
100
100
100
100
100
100
100
100
100
100
100
100
100
100
100
100
100
100
100
100
100
100
100
100
100
100
100
100
100
100
100
100
100
100
100
100
100
100
100
100
100
100
100
100
100
100
100
100
100
100
100
100
100
100
100
100
100
100
100
100
100
100
100
100
100
100
100
100
100
100
100
100
100
100
100
100
100
100
100
100
100
100
100
100
100
100
100
100
100
100
100
100
100
100
100
100
100
100
100
100
100
100
100
100
100
100
100
100
100
100
100
100
100
100
100
100
100
100
100
100
100
100
100
100
100
100
100
100
100
100
100
100
100
100
100
100
100
100
100
100
100
100
100
100
100
100
100
100
100
100
100
100
100
100
100
100
100
100
100
100
100
100
100
100
100
100
100
100
100
100
100
100
100
100
100
100
100
100
100
100
100
100
100
100
100
100
100
100
100
100
100
100
100
100
100
100
100
100
100
100
100
100
100
100
100
100
100
100
100
100
100
100
100
100
100
100
100
100
100
100
100
100
100
100
100
100
100
100
100
100
100
100
100
100
100
100
100
100
100
100
100
100
100
100
100
100
100
100
100
100
100
100
100
100
100
100
100
100
100
100
100
100
100
100
100
100
100
100
100
100
100
100
100
100
100
100
100
100
100
100
100
100
100
100
100
100
100
100
100
100
100
100
100
100
100
100
100
100
100
100
100
100
100
100
100
100
100
100
100
100
100
100
100
100
100
100
100
100
100
100
100
100
100
100
100
100
100
100
100
100
100
100
100
100
100
100
100
100
100
100
100
100
100
100
100
100
100
100
100
100
100
100
100
100
100
100
100
100
100
100
100
100
100
100
100
100
100
100
100
100
100
100
100
100
100
100
100
100
100
100
100
100
100
100
100
100
100
100
100
100
100
100
100
100
100
100
100
100
100
100
100
100
100
100
100
100
100
100
100
100
100
100
100
100
100
100
100
100
100
100
100
100
100
100
100
100
100
100
100
100
100
100
100
100
100
100
100
100
100
100
100
100
100
100
100
100
100
100
100
100
100
100
100
100
100
100
100
100
100
100
100
100
100
100
100
100
100
100
100
100
100
100
100
100
100
100
100
100
100
100
100
100
100
100
100
100
100
100
100
100
100
100
100
100
100
100
100
100
100
100
100
100
100
100
100
100
100
100
100
100
100
100
100
100
100
100
100
100
100
100
100
100
100
100
100
100
100
100
100
100
100
100
100
100
100
100
100
100
100
100
100
100
100
100
100
100
100
100
100
100
100
100
100
100
100
100
100
100
100
100
100
100
100
100
100
100
100
100
100
100
100
100
100
100
100
100
100
100
100
100
100
100
100
100
100
100
100
100
100
100
100
100
100
100
100
100
100
100
100
100
100
100
100
100
100
100
100
100
100
100
100
100
100
100
100
100
100
100
100
100
100
100
100
100
100
100
100
100
100
100
100
100
100
100
100
100
100
100
100
100
100
100
100
100
100
100
100
100
100
100
100
100
100
100
100
100
100
100
100
100
100
100
100
100
100
100
100
100
100
100
100
100
100
100
100
100
100
100
100
100
100
100
100
100
100
100
100
100
100
100
100
100
100
100
100
100
100
100
100
100
100
100
100
100
100
100
100
100
100
100
100
100
100
100
100
100
100
100
100
100
100
100
100
100
100
100
100
100
100
100
100
100
100
100
100
100
100
100
100
100
100
100
100
100
100
100
100
100
100
100
100
100
100
100
100
100
100
100
100
100
100
100
100
100
100
100
100
100
100
100
100
100
100
100
100
100
100
100
100
100
100
100
100
100
100
100
100
100
100
100
100
100
100
100
100
100
100
100
100
100
100
100
100
100
100
100
100
100
100
100
100
100
100
100
100
100
100
100
100
100
100
100
100
100
100
100
100
100
100
100
100
100
100
100
100
100
100
100
100
100
100
100
100
100
100
100
100
100
100
100
100
100
100
100
100
100
100
100
100
100
100
100
100
100
100
100
100
100
100
100
100
100
100
100
100
100
100
100
100
100
100
100
100
100
100
100
100
100
100
100
100
100
100
100
100
100
100
100
100
100
100
100
100
100
100
100
100
100
100
100
100
100
100
100
100
100
100
100
100
100
100
100
100
100
100
100
100
100
100
100
100
100
100
100
100
100
100
100
100
100
100
100
100
100
100
100
100
100
100
100
100
100
100
100
100
100
100
100
100
100
100
100
100
100
100
100
100
100
100
100
100
100
100
100
100
100
100
100
100
100
100
100
100
100
100
100
100
100
100
100
100
100
100
100
100
100
100
100
100
100
100
100
100
100
100
100
100
100
100
100
100
100
100
100
100
100
100
100
100
100
100
100
100
100
100
100
100
100
100
100
100
100
100
100
100
100
100
100
100
100
100
100
100
100
100
100
100
100
100
100
100
100
100
100
100
100
100
100
100
100
100
100
100
100
100
100
100
100
100
100
100
100
100
100
100
100
100
100
100
100
100
100
100
102.515
100
100
100
100.373
100
100
100
100
100
102.442
103.538
100
100
100
100
100
100
100
100
100
100
100
100
100
100
100
100
100
100
100
100
100
100
100
100
100
100
100
100
100
100
100
100
100
100
100
100
100
100
100
100
100
100
100
100
100
100
100
100
100
100
100
100
100
100
100
100
100
100
100
100
100
100
100
100
100
100
100
100
100
100.503
101.048
100
100
100
100
100
100
100
100
100
100
100
100
100
100
100
100
105.048
100
108.17
100
103.131
107.25
116.616
111.647
104.421
103.977
109.736
108.671
107.876
100
100
105.32
110.539
113.72
106.248
100
100
100
100
100
100
100
100
100
100
100
100
100
100
100
100
100
100
100
100
100
100
100
100
100
100
100
100
100
100
100
100
100
100
100
100
100
100
100
100
100
100
100
100
100
100
100
100
100
100
100
100
100
100
100
100
100
100
100
102.299
100
103.056
100
100.295
100
104.577
106.498
100
100
108.84
109.106
100
101.413
104.857
103.296
100
100
100
100
100
100
100
100
100
100
100
100
120.875
112.09
125.897
114.99
115.82
125.363
148.927
137.164
118.088
115.772
128.352
129.709
122.222
104.945
102.319
116.65
128.755
133.188
116.58
100
100
100
100
100
100
100
100
100
100
100
100
100
100
100
100
100
100
100
100
100
100
100
100
100
100
100
100
100
100
100
100
100
100
100
100
100
100
100
100
100
100
100
100
100
100
100
100
100
100
100
100
100
100
100
100
100
100
100
100
111.338
107.803
111.58
105.92
107.98
107.233
113.632
115.648
105.559
107.664
117.857
117.813
108.361
110.605
113.496
112.383
100
101.926
104.462
106.066
100
100
103.446
107.358
116.396
116.017
114.729
113.183
156.088
133.196
162.39
139.591
145.985
164.568
191.487
181.333
146.149
141.625
165.978
168.404
151.922
115.776
113.98
134.385
157.013
159.046
133.722
100
100
106.238
100
100
106.971
112.297
100
100
100
100
100
100
100
100
100
100
100
100
100
100
100
100
100
100
100
100
100
100
100
100
100
100
100
100
100
100
100
100
100
100
100
100
100
100
100
100
100
100
100
100
100
100
100
100
100
100
100
100
100
100
100
120.482
116.608
121.052
115.786
116.966
116.859
123.449
125.683
114.416
116.475
127.897
127.3
119.82
121.756
123.969
123.345
111.307
114.884
117.58
118.446
112.19
115.638
119.632
123.95
142.708
141.266
139.432
137.201
185.317
172.832
192.419
180.224
186.47
199.741
214.439
204.775
188.665
180.93
209.04
207.102
186.829
131.842
125.696
157.977
189.003
189.408
155.024
100
100
120.051
109.161
116.285
148.9
149.461
100
108.439
100
100
100
100
100
100
100
100
100
100
100
100
100
100
100
100
100
100
100
100
100
100
100
100
100
100
100
100
100
100
100
100
100
100
100
100
100
100
100
100
100
100
100
100
100
100
100
100
100
100
110.321
103.255
100
103.147
130.564
126.457
131.881
126.922
126.972
127.02
133.775
136.374
125.227
126.796
138.847
138.605
134.534
135.431
136.338
136.362
128.837
132.76
134.755
134.684
135.621
137.155
140.789
145.089
179.073
176.406
172.181
167.29
236.295
204.244
245.958
213.315
210.27
221.808
146.298
258.556
212.809
217.895
224.581
228.229
219.534
149.89
144.638
186.783
222.797
223.408
182.16
100
100
133.752
124.587
139.07
203.732
200.497
100
126.27
100
100
100
100
100
100
100
100
100
100
100
100
100
100
100
100
100
100
100
100
100
100
100
100
100
100
100
100
100
100
100
100
100
100
100
100
100
100
100
100
100
100
100
100
100
100
100
100
100
100
120.874
112.693
102.948
112.381
142.208
137.34
142.683
137.499
138.748
137.853
145.88
148.624
137.539
138.484
151.038
151.558
153.628
152.653
151.592
152.5
152.468
158.697
157.794
156.173
164.387
163.394
165.749
167.041
232.974
230.436
224.529
219.237
285.578
257.28
298.867
143.265
260.137
150.812
178.179
315.459
268.082
230.915
149.33
154.9
233.881
176.138
162.22
221.557
237.752
238.309
216.417
111.675
103.713
153.214
138.953
168.942
311.084
138.646
116.443
146.258
100
100
100
100
100
100
100
100
100
100
100
100
100
100
100
100
100
100
100
100
100
100
100
100
100
100
100
100
100
100
100
100
100
100
100
100
100
100
100
100
100
100
100
100
100
100
100
102.619
100
100
130.567
121.872
111.977
121.885
153.658
147.736
154.685
148.205
151.875
149.982
158.585
161.412
152.046
152.228
166.872
166.851
178.328
174.08
170.826
172.148
175.796
184.492
187.051
182.582
217.815
216.657
220.329
220.121
279.558
275.769
269.907
264.038
339.881
313.798
357.048
172.885
318.053
183.097
212.66
377.271
326.035
151.282
182.793
187.619
152.811
196.327
184.863
231.084
153.906
154.383
227.097
127.82
120.995
170.921
160.861
140.492
177.56
100.025
132.147
145.225
100
100
100
100
100
100
100
100
100
100
100
100
100
100
100
100
100
100
100
100
100
100
100
100
100
100
100
100
100
100
100
100
100
100
100
100
100
100
100
100
100
100
100
100
100
100
100
100
100
111.054
102.468
104.047
140.296
131.512
120.837
131.246
166.135
159.787
167.301
159.077
166.787
163.483
172.239
175.994
170.003
169.223
186.523
184.05
201.668
196.596
193.724
195.1
230.692
246.213
224.035
213.146
261.956
260.937
265.148
265.293
332.192
328.035
320.974
314.48
390.14
375.173
408.593
205.348
381.059
218.363
243.101
432.621
387.969
183.669
218.454
222.041
185.098
218.731
205.16
150.196
186.714
185.559
245.992
280.559
146.123
139.592
195.64
179.758
145.722
100
100
145.807
158.232
100
100
100
100
100
100
100
100
100
100
100
100
100
100
100
100
100
100
100
100
100
100
100
100
100
100
100
100
100
100
100
100
100
100
100
100
100
100
100
100
100
100
100
100
100
104.728
104.804
100
100
119.071
111.075
112.687
150.366
141.419
129.712
141.327
181.08
173.971
179.801
170.305
183.849
179.972
186.772
192.27
191.29
188.789
211.097
205.446
266.15
229.014
213.727
222.248
276.178
288.581
150.921
266.965
311.229
310.953
315.174
315.607
381.717
377.155
368.295
361.288
427.991
235.37
437.284
250.016
443.727
219.427
249.21
252.67
220.7
233.996
228.092
180.47
222.51
220.682
159.715
335.566
168.972
163.472
216.039
202.632
139.624
100
100
167.093
161.466
100
100
100
100
100
100
100
100
100
100
100
100
100
100
100
100
100
100
100
100
100
100
100
100
100
100
100
100
100
100
100
100
100
100
100
100
100
100
100
100
100
100
100
100
100
100
100
100
112.394
111.497
102.8
100.837
127.145
119.877
119.922
160.996
152.024
137.7
150.35
198.44
189.165
194.164
182.99
203.024
198.937
204.019
211.425
214.231
213.329
237.877
228.527
153.762
310.164
281.762
274.931
327.857
336.768
178.942
319.069
357.297
357.452
361.767
362.457
250.931
251.754
259.163
279.93
245.562
214.999
253.835
251.611
186.999
399.198
192.132
185.295
237.599
226.61
135.208
100
100
178.383
160.373
100
100
100
100
100
100
100
100
100
100
100
100
100
100
100
100
100
100
100
100
100
100
100
100
100
100
100
100
100
100
100
100
100
100
100
100
100
100
100
100
100
100
100
100
100
100
100
100
119.271
116.665
108.573
106.687
135.24
127.551
126.922
172.209
162.386
145.944
158.517
216.91
206.235
209.68
196.172
222.407
218.733
224.065
233.437
236.209
234.674
250.333
252.669
182.331
357.439
323.486
159.646
325.994
377.713
384.597
209.369
374.627
170.49
332.014
274.383
287.722
245.115
220.669
454.584
211.898
198.423
251.246
242.23
133.719
100
100
180.604
158.732
100
100
100
100
100
100
100
100
100
100
100
100
100
100
100
100
100
100
100
100
100
100
100
100
100
100
100
100
100
100
100
100
100
100
100
100
100
100
100
100
100
100
100
100
100
101.469
100
100
100
124.285
121.759
114.239
109.712
143.076
134.631
132.472
182.887
171.345
155.358
168.584
237.259
225.045
226.083
209.527
242.514
239.117
246.447
254.733
292.955
168.067
269.27
211.466
406.399
367.82
187.471
380.486
238.407
430.325
195.389
393.844
184.215
337.684
250.429
224.067
203.016
276.481
292.681
253.513
129.656
100
113.217
180.193
156.543
100
100
100
100
100
100
100
100
100
100
100
100
100
100
100
100
100
100
100
100
100
100
100
100
100
100
100
100
100
100
100
100
100
100
100
100
100
100
100
100
100
100
100
100
100
100
100
100
104.082
100
100
128.7
125.265
117.488
110.88
149.706
140.53
136.654
193.371
181.327
163.421
177.795
259.799
244.777
243.182
223.083
263.162
259.898
271.066
277.911
341.025
174.764
192.482
239.577
415.234
215.33
436.389
226.108
447.85
204.707
397.406
231.536
202.155
301.498
316.38
334.195
255.715
138.091
100
119.606
177.399
159.345
100
100
100
100
100
100
100
100
100
100
100
100
100
100
100
100
100
100
100
100
100
100
100
100
100
100
100
100
100
100
100
100
100
100
100
100
100
100
100
100
100
100
100
100
100
100
100
100
100
100
105.935
100
132.614
125.513
117.853
112.184
155.673
144.841
140.732
204.75
191.745
171.082
186.244
280.751
264.488
262.157
238.902
284.959
275.879
294.519
287.853
393.196
181.008
199.839
218.189
242.842
252.193
230.628
446.968
227.519
198.236
190.022
356.741
385.456
250.16
294.693
145.049
106.643
140.759
176.749
161.245
100
100
100
100
100
100
100
100
100
100
100
100
100
100
100
100
100
100
100
100
100
100
100
100
100
100
100
100
100
100
100
100
100
100
100
100
100
100
100
100
100
100
100
100
100
100
100
100
100
100
100
100
104.732
133.87
125.205
118.47
110.686
160.608
148.778
143.394
217.393
201.457
177.312
193.397
297.935
284.274
280.138
254.942
329.449
293.503
183.39
445.683
208.227
225.772
244.827
251.149
220.744
195.428
208.96
408.104
426.175
242.992
283.699
330.015
157.814
116.222
165.698
176.167
164.142
100
100
100
100
100
100
100
100
100
100
100
100
100
100
100
100
100
100
100
100
100
100
100
100
100
100
100
100
100
100
100
100
100
100
100
100
100
100
100
100
100
100
100
100
100
100
100
100
100
100
101.324
100
100
100
133.163
124.987
117.257
106.499
166.511
152.977
143.485
229.329
209.822
183.734
199.779
308.467
301.274
297.078
272.373
371.171
179.478
206.745
235.887
252.213
215.857
193.341
232.766
450.303
238.167
279.484
318.538
372.829
171.203
108.491
174.914
175.236
175.608
100
100
100
100
100
100
100
100
100
100
100
100
100
100
100
100
100
100
100
100
100
100
100
100
100
100
100
100
100
100
100
100
100
100
100
100
100
100
100
100
100
100
100
100
100
100
100
100
100
100
100
100
100
100
100
133.792
122.771
113.424
104.293
172.038
155.413
144.475
242.675
218.343
190.695
206.644
317.824
351.13
310.597
307.459
287.508
415.107
202.779
230.334
262.35
213.485
190.992
249.495
235.755
274.356
313.621
362.604
402.531
177.52
101.465
181.331
182.799
180.635
100
100
100
100
100
100
100
100
100
100
100
100
100
100
100
100
100
100
100
100
100
100
100
100
100
100
100
100
100
100
100
100
100
100
100
100
100
100
100
100
100
100
100
100
102.27
100
100
100
100
100
100
100
100
100
100
100
133.948
120.808
111.229
175.493
157.058
147.03
256.719
227.633
195.531
213.08
190.927
394.768
310.467
308.961
298.8
457.779
226.545
251.764
211.451
195.563
234.769
270.002
307.631
354.029
394.172
185.042
100
184.88
187.015
185.152
100
100
100
100
100
100
100
100
100
100
100
100
100
100
100
100
100
100
100
100
100
100
100
100
100
100
100
100
100
100
100
100
100
100
100
100
100
100
100
100
100
100
100
100
110.29
100
100
100
100
100
100
100
100
100
100
100
100
100
133.152
120.674
180.006
161.165
148.193
270.241
237.915
198.947
218.673
216.346
182.981
437.453
318.316
337.823
303.634
248.021
213.679
198.682
235.793
270.024
303.634
346.691
382.812
189.882
100.155
189.359
189.979
188.012
100
100
100
100
100
100
100
100
100
100
100
100
100
100
100
100
100
100
100
100
100
100
100
100
100
100
100
100
100
100
100
100
100
100
100
100
100
100
100
100
100
100
100
100
100
108.654
100
100
100
100
100
100
100
100
100
100
100
100
100
100
133.876
120.438
186.265
164.903
149.859
282.814
248.657
205.792
228.66
242.191
205.761
473.522
187.865
378.902
305.974
216.667
201.174
239.004
271.034
302.978
341.931
374.286
190.165
103.457
181.603
191.813
187.433
100
100
100
100
100
100
100
100
100
100
100
100
100
100
100
100
100
100
100
100
100
100
100
100
100
100
100
100
100
100
100
100
100
100
100
100
100
100
100
100
100
100
100
100
107.347
100
100
100
100
100
100
100
100
100
100
100
100
100
100
100
135.294
120.089
190.721
168.001
152.396
291.22
261.497
210.836
238.51
263.597
229.841
332.688
210.21
422.407
318.715
218.572
202.994
242.857
270.928
304.599
340.119
368.701
181.707
150.97
203.607
191.217
180.657
100
100
100
100
100
100
100
100
100
100
100
100
100
100
100
100
100
100
100
100
100
100
100
100
100
100
100
100
100
100
100
100
100
100
100
100
100
100
100
100
100
100
100
100
100
106.589
100
100
100
100
100
100
100
100
100
100
100
100
100
100
100
100
135.917
119.634
194.002
171.202
153.835
297.142
273.96
214.979
247.823
249.297
373.34
187.714
234.089
457.237
222.004
203.345
248.838
277.855
304.127
341.213
366.043
180.663
290.371
207.945
187.682
168.993
100
100
100
100
100
100
100
100
100
100
100
100
100
100
100
100
100
100
100
100
100
100
100
100
100
100
100
100
100
100
100
100
100
100
100
100
100
100
100
100
100
100
100
100
100
106.156
100
100
100
100
100
100
100
100
100
100
100
100
100
100
100
100
100
135.923
119.373
197.323
173.938
154.637
301.121
283.651
219.421
254.978
416.727
209.968
325.917
253.439
224.138
201.964
253.944
281.704
311.193
341.125
366.036
163.726
675.546
222.44
179.55
153.008
100
100
100
100
100
100
100
100
100
100
100
100
100
100
100
100
100
100
100
100
100
100
100
100
100
100
100
100
100
100
100
100
100
100
100
100
100
100
100
100
100
100
100
100
100
104.702
100
100
100
100
100
100
100
100
100
100
100
100
100
100
100
100
104.353
135.904
118.354
199.767
175.906
155.282
307.175
284.345
222.459
257.02
451.686
233.532
366.346
179.325
226.39
197.163
255.949
292.216
315.87
347.398
367.212
136.085
145.384
100
167.758
134.864
100
100
100
100
100
100
100
100
100
100
100
100
100
100
100
100
100
100
100
100
100
100
100
100
100
100
100
100
100
100
100
100
100
100
100
100
100
100
100
100
100
100
100
100
100
100
100
100
100
100
100
100
100
100
100
100
100
100
100
100
100
102.82
100.898
118.238
135.497
202.234
177.595
155.758
274.165
226.067
258.205
253.117
410.154
202.071
299.26
222.083
187.32
258.554
289.304
325.141
352.778
372.076
100
100
100
152.796
113.536
100
100
100
100
100
100
100
100
100
100
100
100
100
100
100
100
100
100
100
100
100
100
100
100
100
100
100
100
100
100
100
100
100
100
100
100
100
100
100
100
100
100
100
100
100
100
100
100
100
100
100
100
100
100
100
100
100
100
100
100
100
100
100
116.05
113.417
135.858
205.606
179.305
156.745
278.348
231.998
264.94
447.154
226.231
334.746
302.999
210.523
175.594
250.186
287.862
176.438
324.195
360.806
378.506
100
100
100
139.873
105.572
100
100
100
100
100
100
100
100
100
100
100
100
100
100
100
100
100
100
100
100
100
100
100
100
100
100
100
100
100
100
100
100
100
100
100
100
100
100
100
100
100
100
100
100
100
100
100
100
100
100
100
100
100
100
100
100
100
100
100
100
100
100
100
110.531
107.165
133.397
130.242
207.771
180.861
154.378
293.832
238.039
270.446
246.223
372.919
339.231
325.575
197.902
165.361
278.831
238.335
330.289
199.128
361.966
386.441
100
100
100
136.228
100
100
100
100
100
100
100
100
100
100
100
100
100
100
100
100
100
100
100
100
100
100
100
100
100
100
100
100
100
100
100
100
100
100
100
100
100
100
100
100
100
100
100
100
100
100
100
100
100
100
100
100
100
100
100
100
100
100
100
100
100
100
100
103.453
100
126.622
122.327
150.848
206.451
178.877
309.694
236.98
264.737
405.945
380.287
363.476
181.253
186.68
159.045
257.019
226.177
290.688
367.958
222.181
389.849
100
100
100
131.569
100
100
100
100
100
100
100
100
100
100
100
100
100
100
100
100
100
100
100
100
100
100
100
100
100
100
100
100
100
100
100
100
100
100
100
100
100
100
100
100
100
100
100
100
100
100
100
100
100
100
100
100
100
100
100
100
100
100
100
100
100
100
100
100
100
117.46
112.093
146.72
141.669
175.095
202.196
230.151
258.346
292.142
415.725
402.361
202.994
176.253
154.299
254.042
212.429
332.033
173.501
403.914
239.925
100
100
100
124.655
100
100
100
100
100
100
100
100
100
100
100
100
100
100
100
100
100
100
100
100
100
100
100
100
100
100
100
100
100
100
100
100
100
100
100
100
100
100
100
100
100
100
100
100
100
100
100
100
100
100
100
100
100
100
100
100
100
100
100
100
100
100
100
100
108.294
107.342
135.858
131.964
170.348
164.477
196.239
222.962
250.184
290.399
324.55
436.589
224.709
169.957
149.685
270.596
248.407
200.736
374.574
196.296
304.419
436.479
100
100
100
112.315
100
100
100
100
100
100
100
100
100
100
100
100
100
100
100
100
100
100
100
100
100
100
100
100
100
100
100
100
100
100
100
100
100
100
100
100
100
100
100
100
100
100
100
100
100
100
100
100
100
100
100
100
100.805
100
100
100
101.416
102.011
101.388
100
100
100
100
107.973
107.028
130.718
130.293
158.658
159.366
189.331
214.305
240.117
282.194
321.347
361.224
243.109
164.224
141.061
262.617
236.489
187.479
410.793
218.966
347.435
170.826
100
100
100
100
100
100
100
100
100
100
100
100
100
100
100
100
100
100
100
100
100
100
100
100
100
100
100
100
100
100
100
100
100
100
100
100
100
100
100
100
100
100
100
100
100
100
100
100
100
100
100
103.031
100
100
100
100
100.734
100
102.98
104.017
101.587
102.205
105.087
105.743
105.061
101.824
103.627
107.552
108.334
129.333
126.134
160.161
159.712
185.366
190.071
212.287
238.162
276.479
313.317
357.462
393.459
157.403
131.438
255.328
222.251
176.038
240.573
391.421
195.317
267.54
302.674
100
100
100
100
100
100
100
100
100
100
100
100
100
100
100
100
100
100
100
100
100
100
100
100
100
100
100
100
100
100
100
100
100
100
100
100
100
100
100
100
100
100
100
100
100
100
100
100
100
100
100
100
100
107.412
102.579
100
100
100
102.575
103.257
102.422
106.399
106.75
104.85
105.256
108.662
111.13
110.607
109.543
110.417
124.138
122.744
157.702
152.796
193.24
193.741
220.218
246.382
275.724
307.224
349.483
388.562
150.635
118.78
250.48
206.956
166.589
434.739
220.19
346.611
263.54
172.127
100
100
100
100
100
100
100
100
100
100
100
100
100
100
100
100
100
100
100
100
100
100
100
100
100
100
100
100
100
100
100
100
100
100
100
100
100
100
100
100
100
100
100
100
100
100
100
100
100
100
100
100
100
100
112.5
105.866
100
101.792
101.643
105.226
105.573
105.516
109.708
109.465
108.509
108.115
112.569
119.111
119.609
121.887
121.083
148.203
144.234
190.946
185.375
227.279
231.441
254.799
280.68
305.896
342.669
380.508
142.488
104.709
236.814
191.99
157.815
245.287
392.799
198.083
258.252
272.876
309.399
100
100
100
100
100
100
100
100
100
100
100
100
100
100
100
100
100
100
100
100
100
100
100