/*--------------------------------*- C++ -*----------------------------------*\
  =========                 |
  \\      /  F ield         | OpenFOAM: The Open Source CFD Toolbox
   \\    /   O peration     | Website:  https://openfoam.org
    \\  /    A nd           | Version:  dev
     \\/     M anipulation  |
\*---------------------------------------------------------------------------*/
FoamFile
{
    version     2.0;
    format      ascii;
    class       volScalarField;
    location    "2500";
    object      rho;
}
// * * * * * * * * * * * * * * * * * * * * * * * * * * * * * * * * * * * * * //

dimensions      [1 -3 0 0 0 0 0];

internalField   nonuniform List<scalar> 
9851
(
1.1717
1.17152
1.17159
1.17149
1.17119
1.17166
1.17149
1.17098
1.17114
1.17174
1.17151
1.17088
1.1708
1.17122
1.17179
1.17156
1.17089
1.17057
1.17082
1.17136
1.1718
1.17156
1.17086
1.17042
1.1705
1.17091
1.17146
1.17184
1.17157
1.17104
1.17037
1.17025
1.17057
1.17106
1.17149
1.17185
1.17159
1.17099
1.1703
1.17008
1.17024
1.17066
1.17119
1.17154
1.17185
1.17166
1.171
1.1704
1.16996
1.16997
1.17033
1.17082
1.17123
1.17157
1.17187
1.17162
1.17094
1.17038
1.16986
1.16978
1.16999
1.17044
1.17093
1.1713
1.1716
1.17189
1.17163
1.17096
1.17037
1.16986
1.16964
1.16976
1.17012
1.1706
1.17098
1.17132
1.17164
1.17188
1.17159
1.17103
1.17042
1.16982
1.16951
1.16952
1.16981
1.17024
1.17068
1.17104
1.17137
1.17165
1.17189
1.17163
1.171
1.17034
1.16976
1.16944
1.16933
1.16953
1.16994
1.17036
1.17076
1.17108
1.17138
1.17165
1.17191
1.17162
1.17095
1.17039
1.16976
1.16936
1.16917
1.16929
1.16963
1.17005
1.17047
1.17083
1.17114
1.1714
1.17167
1.17191
1.17163
1.171
1.17047
1.16976
1.16931
1.16909
1.1691
1.16936
1.16976
1.17019
1.17053
1.17086
1.17117
1.17143
1.17167
1.17191
1.17155
1.17099
1.17034
1.16972
1.16928
1.169
1.16894
1.16912
1.16947
1.16988
1.17026
1.1706
1.17093
1.17117
1.17143
1.17167
1.1719
1.17153
1.17094
1.17031
1.16977
1.16926
1.16893
1.16881
1.1689
1.16921
1.1696
1.16998
1.17034
1.17064
1.17093
1.17122
1.17144
1.17168
1.1719
1.17151
1.17099
1.17041
1.16984
1.16927
1.1689
1.16871
1.16873
1.16897
1.16932
1.16971
1.17008
1.1704
1.17069
1.17096
1.17122
1.17147
1.17168
1.1719
1.1715
1.17092
1.17035
1.16982
1.16932
1.16886
1.16862
1.16859
1.16875
1.16905
1.16945
1.16981
1.17017
1.1705
1.17072
1.17102
1.17122
1.17147
1.17169
1.17192
1.17151
1.1709
1.1704
1.16985
1.16931
1.16881
1.16857
1.16849
1.16857
1.16882
1.16917
1.16954
1.16987
1.17022
1.1705
1.17077
1.17102
1.17123
1.17148
1.17168
1.1719
1.17154
1.17089
1.17039
1.16989
1.16934
1.16885
1.16853
1.16839
1.16842
1.16861
1.16893
1.16928
1.16963
1.16998
1.17029
1.17052
1.17077
1.17101
1.17125
1.17147
1.17169
1.17191
1.17148
1.17088
1.1704
1.1699
1.16936
1.16888
1.16851
1.16831
1.16828
1.16844
1.16868
1.16905
1.16939
1.1697
1.17001
1.17028
1.17057
1.17078
1.17101
1.17125
1.17147
1.17168
1.17191
1.17148
1.17088
1.17033
1.16986
1.16942
1.16892
1.16851
1.16827
1.16818
1.16827
1.1685
1.16882
1.16914
1.1695
1.1698
1.17007
1.17032
1.17058
1.17079
1.17104
1.17126
1.17148
1.17168
1.17191
1.17146
1.17087
1.17039
1.16987
1.16946
1.16898
1.16855
1.16824
1.1681
1.16812
1.16829
1.16859
1.16891
1.16925
1.16954
1.16985
1.17007
1.17034
1.17058
1.17079
1.17103
1.17125
1.17147
1.17168
1.1719
1.17145
1.17087
1.17041
1.16988
1.16948
1.16904
1.16858
1.16825
1.16806
1.16803
1.16813
1.16838
1.16868
1.16899
1.16935
1.16959
1.16985
1.1701
1.17038
1.17058
1.1708
1.17103
1.17126
1.17147
1.17168
1.17191
1.17148
1.17088
1.17042
1.1699
1.16951
1.16911
1.16867
1.16826
1.16802
1.16791
1.16799
1.16818
1.16849
1.16878
1.16909
1.16942
1.16964
1.16989
1.17013
1.17037
1.17058
1.17082
1.17105
1.17125
1.17146
1.17168
1.1719
1.17149
1.17087
1.1704
1.16992
1.16955
1.16917
1.16872
1.16829
1.168
1.16787
1.16788
1.16801
1.16826
1.16857
1.16887
1.16915
1.16943
1.16967
1.16989
1.17015
1.17036
1.17059
1.1708
1.17103
1.17125
1.17145
1.17167
1.17189
1.17146
1.17089
1.17038
1.16996
1.16961
1.16918
1.16876
1.16834
1.16801
1.16782
1.16777
1.16788
1.16808
1.16836
1.16866
1.16896
1.16922
1.16946
1.16969
1.16994
1.17016
1.17036
1.1706
1.17081
1.17103
1.17123
1.17145
1.17166
1.17188
1.17146
1.17093
1.17039
1.17001
1.16962
1.16921
1.16882
1.16841
1.16803
1.1678
1.16771
1.16775
1.16792
1.16817
1.16847
1.16875
1.16903
1.16928
1.16949
1.1697
1.16992
1.17014
1.17036
1.1706
1.17082
1.17103
1.17124
1.17144
1.17166
1.17188
1.17149
1.17094
1.17045
1.17004
1.16964
1.16925
1.16887
1.16847
1.16807
1.1678
1.16766
1.16764
1.16779
1.168
1.16829
1.16855
1.16881
1.16908
1.16931
1.16952
1.16973
1.16993
1.17014
1.17038
1.17061
1.17082
1.17103
1.17124
1.17144
1.17165
1.17188
1.1715
1.17093
1.17048
1.17004
1.1697
1.16931
1.16892
1.16853
1.16813
1.16782
1.16765
1.16758
1.16764
1.16784
1.16809
1.16837
1.16865
1.16888
1.16908
1.1693
1.16951
1.16974
1.16995
1.17018
1.17039
1.17061
1.17081
1.17102
1.17122
1.17143
1.17164
1.17187
1.1715
1.17092
1.17048
1.17009
1.16974
1.16934
1.16896
1.16862
1.16819
1.16784
1.16764
1.16751
1.16755
1.16768
1.16792
1.16817
1.16848
1.16867
1.1689
1.16914
1.16933
1.16954
1.16976
1.16997
1.17018
1.17039
1.17059
1.1708
1.171
1.1712
1.1714
1.17162
1.17186
1.17151
1.17094
1.17051
1.17014
1.16975
1.16941
1.16905
1.16866
1.16822
1.16787
1.16764
1.16747
1.16745
1.16754
1.16776
1.16799
1.16824
1.16851
1.16874
1.16893
1.16916
1.16935
1.16955
1.16976
1.16996
1.17016
1.17037
1.17058
1.17077
1.17097
1.17117
1.17138
1.17163
1.17198
1.17183
1.1715
1.17098
1.17056
1.17017
1.16978
1.16948
1.16912
1.16871
1.16829
1.16793
1.16766
1.16745
1.16738
1.16744
1.16759
1.16786
1.16807
1.16834
1.16854
1.16874
1.16897
1.16917
1.16936
1.16955
1.16975
1.16995
1.17015
1.17035
1.17055
1.17075
1.17094
1.17115
1.17141
1.17169
1.17157
1.17198
1.17183
1.17151
1.17103
1.17061
1.17022
1.16986
1.1695
1.16916
1.16882
1.16834
1.16798
1.16769
1.16742
1.16734
1.16736
1.16748
1.16766
1.1679
1.16816
1.16838
1.1686
1.16879
1.16899
1.16917
1.16935
1.16954
1.16974
1.16993
1.17013
1.17032
1.17052
1.17071
1.17091
1.17119
1.17108
1.17144
1.17126
1.17131
1.17169
1.17155
1.17198
1.17182
1.17155
1.17105
1.17064
1.17026
1.16993
1.16957
1.16923
1.16889
1.16842
1.16802
1.16773
1.16742
1.1673
1.16728
1.16736
1.16754
1.16775
1.16799
1.16824
1.16842
1.16862
1.1688
1.16898
1.16916
1.16934
1.16953
1.16972
1.16991
1.1701
1.17029
1.17047
1.17068
1.17097
1.17086
1.17113
1.17142
1.17119
1.1713
1.17167
1.17153
1.17197
1.1718
1.17154
1.17106
1.17071
1.1703
1.16998
1.16965
1.1693
1.16897
1.16851
1.1681
1.16775
1.16743
1.16727
1.1672
1.16726
1.1674
1.16761
1.16785
1.16808
1.16827
1.16845
1.16863
1.16879
1.16897
1.16915
1.16933
1.16951
1.1697
1.16988
1.17006
1.17024
1.17045
1.17074
1.17062
1.17099
1.17086
1.17107
1.1714
1.17117
1.17127
1.17165
1.17151
1.17196
1.17179
1.17155
1.1711
1.17074
1.17037
1.17005
1.16973
1.16939
1.16906
1.16862
1.16817
1.16779
1.16745
1.16725
1.16715
1.16718
1.16729
1.16747
1.1677
1.16793
1.16812
1.1683
1.16846
1.16862
1.16878
1.16895
1.16913
1.16931
1.16949
1.16967
1.16985
1.17001
1.17021
1.1705
1.17037
1.17073
1.1706
1.17094
1.17081
1.17104
1.17137
1.17114
1.17124
1.17163
1.17149
1.17195
1.17177
1.17156
1.17114
1.17077
1.17041
1.17011
1.16979
1.16946
1.16913
1.16876
1.16827
1.16786
1.1675
1.16725
1.16712
1.16711
1.16719
1.16736
1.16755
1.1678
1.16798
1.16815
1.16831
1.16846
1.16861
1.16877
1.16894
1.16911
1.16929
1.16947
1.16963
1.1698
1.16996
1.17024
1.17009
1.17046
1.17032
1.17067
1.17053
1.1709
1.17076
1.171
1.17134
1.17109
1.1712
1.17161
1.17146
1.17194
1.17175
1.17159
1.17117
1.17081
1.17047
1.17015
1.16985
1.16953
1.1692
1.16886
1.16835
1.16794
1.16756
1.16726
1.1671
1.16705
1.16711
1.16725
1.16745
1.16766
1.16785
1.16802
1.16817
1.16831
1.16845
1.1686
1.16875
1.16891
1.16908
1.16926
1.16944
1.16956
1.16969
1.16993
1.16972
1.17015
1.16994
1.17037
1.17017
1.17061
1.17042
1.17085
1.17068
1.17094
1.1713
1.17104
1.17114
1.17158
1.17142
1.17193
1.17173
1.17159
1.17119
1.17083
1.17053
1.17023
1.16992
1.16959
1.16929
1.16896
1.16849
1.16803
1.16762
1.16729
1.16708
1.167
1.16703
1.16714
1.16732
1.16752
1.16772
1.16789
1.16804
1.16818
1.1683
1.16844
1.16858
1.16873
1.16889
1.16905
1.16922
1.16935
1.16932
1.16945
1.16901
1.16964
1.16917
1.16988
1.16941
1.17016
1.16974
1.17046
1.17012
1.17076
1.17051
1.17085
1.17125
1.17094
1.17105
1.17155
1.17138
1.17191
1.1717
1.17161
1.17122
1.17088
1.17058
1.17027
1.16998
1.16967
1.16935
1.16905
1.16866
1.16814
1.1677
1.16732
1.16708
1.16697
1.16697
1.16706
1.16721
1.1674
1.16759
1.16776
1.1679
1.16803
1.16816
1.16828
1.16841
1.16855
1.1687
1.16885
1.169
1.16906
1.16877
1.16852
1.16777
1.16846
1.16753
1.1686
1.16745
1.16899
1.1677
1.1695
1.16833
1.17007
1.16918
1.17056
1.17001
1.17063
1.17117
1.17072
1.17085
1.17151
1.17131
1.1719
1.17167
1.17162
1.17122
1.1709
1.17061
1.17033
1.17003
1.16974
1.16942
1.16913
1.16881
1.16824
1.16781
1.16738
1.16709
1.16694
1.16691
1.16697
1.1671
1.16728
1.16747
1.16764
1.16778
1.16791
1.16802
1.16814
1.16826
1.16838
1.16852
1.16866
1.16878
1.16874
1.1681
1.16704
1.16613
1.16646
1.16531
1.16609
1.16463
1.16607
1.16429
1.16652
1.16444
1.1675
1.16518
1.16882
1.16659
1.16998
1.16851
1.17
1.171
1.17009
1.17028
1.17146
1.17118
1.17188
1.17163
1.17161
1.17122
1.17092
1.17064
1.17036
1.17009
1.16981
1.1695
1.1692
1.16892
1.16835
1.16794
1.16747
1.1671
1.16693
1.16686
1.1669
1.16701
1.16717
1.16736
1.16752
1.16766
1.16778
1.16789
1.168
1.16811
1.16822
1.16835
1.16847
1.16857
1.16835
1.16703
1.16518
1.16476
1.16419
1.163
1.16319
1.16181
1.16252
1.16084
1.16233
1.16031
1.16272
1.16035
1.16383
1.16106
1.16574
1.16259
1.16829
1.16508
1.16823
1.17055
1.16837
1.16875
1.17137
1.17087
1.17185
1.17158
1.17159
1.1712
1.17091
1.17065
1.1704
1.17014
1.16987
1.16958
1.16928
1.16901
1.16848
1.16808
1.16756
1.16714
1.16692
1.16683
1.16683
1.16692
1.16707
1.16725
1.16742
1.16755
1.16766
1.16776
1.16786
1.16796
1.16807
1.16818
1.16829
1.16835
1.16794
1.16594
1.16139
1.16214
1.16051
1.16054
1.15934
1.1593
1.1579
1.15846
1.1568
1.15816
1.15619
1.15848
1.15617
1.15956
1.15682
1.16157
1.1583
1.16469
1.16085
1.16461
1.16935
1.1649
1.16564
1.17118
1.17004
1.17182
1.17147
1.17155
1.17115
1.17089
1.17066
1.17043
1.17019
1.16993
1.16965
1.16936
1.16911
1.1686
1.16821
1.16768
1.16721
1.16693
1.16679
1.16677
1.16684
1.16698
1.16715
1.16732
1.16745
1.16755
1.16764
1.16773
1.16782
1.16791
1.16801
1.1681
1.16811
1.16749
1.16495
1.15995
1.15649
1.15566
1.15828
1.15728
1.15665
1.15552
1.15534
1.15408
1.15449
1.15302
1.15416
1.15245
1.15443
1.15242
1.15542
1.15299
1.15732
1.15431
1.16045
1.15668
1.16039
1.16681
1.16074
1.16159
1.17069
1.16814
1.17177
1.17124
1.17149
1.17107
1.17083
1.17064
1.17045
1.17023
1.16999
1.16972
1.16944
1.16921
1.16872
1.16833
1.16781
1.16729
1.16694
1.16677
1.16672
1.16676
1.1669
1.16707
1.16723
1.16737
1.16746
1.16754
1.1676
1.16766
1.16774
1.16781
1.16788
1.16782
1.16697
1.16403
1.15882
1.15502
1.15438
1.15296
1.15231
1.15454
1.15369
1.15298
1.15203
1.15179
1.15077
1.15105
1.14989
1.15077
1.14946
1.15101
1.14947
1.15186
1.14994
1.15352
1.15102
1.15637
1.15306
1.1564
1.16303
1.15684
1.1578
1.16953
1.16501
1.17169
1.17071
1.17142
1.17096
1.17073
1.17058
1.17044
1.17026
1.17004
1.16978
1.16952
1.1693
1.16888
1.16846
1.16796
1.1674
1.16697
1.16676
1.16667
1.16669
1.1668
1.16697
1.16715
1.16728
1.16737
1.16743
1.16746
1.16748
1.16751
1.16755
1.16758
1.16742
1.16631
1.16315
1.15783
1.1538
1.15372
1.15175
1.15126
1.15
1.14951
1.15122
1.15056
1.14991
1.1492
1.14898
1.1483
1.1485
1.14785
1.14839
1.14773
1.14861
1.14784
1.14923
1.14816
1.15052
1.14885
1.15289
1.1503
1.15304
1.1593
1.15357
1.15455
1.16733
1.16148
1.17155
1.16964
1.17142
1.17093
1.17065
1.1705
1.17039
1.17027
1.17008
1.16984
1.16959
1.16939
1.16905
1.16855
1.16812
1.16753
1.16704
1.16677
1.16664
1.16662
1.1667
1.16686
1.16705
1.16718
1.16726
1.16729
1.16727
1.16718
1.16711
1.16709
1.16706
1.16674
1.1655
1.16226
1.15696
1.15133
1.1509
1.15017
1.14911
1.14878
1.14784
1.14756
1.14863
1.14819
1.1478
1.14742
1.14742
1.14713
1.14733
1.14711
1.14742
1.14721
1.14763
1.14738
1.148
1.14762
1.14874
1.14802
1.15032
1.1488
1.1506
1.15606
1.15116
1.15206
1.16445
1.15832
1.17126
1.16792
1.17117
1.17073
1.17049
1.17034
1.17024
1.17012
1.16989
1.16965
1.16947
1.16917
1.16865
1.16827
1.16766
1.16713
1.16678
1.16663
1.16658
1.16662
1.16676
1.16693
1.16707
1.16713
1.16707
1.16688
1.16654
1.16623
1.16608
1.16602
1.16574
1.1645
1.16131
1.15616
1.15076
1.1481
1.14797
1.14852
1.14825
1.14734
1.14719
1.14681
1.1467
1.14715
1.14696
1.14694
1.1468
1.14697
1.1469
1.14714
1.14719
1.14738
1.14756
1.1476
1.14788
1.14782
1.14807
1.14817
1.14818
1.149
1.14842
1.14934
1.15348
1.14985
1.15057
1.16161
1.15571
1.17021
1.16576
1.17118
1.17068
1.1704
1.17023
1.17013
1.16992
1.16972
1.16954
1.16929
1.16877
1.16841
1.1678
1.16724
1.1668
1.16662
1.16656
1.16658
1.16668
1.16685
1.16697
1.16699
1.16678
1.16622
1.1654
1.16471
1.16445
1.16453
1.16443
1.16334
1.16024
1.15524
1.1502
1.14786
1.14787
1.14695
1.14693
1.14708
1.14699
1.14663
1.1466
1.14659
1.14658
1.1467
1.14663
1.14687
1.14689
1.14731
1.14749
1.14791
1.14833
1.14842
1.14914
1.14872
1.14967
1.14878
1.14982
1.14866
1.14962
1.14877
1.14917
1.14916
1.15175
1.14959
1.15001
1.15046
1.15901
1.15371
1.16921
1.16368
1.17127
1.1707
1.17034
1.17014
1.16994
1.1698
1.16959
1.16932
1.16888
1.16855
1.16795
1.16736
1.16686
1.16662
1.16653
1.16656
1.16665
1.16678
1.1669
1.16687
1.16646
1.16544
1.16408
1.16298
1.16255
1.16269
1.16282
1.16194
1.15908
1.15425
1.14969
1.14741
1.14694
1.14692
1.14661
1.14666
1.14658
1.14659
1.14659
1.14662
1.14708
1.14719
1.14693
1.147
1.14769
1.14789
1.14876
1.14919
1.14994
1.15074
1.15085
1.15214
1.15127
1.15296
1.15115
1.15303
1.15047
1.15252
1.14966
1.1512
1.15025
1.1496
1.15005
1.15033
1.15164
1.15073
1.14992
1.15027
1.15019
1.15011
1.15682
1.15128
1.15205
1.15365
1.168
1.16153
1.17135
1.17072
1.17028
1.16999
1.16984
1.16966
1.16941
1.16905
1.16868
1.16811
1.16748
1.16694
1.16663
1.1665
1.16651
1.16661
1.16676
1.16684
1.16678
1.16617
1.16468
1.16273
1.16117
1.16044
1.16053
1.16086
1.16029
1.15773
1.15325
1.14934
1.14754
1.14702
1.14722
1.14674
1.14683
1.14688
1.14702
1.14668
1.14677
1.1473
1.14743
1.14849
1.14869
1.14809
1.14829
1.1496
1.14998
1.15151
1.1522
1.15344
1.15462
1.15475
1.15659
1.15524
1.15741
1.15503
1.15559
1.15694
1.15225
1.15352
1.15619
1.15482
1.15154
1.15072
1.15177
1.1527
1.15087
1.15035
1.15065
1.15031
1.15092
1.15093
1.15039
1.1531
1.15692
1.15448
1.15107
1.1517
1.16638
1.15619
1.15837
1.16155
1.1714
1.17067
1.17015
1.16984
1.16973
1.16951
1.16921
1.16881
1.16826
1.16762
1.16705
1.16665
1.16648
1.16645
1.16654
1.16671
1.16682
1.16672
1.16597
1.16405
1.16155
1.15944
1.15826
1.15813
1.15853
1.1583
1.15617
1.1522
1.14911
1.1478
1.1479
1.14763
1.14803
1.14719
1.14738
1.14793
1.14813
1.14758
1.14775
1.14889
1.14909
1.15098
1.15126
1.15034
1.15067
1.15284
1.15342
1.15572
1.15665
1.15824
1.15945
1.15937
1.16076
1.15802
1.15906
1.15988
1.16057
1.15746
1.1586
1.15802
1.15895
1.15398
1.1554
1.15802
1.15676
1.15301
1.15187
1.15317
1.15436
1.15192
1.15052
1.15073
1.15089
1.15188
1.15178
1.15086
1.15261
1.15387
1.15105
1.15153
1.16066
1.16634
1.16347
1.15549
1.15752
1.17141
1.17053
1.16992
1.16976
1.16959
1.16931
1.16894
1.1684
1.16776
1.16715
1.16668
1.16648
1.16641
1.16646
1.16662
1.16677
1.1667
1.16589
1.16366
1.16063
1.15801
1.15631
1.15568
1.15591
1.15593
1.15429
1.15109
1.14892
1.14809
1.14865
1.1499
1.1504
1.14897
1.1494
1.14836
1.14864
1.14976
1.14999
1.14931
1.14953
1.15151
1.15174
1.15479
1.1551
1.15394
1.1544
1.15746
1.15817
1.16019
1.16063
1.16139
1.16157
1.161
1.16133
1.1615
1.16152
1.1598
1.16047
1.1609
1.16112
1.15903
1.15976
1.15956
1.16019
1.15579
1.15716
1.15912
1.15831
1.1546
1.15321
1.15467
1.15604
1.15316
1.15086
1.15094
1.15163
1.15301
1.15278
1.15147
1.15227
1.15338
1.15116
1.15151
1.15994
1.16581
1.16283
1.15491
1.1569
1.17132
1.17024
1.16976
1.16964
1.16941
1.16905
1.16853
1.1679
1.16727
1.16673
1.16649
1.16638
1.1664
1.16653
1.16669
1.16667
1.16589
1.16352
1.16008
1.15703
1.15484
1.15365
1.15337
1.15337
1.1522
1.15004
1.14876
1.14838
1.14957
1.15259
1.15206
1.15298
1.15096
1.15146
1.15025
1.15056
1.15238
1.15257
1.15197
1.15219
1.15534
1.15551
1.15963
1.15991
1.15875
1.15923
1.16092
1.16115
1.16152
1.1614
1.16147
1.16129
1.16102
1.1606
1.16116
1.16108
1.16081
1.16044
1.16057
1.16068
1.16063
1.16036
1.15944
1.16005
1.15952
1.16012
1.15735
1.15834
1.15891
1.15878
1.15611
1.15462
1.15604
1.15735
1.15444
1.15134
1.15127
1.15249
1.15415
1.15379
1.15218
1.15208
1.15302
1.15134
1.15158
1.15942
1.16578
1.16263
1.15447
1.15645
1.17086
1.16984
1.16966
1.16948
1.16916
1.16866
1.16803
1.16739
1.16679
1.16651
1.16636
1.16635
1.16645
1.16661
1.16663
1.16591
1.16352
1.15987
1.15648
1.15408
1.1525
1.15159
1.15109
1.15019
1.14909
1.14851
1.14864
1.15051
1.15413
1.15635
1.15721
1.15468
1.1555
1.15351
1.15404
1.1528
1.15311
1.15576
1.15582
1.15564
1.15571
1.16007
1.16011
1.16197
1.16229
1.16139
1.16165
1.16123
1.16112
1.15919
1.15801
1.16
1.1595
1.15904
1.1588
1.15992
1.15935
1.15865
1.15785
1.15999
1.15959
1.159
1.15825
1.15879
1.15936
1.1583
1.15888
1.15803
1.15827
1.15785
1.15827
1.15711
1.15583
1.15672
1.15758
1.15549
1.1519
1.15169
1.15335
1.15508
1.15459
1.1529
1.15201
1.1528
1.15159
1.15171
1.15916
1.16634
1.16293
1.15415
1.15619
1.1701
1.16965
1.16951
1.16924
1.16876
1.16816
1.1675
1.16688
1.16654
1.16636
1.16631
1.16638
1.16653
1.16659
1.16601
1.16364
1.15987
1.15644
1.15403
1.15227
1.15096
1.14989
1.14899
1.14841
1.14821
1.14885
1.15137
1.15566
1.16032
1.1592
1.16043
1.15754
1.15831
1.15648
1.15694
1.15595
1.15616
1.15969
1.15957
1.16004
1.15988
1.16264
1.16303
1.16149
1.162
1.16112
1.16122
1.15695
1.15618
1.15317
1.15226
1.15061
1.15145
1.15696
1.15604
1.15508
1.15412
1.15734
1.15631
1.15519
1.15401
1.15817
1.15725
1.15617
1.15497
1.15704
1.15751
1.15593
1.15646
1.15771
1.15748
1.15567
1.15677
1.15706
1.15626
1.15652
1.15709
1.15576
1.15247
1.15212
1.15406
1.15524
1.15472
1.15352
1.15202
1.15268
1.15187
1.15185
1.1592
1.16735
1.16373
1.15395
1.15611
1.16962
1.16951
1.16929
1.16886
1.16827
1.16761
1.16697
1.16657
1.16636
1.16627
1.16632
1.16646
1.16655
1.16614
1.16399
1.16009
1.15679
1.15466
1.15278
1.1512
1.14986
1.14882
1.14825
1.14817
1.14909
1.15211
1.15705
1.16227
1.16326
1.16415
1.16169
1.16257
1.16035
1.16095
1.15967
1.15993
1.15952
1.15954
1.16366
1.16352
1.16336
1.16359
1.1626
1.16331
1.15597
1.15687
1.15577
1.15563
1.14988
1.1489
1.14577
1.14808
1.14703
1.14524
1.14606
1.15279
1.15158
1.15037
1.14919
1.15367
1.15231
1.15091
1.1495
1.15523
1.15389
1.15245
1.15096
1.15427
1.15459
1.15271
1.15313
1.15661
1.15564
1.15266
1.15426
1.15645
1.15599
1.15578
1.15574
1.15546
1.15298
1.1525
1.1542
1.15494
1.15445
1.15367
1.15207
1.15262
1.15213
1.152
1.15954
1.1686
1.16501
1.15385
1.15619
1.16945
1.1693
1.16893
1.16836
1.16771
1.16705
1.16661
1.16638
1.16625
1.16626
1.16638
1.1665
1.16625
1.16446
1.16066
1.15754
1.15589
1.15441
1.15259
1.15075
1.14929
1.14846
1.14836
1.14956
1.15285
1.15826
1.16362
1.1658
1.16488
1.16563
1.16371
1.16427
1.16296
1.16326
1.16286
1.16284
1.16327
1.16301
1.16532
1.16583
1.16404
1.16473
1.15816
1.15986
1.14523
1.14645
1.14504
1.14488
1.14467
1.14443
1.13752
1.13694
1.14294
1.14178
1.13974
1.14071
1.14811
1.14675
1.14541
1.14414
1.14944
1.1479
1.14637
1.14488
1.15157
1.14997
1.14834
1.14671
1.15091
1.15105
1.1491
1.14934
1.15452
1.15294
1.14925
1.15115
1.15491
1.15516
1.15417
1.15349
1.15462
1.15319
1.15273
1.15397
1.15414
1.15375
1.15351
1.15213
1.15261
1.15232
1.15208
1.16034
1.16985
1.16661
1.15385
1.15647
1.16927
1.16897
1.16844
1.16779
1.16713
1.16666
1.16639
1.16624
1.16622
1.16631
1.16644
1.16633
1.16493
1.1614
1.15824
1.15689
1.15626
1.15579
1.15401
1.15137
1.14966
1.14927
1.15059
1.154
1.15967
1.16464
1.16662
1.16689
1.16725
1.16624
1.16659
1.16564
1.16591
1.16549
1.16549
1.16587
1.16562
1.16609
1.16609
1.16507
1.16617
1.16172
1.16353
1.14831
1.15094
1.13399
1.13499
1.13657
1.13605
1.13368
1.13888
1.13814
1.13304
1.1326
1.13824
1.13711
1.13516
1.13608
1.14343
1.14204
1.14069
1.13943
1.14509
1.14351
1.14196
1.14047
1.14761
1.1459
1.1442
1.14255
1.14732
1.14727
1.1454
1.14546
1.15173
1.14978
1.14573
1.14776
1.1526
1.15353
1.15186
1.15069
1.15304
1.15308
1.15267
1.15342
1.15268
1.15246
1.1531
1.15215
1.15261
1.15232
1.15209
1.16156
1.17095
1.16836
1.15389
1.15703
1.16897
1.16849
1.16787
1.16721
1.16672
1.16642
1.16624
1.16618
1.16624
1.16637
1.16636
1.16536
1.1622
1.1589
1.15764
1.15759
1.15849
1.15851
1.15664
1.15366
1.15199
1.15289
1.15632
1.16163
1.16551
1.16718
1.16791
1.16784
1.16799
1.16759
1.16771
1.16746
1.16749
1.16755
1.16748
1.16759
1.16762
1.1669
1.16736
1.16123
1.16416
1.15416
1.15775
1.13682
1.13938
1.12875
1.129
1.12871
1.13239
1.13232
1.1286
1.12859
1.13434
1.13364
1.12951
1.12909
1.13416
1.13314
1.13139
1.13221
1.13906
1.13772
1.13644
1.13526
1.14094
1.13939
1.1379
1.1365
1.14368
1.14195
1.14028
1.13868
1.14374
1.14352
1.14182
1.14171
1.1486
1.14647
1.1423
1.14435
1.14983
1.15132
1.14919
1.14763
1.15094
1.1528
1.15249
1.15233
1.15074
1.15069
1.15227
1.15213
1.15259
1.1522
1.15202
1.1632
1.17171
1.17003
1.15401
1.15789
1.16852
1.16792
1.16727
1.16678
1.16646
1.16624
1.16615
1.16618
1.16631
1.16636
1.1657
1.16301
1.15956
1.1582
1.15835
1.16008
1.16163
1.16138
1.15945
1.15748
1.15733
1.15981
1.16366
1.16633
1.1675
1.16809
1.16843
1.16843
1.16841
1.16843
1.16839
1.16839
1.16842
1.16839
1.16844
1.16845
1.16803
1.16832
1.16623
1.16744
1.15309
1.15828
1.14308
1.14786
1.13015
1.13211
1.1269
1.12728
1.12713
1.12791
1.12879
1.12865
1.12665
1.12654
1.13067
1.13005
1.12707
1.12678
1.13082
1.12996
1.12852
1.12919
1.13518
1.13396
1.13282
1.13177
1.13716
1.13571
1.13436
1.1331
1.13996
1.13831
1.13675
1.13528
1.14035
1.13998
1.13852
1.13826
1.14538
1.14319
1.13911
1.14109
1.14687
1.14874
1.1463
1.14453
1.14849
1.1522
1.1521
1.15078
1.14845
1.14861
1.15099
1.15208
1.15258
1.15198
1.15188
1.16521
1.17195
1.17123
1.15427
1.15913
1.16795
1.16732
1.16684
1.16651
1.16624
1.16613
1.16613
1.16624
1.16634
1.16594
1.16376
1.16028
1.15865
1.15874
1.1607
1.16306
1.1641
1.16353
1.16231
1.16195
1.16331
1.16542
1.16697
1.1677
1.16814
1.16849
1.16864
1.16862
1.1687
1.16867
1.16877
1.16873
1.16883
1.1688
1.16871
1.16881
1.16762
1.16841
1.16269
1.16583
1.14316
1.14957
1.13458
1.13802
1.12846
1.1294
1.13056
1.12619
1.12664
1.12722
1.12794
1.12661
1.12655
1.12583
1.12559
1.12795
1.12747
1.1256
1.12548
1.12831
1.12763
1.12655
1.12704
1.13195
1.13089
1.12993
1.12907
1.13391
1.13264
1.13148
1.13041
1.13664
1.13515
1.13377
1.13252
1.1373
1.13682
1.13566
1.13528
1.14224
1.14008
1.13629
1.13808
1.14384
1.14595
1.1434
1.14147
1.14586
1.15123
1.15145
1.14894
1.14601
1.14641
1.14943
1.15197
1.15258
1.15158
1.15162
1.16746
1.17201
1.17174
1.15469
1.16073
1.16735
1.16691
1.16655
1.16626
1.16612
1.1661
1.16617
1.16628
1.16609
1.16441
1.16107
1.15905
1.15895
1.16075
1.16333
1.16511
1.16551
1.1652
1.16508
1.16565
1.1666
1.16737
1.16781
1.16815
1.16847
1.16871
1.16879
1.16874
1.16888
1.16884
1.16896
1.16892
1.16899
1.16899
1.16864
1.16893
1.16556
1.16773
1.15601
1.16161
1.13689
1.14134
1.13236
1.13425
1.12866
1.12944
1.13194
1.13115
1.12608
1.12662
1.12776
1.12867
1.12543
1.12546
1.12565
1.12533
1.12614
1.12582
1.12504
1.12499
1.12663
1.12617
1.12553
1.12581
1.12945
1.1286
1.12784
1.12719
1.13137
1.13032
1.1294
1.12858
1.13388
1.13264
1.13155
1.13058
1.13474
1.13421
1.13342
1.13296
1.13926
1.13728
1.13415
1.13556
1.14098
1.14323
1.1408
1.13879
1.14334
1.15002
1.15058
1.14701
1.14374
1.14435
1.14777
1.15184
1.15261
1.151
1.15135
1.16953
1.17204
1.17191
1.15529
1.16289
1.16698
1.1666
1.16627
1.1661
1.16607
1.16611
1.16622
1.16615
1.16492
1.16186
1.15944
1.15906
1.16065
1.16322
1.16522
1.16615
1.1664
1.16652
1.16679
1.1672
1.16757
1.16783
1.16814
1.16844
1.16863
1.1689
1.16886
1.16884
1.16891
1.169
1.16895
1.16907
1.16903
1.16909
1.16911
1.16799
1.16885
1.16152
1.16579
1.14804
1.15526
1.13533
1.13763
1.13311
1.13397
1.12963
1.1305
1.13368
1.1332
1.12624
1.1269
1.1287
1.12989
1.12501
1.12512
1.12574
1.12536
1.1253
1.12514
1.1249
1.12489
1.12588
1.12558
1.12518
1.12535
1.12788
1.12726
1.12672
1.12626
1.12973
1.12899
1.12835
1.12777
1.13189
1.13099
1.13023
1.1296
1.13305
1.13234
1.13224
1.13147
1.13688
1.13525
1.13321
1.13402
1.13862
1.14086
1.1386
1.13671
1.14117
1.14863
1.14957
1.14516
1.14166
1.14235
1.1461
1.15164
1.1527
1.15044
1.1509
1.17081
1.17206
1.17198
1.15622
1.16509
1.16663
1.16628
1.16608
1.16604
1.16607
1.16615
1.16616
1.16531
1.16258
1.15989
1.15914
1.16037
1.1628
1.16502
1.1662
1.16671
1.16697
1.16719
1.16742
1.16763
1.16784
1.16813
1.16839
1.16856
1.16878
1.16895
1.16897
1.16892
1.16899
1.16908
1.16903
1.16921
1.16914
1.16906
1.16923
1.16652
1.16841
1.1561
1.16248
1.14182
1.14855
1.13612
1.13699
1.13637
1.13628
1.13666
1.13113
1.13228
1.13623
1.13557
1.12671
1.12762
1.12968
1.13123
1.12494
1.12509
1.12598
1.12552
1.12507
1.12498
1.12496
1.12497
1.12568
1.12544
1.12518
1.12527
1.12724
1.12678
1.12636
1.12599
1.12904
1.12854
1.12806
1.1276
1.13079
1.13026
1.1298
1.12941
1.13267
1.13166
1.13224
1.13121
1.13526
1.13438
1.13348
1.13379
1.13671
1.13872
1.13697
1.13561
1.13899
1.14726
1.14853
1.14322
1.13953
1.14024
1.14431
1.15151
1.15284
1.14955
1.15056
1.17151
1.17207
1.17201
1.15709
1.16773
1.16629
1.16607
1.166
1.16604
1.1661
1.16613
1.16555
1.1632
1.16038
1.15924
1.15999
1.16208
1.16435
1.16605
1.16672
1.16704
1.16728
1.16747
1.16763
1.16783
1.16811
1.16833
1.16848
1.16869
1.16892
1.16901
1.16904
1.16897
1.16906
1.16921
1.16913
1.16933
1.16929
1.16884
1.16925
1.16423
1.16749
1.15082
1.15838
1.13946
1.14394
1.13947
1.13837
1.13923
1.13887
1.14
1.14108
1.13285
1.13437
1.13906
1.13819
1.12725
1.12833
1.13061
1.1325
1.12506
1.12525
1.12646
1.12588
1.1251
1.125
1.12515
1.12516
1.12578
1.12558
1.12538
1.12547
1.12717
1.12676
1.12638
1.12605
1.12905
1.12872
1.12837
1.128
1.13084
1.1305
1.13025
1.13001
1.1334
1.1319
1.13365
1.13173
1.13498
1.1347
1.13527
1.13466
1.13618
1.13746
1.13679
1.13576
1.13812
1.14562
1.1471
1.14105
1.13881
1.1395
1.14207
1.15124
1.15305
1.14881
1.14989
1.17174
1.17208
1.17203
1.15892
1.16876
1.16606
1.16596
1.16599
1.16607
1.16608
1.16567
1.16368
1.16089
1.15937
1.15969
1.16141
1.16355
1.16556
1.16664
1.16701
1.16727
1.16747
1.16763
1.16782
1.16806
1.16825
1.16841
1.1686
1.16882
1.16909
1.16907
1.169
1.16911
1.16915
1.16918
1.16935
1.16926
1.16938
1.1694
1.16839
1.16917
1.16158
1.1662
1.1476
1.15462
1.13933
1.14246
1.14256
1.14372
1.14223
1.14161
1.14225
1.14193
1.14394
1.13459
1.13658
1.14201
1.14084
1.12786
1.12905
1.13154
1.1337
1.12524
1.12546
1.12696
1.12631
1.12529
1.12519
1.12541
1.12544
1.12607
1.12589
1.12565
1.12576
1.12759
1.12717
1.12675
1.12639
1.12976
1.12947
1.12913
1.12877
1.13175
1.13174
1.13162
1.13143
1.13544
1.13397
1.13538
1.13426
1.13565
1.13609
1.13609
1.13624
1.13655
1.1376
1.13754
1.13661
1.13826
1.14362
1.14572
1.14022
1.139
1.13964
1.14109
1.1511
1.15338
1.14758
1.1495
1.17189
1.17208
1.17204
1.15987
1.17008
1.16593
1.16592
1.16602
1.16603
1.1657
1.16403
1.16132
1.15953
1.15948
1.16084
1.16284
1.16492
1.16644
1.16694
1.16718
1.16741
1.16758
1.16775
1.16796
1.16817
1.16834
1.16851
1.1687
1.16894
1.16917
1.16917
1.1691
1.16922
1.16924
1.1693
1.16944
1.16938
1.16938
1.16946
1.16781
1.16901
1.15937
1.16482
1.14682
1.1527
1.14101
1.14274
1.14533
1.14616
1.14439
1.14432
1.1453
1.14526
1.14493
1.14682
1.13616
1.1387
1.14492
1.14335
1.12845
1.12979
1.13248
1.13492
1.12562
1.12586
1.12748
1.12681
1.12554
1.12544
1.12603
1.12607
1.12657
1.1264
1.12622
1.12634
1.12836
1.12788
1.12735
1.12693
1.13134
1.13122
1.13115
1.13097
1.13449
1.13473
1.13494
1.13509
1.1455
1.13538
1.14523
1.13545
1.13721
1.13693
1.14511
1.14549
1.13795
1.13818
1.13837
1.13781
1.13895
1.14225
1.144
1.14028
1.13955
1.14011
1.14088
1.15082
1.15366
1.14679
1.14873
1.17191
1.17183
1.17196
1.16188
1.17057
1.16586
1.16593
1.16599
1.16569
1.16422
1.16167
1.1597
1.15934
1.16038
1.16222
1.16433
1.16613
1.16685
1.1671
1.1673
1.1675
1.16766
1.16788
1.1681
1.16826
1.16842
1.16859
1.1688
1.16909
1.16924
1.16924
1.16917
1.16931
1.16931
1.16939
1.1695
1.16946
1.16936
1.1695
1.16731
1.16882
1.15863
1.16399
1.1476
1.15257
1.14432
1.14475
1.14797
1.1487
1.14687
1.14623
1.1476
1.14813
1.14788
1.14959
1.13773
1.14066
1.14764
1.14566
1.12906
1.13052
1.13338
1.13614
1.12617
1.12641
1.12802
1.12736
1.12612
1.12607
1.12677
1.12674
1.12806
1.12769
1.12732
1.12753
1.13067
1.13012
1.12923
1.12855
1.13508
1.13508
1.13487
1.13472
1.14565
1.14569
1.14534
1.14555
1.15327
1.14501
1.15331
1.1451
1.14569
1.14524
1.15322
1.15321
1.14578
1.13896
1.14618
1.14511
1.1395
1.1417
1.14318
1.1406
1.14009
1.1406
1.1411
1.15067
1.15416
1.14547
1.14835
1.17187
0.898139
1.1703
1.16308
1.17061
1.16582
1.1659
1.16566
1.16427
1.16186
1.15985
1.15925
1.16003
1.1617
1.16378
1.16582
1.16669
1.16705
1.16721
1.16741
1.16758
1.16779
1.16801
1.16817
1.16833
1.16849
1.16866
1.1689
1.16915
1.16922
1.16931
1.16928
1.16939
1.16938
1.16946
1.16955
1.16953
1.16934
1.16953
1.1672
1.16875
1.15906
1.16397
1.15001
1.15389
1.14872
1.14837
1.15061
1.15128
1.14931
1.14904
1.15015
1.15079
1.15064
1.15226
1.13932
1.14263
1.15014
1.14792
1.12961
1.13121
1.13418
1.13729
1.12679
1.12698
1.12854
1.12787
1.12712
1.12692
1.1277
1.12749
1.13055
1.12952
1.1288
1.12915
1.13441
1.13405
1.13297
1.13104
1.14542
1.14554
1.14544
1.14536
1.15337
1.15343
1.15333
1.15342
1.16136
1.1532
1.16138
1.15335
1.15331
1.15329
1.16132
1.1613
1.15321
1.1463
1.15343
1.15323
1.1464
1.14173
1.14267
1.1411
1.14669
1.14689
1.1414
1.15041
1.15427
1.14475
1.14747
1.17166
0.581081
1.15472
1.16312
1.17011
1.16567
1.16554
1.16425
1.16192
1.15993
1.1592
1.15976
1.16128
1.16332
1.16549
1.16654
1.16694
1.16717
1.16732
1.1675
1.16771
1.16791
1.16807
1.16823
1.1684
1.16855
1.16873
1.16898
1.1692
1.16924
1.16926
1.16935
1.16931
1.16945
1.16942
1.16952
1.16958
1.16957
1.16936
1.16955
1.16743
1.16879
1.16065
1.16467
1.15375
1.15656
1.1532
1.15131
1.15262
1.15312
1.15324
1.15402
1.152
1.15303
1.15323
1.15319
1.1548
1.14089
1.1446
1.15251
1.1502
1.12989
1.13168
1.13467
1.1383
1.12746
1.12755
1.12885
1.12832
1.12847
1.12805
1.1289
1.12836
1.13376
1.13241
1.13064
1.13098
1.14515
1.14516
1.13643
1.13364
1.15335
1.15339
1.15329
1.15317