/*--------------------------------*- C++ -*----------------------------------*\
  =========                 |
  \\      /  F ield         | OpenFOAM: The Open Source CFD Toolbox
   \\    /   O peration     | Website:  https://openfoam.org
    \\  /    A nd           | Version:  dev
     \\/     M anipulation  |
\*---------------------------------------------------------------------------*/
FoamFile
{
    version     2.0;
    format      ascii;
    class       volScalarField;
    location    "2500";
    object      T;
}
// * * * * * * * * * * * * * * * * * * * * * * * * * * * * * * * * * * * * * //

dimensions      [0 0 0 1 0 0 0];

internalField   nonuniform List<scalar> 
9851
(
300.104
300.149
300.13
300.155
300.233
300.112
300.155
300.287
300.245
300.093
300.148
300.31
300.333
300.224
300.08
300.137
300.309
300.391
300.327
300.191
300.078
300.134
300.315
300.43
300.409
300.304
300.164
300.067
300.13
300.269
300.442
300.473
300.392
300.266
300.156
300.065
300.126
300.281
300.458
300.514
300.475
300.367
300.233
300.144
300.063
300.107
300.277
300.431
300.545
300.543
300.453
300.327
300.221
300.135
300.059
300.116
300.291
300.437
300.57
300.592
300.537
300.423
300.299
300.205
300.128
300.054
300.113
300.286
300.438
300.57
300.627
300.597
300.504
300.383
300.285
300.199
300.119
300.056
300.124
300.268
300.423
300.579
300.66
300.658
300.583
300.474
300.363
300.269
300.187
300.115
300.056
300.113
300.275
300.443
300.594
300.676
300.705
300.654
300.55
300.442
300.342
300.261
300.185
300.116
300.05
300.113
300.288
300.431
300.593
300.696
300.747
300.715
300.629
300.521
300.415
300.324
300.244
300.178
300.111
300.05
300.112
300.274
300.41
300.593
300.708
300.767
300.766
300.699
300.595
300.485
300.398
300.315
300.236
300.171
300.111
300.049
300.131
300.274
300.443
300.601
300.716
300.789
300.806
300.759
300.669
300.566
300.467
300.381
300.299
300.237
300.172
300.11
300.051
300.136
300.286
300.449
300.588
300.721
300.805
300.837
300.814
300.737
300.636
300.539
300.448
300.371
300.297
300.224
300.168
300.108
300.051
300.139
300.274
300.424
300.57
300.718
300.814
300.863
300.858
300.797
300.708
300.609
300.513
300.432
300.358
300.29
300.223
300.162
300.107
300.051
300.14
300.29
300.438
300.575
300.703
300.821
300.884
300.893
300.852
300.776
300.675
300.582
300.492
300.408
300.35
300.275
300.224
300.159
300.106
300.048
300.137
300.294
300.424
300.566
300.704
300.835
300.896
300.92
300.899
300.834
300.746
300.652
300.566
300.478
300.407
300.338
300.275
300.222
300.157
300.107
300.051
300.13
300.298
300.426
300.554
300.697
300.825
300.907
300.944
300.937
300.889
300.808
300.718
300.629
300.538
300.46
300.401
300.339
300.277
300.216
300.16
300.105
300.049
300.144
300.299
300.423
300.552
300.692
300.816
300.911
300.964
300.971
300.932
300.87
300.777
300.689
300.611
300.53
300.462
300.389
300.337
300.277
300.216
300.16
300.107
300.048
300.143
300.299
300.44
300.561
300.676
300.805
300.91
300.974
300.996
300.975
300.916
300.835
300.753
300.66
300.585
300.514
300.451
300.386
300.332
300.27
300.215
300.159
300.107
300.049
300.149
300.3
300.424
300.558
300.664
300.788
300.899
300.98
301.016
301.013
300.97
300.892
300.811
300.724
300.65
300.572
300.514
300.447
300.386
300.332
300.271
300.217
300.161
300.108
300.051
300.149
300.298
300.418
300.556
300.658
300.771
300.891
300.978
301.025
301.036
301.01
300.947
300.87
300.79
300.698
300.638
300.571
300.507
300.436
300.386
300.331
300.271
300.215
300.162
300.107
300.05
300.14
300.297
300.414
300.549
300.651
300.753
300.867
300.973
301.036
301.064
301.045
300.997
300.918
300.844
300.765
300.682
300.626
300.562
300.501
300.438
300.386
300.326
300.268
300.215
300.164
300.107
300.051
300.139
300.297
300.421
300.544
300.638
300.738
300.854
300.966
301.041
301.076
301.072
301.041
300.976
300.898
300.821
300.749
300.678
300.616
300.561
300.495
300.442
300.384
300.329
300.272
300.217
300.165
300.111
300.054
300.146
300.293
300.424
300.532
300.624
300.734
300.843
300.953
301.038
301.086
301.101
301.072
301.023
300.95
300.875
300.796
300.73
300.67
300.613
300.547
300.492
300.442
300.382
300.329
300.272
300.22
300.165
300.112
300.056
300.145
300.282
300.419
300.518
300.621
300.727
300.827
300.934
301.031
301.091
301.116
301.105
301.063
301
300.921
300.851
300.779
300.716
300.662
300.61
300.553
300.498
300.441
300.382
300.326
300.273
300.22
300.167
300.113
300.057
300.135
300.277
300.405
300.511
300.615
300.715
300.812
300.918
301.02
301.09
301.127
301.133
301.096
301.042
300.967
300.901
300.835
300.767
300.708
300.655
300.602
300.552
300.498
300.437
300.378
300.325
300.272
300.219
300.167
300.114
300.057
300.133
300.279
300.396
300.511
300.598
300.698
300.799
300.901
301.005
301.086
301.13
301.149
301.133
301.081
301.019
300.947
300.875
300.819
300.767
300.711
300.657
300.599
300.545
300.487
300.434
300.378
300.327
300.275
300.223
300.171
300.119
300.06
300.133
300.282
300.394
300.497
300.586
300.691
300.789
300.877
300.989
301.08
301.132
301.167
301.156
301.122
301.061
300.999
300.92
300.87
300.813
300.752
300.703
300.651
300.593
300.542
300.488
300.435
300.383
300.331
300.28
300.229
300.178
300.122
300.061
300.13
300.275
300.386
300.482
300.585
300.672
300.764
300.865
300.98
301.07
301.131
301.174
301.181
301.159
301.103
301.044
300.979
300.911
300.853
300.804
300.747
300.698
300.646
300.594
300.543
300.492
300.439
300.387
300.337
300.287
300.237
300.183
300.121
300.03
300.069
300.131
300.266
300.375
300.473
300.575
300.654
300.746
300.853
300.96
301.055
301.124
301.181
301.199
301.184
301.145
301.078
301.023
300.955
300.904
300.853
300.793
300.743
300.695
300.646
300.597
300.546
300.496
300.445
300.394
300.344
300.295
300.243
300.177
300.104
300.137
300.031
300.07
300.128
300.252
300.36
300.461
300.554
300.647
300.736
300.824
300.947
301.042
301.117
301.187
301.209
301.203
301.173
301.128
301.066
301.001
300.945
300.887
300.84
300.789
300.744
300.698
300.649
300.6
300.551
300.501
300.452
300.403
300.353
300.302
300.231
300.259
300.169
300.213
300.2
300.106
300.14
300.032
300.073
300.118
300.246
300.351
300.451
300.535
300.627
300.717
300.805
300.927
301.031
301.105
301.186
301.219
301.224
301.204
301.158
301.103
301.042
300.979
300.933
300.883
300.837
300.792
300.747
300.701
300.653
300.605
300.556
300.508
300.461
300.413
300.361
300.287
300.315
300.248
300.173
300.231
300.205
300.11
300.144
300.034
300.076
300.119
300.243
300.333
300.438
300.521
300.608
300.697
300.784
300.901
301.009
301.1
301.184
301.225
301.243
301.229
301.194
301.141
301.08
301.021
300.972
300.926
300.88
300.839
300.795
300.75
300.704
300.657
300.61
300.563
300.518
300.472
300.42
300.347
300.377
300.282
300.316
300.263
300.178
300.238
300.212
300.114
300.15
300.036
300.08
300.115
300.232
300.325
300.42
300.503
300.587
300.675
300.76
300.874
300.99
301.088
301.176
301.229
301.255
301.248
301.22
301.174
301.116
301.058
301.009
300.964
300.923
300.883
300.841
300.798
300.754
300.709
300.662
300.617
300.572
300.53
300.481
300.408
300.44
300.348
300.382
300.295
300.329
300.271
300.185
300.246
300.22
300.119
300.157
300.039
300.084
300.111
300.222
300.316
300.408
300.488
300.57
300.654
300.741
300.837
300.964
301.07
301.163
301.229
301.262
301.267
301.246
301.204
301.153
301.092
301.044
301.001
300.961
300.923
300.885
300.845
300.803
300.76
300.714
300.669
300.627
300.585
300.544
300.473
300.51
300.416
300.453
300.363
300.399
300.305
300.341
300.281
300.193
300.256
300.231
300.125
300.165
300.041
300.089
300.105
300.213
300.305
300.393
300.475
300.554
300.637
300.721
300.81
300.942
301.05
301.146
301.226
301.267
301.281
301.267
301.232
301.18
301.127
301.078
301.035
300.998
300.96
300.925
300.889
300.85
300.809
300.766
300.72
300.676
300.645
300.612
300.551
300.604
300.495
300.548
300.44
300.49
300.38
300.427
300.318
300.361
300.295
300.203
300.271
300.245
300.132
300.174
300.044
300.095
300.102
300.205
300.298
300.377
300.455
300.536
300.62
300.699
300.783
300.906
301.026
301.131
301.217
301.272
301.292
301.286
301.258
301.212
301.161
301.111
301.069
301.03
300.995
300.963
300.93
300.894
300.856
300.816
300.773
300.732
300.698
300.707
300.673
300.784
300.624
300.745
300.564
300.683
300.493
300.6
300.416
300.502
300.341
300.405
300.319
300.216
300.295
300.268
300.14
300.185
300.048
300.102
300.096
300.199
300.287
300.363
300.443
300.519
300.6
300.683
300.759
300.861
300.996
301.11
301.208
301.271
301.301
301.301
301.279
301.241
301.192
301.144
301.101
301.065
301.032
300.999
300.968
300.936
300.901
300.864
300.824
300.787
300.772
300.845
300.909
301.1
300.924
301.161
300.888
301.181
300.791
301.117
300.661
300.957
300.517
300.742
300.392
300.532
300.375
300.237
300.351
300.32
300.15
300.202
300.053
300.11
300.095
300.198
300.279
300.356
300.429
300.504
300.58
300.663
300.739
300.822
300.97
301.08
301.192
301.269
301.307
301.316
301.3
301.267
301.221
301.174
301.132
301.095
301.063
301.034
301.005
300.975
300.944
300.909
300.873
300.843
300.852
301.016
301.286
301.517
301.434
301.726
301.527
301.899
301.532
301.987
301.418
301.948
301.169
301.759
300.832
301.4
300.54
300.912
300.535
300.28
300.511
300.464
300.164
300.234
300.058
300.12
300.097
300.197
300.276
300.348
300.418
300.489
300.563
300.642
300.72
300.793
300.939
301.046
301.17
301.265
301.31
301.327
301.318
301.291
301.249
301.202
301.161
301.126
301.096
301.068
301.04
301.013
300.984
300.953
300.921
300.898
300.952
301.287
301.759
301.867
302.011
302.316
302.267
302.619
302.438
302.869
302.488
303.006
302.387
302.996
302.104
302.812
301.617
302.421
300.968
301.784
300.984
300.394
300.949
300.852
300.186
300.314
300.065
300.135
300.101
300.202
300.277
300.342
300.408
300.475
300.546
300.621
300.698
300.769
300.905
301.011
301.144
301.254
301.31
301.336
301.335
301.313
301.275
301.229
301.187
301.154
301.126
301.1
301.075
301.049
301.023
300.996
300.967
300.952
301.056
301.565
302.727
302.537
302.954
302.946
303.256
303.266
303.625
303.481
303.909
303.56
304.067
303.476
304.072
303.197
303.904
302.682
303.523
301.885
302.867
301.905
300.698
301.829
301.641
300.234
300.523
300.073
300.161
300.11
300.213
300.282
300.34
300.4
300.463
300.529
300.602
300.677
300.744
300.873
300.976
301.114
301.236
301.308
301.344
301.351
301.333
301.297
301.253
301.211
301.178
301.152
301.13
301.109
301.086
301.063
301.039
301.015
301.012
301.169
301.817
303.098
303.989
304.204
303.528
303.786
303.947
304.24
304.287
304.615
304.509
304.89
304.594
305.038
304.523
305.045
304.267
304.899
303.775
304.555
302.97
303.94
302.984
301.344
302.895
302.676
300.359
301.006
300.086
300.219
300.125
300.233
300.296
300.344
300.394
300.451
300.515
300.584
300.655
300.717
300.844
300.943
301.078
301.213
301.306
301.349
301.364
301.352
301.319
301.275
301.234
301.199
301.175
301.157
301.141
301.125
301.107
301.088
301.071
301.086
301.302
302.052
303.386
304.37
304.534
304.904
305.073
304.494
304.715
304.899
305.147
305.211
305.476
305.404
305.706
305.477
305.819
305.414
305.816
305.192
305.694
304.761
305.411
304.021
304.88
304.014
302.308
303.899
303.652
300.653
301.801
300.105
300.354
300.142
300.26
300.321
300.359
300.397
300.443
300.501
300.567
300.635
300.692
300.8
300.911
301.04
301.184
301.296
301.35
301.375
301.371
301.343
301.299
301.255
301.221
301.198
301.184
301.175
301.171
301.164
301.154
301.148
301.187
301.47
302.277
303.642
304.684
304.707
305.219
305.347
305.675
305.802
305.356
305.53
305.699
305.885
305.942
306.121
306.069
306.239
306.097
306.271
306.04
306.243
305.88
306.157
305.542
305.977
304.924
305.6
304.884
303.264
304.747
304.494
301.211
302.705
300.141
300.624
300.142
300.269
300.34
300.38
300.408
300.439
300.488
300.55
300.617
300.669
300.758
300.886
300.998
301.151
301.277
301.349
301.382
301.388
301.368
301.327
301.28
301.246
301.226
301.218
301.226
301.247
301.266
301.272
301.28
301.36
301.677
302.503
303.867
305.328
305.442
305.63
305.908
305.995
306.241
306.314
306.033
306.149
306.252
306.35
306.352
306.427
306.374
306.432
306.352
306.407
306.298
306.362
306.202
306.299
306.007
306.194
305.594
305.992
305.522
304.102
305.374
305.139
301.945
303.517
300.215
301.061
300.206
300.319
300.381
300.421
300.447
300.478
300.539
300.601
300.648
300.724
300.859
300.957
301.116
301.252
301.345
301.384
301.397
301.387
301.353
301.308
301.273
301.259
301.273
301.323
301.409
301.49
301.527
301.543
301.614
301.93
302.748
304.074
305.476
306.171
306.205
306.062
306.133
306.371
306.411
306.512
306.539
306.421
306.473
306.478
306.513
306.469
306.489
306.424
306.412
306.363
306.314
306.306
306.232
306.249
306.182
306.157
306.154
305.94
306.09
305.85
304.772
305.717
305.53
302.672
304.191
300.48
301.609
300.202
300.331
300.404
300.449
300.476
300.531
300.582
300.628
300.694
300.828
300.92
301.078
301.225
301.338
301.386
301.401
301.396
301.372
301.33
301.298
301.293
301.349
301.491
301.7
301.878
301.943
301.924
301.949
302.227
303.021
304.312
305.622
306.235
306.232
306.473
306.477
306.44
306.464
306.559
306.566
306.568
306.57
306.539
306.557
306.495
306.491
306.379
306.332
306.223
306.113
306.089
305.902
306.011
305.762
305.996
305.723
306.027
305.776
305.999
305.895
305.897
305.22
305.785
305.675
305.557
303.339
304.712
300.734
302.141
300.179
300.326
300.418
300.471
300.525
300.56
300.616
300.686
300.799
300.885
301.039
301.194
301.323
301.385
301.409
301.403
301.379
301.345
301.316
301.324
301.43
301.688
302.037
302.319
302.428
302.393
302.361
302.585
303.32
304.567
305.756
306.353
306.476
306.48
306.562
306.548
306.569
306.568
306.567
306.559
306.438
306.411
306.479
306.461
306.279
306.226
305.999
305.887
305.693
305.482
305.454
305.117
305.346
304.906
305.377
304.886
305.555
305.022
305.767
305.364
305.613
305.783
305.664
305.591
305.251
305.488
305.698
305.607
305.629
305.649
303.904
305.343
305.142
304.727
301.04
302.692
300.159
300.322
300.436
300.511
300.55
300.596
300.662
300.755
300.852
300.999
301.16
301.301
301.381
301.416
301.415
301.388
301.352
301.33
301.347
301.503
301.882
302.38
302.783
302.97
302.946
302.862
303.009
303.668
304.827
305.846
306.317
306.455
306.402
306.527
306.503
306.49
306.454
306.543
306.52
306.38
306.346
306.069
306.016
306.174
306.122
305.78
305.68
305.282
305.101
304.781
304.474
304.439
303.963
304.314
303.752
304.367
304.224
303.874
305.091
304.76
304.069
304.423
305.276
305.489
305.216
304.975
305.45
305.587
305.509
305.597
305.436
305.435
305.576
304.87
303.879
304.511
305.397
305.235
301.453
304.067
303.504
302.686
300.147
300.334
300.469
300.549
300.578
300.636
300.713
300.817
300.96
301.124
301.273
301.375
301.419
301.429
301.407
301.364
301.337
301.36
301.552
302.043
302.683
303.226
303.53
303.565
303.46
303.52
304.07
305.099
305.907
306.25
306.223
306.294
306.189
306.41
306.358
306.215
306.162
306.307
306.264
305.964
305.911
305.418
305.345
305.587
305.499
304.934
304.783
304.189
303.948
303.537
303.227
303.246
302.888
303.595
303.328
303.115
302.937
303.74
303.445
303.596
303.356
304.641
304.272
303.594
303.922
304.893
305.191
304.852
304.541
305.177
305.542
305.486
305.446
305.186
305.214
305.454
304.998
304.67
305.403
305.279
302.916
301.462
302.196
304.249
303.723
300.143
300.371
300.528
300.57
300.614
300.686
300.783
300.922
301.087
301.245
301.368
301.419
301.439
301.426
301.386
301.347
301.365
301.572
302.142
302.919
303.593
304.035
304.197
304.137
304.131
304.556
305.389
305.956
306.173
306.025
305.7
305.568
305.942
305.83
306.101
306.03
305.737
305.676
305.855
305.795
305.28
305.22
304.427
304.346
304.649
304.529
303.737
303.553
303.035
302.922
302.727
302.681
302.828
302.742
302.7
302.693
303.136
302.965
302.852
302.796
303.335
303.146
303.199
303.035
304.171
303.817
303.312
303.519
304.481
304.841
304.461
304.107
304.854
305.453
305.431
305.252
304.894
304.953
305.294
305.086
304.797
305.376
305.284
303.101
301.596
302.358
304.399
303.884
300.168
300.444
300.569
300.6
300.66
300.753
300.887
301.05
301.214
301.355
301.417
301.446
301.441
301.409
301.367
301.372
301.573
302.178
303.06
303.846
304.414
304.723
304.795
304.796
305.099
305.662
305.996
306.096
305.785
304.997
305.136
304.896
305.422
305.292
305.609
305.526
305.052
305.003
305.159
305.101
304.285
304.239
303.178
303.106
303.404
303.28
302.847
302.787
302.691
302.723
302.705
302.751
302.819
302.927
302.786
302.805
302.873
302.967
302.937
302.908
302.92
302.988
303.228
303.07
303.206
303.052
303.767
303.512
303.363
303.398
304.088
304.475
304.106
303.766
304.521
305.328
305.345
305.029
304.595
304.69
305.109
305.135
304.889
305.327
305.264
303.234
301.605
302.409
304.514
303.999
300.284
300.547
300.594
300.64
300.725
300.855
301.015
301.183
301.338
301.41
301.45
301.453
301.428
301.388
301.382
301.566
302.176
303.113
303.989
304.61
305.023
305.258
305.388
305.623
305.911
306.063
306.029
305.54
304.596
304.023
303.801
304.454
304.242
304.758
304.622
304.943
304.863
304.175
304.159
304.206
304.187
303.064
303.052
302.576
302.495
302.724
302.659
302.767
302.792
303.288
303.59
303.082
303.208
303.327
303.387
303.101
303.247
303.427
303.633
303.085
303.186
303.337
303.531
303.393
303.246
303.517
303.369
303.59
303.528
303.635
303.528
303.828
304.16
303.928
303.705
304.247
305.182
305.237
304.803
304.353
304.48
304.92
305.152
304.948
305.261
305.232
303.301
301.463
302.333
304.597
304.068
300.48
300.595
300.632
300.703
300.826
300.983
301.153
301.313
301.403
301.45
301.464
301.445
301.407
301.392
301.541
302.145
303.113
304
304.624
305.08
305.421
305.7
305.936
306.089
306.142
305.973
305.314
304.2
302.999
303.287
302.972
303.715
303.517
303.988
303.871
304.126
304.071
303.16
303.19
303.071
303.113
302.403
302.304
302.697
302.568
302.794
302.766
303.862
304.06
304.839
305.076
305.506
305.287
303.86
304.098
304.346
304.593
303.763
304.028
304.318
304.624
303.551
303.787
304.064
304.374
303.841
303.721
304.128
303.991
303.671
303.73
304.196
303.912
303.84
304.048
303.979
303.83
304.177
305.031
305.124
304.617
304.311
304.446
304.759
305.149
304.979
305.187
305.193
303.291
301.204
302.128
304.649
304.089
300.602
300.633
300.689
300.802
300.954
301.124
301.29
301.395
301.448
301.472
301.461
301.426
301.402
301.507
302.057
303.056
303.906
304.46
304.947
305.358
305.708
305.98
306.132
306.152
305.91
305.122
303.841
302.498
302.246
302.018
302.648
302.422
302.99
302.838
303.167
303.099
303.203
303.199
302.142
302.179
302.221
302.162
302.414
302.231
304.114
303.882
304.166
304.201
305.696
305.951
306.77
306.166
306.441
306.91
306.694
304.937
305.252
305.569
305.875
304.71
305.064
305.427
305.794
304.306
304.654
305.026
305.413
304.556
304.472
304.958
304.851
303.952
304.203
304.972
304.558
303.996
304.116
304.168
304.179
304.253
304.9
305.024
304.581
304.386
304.514
304.717
305.136
304.993
305.12
305.155
303.203
300.887
301.801
304.673
304.068
300.648
300.686
300.782
300.929
301.099
301.267
301.383
301.444
301.477
301.475
301.445
301.414
301.478
301.936
302.91
303.713
304.14
304.524
304.997
305.475
305.858
306.076
306.101
305.786
304.93
303.529
302.152
301.596
301.83
301.64
302.13
301.988
302.32
302.244
302.347
302.352
302.243
302.309
301.72
301.59
302.045
301.87
303.549
303.111
306.911
306.591
306.963
307.003
307.06
307.122
308.952
309.109
307.517
307.821
308.362
308.104
306.158
306.513
306.864
307.199
305.811
306.212
306.611
307.005
305.255
305.672
306.096
306.522
305.426
305.389
305.898
305.835
304.492
304.901
305.859
305.365
304.391
304.328
304.584
304.759
304.469
304.844
304.963
304.638
304.592
304.693
304.758
305.122
304.996
305.068
305.132
302.997
300.569
301.393
304.674
303.996
300.693
300.771
300.909
301.076
301.247
301.369
301.439
301.48
301.486
301.463
301.429
301.458
301.815
302.719
303.532
303.88
304.044
304.165
304.627
305.315
305.759
305.863
305.518
304.63
303.166
301.893
301.387
301.319
301.228
301.485
301.394
301.637
301.569
301.676
301.675
301.58
301.642
301.523
301.523
301.78
301.502
302.637
302.175
306.105
305.418
309.896
309.629
309.207
309.346
309.979
308.591
308.787
310.15
310.269
308.761
309.061
309.583
309.336
307.386
307.753
308.109
308.445
306.947
307.365
307.772
308.166
306.286
306.735
307.181
307.617
306.362
306.375
306.865
306.851
305.212
305.719
306.777
306.247
304.989
304.748
305.18
305.483
304.876
304.87
304.977
304.78
304.968
305.027
304.863
305.115
304.996
305.069
305.13
302.682
300.291
300.947
304.663
303.85
300.772
300.894
301.056
301.227
301.353
301.43
301.48
301.495
301.479
301.446
301.449
301.705
302.512
303.362
303.686
303.701
303.467
303.461
303.944
304.716
305.152
304.918
304.029
302.662
301.669
301.246
301.06
301.077
301.038
301.142
301.111
301.174
301.165
301.152
301.169
301.142
301.134
301.317
301.201
302.76
302.011
304.58
303.653
309.14
308.458
311.307
311.241
311.318
310.324
310.343
311.347
311.349
309.802
309.989
311.099
311.213
309.849
310.124
310.592
310.372
308.542
308.898
309.238
309.555
308.042
308.453
308.847
309.222
307.318
307.774
308.215
308.639
307.3
307.359
307.805
307.837
306.027
306.584
307.677
307.139
305.706
305.32
305.874
306.28
305.419
304.943
305.023
305.059
305.471
305.483
305.078
305.119
304.999
305.099
305.147
302.263
300.099
300.524
304.631
303.626
300.887
301.041
301.21
301.337
301.419
301.479
301.502
301.494
301.463
301.448
301.617
302.304
303.191
303.541
303.503
303.057
302.662
302.725
303.219
303.728
303.767
303.128
302.142
301.46
301.164
301.012
300.927
300.925
300.933
300.928
300.938
300.937
300.931
300.937
300.925
300.923
301.028
300.955
301.485
301.18
304.859
303.517
307.479
306.222
310.929
310.402
311.806
311.705
311.745
311.534
311.294
311.334
311.874
311.903
310.787
310.955
311.76
311.837
310.744
310.978
311.365
311.186
309.573
309.9
310.207
310.488
309.045
309.429
309.791
310.129
308.298
308.736
309.152
309.543
308.193
308.292
308.678
308.749
306.868
307.444
308.52
307.998
306.479
305.991
306.626
307.091
306.057
305.095
305.123
305.46
306.065
306.025
305.408
305.131
305.003
305.157
305.183
301.748
300.039
300.222
304.565
303.306
301.032
301.197
301.32
301.408
301.476
301.505
301.506
301.48
301.455
301.555
302.113
303.004
303.425
303.402
302.899
302.295
302.028
302.174
302.485
302.577
302.23
301.693
301.298
301.112
300.999
300.91
300.873
300.878
300.858
300.865
300.842
300.85
300.826
300.832
300.857
300.83
301.133
300.932
302.385
301.587
307.457
305.775
309.738
308.82
311.386
311.131
310.82
311.999
311.877
311.72
311.524
311.883
311.902
312.096
312.161
311.52
311.651
312.157
312.189
311.422
311.606
311.898
311.765
310.439
310.723
310.983
311.215
309.909
310.25
310.563
310.85
309.179
309.577
309.944
310.281
309.002
309.129
309.436
309.54
307.692
308.263
309.267
308.792
307.273
306.718
307.387
307.895
306.742
305.346
305.289
305.938
306.702
306.597
305.812
305.161
305.001
305.259
305.249
301.175
300.023
300.091
304.455
302.896
301.187
301.303
301.395
301.472
301.51
301.514
301.496
301.469
301.518
301.947
302.801
303.323
303.348
302.885
302.226
301.77
301.668
301.748
301.777
301.632
301.391
301.197
301.085
300.998
300.916
300.853
300.834
300.846
300.812
300.823
300.792
300.801
300.784
300.785
300.873
300.801
301.655
301.103
304.101
302.661
309.122
307.939
310.336
309.828
311.33
311.12
310.447
310.658
312.027
311.881
311.572
311.328
312.203
312.196
312.143
312.231
312.009
312.097
312.308
312.321
311.874
311.998
312.175
312.098
311.108
311.339
311.545
311.723
310.59
310.87
311.121
311.341
309.913
310.244
310.539
310.799
309.682
309.823
310.032
310.158
308.478
309.005
309.837
309.462
308.025
307.432
308.072
308.604
307.403
305.659
305.515
306.441
307.298
307.135
306.242
305.194
304.993
305.407
305.318
300.65
300.016
300.048
304.299
302.342
301.284
301.382
301.468
301.513
301.52
301.511
301.484
301.501
301.815
302.598
303.221
303.32
302.911
302.253
301.741
301.506
301.442
301.411
301.343
301.239
301.145
301.077
300.999
300.923
300.874
300.807
300.816
300.82
300.804
300.782
300.793
300.764
300.774
300.759
300.754
301.036
300.82
302.684
301.595
306.173
304.296
309.538
308.926
310.134
309.902
311.068
310.833
309.978
310.107
311.984
311.805
311.318
310.996
312.317
312.288
312.118
312.222
312.237
312.282
312.345
312.35
312.076
312.159
312.266
312.222
311.533
311.7
311.847
311.972
311.028
311.226
311.402
311.56
310.445
310.685
310.888
311.06
310.129
310.322
310.342
310.554
309.11
309.541
310.078
309.865
308.647
308.054
308.651
309.151
307.972
306.018
305.775
306.923
307.84
307.657
306.677
305.245
304.971
305.552
305.434
300.328
300.012
300.031
304.058
301.78
301.373
301.464
301.516
301.528
301.52
301.5
301.499
301.716
302.413
303.105
303.299
302.983
302.359
301.792
301.492
301.363
301.297
301.24
301.182
301.129
301.076
301.001
300.935
300.893
300.835
300.794
300.786
300.8
300.782
300.762
300.773
300.727
300.745
300.765
300.723
301.409
300.931
304.078
302.438
307.812
306.041
309.326
309.096
309.26
309.283
309.182
310.664
310.355
309.296
309.473
311.855
311.608
311.052
310.635
312.334
312.294
312.053
312.177
312.299
312.323
312.329
312.324
312.128
312.194
312.266
312.242
311.702
311.829
311.943
312.043
311.21
311.347
311.478
311.602
310.736
310.877
311
311.107
310.223
310.496
310.335
310.617
309.533
309.763
310
309.919
309.146
308.617
309.072
309.432
308.54
306.374
306.045
307.429
308.395
308.206
307.141
305.279
304.933
305.782
305.521
300.15
300.009
300.023
303.832
301.108
301.461
301.519
301.539
301.528
301.513
301.505
301.655
302.254
302.977
303.273
303.079
302.545
301.963
301.529
301.36
301.278
301.217
301.168
301.127
301.076
301.005
300.95
300.911
300.857
300.8
300.777
300.77
300.786
300.765
300.727
300.747
300.696
300.706
300.822
300.718
301.991
301.161
305.448
303.488
308.438
307.252
308.435
308.727
308.496
308.594
308.293
308.007
310.2
309.793
308.541
308.774
311.708
311.416
310.801
310.294
312.301
312.25
311.922
312.079
312.289
312.315
312.275
312.272
312.099
312.154
312.208
312.184
311.72
311.832
311.935
312.026
311.203
311.293
311.388
311.49
310.716
310.806
310.875
310.938
310.019
310.428
309.948
310.47
309.597
309.671
309.509
309.679
309.278
308.937
309.111
309.386
308.76
306.8
306.415
307.99
308.577
308.393
307.725
305.346
304.878
305.972
305.695
300.092
300.006
300.018
303.36
300.845
301.522
301.548
301.539
301.521
301.518
301.623
302.13
302.847
303.238
303.156
302.716
302.167
301.655
301.378
301.286
301.22
301.169
301.128
301.079
301.018
300.97
300.929
300.88
300.825
300.756
300.762
300.779
300.753
300.742
300.733
300.692
300.713
300.683
300.678
300.933
300.735
302.668
301.49
306.289
304.46
308.474
307.644
307.617
307.31
307.704
307.868
307.696
307.783
307.251
309.732
309.2
307.761
308.07
311.543
311.219
310.549
309.971
312.252
312.19
311.785
311.958
312.235
312.263
312.202
312.195
312.019
312.068
312.135
312.103
311.6
311.716
311.831
311.931
311.006
311.085
311.177
311.277
310.464
310.466
310.496
310.548
309.461
309.859
309.474
309.779
309.416
309.291
309.287
309.246
309.173
308.896
308.907
309.153
308.719
307.317
306.772
308.204
308.523
308.353
307.975
305.382
304.791
306.289
305.792
300.053
300.005
300.015
303.116
300.511
301.556
301.557
301.533
301.53
301.614
302.04
302.734
303.196
303.21
302.861
302.349
301.817
301.431
301.302
301.241
301.183
301.139
301.095
301.043
300.988
300.946
300.904
300.855
300.794
300.737
300.735
300.753
300.723
300.718
300.704
300.667
300.684
300.682
300.662
301.08
300.776
303.234
301.841
306.495
304.959
308.026
307.57
306.886
306.667
307.133
307.154
306.895
306.903
306.991
306.495
309.313
308.636
306.993
307.406
311.379
311.02
310.297
309.643
312.146
312.08
311.641
311.822
312.164
312.193
312.031
312.022
311.881
311.926
311.976
311.943
311.388
311.52
311.664
311.78
310.571
310.604
310.622
310.67
309.715
309.647
309.588
309.548
306.746
309.475
306.817
309.454
308.987
309.062
306.851
306.75
308.791
308.735
308.68
308.828
308.531
307.672
307.213
308.181
308.372
308.224
308.023
305.455
304.719
306.491
305.992
300.049
300.069
300.035
302.6
300.387
301.572
301.556
301.539
301.617
301.993
302.646
303.151
303.246
302.978
302.507
301.969
301.509
301.325
301.26
301.21
301.16
301.118
301.064
301.007
300.966
300.926
300.883
300.829
300.756
300.718
300.718
300.736
300.7
300.699
300.681
300.651
300.662
300.689
300.653
301.207
300.824
303.424
302.052
306.289
304.992
307.152
307.039
306.193
306.001
306.481
306.649
306.291
306.151
306.217
305.77
308.895
308.116
306.278
306.798
311.215
310.822
310.054
309.317
311.993
311.928
311.494
311.67
312.003
312.02
311.827
311.837
311.469
311.571
311.674
311.616
310.751
310.903
311.147
311.335
309.549
309.549
309.606
309.647
306.703
306.69
306.784
306.729
304.681
306.874
304.669
306.849
306.698
306.818
304.694
304.698
306.678
308.524
306.571
306.856
308.383
307.808
307.426
308.095
308.224
308.091
307.961
305.491
304.588
306.83
306.088
300.057
389.598
300.454
302.29
300.378
301.582
301.563
301.625
301.978
302.595
303.112
303.267
303.068
302.64
302.107
301.588
301.365
301.274
301.232
301.182
301.137
301.085
301.029
300.988
300.948
300.907
300.865
300.802
300.741
300.722
300.7
300.706
300.681
300.682
300.662
300.639
300.645
300.692
300.646
301.234
300.843
303.314
302.056
305.66
304.649
305.998
306.09
305.503
305.328
305.844
305.914
305.624
305.456
305.495
305.074
308.47
307.596
305.626
306.203
311.065
310.636
309.839
309.01
311.824
311.773
311.352
311.531
311.729
311.786
311.572
311.629
310.784
311.069
311.267
311.169
309.73
309.828
310.124
310.649
306.761
306.729
306.755
306.778
304.653
304.636
304.664
304.639
302.56
304.698
302.554
304.657
304.672
304.678
302.571
302.578
304.7
306.54
304.644
304.696
306.516
307.799
307.552
307.958
306.44
306.39
307.885
305.558
304.56
307.015
306.313
300.11
595.102
304.443
302.281
300.502
301.62
301.654
301.983
302.579
303.093
303.28
303.136
302.748
302.225
301.672
301.402
301.3
301.244
301.205
301.158
301.106
301.054
301.013
300.973
300.93
300.892
300.848
300.783
300.726
300.717
300.712
300.688
300.7
300.665
300.672
300.647
300.631
300.635
300.687
300.64
301.176
300.831
302.906
301.877
304.686
303.959
304.829
305.322
304.982
304.85
304.818
304.617
305.141
304.875
304.821
304.831
304.416
308.054
307.076
305.007
305.608
310.987
310.509
309.706
308.742
311.64
311.615
311.265
311.407
311.356
311.473
311.242
311.391
309.909
310.277
310.762
310.669
306.834
306.831
309.181
309.941
304.657
304.647
304.673
304.705
302.551
302.545
302.546