/*--------------------------------*- C++ -*----------------------------------*\
  =========                 |
  \\      /  F ield         | OpenFOAM: The Open Source CFD Toolbox
   \\    /   O peration     | Website:  https://openfoam.org
    \\  /    A nd           | Version:  dev
     \\/     M anipulation  |
\*---------------------------------------------------------------------------*/
FoamFile
{
    version     2.0;
    format      ascii;
    class       volVectorField;
    location    "2500";
    object      U;
}
// * * * * * * * * * * * * * * * * * * * * * * * * * * * * * * * * * * * * * //

dimensions      [0 1 -1 0 0 0 0];

internalField   nonuniform List<vector> 
9851
(
(0.00491855 0.00752787 0)
(0.0117415 0.00678865 0)
(0.00487563 0.0200379 4.68421e-27)
(0.0163796 0.00570129 -5.48611e-28)
(0.0129122 0.0204681 -4.49112e-27)
(0.00415023 0.0289384 5.80109e-27)
(0.0200962 0.00483674 -5.38107e-28)
(0.0182628 0.0200492 0)
(0.0122328 0.0302228 -1.14872e-26)
(0.00338869 0.0361687 0)
(0.0229095 0.0041167 0)
(0.0218902 0.0183306 -1.67614e-27)
(0.0186867 0.0314115 0)
(0.0105167 0.0374367 -6.44734e-27)
(0.00287786 0.0423715 -5.08701e-28)
(0.0250579 0.00348452 0)
(0.0244362 0.0159725 -1.75831e-27)
(0.0235501 0.0315924 0)
(0.0172872 0.0394721 0)
(0.00882545 0.0433637 -2.07391e-27)
(0.00249489 0.0477979 2.51153e-27)
(0.0268472 0.0029524 0)
(0.0263632 0.0135606 0)
(0.0269401 0.0306032 2.20977e-27)
(0.0230726 0.0413251 0)
(0.0149469 0.0453191 -4.91765e-27)
(0.00758445 0.0485606 -5.29467e-27)
(0.00217984 0.05252 3.52922e-27)
(0.028279 0.00251652 0)
(0.0279191 0.0114027 6.15154e-29)
(0.0291528 0.028765 2.33108e-27)
(0.0275967 0.0423545 0)
(0.0208794 0.0478631 0)
(0.0127755 0.0501251 -4.80065e-27)
(0.00661974 0.0531599 -3.38348e-28)
(0.00190883 0.0567074 6.52158e-28)
(0.0292892 0.00217805 0)
(0.029102 0.00967797 7.61741e-29)
(0.0304558 0.0263722 -2.28924e-27)
(0.0308076 0.0423396 0)
(0.0261329 0.0503843 1.38257e-27)
(0.0180659 0.0524998 -9.19124e-28)
(0.0110721 0.0544125 2.6221e-27)
(0.00578651 0.0572668 9.7093e-28)
(0.00167462 0.0604168 0)
(0.0298828 0.00192535 -6.67714e-29)
(0.0299183 0.00847795 1.28827e-28)
(0.0311401 0.0238467 -2.52002e-27)
(0.0328084 0.0413523 -1.86114e-28)
(0.0303318 0.0523047 1.53862e-27)
(0.0232335 0.0554604 -3.15309e-27)
(0.0155725 0.056332 -1.89348e-27)
(0.00968717 0.0583283 7.84185e-28)
(0.00507465 0.0608958 1.96338e-27)
(0.00147241 0.0636788 0)
(0.0300568 0.0017496 0)
(0.0303179 0.00763307 -7.64023e-29)
(0.0314615 0.021437 3.6055e-36)
(0.0337954 0.0396658 0)
(0.033336 0.0533432 -1.65876e-27)
(0.0279285 0.0585304 -2.50392e-27)
(0.0201036 0.0589726 -2.07078e-27)
(0.013561 0.0598974 -9.91936e-28)
(0.0085033 0.0617972 3.95305e-27)
(0.00445946 0.0641055 0)
(0.00130338 0.0665725 -1.09507e-27)
(0.0299298 0.00162419 -8.27492e-29)
(0.0303968 0.00700578 0)
(0.0314818 0.0194184 2.22973e-27)
(0.0339678 0.0375923 -1.35107e-27)
(0.0351906 0.0534134 -1.55402e-27)
(0.0318014 0.0612492 -3.89281e-28)
(0.0245514 0.0621805 -1.00811e-28)
(0.0174201 0.0620509 -1.98611e-28)
(0.0118929 0.0631447 -3.01472e-27)
(0.00747255 0.0649034 -8.90713e-28)
(0.00393228 0.0669321 0)
(0.00115395 0.0691914 1.2347e-31)
(0.0295019 0.001537 0)
(0.0301834 0.006525 -8.79043e-29)
(0.0312521 0.0178529 2.24512e-27)
(0.0336265 0.0353979 -1.44052e-27)
(0.0359702 0.0526054 0)
(0.0346369 0.0631746 0)
(0.0286901 0.0656409 -3.86865e-28)
(0.0212838 0.0648107 0)
(0.0152317 0.0649628 -2.00344e-27)
(0.0104483 0.0660649 -3.54446e-27)
(0.0065773 0.0676177 -1.5206e-27)
(0.00347311 0.0695257 -1.49153e-27)
(0.00101226 0.0715161 1.26783e-28)
(0.0288013 0.00148087 0)
(0.0296448 0.00622882 0)
(0.0307519 0.0167488 0)
(0.0329741 0.0332442 9.3112e-29)
(0.0359121 0.0511417 0)
(0.0364 0.0643123 2.04065e-27)
(0.0322212 0.0689164 7.37574e-28)
(0.0250904 0.068089 0)
(0.0185397 0.0672556 0)
(0.0133831 0.0676177 0)
(0.00919723 0.0686404 -2.69798e-27)
(0.00579874 0.0701314 -3.73938e-27)
(0.00304767 0.0718259 -1.57577e-27)
(0.000889122 0.0735536 2.51412e-27)
(0.0279515 0.00144631 0)
(0.0289082 0.00606188 -9.60089e-29)
(0.0300086 0.0159837 0)
(0.0320919 0.0312353 -2.72896e-27)
(0.0353416 0.0492781 0)
(0.0371546 0.0641865 2.40765e-27)
(0.0349475 0.0715921 6.93183e-28)
(0.028712 0.0716973 7.23622e-28)
(0.0218282 0.0700527 1.20872e-27)
(0.0162711 0.0695506 0)
(0.0117837 0.0699961 0)
(0.00810974 0.0710071 -1.39688e-27)
(0.00510714 0.0723768 1.06559e-27)
(0.00267232 0.073822 2.50732e-27)
(0.000778333 0.0754028 0)
(0.027007 0.00145436 0)
(0.0280047 0.00593934 0)
(0.0291337 0.0154321 -1.87309e-28)
(0.0310651 0.0294828 -2.64625e-27)
(0.03433 0.0471716 0)
(0.0371303 0.063507 3.49245e-27)
(0.0367637 0.0734554 6.46867e-28)
(0.0319272 0.0752497 6.82136e-28)
(0.0250992 0.0733047 1.35561e-27)
(0.0191033 0.071884 -3.42037e-28)
(0.0143276 0.0716898 0)
(0.0103843 0.0721862 0)
(0.00715309 0.0731627 1.35525e-27)
(0.00447431 0.0743314 4.47639e-28)
(0.0023338 0.0756589 3.91699e-28)
(0.000672422 0.0770282 0)
(0.0259292 0.00151309 0)
(0.0269284 0.00594121 -9.5724e-29)
(0.0280986 0.015131 0)
(0.0298778 0.0280666 -9.0452e-29)
(0.033041 0.0449815 0)
(0.036579 0.0621064 7.01706e-27)
(0.0376824 0.0742012 0)
(0.0345801 0.0784616 0)
(0.0282399 0.0768821 3.32444e-28)
(0.0219329 0.0746201 0)
(0.0168074 0.0737239 -1.33733e-35)
(0.0126172 0.0736774 0)
(0.00915654 0.0741984 5.10712e-28)
(0.00627565 0.0750721 1.35231e-27)
(0.00390256 0.0761221 3.88593e-28)
(0.00201108 0.0772671 0)
(0.00057291 0.0784672 -1.65962e-27)
(0.0247514 0.00158723 0)
(0.0257794 0.00611567 0)
(0.0269121 0.0149855 -1.81579e-28)
(0.0285763 0.0269516 -8.82138e-29)
(0.0315814 0.042805 0)
(0.0354969 0.060123 3.48547e-27)
(0.0376864 0.0739809 0)
(0.0364699 0.0809004 -3.89773e-27)
(0.0311872 0.0805472 0)
(0.0247269 0.077796 -1.07941e-27)
(0.0192582 0.0760654 -3.22123e-28)
(0.0148144 0.0754521 1.31006e-27)
(0.0111195 0.0754933 -1.77632e-27)
(0.00806641 0.0760295 2.43844e-27)
(0.00547682 0.0767792 0)
(0.00338378 0.0777055 3.31524e-28)
(0.00170702 0.0786929 6.99372e-29)
(0.000476148 0.0797166 1.1119e-28)
(0.0235343 0.00165227 -2.48977e-27)
(0.0245971 0.00634508 3.62579e-28)
(0.0256862 0.0148378 -1.77288e-28)
(0.0272932 0.0260739 -8.69061e-29)
(0.030048 0.0407346 2.8178e-27)
(0.0340173 0.0578875 3.33255e-27)
(0.0373356 0.0733349 -6.86199e-29)
(0.0376258 0.0824884 -1.94708e-42)
(0.03369 0.0839762 -2.91885e-28)
(0.0275057 0.0812607 -9.15046e-28)
(0.0216949 0.0787656 1.94731e-27)
(0.0169705 0.077481 3.14231e-30)
(0.0130681 0.0770561 -2.97054e-27)
(0.00981336 0.0771862 2.23321e-28)
(0.00705224 0.0776544 -3.74041e-32)
(0.00476773 0.0783011 0)
(0.00288692 0.0791214 2.50008e-27)
(0.00141277 0.0799359 5.59052e-29)
(0.000383479 0.0807839 -1.40465e-27)
(0.0222727 0.00170384 -5.05759e-27)
(0.0233747 0.00657864 -2.75481e-27)
(0.0244463 0.0147468 -2.80105e-27)
(0.0260055 0.0254005 4.16235e-27)
(0.0284743 0.0388887 2.93463e-27)
(0.032347 0.0555338 3.31919e-27)
(0.0364069 0.0718474 -1.35661e-28)
(0.0378186 0.0829656 3.64361e-27)
(0.035682 0.0869586 6.66245e-29)
(0.0301055 0.0849214 0)
(0.0241389 0.0817636 1.43135e-27)
(0.0191043 0.0797977 -6.22895e-28)
(0.0149873 0.0788595 -1.09311e-27)
(0.0115201 0.0785597 0)
(0.00861766 0.0787415 1.91873e-28)
(0.00613308 0.0790771 1.13191e-27)
(0.00409313 0.0797202 1.26625e-27)
(0.00239106 0.0803726 -6.72025e-28)
(0.00112606 0.0809904 -1.79601e-27)
(0.000288551 0.0816696 0)
(0.0210045 0.00174266 -2.11759e-28)
(0.0221403 0.00678592 -5.16029e-27)
(0.0232099 0.0147179 -3.02041e-27)
(0.0246949 0.0248705 4.12716e-27)
(0.0269025 0.0373745 -6.26242e-28)
(0.0305727 0.0531604 3.01297e-28)
(0.0349279 0.0696759 0)
(0.0375742 0.0826947 -1.18861e-28)
(0.0369925 0.0890637 0)
(0.0325054 0.0884875 6.61414e-29)
(0.0265207 0.0851029 0)
(0.021227 0.0823939 -5.40554e-28)
(0.016855 0.0808965 4.98986e-28)
(0.0132198 0.0801672 -8.83931e-28)
(0.0101333 0.0800058 -1.30982e-27)
(0.00748938 0.0800857 1.47233e-27)
(0.00527858 0.0804926 1.43362e-27)
(0.00341286 0.0809726 7.84873e-28)
(0.00190588 0.081415 -1.03722e-27)
(0.000832537 0.0818835 3.8273e-29)
(0.000187884 0.0823851 -1.20107e-27)
(0.0197459 0.00179406 -2.13831e-28)
(0.0208848 0.00694517 -2.38635e-27)
(0.0219965 0.0147173 0)
(0.023389 0.0244425 0)
(0.0254074 0.0361935 1.17689e-27)
(0.0287486 0.0508105 -1.15877e-27)
(0.0331946 0.0672872 1.31545e-28)
(0.0369575 0.0819115 0)
(0.0376256 0.0903918 -5.78282e-29)
(0.0345126 0.091762 0)
(0.028869 0.0886004 -3.2959e-27)
(0.0233286 0.0853009 2.63186e-28)
(0.0186985 0.0831742 0)
(0.0148753 0.0819833 4.37903e-28)
(0.0116279 0.081452 -2.5425e-27)
(0.00883169 0.0813188 -3.12478e-28)
(0.00643548 0.0814457 2.01159e-32)
(0.00443087 0.0817364 1.40707e-27)
(0.00273268 0.0820075 -7.16923e-28)
(0.00142434 0.0823324 9.82482e-32)
(0.000524548 0.0825963 -1.54241e-27)
(8.39131e-05 0.0829006 0)
(0.0184842 0.00187119 -4.03366e-27)
(0.0195819 0.00709942 0)
(0.0207645 0.0147289 -2.15174e-27)
(0.0220992 0.0241088 -3.84378e-27)
(0.0240011 0.035213 -5.14621e-27)
(0.026969 0.0486068 -3.71856e-27)
(0.0313328 0.064714 -5.15279e-28)
(0.0357173 0.0801936 3.71576e-27)
(0.037486 0.0906194 3.76452e-27)
(0.0359957 0.0944324 -1.13871e-28)
(0.031097 0.0922232 -3.36449e-27)
(0.0254359 0.0884189 -1.25762e-28)
(0.0205489 0.0857055 2.4274e-28)
(0.0164992 0.0839903 0)
(0.0131098 0.0830855 0)
(0.0101729 0.0827003 -6.26498e-28)
(0.00760835 0.0825648 0)
(0.00544096 0.0826673 4.46571e-36)
(0.00358248 0.0827759 -2.06078e-28)
(0.00205889 0.0829295 -9.85245e-28)
(0.000923231 0.0830725 9.02903e-28)
(0.000203741 0.083119 -1.38999e-27)
(-2.91315e-05 0.0832337 -6.80183e-28)
(0.0172433 0.00194815 0)
(0.0182918 0.00727059 -3.65298e-27)
(0.0195012 0.014722 0)
(0.0208504 0.02383 -5.57448e-27)
(0.0226675 0.0342983 2.95181e-31)
(0.0253264 0.0466315 -6.41882e-27)
(0.0294512 0.0620421 7.55766e-27)
(0.0340852 0.0778675 3.64837e-27)
(0.0371232 0.0902945 3.52952e-27)
(0.0369634 0.0962836 0)
(0.0330862 0.0956172 -1.1409e-28)
(0.0275383 0.091803 2.41021e-28)
(0.0224198 0.0884507 -1.20805e-28)
(0.0181144 0.0862003 -2.16852e-28)
(0.0145721 0.084873 0)
(0.011508 0.0842052 0)
(0.00880186 0.0838471 4.80271e-28)
(0.00646293 0.0837562 -1.62536e-28)
(0.00445721 0.0837202 -4.56402e-29)
(0.00273119 0.0836938 -1.36608e-27)
(0.00136962 0.0837084 9.33656e-28)
(0.000393762 0.0836203 -1.68179e-27)
(-0.00012165 0.0834365 -1.18863e-27)
(-0.000145061 0.0833234 0)
(0.0160373 0.00200951 1.23691e-28)
(0.0170785 0.00742452 0)
(0.0182473 0.0146586 0)
(0.0196443 0.0235358 -1.97113e-27)
(0.0213898 0.0334105 6.21455e-27)
(0.0238433 0.0448995 4.66183e-28)
(0.02765 0.0593239 -9.60745e-28)
(0.0323315 0.0752909 0)
(0.0363264 0.0893126 0)
(0.0372208 0.0973695 -3.85076e-27)
(0.0347327 0.0987014 3.95016e-27)
(0.029563 0.0952819 3.24157e-27)
(0.0242846 0.091443 2.32733e-28)
(0.0197532 0.0886298 0)
(0.0160009 0.086812 2.41134e-27)
(0.0128222 0.0858595 0)
(0.00998887 0.0853082 2.48884e-28)
(0.00748988 0.0849964 3.23237e-28)
(0.00533937 0.0848114 -5.88313e-35)
(0.00344893 0.0846573 7.41984e-30)
(0.0018566 0.0845069 -1.36537e-28)
(0.00065008 0.0842958 1.02308e-27)
(-0.0001757 0.0839574 -1.10655e-27)
(-0.00048141 0.0835604 4.07912e-28)
(-0.000275881 0.0831855 -1.92528e-28)
(0.0148652 0.00205256 -1.77591e-27)
(0.0159065 0.00754179 0)
(0.0170291 0.0145765 0)
(0.0184368 0.0232139 1.45613e-27)
(0.0201693 0.0325758 1.5483e-27)
(0.0224745 0.0433845 0)
(0.0259425 0.0566802 -1.16412e-26)
(0.0305339 0.0725222 -4.33409e-28)
(0.0349715 0.0873855 -1.5548e-27)
(0.0370211 0.0974579 -1.50758e-31)
(0.0358624 0.101109 8.03287e-27)
(0.0314873 0.0988308 4.04766e-27)
(0.026115 0.0946132 -4.52278e-28)
(0.0214093 0.0912823 1.09637e-28)
(0.0174212 0.0889357 2.97425e-27)
(0.0141113 0.0876549 3.26984e-28)
(0.0111642 0.0869101 0)
(0.00853436 0.0863704 1.70424e-28)
(0.00623231 0.0860273 0)
(0.00420188 0.0857838 -5.80999e-30)
(0.00240762 0.0854999 1.41769e-27)
(0.000952415 0.0851238 9.00969e-28)
(-0.000118542 0.0847096 -1.85138e-27)
(-0.000779675 0.0841193 -5.49422e-28)
(-0.000888933 0.0834392 6.00591e-28)
(-0.000421066 0.082771 -2.74654e-28)
(0.0137918 0.00208653 0)
(0.0147782 0.00761291 -2.08814e-27)
(0.0158568 0.0145314 0)
(0.0172127 0.022883 1.16939e-27)
(0.0189694 0.0317754 1.23525e-30)
(0.0211871 0.042025 -4.91062e-27)
(0.024307 0.0542315 -5.78999e-27)
(0.0287445 0.0696521 -6.42963e-27)
(0.0333771 0.0850085 -8.06974e-27)
(0.0365673 0.0970646 2.39464e-27)
(0.0366357 0.102777 7.70709e-27)
(0.0331639 0.102085 2.05715e-28)
(0.0279646 0.0980139 3.89558e-27)
(0.0230275 0.0941101 -4.35587e-28)
(0.018867 0.0912812 0)
(0.015361 0.0895776 1.70191e-28)
(0.012333 0.0886142 -3.83154e-35)
(0.00959643 0.0878656 0)
(0.00714341 0.0873838 0)
(0.00498016 0.0870302 -4.89632e-28)
(0.00302128 0.0866642 1.53171e-27)
(0.00132325 0.0861555 0)
(2.32619e-06 0.0856027 0)
(-0.000958392 0.0849435 -4.00609e-27)
(-0.00144926 0.0840728 0)
(-0.00133956 0.0830337 8.03758e-28)
(-0.000582178 0.0820849 0)
(0.0128524 0.00213818 -5.92585e-29)
(0.0137101 0.00764242 -9.35094e-28)
(0.0147456 0.0145265 0)
(0.0160372 0.0225281 0)
(0.0177501 0.0309773 -8.81373e-28)
(0.0199285 0.0408078 -5.93873e-27)
(0.0227641 0.0520568 0)
(0.0269843 0.0667356 -6.38556e-27)
(0.0317067 0.082381 -6.94011e-27)
(0.0356432 0.0959153 -3.76892e-31)
(0.0366682 0.103744 2.43101e-27)
(0.0345657 0.105012 3.77809e-27)
(0.0297448 0.101462 7.16604e-27)
(0.0246683 0.0971668 4.18608e-32)
(0.0202867 0.0938241 -2.03888e-28)
(0.0166077 0.0916519 0)
(0.0134741 0.0904021 0)
(0.0106645 0.089473 -2.00193e-28)
(0.00809552 0.0888609 0)
(0.00578303 0.0883735 -5.48165e-28)
(0.00368159 0.0879664 0)
(0.00177313 0.0873923 1.05208e-27)
(0.000181935 0.0867118 0)
(-0.0010462 0.0859406 0)
(-0.00188706 0.0849779 -3.5763e-27)
(-0.0021987 0.0837456 1.96936e-27)
(-0.00184425 0.0823681 1.03968e-27)
(-0.000767984 0.0810655 0)
(0.0120503 0.00221433 0)
(0.0127357 0.00766664 -3.81473e-28)
(0.0137041 0.0145291 0)
(0.0149195 0.0221538 5.16448e-28)
(0.0165301 0.0302365 -1.86829e-27)
(0.0186727 0.0397099 -2.23939e-27)
(0.021312 0.0501465 -5.29526e-27)
(0.0252339 0.063842 -6.13569e-27)
(0.0299899 0.0795792 0)
(0.0343099 0.0939904 -7.44498e-27)
(0.0364436 0.103789 6.30696e-28)
(0.0354722 0.107291 3.83614e-27)
(0.0314514 0.104931 3.68135e-27)
(0.0263041 0.100381 6.93495e-27)
(0.021734 0.096541 2.10195e-28)
(0.0178691 0.0938759 0)
(0.0146051 0.0922698 2.86865e-27)
(0.0117248 0.0911724 -1.12416e-28)
(0.00907431 0.0904194 -2.58483e-27)
(0.00662814 0.0898087 0)
(0.00439947 0.0893816 -9.84883e-29)
(0.00230976 0.0887924 1.39991e-27)
(0.000453585 0.0880268 6.36613e-28)
(-0.00105453 0.08716 4.24577e-28)
(-0.00221176 0.0860722 2.02671e-27)
(-0.002916 0.0847599 -7.5279e-29)
(-0.00304175 0.0831791 4.89398e-27)
(-0.00241571 0.0813776 0)
(-0.000994437 0.0796614 -1.13703e-27)
(0.0114065 0.00226608 9.26717e-28)
(0.0119226 0.00769738 -9.92066e-28)
(0.0127828 0.0144701 -6.14956e-28)
(0.0138704 0.0218048 1.49466e-27)
(0.0153558 0.0296184 -1.78305e-27)
(0.0173916 0.0386671 -2.87609e-27)
(0.0199279 0.0484473 -5.03878e-27)
(0.0235158 0.0610907 -6.48049e-27)
(0.0282321 0.0766549 -6.69612e-28)
(0.0327753 0.091678 -1.45458e-26)
(0.0359252 0.103365 -7.51369e-27)
(0.0360673 0.108855 -7.69781e-27)
(0.0329042 0.108106 -5.96395e-27)
(0.0279797 0.103785 7.12566e-27)
(0.0231789 0.0994006 0)
(0.0191561 0.0962513 7.99084e-32)
(0.0157526 0.0942497 3.04143e-27)
(0.0127778 0.0929459 0)
(0.0100567 0.0920483 -2.93978e-27)
(0.00750932 0.0913563 4.71312e-29)
(0.00515339 0.0908834 -1.715e-28)
(0.00292992 0.0903078 -2.73227e-34)
(0.000845184 0.0895087 1.54961e-27)
(-0.000948367 0.0885732 8.27053e-28)
(-0.0024143 0.0874057 -5.50732e-28)
(-0.00349538 0.0859813 2.44308e-27)
(-0.00406467 0.0843083 5.55234e-27)
(-0.00398366 0.0823001 -1.74964e-33)
(-0.00307766 0.0800261 7.08409e-29)
(-0.00125636 0.0778012 -1.36559e-27)
(0.0109597 0.00227419 -1.32445e-28)
(0.0113165 0.00773395 1.12469e-27)
(0.0119947 0.0143449 -5.95132e-28)
(0.0129509 0.0215335 2.87913e-27)
(0.0142667 0.0290941 -1.70185e-27)
(0.0161177 0.0376651 -4.47131e-28)
(0.018551 0.0469707 -7.38764e-28)
(0.0218327 0.0586013 -5.56429e-27)
(0.026419 0.0736591 -6.03056e-28)
(0.0311511 0.0891518 -5.87416e-28)
(0.0349059 0.102207 -7.16484e-27)
(0.0359967 0.109854 -1.51336e-26)
(0.0340691 0.110899 -7.52675e-27)
(0.0295752 0.107212 -3.31337e-27)
(0.0246685 0.102474 0)
(0.0204328 0.0987761 -6.6196e-27)
(0.0169095 0.0963426 -3.76236e-28)
(0.0138439 0.0947768 3.21381e-27)
(0.0110413 0.0937462 -1.0154e-28)
(0.00842606 0.0929953 -4.31675e-29)
(0.00594572 0.0924595 -4.77175e-29)
(0.00360055 0.091908 -7.5535e-28)
(0.00135877 0.0911189 -2.01932e-28)
(-0.000700319 0.0901384 1.87612e-27)
(-0.00247368 0.0889557 0)
(-0.00391793 0.0874611 -1.38578e-27)
(-0.00492038 0.0856657 -9.32532e-29)
(-0.00535097 0.0835677 6.74902e-27)
(-0.00502113 0.0810581 -3.45398e-27)
(-0.00384416 0.0781902 -1.0195e-28)
(-0.0015489 0.0754328 -1.59934e-27)
(0.0107013 0.00228445 -1.32836e-28)
(0.0108833 0.00778486 -4.47429e-28)
(0.0113579 0.0142147 1.07574e-27)
(0.0121894 0.0213166 2.04081e-27)
(0.0132825 0.0286201 0)
(0.014922 0.0367646 0)
(0.0171796 0.0457068 0)
(0.020182 0.0564118 7.83071e-32)
(0.0245269 0.0706809 0)
(0.0294075 0.0864725 6.23798e-27)
(0.0335611 0.100473 0)
(0.0356299 0.110001 2.71591e-28)
(0.0347647 0.113171 -7.69684e-27)
(0.0310177 0.110591 0)
(0.0261562 0.105704 -3.57133e-27)
(0.0217238 0.101478 -1.6792e-26)
(0.0180724 0.0985187 3.26959e-27)
(0.014916 0.0966739 3.21594e-27)
(0.0120566 0.0955086 3.26944e-27)
(0.00936118 0.0946836 -1.37532e-28)
(0.00679673 0.0941013 -2.76951e-31)
(0.00433777 0.093562 0)
(0.00195589 0.0928127 -5.02698e-27)
(-0.000310195 0.0918414 9.02778e-28)
(-0.00236915 0.0906806 -2.50752e-27)
(-0.00416908 0.0891977 -2.92886e-27)
(-0.00559581 0.087322 0)
(-0.00653255 0.0850969 7.50964e-29)
(-0.00677972 0.0824902 -7.85707e-27)
(-0.0062275 0.0794025 3.94617e-27)
(-0.00469004 0.0758855 0)
(-0.00189803 0.0724831 -1.82829e-27)
(0.0106239 0.00230434 0)
(0.0106132 0.00783794 4.53673e-28)
(0.0109042 0.0141153 5.68717e-28)
(0.0115562 0.021084 0)
(0.0124648 0.028223 0)
(0.0138529 0.0359904 0)
(0.0158734 0.0445864 0)
(0.0185755 0.0544903 4.86233e-27)
(0.0226066 0.0678388 0)
(0.0275292 0.0836792 6.47985e-27)
(0.0319985 0.0984164 -7.02558e-31)
(0.0349401 0.1097 7.64349e-27)
(0.0350338 0.114792 -1.50138e-26)
(0.0321803 0.11377 -1.8589e-28)
(0.0275623 0.109074 0)
(0.023019 0.104346 -1.38017e-26)
(0.0191949 0.100833 6.94724e-27)
(0.0159905 0.0986618 1.59602e-27)
(0.0130921 0.0972998 2.98051e-27)
(0.0103407 0.0963932 0)
(0.00770379 0.0957707 -3.91409e-32)
(0.00515557 0.095236 -4.88718e-29)
(0.00264642 0.0945623 5.21216e-32)
(0.000201144 0.0936688 -8.59347e-28)
(-0.00211272 0.0925652 4.54388e-28)
(-0.00423418 0.0911448 -6.02259e-27)
(-0.00607985 0.0892876 -3.76157e-27)
(-0.00750446 0.0869831 2.01543e-27)
(-0.00836121 0.0842486 4.34606e-27)
(-0.00844379 0.0810649 -8.93887e-27)
(-0.00765795 0.0773177 5.19038e-27)
(-0.00565553 0.0730279 0)
(-0.00234884 0.0688511 -1.02402e-27)
(0.0107685 0.00231766 0)
(0.0105598 0.00785346 -2.01953e-27)
(0.0106596 0.0140306 5.62099e-28)
(0.0110727 0.020842 -6.49894e-28)
(0.0118345 0.0279088 1.49111e-27)
(0.012946 0.0352982 -1.02978e-27)
(0.0146922 0.0435762 0)
(0.0170824 0.0528331 -2.2596e-27)
(0.0207115 0.0652151 -3.23556e-27)
(0.0255386 0.0808121 1.2295e-26)
(0.0302545 0.0961387 0)
(0.0337708 0.108788 4.13275e-28)
(0.0348828 0.115901 -7.1795e-27)
(0.0329856 0.116558 -7.35834e-27)
(0.0288401 0.112521 -7.12422e-27)
(0.0242441 0.107401 7.42495e-27)
(0.0202821 0.103332 -6.84483e-27)
(0.0170039 0.100734 0)
(0.0140989 0.0991074 3.00144e-27)
(0.0113689 0.0981049 -2.65632e-28)
(0.00868309 0.0974333 6.6575e-27)
(0.00605862 0.0969135 -3.708e-29)
(0.00344817 0.0963474 3.01243e-27)
(0.000833403 0.0955827 0)
(-0.00171678 0.0945845 5.70965e-28)
(-0.00412955 0.0932724 -4.43823e-29)
(-0.00634676 0.0915061 -3.93226e-27)
(-0.00826159 0.0892359 0)
(-0.00969232 0.0864107 2.14128e-27)
(-0.0104656 0.0831142 9.80922e-27)
(-0.0104164 0.0792152 3.37821e-28)
(-0.00932296 0.0746907 4.9444e-27)
(-0.0067689 0.0694901 -3.87887e-28)
(-0.00134879 0.0656967 -1.02478e-27)
(-0.00388365 0.0654069 0)
(0.0111509 0.00232054 1.45789e-28)
(0.0107299 0.00780448 -2.93389e-27)
(0.0106504 0.0139335 -5.45956e-27)
(0.0108256 0.0206152 -6.38258e-28)
(0.0113701 0.0276013 1.53393e-27)
(0.012234 0.0346936 -1.60157e-27)
(0.013681 0.0427033 6.0466e-28)
(0.0157453 0.0514347 -2.09243e-27)
(0.0189096 0.0628363 2.38613e-28)
(0.0234901 0.077939 5.27334e-27)
(0.0283506 0.0936926 -6.38899e-27)
(0.0323231 0.107457 6.9832e-27)
(0.0342747 0.116411 0)
(0.0333906 0.118929 -1.45457e-26)
(0.0299004 0.11589 -1.42752e-26)
(0.0253965 0.110637 -1.0284e-31)
(0.0213077 0.106014 -6.87609e-27)
(0.0179482 0.102875 2.04691e-27)
(0.0150595 0.100962 -6.99411e-27)
(0.0123709 0.0998137 -1.27425e-26)
(0.00972234 0.0990722 7.47967e-27)
(0.00705717 0.0985881 0)
(0.00436043 0.0981403 3.3335e-27)
(0.00161268 0.0975252 -3.31416e-28)
(-0.00114484 0.0966953 0)
(-0.00385449 0.0955421 9.06869e-28)
(-0.00641871 0.093926 -2.33162e-28)
(-0.00875945 0.0917762 4.43476e-27)
(-0.0107609 0.0890093 -5.01537e-27)
(-0.012209 0.0856044 -5.40345e-27)
(-0.0129437 0.0816015 -5.58387e-27)
(-0.0126367 0.0768222 -1.34738e-27)
(-0.0110726 0.0713133 3.77771e-27)
(-0.00656674 0.0659013 2.2806e-27)
(-0.00893675 0.066772 2.27846e-27)
(-0.00143897 0.0632109 -2.34564e-27)
(-0.00414406 0.0630477 -2.03064e-27)
(0.0117334 0.00229034 1.49209e-28)
(0.0111222 0.00771339 4.62557e-28)
(0.0108899 0.0137863 -6.30945e-27)
(0.0108432 0.0203852 -2.43602e-27)
(0.0111401 0.0272508 -1.40735e-27)
(0.0117554 0.0341944 3.03743e-27)
(0.0128677 0.0419593 6.93014e-28)
(0.0145742 0.0502705 -5.26244e-28)
(0.0172722 0.0607314 2.40841e-27)
(0.0214747 0.0751435 -2.46287e-27)
(0.0263376 0.0911157 -6.01909e-27)
(0.0306449 0.105803 2.16891e-28)
(0.0332717 0.11638 -1.51491e-28)
(0.0333477 0.120802 -6.84792e-27)
(0.0306735 0.119106 -7.03303e-27)
(0.0264281 0.113997 -1.38243e-26)
(0.0222677 0.108855 0)
(0.0188248 0.105119 -7.41983e-27)
(0.015953 0.102855 -1.41119e-26)
(0.013319 0.101502 -3.73959e-27)
(0.0107608 0.100688 -2.94748e-26)
(0.00813347 0.100233 -2.85692e-28)
(0.00539215 0.0999086 7.35794e-27)
(0.00253173 0.0994894 0)
(-0.000405089 0.0988504 3.16809e-27)
(-0.0033638 0.0979091 7.87013e-28)
(-0.00627694 0.0965108 -7.01734e-28)
(-0.00902547 0.094537 2.65749e-28)
(-0.0115191 0.0919244 4.62332e-28)
(-0.0136268 0.0886048 -5.78154e-27)
(-0.0151325 0.0844885 -6.35035e-27)
(-0.0157771 0.0795671 -9.11084e-27)
(-0.0137285 0.0734886 -1.63136e-27)
(-0.0155721 0.0750723 1.87374e-28)
(-0.011407 0.0676597 7.0726e-32)
(-0.0147235 0.0724698 -1.17566e-27)
(-0.0137625 0.0687721 1.21147e-27)
(-0.00705425 0.0636414 2.36977e-27)
(-0.00967959 0.0645195 2.36621e-27)
(-0.00145264 0.0605791 0)
(-0.00446183 0.0604595 0)
(0.0124892 0.00223438 4.15429e-27)
(0.0117371 0.00761934 4.73012e-28)
(0.0113209 0.0135952 0)
(0.0111119 0.0201395 -2.85145e-27)
(0.0111721 0.0268752 -2.4084e-27)
(0.0115423 0.0337454 1.07465e-27)
(0.0123142 0.0412922 -1.44772e-27)
(0.013631 0.0493218 -2.75836e-27)
(0.015846 0.0589086 -8.80871e-28)
(0.0195929 0.072463 -2.43637e-27)
(0.0243023 0.0884754 0)
(0.028789 0.103892 -6.44818e-27)
(0.0319599 0.115899 1.79858e-28)
(0.0328773 0.122175 6.701e-27)
(0.0310678 0.122051 -6.51295e-27)
(0.0272797 0.117431 -1.3515e-26)
(0.0231343 0.111848 -6.79542e-27)
(0.0196286 0.107487 -1.36562e-26)
(0.0167645 0.10476 -1.5258e-26)
(0.0142176 0.103161 -4.34941e-27)
(0.0117639 0.102243 -4.23508e-26)
(0.00924532 0.101821 0)
(0.00653473 0.101612 7.63184e-27)
(0.0036203 0.101405 0)
(0.000520661 0.101027 7.54576e-27)
(-0.00266366 0.100337 8.92149e-28)
(-0.00588682 0.0992079 2.17794e-32)
(-0.0090375 0.0974851 7.49789e-28)
(-0.0119979 0.0950934 2.9584e-32)
(-0.014665 0.0919474 -6.18543e-27)
(-0.0169612 0.0879595 5.389e-28)
(-0.018534 0.0829243 -1.41448e-27)
(-0.0174145 0.0765409 6.51551e-27)
(-0.019079 0.0784226 3.17185e-27)
(-0.0168456 0.0737131 3.48425e-28)
(-0.0124259 0.0654727 1.33313e-27)
(-0.0161652 0.070165 -1.31856e-27)
(-0.0149929 0.0666183 1.35431e-27)
(-0.0075731 0.0611267 6.54697e-28)
(-0.0105479 0.062062 -4.69225e-27)
(-0.00154614 0.057731 -2.25859e-27)
(-0.00481275 0.0576182 -6.97728e-31)
(0.0133911 0.00218782 0)
(0.0125118 0.0075016 4.08101e-27)
(0.0119365 0.0133747 3.10676e-27)
(0.0115937 0.0198741 -3.90535e-27)
(0.0114426 0.0264977 3.51387e-27)
(0.0115862 0.0333023 2.95637e-27)
(0.0120563 0.0406749 -1.58376e-27)
(0.0129817 0.0485509 3.07073e-31)
(0.0146829 0.0573272 0)
(0.0179269 0.0699475 -4.0585e-28)
(0.0223449 0.0858353 2.64208e-27)
(0.0268318 0.101787 0)
(0.0304041 0.115032 -4.80072e-31)
(0.0320409 0.123092 -2.15708e-32)
(0.0310617 0.12462 -1.31936e-26)
(0.0278704 0.120844 -6.52983e-27)
(0.0238637 0.11501 -6.50431e-27)
(0.0203193 0.109986 -1.32757e-26)
(0.0174747 0.106691 -6.9165e-27)
(0.0150445 0.10478 -1.59992e-26)
(0.0127235 0.103716 -1.77223e-26)
(0.0103526 0.103294 3.09461e-27)
(0.0077563 0.103222 -4.17087e-27)
(0.00486976 0.103221 0)
(0.00169106 0.103146 4.13211e-27)
(-0.00172319 0.102783 -5.36144e-28)
(-0.00523109 0.10197 1.73415e-27)
(-0.00875149 0.10058 1.06315e-27)
(-0.0122062 0.0984797 2.06897e-27)
(-0.0153849 0.0955918 -9.31127e-28)
(-0.0183145 0.0918013 8.52859e-28)
(-0.0207919 0.0868908 8.57533e-28)
(-0.0206969 0.0801468 -1.72981e-27)
(-0.0221357 0.0823831 0)
(-0.0189603 0.0752422 1.27932e-26)
(-0.0208296 0.0770399 0)
(-0.0184805 0.0717454 -6.95198e-32)
(-0.013477 0.0630743 1.77813e-27)
(-0.0175939 0.0680517 -1.34115e-27)
(-0.0163488 0.0643003 1.81778e-32)
(-0.0081859 0.0583553 3.07338e-27)
(-0.0114392 0.0593673 -2.96296e-27)
(-0.00165866 0.0546462 -9.84826e-65)
(-0.00518576 0.0545249 3.42961e-27)
(0.014402 0.00212962 4.66926e-27)
(0.0134243 0.00731987 4.99301e-28)
(0.0127592 0.0131331 -1.18096e-27)
(0.0122574 0.0195564 3.61998e-27)
(0.0119458 0.0261235 7.02883e-28)
(0.0118621 0.0328695 4.2505e-27)
(0.0120652 0.0401049 2.29514e-27)
(0.0126421 0.0479162 3.46246e-27)
(0.0138466 0.0559843 6.92962e-28)
(0.0164957 0.067648 0)
(0.0205319 0.0832369 2.46256e-27)
(0.0248855 0.0995683 -2.61921e-27)
(0.0286764 0.113851 0)
(0.0308723 0.123553 -6.29623e-27)
(0.0306839 0.126834 3.49682e-32)
(0.028144 0.124131 -1.8803e-28)
(0.0243948 0.118317 7.14124e-29)
(0.0208443 0.112659 -1.26678e-26)
(0.0180369 0.108701 -6.68152e-27)
(0.0157374 0.106366 -1.44178e-26)
(0.0136203 0.105092 -7.79311e-27)
(0.0114219 0.104634 0)
(0.00901211 0.104677 -1.47803e-26)
(0.00622424 0.10492 0)
(0.00306066 0.105144 8.95742e-27)
(-0.00047223 0.105169 0)
(-0.00426631 0.104744 2.11021e-31)
(-0.00815389 0.103745 9.84404e-28)
(-0.0120321 0.102038 2.16654e-27)
(-0.0158362 0.0995111 1.55491e-27)
(-0.0192445 0.0960221 0)
(-0.0226028 0.091321 -1.97259e-27)
(-0.0235223 0.0843793 -1.9165e-27)
(-0.0247511 0.0870111 9.59114e-29)
(-0.0226756 0.0790394 -1.76244e-27)
(-0.0242987 0.0812596 1.5339e-30)
(-0.0207211 0.0735331 6.12231e-27)
(-0.0228515 0.0755367 -8.66796e-29)
(-0.0201605 0.0697556 -5.82957e-28)
(-0.0146306 0.0604417 -6.17733e-31)
(-0.0192028 0.0658405 -1.45038e-27)
(-0.0177868 0.0617577 0)
(-0.00883582 0.0553292 1.48551e-27)
(-0.0123787 0.0564153 -2.17722e-27)
(-0.00178506 0.0513119 1.83158e-27)
(-0.00558047 0.0511727 1.41946e-27)
(0.0154786 0.00203865 0)
(0.0144738 0.0070755 1.01978e-26)
(0.0137464 0.012849 -6.16185e-28)
(0.0131189 0.0191819 1.98372e-35)
(0.0126552 0.0257427 -3.57714e-27)
(0.0123669 0.0324545 -2.99758e-31)
(0.0123075 0.0395959 4.27675e-27)
(0.0125844 0.0473858 -2.25137e-27)
(0.0133234 0.0549363 -1.75602e-27)
(0.0153276 0.0656288 1.19321e-27)
(0.0188917 0.0807269 0)
(0.0230373 0.0973045 -2.62057e-27)
(0.0268811 0.112435 2.80336e-28)
(0.0294585 0.123629 0)
(0.0299419 0.128669 -2.8453e-32)
(0.0280588 0.127271 -1.44389e-28)
(0.0246691 0.121736 -6.12026e-27)
(0.0211673 0.11554 -5.85136e-27)
(0.0183821 0.110836 -6.28775e-27)
(0.0162412 0.107952 -6.92571e-27)
(0.0143613 0.106385 -8.42675e-28)
(0.0124382 0.10581 -8.40779e-27)
(0.0102591 0.105943 -1.80437e-26)
(0.00765879 0.106436 -1.15699e-26)
(0.00457873 0.107005 9.62104e-27)
(0.00102884 0.107437 -1.91734e-26)
(-0.00292982 0.107483 0)
(-0.00722867 0.106934 -9.22172e-28)
(-0.0114814 0.105644 -1.18528e-27)
(-0.0157409 0.103572 0)
(-0.0199305 0.100591 3.58819e-27)
(-0.0239033 0.0964714 1.2815e-28)
(-0.0258841 0.0893343 -4.01122e-27)
(-0.0269315 0.0924857 2.14797e-27)
(-0.0258955 0.0836854 -8.46833e-30)
(-0.0273511 0.0863719 -9.7271e-32)
(-0.0248582 0.0777688 -1.79481e-27)
(-0.0267662 0.0802373 1.1576e-29)
(-0.0226388 0.0717187 5.26555e-28)
(-0.0250123 0.0739375 8.64457e-28)
(-0.0220047 0.0676689 1.31362e-27)
(-0.015865 0.0575522 -2.66353e-27)
(-0.0209165 0.0634163 -9.77406e-28)
(-0.019317 0.0589657 -1.94357e-28)
(-0.00951345 0.0520366 3.71486e-27)
(-0.0133662 0.0531881 -3.25799e-27)
(-0.00191934 0.0477144 -1.40287e-27)
(-0.00598637 0.0475536 -2.9705e-27)
(0.0165525 0.00192504 1.66851e-28)
(0.015582 0.00678943 5.9118e-32)
(0.0148489 0.0125103 8.35699e-27)
(0.0141663 0.0187658 -1.43859e-27)
(0.0135629 0.0253305 3.91592e-27)
(0.0130924 0.0320425 -7.08763e-27)
(0.0127909 0.0391398 2.37015e-31)
(0.0127775 0.046923 5.37064e-27)
(0.0130911 0.0542235 3.38481e-31)
(0.0144468 0.0639366 -1.93576e-27)
(0.0174669 0.0783411 0)
(0.0213515 0.0950479 -2.45756e-27)
(0.0251062 0.110848 3.168e-27)
(0.0279203 0.123383 -3.42199e-28)
(0.0289061 0.130145 -5.75742e-27)
(0.0276079 0.130222 0)
(0.0246258 0.125244 -5.66064e-27)
(0.0212366 0.118651 0)
(0.018465 0.113151 5.79668e-27)
(0.016479 0.109591 0)
(0.0148841 0.107589 -2.01646e-31)
(0.0133065 0.106831 -1.75666e-26)
(0.0114734 0.106971 -9.18475e-27)
(0.00914359 0.107705 -8.91335e-27)
(0.00625083 0.108632 -2.85351e-27)
(0.00276512 0.109557 -1.19085e-30)
(-0.00129169 0.110127 0)
(-0.00582759 0.11009 -3.96766e-27)
(-0.0106044 0.109341 2.91397e-27)
(-0.0153053 0.107791 2.43316e-34)
(-0.0199137 0.105311 -1.7017e-27)
(-0.0247363 0.102061 1.00784e-27)
(-0.0277028 0.0952687 6.71905e-29)
(-0.0287797 0.0992972 -2.13158e-28)
(-0.0286975 0.0893844 -8.58764e-27)
(-0.0299865 0.0929111 1.5723e-33)
(-0.0285769 0.0830306 -1.98819e-27)
(-0.0303107 0.0862559 2.08771e-27)
(-0.0273272 0.0764365 -7.6544e-29)
(-0.0295127 0.0792997 -3.73858e-29)
(-0.0247503 0.0698107 1.18462e-27)
(-0.0274925 0.0722966 0)
(-0.0240067 0.0654101 8.78419e-28)
(-0.0171607 0.054392 2.27855e-27)