/*--------------------------------*- C++ -*----------------------------------*\
  =========                 |
  \\      /  F ield         | OpenFOAM: The Open Source CFD Toolbox
   \\    /   O peration     | Website:  https://openfoam.org
    \\  /    A nd           | Version:  dev
     \\/     M anipulation  |
\*---------------------------------------------------------------------------*/
FoamFile
{
    version     2.0;
    format      ascii;
    class       volScalarField;
    location    "2500";
    object      a;
}
// * * * * * * * * * * * * * * * * * * * * * * * * * * * * * * * * * * * * * //

dimensions      [0 -1 0 0 0 0 0];

internalField   nonuniform List<scalar> 
9840
(
0.100011
0.100011
0.100011
0.100011
0.100011
0.100011
0.100011
0.100011
0.100011
0.100011
0.10001
0.100011
0.100011
0.100011
0.100011
0.10001
0.10001
0.100011
0.100011
0.100011
0.100011
0.10001
0.10001
0.10001
0.100011
0.100011
0.100011
0.100011
0.10001
0.10001
0.10001
0.10001
0.100011
0.100011
0.100011
0.100011
0.100009
0.10001
0.10001
0.10001
0.10001
0.100011
0.100011
0.100011
0.100011
0.100009
0.100009
0.10001
0.10001
0.10001
0.10001
0.100011
0.100011
0.100011
0.100011
0.100009
0.100009
0.100009
0.10001
0.10001
0.10001
0.10001
0.100011
0.100011
0.100011
0.100011
0.100009
0.100009
0.100009
0.100009
0.10001
0.10001
0.10001
0.10001
0.100011
0.100011
0.100011
0.100011
0.100009
0.100009
0.100009
0.100009
0.100009
0.10001
0.10001
0.10001
0.10001
0.100011
0.100011
0.100011
0.100011
0.100008
0.100009
0.100009
0.100009
0.100009
0.100009
0.10001
0.10001
0.10001
0.10001
0.100011
0.100011
0.100011
0.100011
0.100008
0.100008
0.100009
0.100009
0.100009
0.100009
0.100009
0.10001
0.10001
0.10001
0.10001
0.100011
0.100011
0.100011
0.100011
0.100008
0.100008
0.100008
0.100009
0.100009
0.100009
0.100009
0.100009
0.10001
0.10001
0.10001
0.10001
0.100011
0.100011
0.100011
0.100011
0.100008
0.100008
0.100008
0.100008
0.100009
0.100009
0.100009
0.100009
0.100009
0.10001
0.10001
0.10001
0.10001
0.100011
0.100011
0.100011
0.100011
0.100007
0.100008
0.100008
0.100008
0.100008
0.100009
0.100009
0.100009
0.100009
0.100009
0.10001
0.10001
0.10001
0.10001
0.100011
0.100011
0.100011
0.100011
0.100007
0.100007
0.100008
0.100008
0.100008
0.100008
0.100009
0.100009
0.100009
0.100009
0.100009
0.10001
0.10001
0.10001
0.10001
0.100011
0.100011
0.100011
0.100011
0.100007
0.100007
0.100007
0.100008
0.100008
0.100008
0.100008
0.100009
0.100009
0.100009
0.100009
0.100009
0.10001
0.10001
0.10001
0.10001
0.100011
0.100011
0.100011
0.100011
0.100007
0.100007
0.100007
0.100007
0.100008
0.100008
0.100008
0.100008
0.100009
0.100009
0.100009
0.100009
0.100009
0.10001
0.10001
0.10001
0.10001
0.100011
0.100011
0.100011
0.100011
0.100006
0.100007
0.100007
0.100007
0.100007
0.100008
0.100008
0.100008
0.100008
0.100009
0.100009
0.100009
0.100009
0.100009
0.10001
0.10001
0.10001
0.10001
0.100011
0.100011
0.100011
0.100011
0.100006
0.100006
0.100007
0.100007
0.100007
0.100007
0.100008
0.100008
0.100008
0.100008
0.100009
0.100009
0.100009
0.100009
0.100009
0.10001
0.10001
0.10001
0.10001
0.100011
0.100011
0.100011
0.100011
0.100006
0.100006
0.100006
0.100007
0.100007
0.100007
0.100007
0.100008
0.100008
0.100008
0.100008
0.100009
0.100009
0.100009
0.100009
0.100009
0.10001
0.10001
0.10001
0.10001
0.100011
0.100011
0.100011
0.100011
0.100006
0.100006
0.100006
0.100006
0.100007
0.100007
0.100007
0.100007
0.100008
0.100008
0.100008
0.100008
0.100009
0.100009
0.100009
0.100009
0.100009
0.10001
0.10001
0.10001
0.10001
0.100011
0.100011
0.100011
0.100011
0.100006
0.100006
0.100006
0.100006
0.100006
0.100007
0.100007
0.100007
0.100007
0.100008
0.100008
0.100008
0.100008
0.100009
0.100009
0.100009
0.100009
0.100009
0.10001
0.10001
0.10001
0.10001
0.100011
0.100011
0.100011
0.100011
0.100005
0.100006
0.100006
0.100006
0.100006
0.100006
0.100007
0.100007
0.100007
0.100007
0.100008
0.100008
0.100008
0.100008
0.100009
0.100009
0.100009
0.100009
0.100009
0.10001
0.10001
0.10001
0.10001
0.100011
0.100011
0.100011
0.100011
0.100005
0.100005
0.100006
0.100006
0.100006
0.100006
0.100006
0.100007
0.100007
0.100007
0.100007
0.100008
0.100008
0.100008
0.100008
0.100009
0.100009
0.100009
0.100009
0.100009
0.10001
0.10001
0.10001
0.10001
0.100011
0.100011
0.100011
0.100011
0.100005
0.100005
0.100005
0.100006
0.100006
0.100006
0.100006
0.100006
0.100007
0.100007
0.100007
0.100007
0.100008
0.100008
0.100008
0.100008
0.100009
0.100009
0.100009
0.100009
0.100009
0.10001
0.10001
0.10001
0.10001
0.100011
0.100011
0.100011
0.100011
0.100005
0.100005
0.100005
0.100005
0.100006
0.100006
0.100006
0.100006
0.100006
0.100007
0.100007
0.100007
0.100007
0.100008
0.100008
0.100008
0.100008
0.100009
0.100009
0.100009
0.100009
0.100009
0.10001
0.10001
0.10001
0.10001
0.100011
0.100011
0.100011
0.100011
0.100004
0.100005
0.100005
0.100005
0.100005
0.100006
0.100006
0.100006
0.100006
0.100006
0.100007
0.100007
0.100007
0.100007
0.100008
0.100008
0.100008
0.100008
0.100009
0.100009
0.100009
0.100009
0.100009
0.10001
0.10001
0.10001
0.10001
0.100011
0.100011
0.100011
0.100011
0.100004
0.100004
0.100005
0.100005
0.100005
0.100005
0.100006
0.100006
0.100006
0.100006
0.100006
0.100007
0.100007
0.100007
0.100007
0.100008
0.100008
0.100008
0.100008
0.100009
0.100009
0.100009
0.100009
0.100009
0.10001
0.10001
0.10001
0.10001
0.100011
0.100011
0.100011
0.100011
0.100004
0.100004
0.100004
0.100005
0.100005
0.100005
0.100005
0.100006
0.100006
0.100006
0.100006
0.100006
0.100007
0.100007
0.100007
0.100007
0.100008
0.100008
0.100008
0.100008
0.100009
0.100009
0.100009
0.100009
0.100009
0.10001
0.10001
0.10001
0.10001
0.100011
0.100011
0.100011
0.100011
0.100004
0.100004
0.100004
0.100004
0.100005
0.100005
0.100005
0.100005
0.100006
0.100006
0.100006
0.100006
0.100006
0.100007
0.100007
0.100007
0.100007
0.100008
0.100008
0.100008
0.100008
0.100009
0.100009
0.100009
0.100009
0.100009
0.10001
0.10001
0.10001
0.10001
0.100011
0.100011
0.100011
0.100011
0.100011
0.100004
0.100004
0.100004
0.100004
0.100004
0.100005
0.100005
0.100005
0.100005
0.100006
0.100006
0.100006
0.100006
0.100006
0.100007
0.100007
0.100007
0.100007
0.100008
0.100008
0.100008
0.100008
0.100009
0.100009
0.100009
0.100009
0.100009
0.10001
0.10001
0.10001
0.10001
0.100011
0.100011
0.100011
0.100011
0.100011
0.100011
0.100003
0.100004
0.100004
0.100004
0.100004
0.100004
0.100005
0.100005
0.100005
0.100005
0.100006
0.100006
0.100006
0.100006
0.100006
0.100007
0.100007
0.100007
0.100007
0.100008
0.100008
0.100008
0.100008
0.100009
0.100009
0.10001
0.10001
0.10001
0.10001
0.10001
0.10001
0.10001
0.100011
0.10001
0.100011
0.100011
0.100011
0.100011
0.100011
0.100011
0.100011
0.100003
0.100003
0.100004
0.100004
0.100004
0.100004
0.100004
0.100005
0.100005
0.100005
0.100005
0.100006
0.100006
0.100006
0.100006
0.100006
0.100007
0.100007
0.100007
0.100007
0.100008
0.100008
0.100009
0.10001
0.100013
0.100016
0.100018
0.100018
0.100016
0.100013
0.100011
0.10001
0.10001
0.10001
0.10001
0.100011
0.100011
0.100011
0.100011
0.100011
0.100011
0.100011
0.100003
0.100003
0.100003
0.100004
0.100004
0.100004
0.100004
0.100004
0.100005
0.100005
0.100005
0.100005
0.100006
0.100006
0.100006
0.100006
0.100006
0.100007
0.100007
0.100007
0.100007
0.100008
0.100011
0.100016
0.100031
0.100055
0.100079
0.100087
0.100077
0.100054
0.10003
0.100015
0.10001
0.100011
0.10001
0.10001
0.100011
0.100011
0.100011
0.100011
0.100011
0.100011
0.100011
0.100011
0.100003
0.100003
0.100003
0.100003
0.100004
0.100004
0.100004
0.100004
0.100004
0.100005
0.100005
0.100005
0.100005
0.100006
0.100006
0.100006
0.100006
0.100006
0.100007
0.100007
0.100007
0.100009
0.100017
0.100036
0.100104
0.100251
0.10044
0.100575
0.100567
0.100449
0.100257
0.10009
0.100013
0.100023
0.100011
0.100012
0.10001
0.100011
0.100011
0.100011
0.100011
0.100011
0.100011
0.100011
0.100011
0.100011
0.100002
0.100003
0.100003
0.100003
0.100003
0.100004
0.100004
0.100004
0.100004
0.100004
0.100005
0.100005
0.100005
0.100005
0.100006
0.100006
0.100006
0.100006
0.100006
0.100007
0.100007
0.10001
0.100027
0.100084
0.10033
0.100975
0.102055
0.103174
0.103735
0.103355
0.102365
0.101035
0.100062
0.10022
0.100019
0.100045
0.100012
0.100018
0.100011
0.100012
0.100011
0.100011
0.100011
0.100011
0.100011
0.100011
0.100011
0.100011
0.100002
0.100002
0.100003
0.100003
0.100003
0.100003
0.100004
0.100004
0.100004
0.100004
0.100004
0.100005
0.100005
0.100005
0.100005
0.100006
0.100006
0.100006
0.100006
0.100006
0.100007
0.100009
0.100032
0.100148
0.100761
0.102797
0.10703
0.112477
0.116961
0.117927
0.114778
0.109602
0.10083
0.103078
0.100145
0.100524
0.10004
0.100122
0.100017
0.100036
0.100012
0.100016
0.100012
0.100011
0.100012
0.100012
0.100011
0.100011
0.100011
0.100011
0.100002
0.100002
0.100002
0.100003
0.100003
0.100003
0.100003
0.100004
0.100004
0.100004
0.100004
0.100004
0.100005
0.100005
0.100005
0.100005
0.100006
0.100006
0.100006
0.100006
0.100007
0.100009
0.100041
0.100224
0.101305
0.105375
0.115553
0.132486
0.147901
0.156302
0.153788
0.141008
0.110732
0.131911
0.101913
0.107094
0.100423
0.101477
0.10011
0.100376
0.100035
0.100107
0.100016
0.100035
0.100016
0.100011
0.100015
0.100015
0.100011
0.100011
0.100011
0.100011
0.100002
0.100002
0.100002
0.100002
0.100003
0.100003
0.100003
0.100003
0.100004
0.100004
0.100004
0.100004
0.100004
0.100005
0.100005
0.100005
0.100005
0.100006
0.100006
0.100006
0.100006
0.100009
0.100034
0.100247
0.101786
0.108041
0.124594
0.151573
0.181995
0.202016
0.212352
0.205144
0.156763
0.189519
0.122229
0.148714
0.10523
0.116528
0.101274
0.10431
0.100372
0.101257
0.100114
0.100413
0.100037
0.100128
0.100038
0.100014
0.100037
0.100034
0.100011
0.100013
0.100011
0.100011
0.100001
0.100002
0.100002
0.100002
0.100002
0.100003
0.100003
0.100003
0.100003
0.100004
0.100004
0.100004
0.100004
0.100004
0.100005
0.100005
0.100005
0.100005
0.100006
0.100006
0.100006
0.100008
0.100036
0.100252
0.101988
0.110205
0.132072
0.168485
0.203437
0.227166
0.24527
0.256455
0.217371
0.249065
0.178251
0.209505
0.140403
0.169032
0.113454
0.134764
0.104111
0.112539
0.101422
0.104597
0.100503
0.101803
0.10015
0.100641
0.100168
0.100027
0.100172
0.100153
0.100012
0.10002
0.100011
0.100011
0.100001
0.100001
0.100002
0.100002
0.100002
0.100002
0.100003
0.100003
0.100003
0.100003
0.100004
0.100004
0.100004
0.100004
0.100004
0.100005
0.100005
0.100005
0.100005
0.100006
0.100006
0.100007
0.100031
0.100229
0.101963
0.110896
0.137552
0.178432
0.206488
0.227595
0.248128
0.267618
0.269027
0.281512
0.240595
0.267301
0.200262
0.232363
0.16258
0.193409
0.132496
0.159952
0.113561
0.134079
0.105835
0.116515
0.102425
0.107925
0.100812
0.103249
0.100945
0.100113
0.100988
0.100881
0.100015
0.100068
0.100011
0.100013
0.100001
0.100001
0.100001
0.100002
0.100002
0.100002
0.100002
0.100003
0.100003
0.100003
0.100003
0.100004
0.100004
0.100004
0.100004
0.100004
0.100005
0.100005
0.100005
0.100005
0.100006
0.100006
0.100022
0.100183
0.101818
0.110675
0.138988
0.180047
0.200638
0.217095
0.236246
0.258921
0.285898
0.285283
0.293472
0.262378
0.286376
0.225817
0.257539
0.190788
0.223309
0.161959
0.193437
0.139837
0.16946
0.121881
0.149629
0.110863
0.129609
0.104147
0.11429
0.104798
0.100646
0.105002
0.104529
0.100035
0.10037
0.100012
0.100019
0.100001
0.100001
0.100001
0.100001
0.100002
0.100002
0.100002
0.100002
0.100003
0.100003
0.100003
0.100003
0.100004
0.100004
0.100004
0.100004
0.100005
0.100005
0.100005
0.100005
0.100005
0.100006
0.100016
0.100137
0.101471
0.110068
0.138407
0.179109
0.193677
0.198034
0.202479
0.233044
0.264015
0.302657
0.292057
0.300472
0.304307
0.285311
0.305691
0.255799
0.285665
0.226552
0.259562
0.202282
0.236555
0.182812
0.218102
0.163318
0.201372
0.13915
0.179959
0.117588
0.149079
0.119814
0.103449
0.120349
0.118576
0.100156
0.102062
0.100012
0.100051
0.100001
0.100001
0.100001
0.100001
0.100001
0.100002
0.100002
0.100002
0.100002
0.100003
0.100003
0.100003
0.100003
0.100004
0.100004
0.100004
0.100005
0.100005
0.100005
0.100005
0.100006
0.100006
0.100011
0.100104
0.101078
0.108578
0.136566
0.17763
0.189592
0.184272
0.164104
0.189654
0.236366
0.279164
0.266158
0.31351
0.301603
0.315804
0.317099
0.310042
0.326254
0.290484
0.317059
0.270397
0.30197
0.254008
0.289075
0.240708
0.279155
0.224402
0.268598
0.198499
0.250135
0.157519
0.21677
0.162775
0.114639
0.163179
0.157905
0.100863
0.109339
0.100018
0.100231
0.1
0.100001
0.100001
0.100001
0.100001
0.100001
0.100002
0.100002
0.100002
0.100002
0.100003
0.100003
0.100004
0.100004
0.100004
0.100005
0.100006
0.100006
0.100006
0.100006
0.100006
0.100006
0.100009
0.100077
0.100759
0.106768
0.132526
0.17587
0.18779
0.178115
0.143712
0.143552
0.199009
0.263394
0.25962
0.289096
0.284039
0.326491
0.314125
0.332513
0.332136
0.337095
0.348659
0.329621
0.351702
0.321366
0.349512
0.315715
0.349049
0.310985
0.349861
0.300553
0.347465
0.27678
0.333943
0.232131
0.301398
0.242523
0.147652
0.245157
0.236596
0.104117
0.132282
0.100045
0.101055
0.1
0.1
0.100001
0.100001
0.100001
0.100001
0.100001
0.100002
0.100002
0.100002
0.100003
0.100004
0.100005
0.100005
0.100006
0.100007
0.10001
0.100009
0.100008
0.100008
0.100008
0.100008
0.100008
0.100051
0.100531
0.105173
0.12777
0.172974
0.187039
0.177312
0.139305
0.11853
0.143148
0.254808
0.285071
0.292795
0.30593
0.305017
0.341939
0.331618
0.351502
0.349795
0.366622
0.373304
0.372478
0.38906
0.377549
0.400634
0.38447
0.413626
0.390097
0.426301
0.386909
0.434107
0.366396
0.425548
0.321138
0.394245
0.333425
0.21608
0.33662
0.328223
0.115819
0.183686
0.10013
0.104224
0.1
0.1
0.100001
0.100001
0.100001
0.100001
0.100001
0.100002
0.100002
0.100004
0.100005
0.100008
0.10001
0.100012
0.100013
0.100016
0.100018
0.100016
0.100015
0.100014
0.100013
0.100011
0.100034
0.100376
0.103909
0.123155
0.168549
0.186856
0.1784
0.140758
0.112419
0.112851
0.163465
0.306489
0.2683
0.308869
0.310379
0.327376
0.328162
0.360949
0.353446
0.373548
0.370254
0.398315
0.400428
0.417683
0.427902
0.436365
0.452813
0.456555
0.478797
0.473031
0.501033
0.478143
0.513483
0.461881
0.515546
0.415875
0.489331
0.428475
0.306609
0.431608
0.421726
0.147222
0.265871
0.100431
0.113824
0.1
0.1
0.100001
0.100001
0.100001
0.100001
0.100002
0.100003
0.100005
0.10001
0.100016
0.100022
0.100027
0.100031
0.100035
0.10004
0.100037
0.100035
0.10003
0.100026
0.100019
0.100028
0.100262
0.102924
0.119012
0.162709
0.186796
0.18124
0.146512
0.113139
0.104377
0.113201
0.211362
0.147038
0.314918
0.264704
0.332543
0.331796
0.351558
0.353077
0.383939
0.378167
0.398946
0.392814
0.431293
0.430471
0.462666
0.466009
0.492911
0.500637
0.515254
0.522528
0.528508
0.53377
0.537787
0.542586
0.540652
0.552239
0.510598
0.559848
0.51942
0.397215
0.521711
0.516106
0.461061
0.207057
0.354558
0.101177
0.132666
0.1
0.1
0.100001
0.100001
0.100001
0.100002
0.100004
0.100009
0.10002
0.100036
0.100054
0.10007
0.10008
0.100085
0.100088
0.10009
0.100088
0.10007
0.100057
0.10004
0.100032
0.100176
0.10215
0.115488
0.156306
0.186634
0.184547
0.154586
0.117357
0.103756
0.102261
0.110902
0.194689
0.14314
0.314631
0.249614
0.353076
0.343268
0.376627
0.374295
0.409053
0.403252
0.426255
0.417069
0.465332
0.461341
0.502016
0.500044
0.524765
0.523819
0.534153
0.533223
0.540282
0.53466
0.549163
0.535352
0.56564
0.549727
0.573506
0.574112
0.57718
0.556437
0.583832
0.50525
0.430942
0.495337
0.554955
0.589078
0.584081
0.553371
0.228053
0.307489
0.476537
0.457744
0.382868
0.104898
0.268079
0.137771
0.20874
0.1
0.1
0.100001
0.100001
0.100002
0.100005
0.100016
0.100042
0.100082
0.100133
0.100178
0.100207
0.100217
0.100213
0.10021
0.100208
0.100167
0.100133
0.100092
0.10006
0.100123
0.101536
0.112491
0.149909
0.185915
0.187289
0.161746
0.124418
0.105142
0.100938
0.101327
0.113003
0.102514
0.181987
0.134504
0.295383
0.22393
0.365196
0.344155
0.395749
0.384094
0.429649
0.416326
0.45204
0.441376
0.494288
0.483174
0.520772
0.513921
0.531407
0.527643
0.526291
0.519305
0.510051
0.488928
0.532551
0.509666
0.489231
0.467398
0.563339
0.539368
0.498725
0.475204
0.511488
0.577028
0.58913
0.583038
0.563559
0.594814
0.546181
0.534552
0.58774
0.604307
0.599811
0.585597
0.353478
0.519253
0.501747
0.432511
0.20078
0.162971
0.318761
0.27318
0.1
0.1
0.100001
0.100002
0.100008
0.10003
0.100083
0.100183
0.100312
0.10044
0.100524
0.100551
0.100531
0.100493
0.100466
0.100397
0.100302
0.100216
0.100137
0.100119
0.101048
0.109856
0.143828
0.184327
0.189367
0.167987
0.13143
0.107621
0.101119
0.100243
0.100313
0.106575
0.101706
0.160527
0.12272
0.260757
0.19039
0.36457
0.325152
0.401507
0.380839
0.43613
0.417456
0.469159
0.453107
0.503248
0.489186
0.521561
0.512443
0.514324
0.509821
0.477071
0.473131
0.452285
0.438541
0.431263
0.426488
0.468392
0.442094
0.42055
0.536831
0.501791
0.443777
0.421265
0.462337
0.565417
0.589546
0.569293
0.53492
0.595379
0.580371
0.571394
0.607328
0.601585
0.608027
0.608382
0.407723
0.558909
0.544961
0.483022
0.400438
0.233349
0.321016
0.41825
0.38455
0.370304
0.1
0.1
0.100002
0.100013
0.10005
0.100161
0.100375
0.100702
0.101035
0.101282
0.101371
0.101324
0.101195
0.101056
0.100884
0.100679
0.100504
0.100323
0.10017
0.100628
0.10734
0.138091
0.182013
0.19085
0.173256
0.138031
0.110294
0.101703
0.100194
0.100066
0.100244
0.100048
0.103607
0.100875
0.13857
0.112832
0.218619
0.157549
0.344285
0.287875
0.392779
0.356687
0.429401
0.400826
0.4721
0.452476
0.499153
0.481568
0.503277
0.49242
0.473099
0.471815
0.425611
0.426584
0.428732
0.43127
0.405135
0.394787
0.390638
0.389677
0.412962
0.386802
0.368095
0.495528
0.449899
0.383412
0.356443
0.401689
0.535881
0.574456
0.539783
0.492403
0.581587
0.606994
0.602602
0.614216
0.590453
0.600842
0.619799
0.465645
0.594454
0.583576
0.530802
0.455396
0.480723
0.195053
0.409046
0.455593
0.1
0.100003
0.100018
0.100085
0.100281
0.100738
0.101451
0.102312
0.102996
0.103314
0.103255
0.102922
0.102481
0.102014
0.101588
0.101159
0.100748
0.100344
0.100486
0.105113
0.132501
0.178928
0.191788
0.177708
0.144116
0.113317
0.102425
0.100272
0.100031
0.100015
0.100102
0.100046
0.10174
0.100416
0.121506
0.106577
0.176954
0.132516
0.305424
0.240955
0.363634
0.315352
0.402934
0.365035
0.459829
0.433936
0.475977
0.453819
0.465671
0.451614
0.433101
0.433688
0.432745
0.428539
0.391935
0.39504
0.398797
0.401378
0.357175
0.353203
0.353157
0.355973
0.352066
0.330288
0.319316
0.441107
0.385953
0.319363
0.290617
0.333521
0.493507
0.54651
0.49907
0.43754
0.556103
0.623191
0.624371
0.612208
0.568561
0.583719
0.622722
0.518722
0.622462
0.616128
0.571671
0.512578
0.511959
0.504099
0.134364
0.343789
0.100003
0.100025
0.100129
0.10048
0.101293
0.102818
0.10472
0.106496
0.107674
0.107895
0.107162
0.105982
0.104712
0.103698
0.102571
0.101715
0.100773
0.100526
0.103249
0.126962
0.17499
0.192235
0.181491
0.149654
0.116785
0.103365
0.100415
0.100039
0.100009
0.100012
0.100007
0.100054
0.100023
0.100826
0.100188
0.111095
0.103237
0.145659
0.117454
0.256527
0.194927
0.318886
0.265524
0.357577
0.314816
0.426359
0.394509
0.429921
0.401682
0.403887
0.379789
0.40262
0.402134
0.400014
0.397054
0.359944
0.363643
0.36602
0.366302
0.316074
0.316407
0.319627
0.323467
0.294465
0.28353
0.280641
0.376656
0.317574
0.262441
0.235502
0.26842
0.440487
0.508604
0.449439
0.375064
0.522082
0.631549
0.637285
0.600756
0.539381
0.560368
0.618154
0.560668
0.640979
0.641167
0.606369
0.55317
0.545571
0.503815
0.140342
0.367606
0.100033
0.100198
0.100727
0.10216
0.104839
0.10872
0.112657
0.115734
0.116504
0.115292
0.112872
0.110246
0.107983
0.105858
0.104088
0.101754
0.100791
0.1024
0.121329
0.170065
0.19229
0.184778
0.154792
0.121037
0.104603
0.100634
0.100064
0.10001
0.100007
0.100008
0.100007
0.100028
0.100013
0.100321
0.100072
0.105434
0.101398
0.125219
0.108061
0.209538
0.159536
0.267126
0.217627
0.295191
0.254256
0.368864
0.333378
0.349884
0.317227
0.332132
0.318799
0.28882
0.304561
0.364628
0.360496
0.35376
0.344367
0.326426
0.327072
0.326129
0.32218
0.280845
0.283419
0.286229
0.287027
0.25091
0.24756
0.247176
0.310207
0.254564
0.22186
0.197581
0.215347
0.381901
0.463749
0.396221
0.312423
0.483164
0.634093
0.645718
0.584049
0.507082
0.535293
0.608658
0.595705
0.653204
0.658109
0.636346
0.584164
0.569488
0.52842
0.31364
0.494873
0.100255
0.101079
0.103212
0.107712
0.114204
0.121544
0.126854
0.12875
0.12715
0.123286
0.118646
0.114501
0.110968
0.108347
0.104045
0.101548
0.102111
0.11581
0.163964
0.192104
0.187675
0.159821
0.126024
0.106282
0.100967
0.100112
0.100014
0.100007
0.100007
0.100006
0.100007
0.100007
0.100015
0.100009
0.100107
0.100031
0.102064
0.100476
0.110235
0.10265
0.17046
0.132005
0.211988
0.169841
0.215486
0.182015
0.282667
0.248596
0.272667
0.254624
0.212506
0.272115
0.258815
0.234392
0.246219
0.315947
0.307485
0.297018
0.28513
0.286378
0.282958
0.277375
0.269694
0.248097
0.248703
0.2483
0.245702
0.217208
0.215718
0.2151
0.250135
0.203439
0.190629
0.170025
0.179168
0.324716
0.417376
0.346449
0.25703
0.444595
0.631836
0.6508
0.566409
0.476906
0.513513
0.598507
0.625932
0.662762
0.670297
0.658575
0.610839
0.597955
0.585571
0.481967
0.583521
0.101428
0.104526
0.110962
0.121003
0.131807
0.140255
0.143895
0.142669
0.137422
0.130378
0.12345
0.117793
0.113881
0.108577
0.103372
0.102165
0.111286
0.156585
0.191442
0.190235
0.164779
0.131784
0.108576
0.101475
0.100194
0.100023
0.100007
0.100006
0.100007
0.100006
0.100007
0.100007
0.100011
0.100008
0.100037
0.100018
0.100614
0.100142
0.102824
0.100695
0.132639
0.110573
0.149826
0.123755
0.151219
0.133568
0.18881
0.171611
0.22394
0.216871
0.19262
0.185809
0.225508
0.219664
0.208936
0.214122
0.260642
0.25071
0.241178
0.232854
0.241566
0.236285
0.230808
0.226168
0.214492
0.213297
0.211706
0.210227
0.188088
0.187294
0.187442
0.20226
0.169746
0.16763
0.156164
0.158448
0.276825
0.376278
0.307676
0.217011
0.412926
0.628761
0.653701
0.552624
0.454736
0.500152
0.591826
0.650586
0.670542
0.680199
0.6739
0.636025
0.626391
0.623951
0.331008
0.5563
0.105817
0.114453
0.127852
0.142727
0.154579
0.161057
0.160904
0.155138
0.145672
0.135452
0.126809
0.12076
0.114455
0.107562
0.102832
0.108421
0.147881
0.189927
0.192433
0.169674
0.137913
0.111889
0.102269
0.100326
0.100042
0.100008
0.100006
0.100006
0.100006
0.100007
0.100006
0.100007
0.100007
0.100009
0.100008
0.100021
0.100013
0.100178
0.100053
0.100816
0.100284
0.108857
0.10267
0.118169
0.108714
0.150111
0.135054
0.17774
0.170754
0.167283
0.203846
0.198827
0.225153
0.219634
0.222654
0.225452
0.229591
0.228013
0.223081
0.221206
0.220804
0.221401
0.209991
0.210863
0.214251
0.219225
0.188214
0.190958
0.195559
0.202016
0.167745
0.170582
0.176527
0.17499
0.159217
0.157398
0.155844
0.155159
0.245973
0.347547
0.286701
0.199185
0.394233
0.627819
0.656983
0.546987
0.4457
0.498972
0.591611
0.670297
0.677765
0.689629
0.685837
0.658924
0.646848
0.630499
0.16586
0.460485
0.117771
0.13432
0.153107
0.168906
0.178599
0.180719
0.17534
0.164329
0.150876
0.138275
0.128759
0.12101
0.113271
0.104877
0.107304
0.139141
0.187144
0.194305
0.174523
0.14412
0.116997
0.103575
0.100549
0.100073
0.100012
0.100006
0.100006
0.100006
0.100006
0.100007
0.100006
0.100007
0.100007
0.100009
0.100008
0.100018
0.100011
0.1001
0.100039
0.100608
0.100278
0.103694
0.101451
0.120947
0.111874
0.223061
0.206869
0.197384
0.2114
0.200029
0.240119
0.258169
0.229963
0.228344
0.304362
0.297378
0.274448
0.28662
0.304116
0.296623
0.226993
0.236846
0.24842
0.261448
0.211224
0.223295
0.238604
0.256477
0.184835
0.195943
0.209611
0.226783
0.163974
0.173378
0.185724
0.17161
0.16172
0.161702
0.164684
0.159939
0.237343
0.336928
0.286852
0.201629
0.392559
0.631033
0.66239
0.550679
0.450604
0.509787
0.598587
0.685472
0.685478
0.698472
0.695765
0.676498
0.660823
0.607993
0.165978
0.441182
0.140299
0.162155
0.182032
0.195163
0.200134
0.196386
0.185104
0.169011
0.151973
0.138481
0.128508
0.11972
0.109568
0.10733
0.131195
0.182625
0.195766
0.179359
0.150573
0.123562
0.105812
0.100947
0.10013
0.100019
0.100007
0.100006
0.100006
0.100006
0.100006
0.100006
0.100007
0.100006
0.100007
0.100007
0.100008
0.100007
0.100019
0.100011
0.100103
0.100041
0.100962
0.100429
0.10582
0.102505
0.163088
0.135335
0.285383
0.25956
0.289333
0.259292
0.286516
0.273164
0.309201
0.331115
0.307138
0.307273
0.394002
0.383098
0.360292
0.376977
0.398086
0.389887
0.276559
0.297962
0.319751
0.340781
0.247226
0.270178
0.295309
0.321603
0.201887
0.223113
0.248682
0.276778
0.17329
0.190081
0.21318
0.180034
0.174668
0.177801
0.190766
0.176658
0.245647
0.343475
0.303096
0.216535
0.406596
0.639395
0.672208
0.566985
0.474186
0.54272
0.61719
0.696681
0.694988
0.706653
0.704319
0.687736
0.664274
0.587188
0.29775
0.496537
0.170394
0.192639
0.209667
0.217303
0.215635
0.20565
0.188515
0.168372
0.150802
0.137399
0.126834
0.115662
0.108165
0.124724
0.176318
0.196624
0.184172
0.157364
0.130743
0.109952
0.101694
0.100238
0.100032
0.100008
0.100006
0.100006
0.100006
0.100006
0.100006
0.100006
0.100007
0.100006
0.100007
0.100007
0.100008
0.100007
0.100023
0.100012
0.100169
0.100062
0.102201
0.100655
0.116357
0.106421
0.233695
0.204534
0.177925
0.341092
0.315397
0.318358
0.291763
0.36831
0.350906
0.366133
0.390166
0.400626
0.399785
0.467849
0.452304
0.446235
0.463192
0.481391
0.475572
0.348744
0.375718
0.40152
0.42548
0.304987
0.332949
0.362368
0.39159
0.241997
0.274771
0.308275
0.341035
0.200054
0.229206
0.265315
0.205688
0.205896
0.215908
0.242816
0.217626
0.273377
0.370545
0.344202
0.25919
0.446304
0.656946
0.68589
0.601021
0.52294
0.58761
0.645794
0.705069
0.704633
0.714861
0.711969
0.694244
0.65327
0.568393
0.175297
0.381251
0.201781
0.220358
0.230262
0.230502
0.222948
0.20728
0.186307
0.165293
0.147739
0.134616
0.122342
0.110735
0.1205
0.168826
0.196695
0.188854
0.164456
0.138596
0.116574
0.103133
0.100451
0.100058
0.10001
0.100006
0.100006
0.100006
0.100006
0.100006
0.100006
0.100006
0.100007
0.100006
0.100007
0.100007
0.100009
0.100008
0.100031
0.100013
0.100278
0.100094
0.104192
0.101263
0.135347
0.113208
0.264086
0.234493
0.188208
0.22226
0.368704
0.343739
0.325503
0.301111
0.433387
0.412818
0.393972
0.419748
0.481976
0.478545
0.518687
0.49732
0.515623
0.531163
0.545023
0.54165
0.420222
0.44773
0.473104
0.496006
0.371947
0.402042
0.432484
0.461479
0.303626
0.341957
0.378843
0.413591
0.251736
0.292103
0.335659
0.257524
0.264301
0.278076
0.314568
0.282704
0.325249
0.423588
0.406774
0.318818
0.505963
0.67746
0.699631
0.637663
0.577566
0.632904
0.671782
0.711091
0.714987
0.722074
0.718236
0.695621
0.642556
0.532918
0.108035
0.229735
0.228162
0.237645
0.23966
0.234967
0.222753
0.203378
0.180504
0.159341
0.143109
0.129314
0.115064
0.11932
0.160857
0.196201
0.19326
0.171727
0.147051
0.124588
0.105981
0.100878
0.100112
0.100016
0.100006
0.100005
0.100006
0.100006
0.100006
0.100006
0.100006
0.100006
0.100006
0.100007
0.100006
0.100007
0.100007
0.100009
0.100008
0.100041
0.100015
0.100399
0.100148
0.105577
0.101594
0.153258
0.118541
0.275511
0.248893
0.194998
0.222643
0.372842
0.349147
0.318068
0.296703
0.473073
0.44662
0.397666
0.424269
0.543736
0.534604
0.549666
0.520404
0.57397
0.585847
0.592229
0.591967
0.489063
0.514766
0.537734
0.557629
0.445055
0.475218
0.504693
0.531842
0.378672
0.420075
0.458311
0.493
0.321725
0.369455
0.419053
0.319474
0.332055
0.356856
0.401875
0.3598
0.401411
0.49634
0.49383
0.402691
0.57337
0.696233
0.714151
0.669722
0.631735
0.669295
0.696124
0.715651
0.723222
0.72827
0.723591
0.694065
0.628877
0.462669
0.102997
0.170272
0.240792
0.243703
0.241557
0.232923
0.216547
0.19471
0.171513
0.152363
0.136623
0.120371
0.119474
0.152904
0.194526
0.197215
0.179023
0.155959
0.133686
0.111715
0.101742
0.100224
0.100027
0.100007
0.100005
0.100005
0.100006
0.100006
0.100006
0.100006
0.100006
0.100006
0.100006
0.100007
0.100006
0.100007
0.100007
0.10001
0.100008
0.100056
0.100019
0.100491
0.10019
0.105444
0.101606
0.167985
0.140189
0.117903
0.273689
0.248822
0.191106
0.21452
0.359438
0.338554
0.294972
0.277672
0.487083
0.454021
0.382721
0.411093
0.587611
0.572036
0.569376
0.53062
0.627574
0.635119
0.63374
0.636563
0.556931
0.57951
0.599101
0.615199
0.523533
0.552113
0.579144
0.603077
0.465626
0.508111
0.545479
0.578154
0.40757
0.4625
0.51701
0.420276
0.454091
0.454629
0.549848
0.497318
0.496485
0.573151
0.577555
0.51573
0.632604
0.710461
0.720843
0.69439
0.667395
0.692704
0.704633
0.71819
0.728914
0.733007
0.727848
0.691055
0.604851
0.394677
0.100466
0.121061
0.244212
0.243848
0.237188
0.224461
0.205542
0.183082
0.161892
0.144212
0.126413
0.12045
0.145793
0.19138
0.200505
0.186163
0.165138
0.143571
0.120398
0.103481
0.100459
0.100054
0.100009
0.100005
0.100005
0.100005
0.100006
0.100006
0.100006
0.100006
0.100006
0.100006
0.100006
0.100007
0.100006
0.100007
0.100007
0.100011
0.100008
0.100068
0.100022
0.100522
0.100192
0.103624
0.101307
0.156708
0.138172
0.10833
0.117796
0.25855
0.23736
0.176721
0.196771
0.328395
0.311233
0.261239
0.248183
0.487092
0.44541
0.349733
0.380188
0.621554
0.599657
0.586477
0.53774
0.677856
0.680569
0.6711
0.679602
0.624386
0.64269
0.658075
0.669771
0.606289
0.631786
0.655246
0.67479
0.564338
0.603658
0.636815
0.664521
0.512105
0.570504
0.625008
0.549146
0.58669
0.603287
0.6535
0.621795
0.593567
0.6387
0.646013
0.614752
0.670339
0.719963
0.729925
0.705145
0.693099
0.705635
0.721852
0.719409
0.735068
0.739888
0.730495
0.685553
0.57078
0.305486
0.100174
0.112356
0.243437
0.23784
0.226982
0.212022
0.192089
0.17117
0.151814
0.132862
0.122934
0.140797
0.187348
0.202939
0.192957
0.174388
0.154006
0.130711
0.107007
0.10095
0.10011
0.100014
0.100005
0.100005
0.100005
0.100005
0.100006
0.100006
0.100006
0.100006
0.100006
0.100006
0.100006
0.100007
0.100006
0.100007
0.100007
0.100011
0.100008
0.10007
0.100022
0.100475
0.100191
0.107274
0.102876
0.101381
0.100792
0.14374
0.12967
0.112142
0.233161
0.215871
0.158929
0.174309
0.286621
0.273241
0.22227
0.213148
0.480266
0.423407
0.306845
0.342634
0.652624
0.624877
0.60399
0.546656
0.723255
0.722762
0.705895
0.719149
0.69103
0.703545
0.713852
0.72071
0.688123
0.707959
0.724122
0.735645
0.660456
0.69017
0.710858
0.727924
0.648592
0.691143
0.712098
0.643457
0.657615
0.665484
0.663167
0.660232
0.649486
0.672551
0.668964
0.65593
0.690062
0.729218
0.738201
0.722438
0.708755
0.723037
0.730113
0.720657
0.744438
0.748076
0.733924
0.675504
0.53643
0.270049
0.100038
0.103691