/*--------------------------------*- C++ -*----------------------------------*\
  =========                 |
  \\      /  F ield         | OpenFOAM: The Open Source CFD Toolbox
   \\    /   O peration     | Website:  https://openfoam.org
    \\  /    A nd           | Version:  dev
     \\/     M anipulation  |
\*---------------------------------------------------------------------------*/
FoamFile
{
    version     2.0;
    format      ascii;
    class       volScalarField;
    location    "2500";
    object      alphat;
}
// * * * * * * * * * * * * * * * * * * * * * * * * * * * * * * * * * * * * * //

dimensions      [1 -1 -1 0 0 0 0];

internalField   nonuniform List<scalar> 
9840
(
0.000152653
0.000156015
0.000149584
0.000141218
0.00019076
0.000132649
0.000131237
0.0002009
0.000180691
0.000124875
0.000126032
0.000192503
0.000206695
0.000154351
0.000122567
0.0001225
0.000171839
0.000221695
0.000190319
0.00013894
0.000120935
0.000120652
0.000152729
0.000221248
0.000216214
0.000161538
0.000132185
0.000119774
0.000119657
0.000141804
0.000211887
0.000230126
0.000191958
0.000144993
0.000127974
0.000118953
0.000119422
0.000133317
0.000190835
0.000238694
0.000218493
0.000163911
0.000137026
0.000124993
0.000118453
0.000119297
0.000128435
0.000166053
0.000236613
0.000235672
0.000188018
0.000147732
0.000131923
0.000122805
0.000118264
0.00011918
0.000125433
0.000152919
0.000226869
0.000246337
0.00021628
0.000162096
0.000139427
0.000128257
0.000121091
0.00011811
0.000118997
0.000123598
0.000142292
0.000204269
0.000252843
0.000237148
0.000183485
0.000147405
0.000134092
0.000125597
0.000120049
0.000117939
0.000118627
0.000122406
0.000135427
0.000177688
0.000249804
0.000250912
0.000208758
0.000159492
0.000139786
0.000130183
0.000123328
0.000119414
0.000117648
0.000118222
0.000121857
0.000131159
0.000162063
0.000238867
0.000260203
0.000234822
0.000177412
0.000146338
0.000134797
0.000127216
0.000121527
0.000119004
0.000117391
0.000117897
0.000121486
0.000128541
0.000150576
0.00021488
0.000264896
0.000252384
0.000200558
0.000156154
0.000139351
0.000130913
0.00012469
0.000120344
0.000118484
0.000117269
0.000117752
0.000121187
0.000126846
0.000142848
0.000189125
0.000261208
0.000263712
0.000225711
0.000171585
0.00014486
0.000134596
0.000127822
0.000122579
0.000119656
0.00011788
0.000117231
0.000117715
0.000120782
0.000125647
0.000137984
0.000170898
0.000250345
0.000271444
0.000249689
0.000192081
0.000153006
0.000138649
0.000130915
0.00012529
0.000121006
0.000119013
0.000117423
0.000117209
0.00011777
0.00012027
0.000124647
0.000134658
0.000160204
0.000228079
0.000275748
0.000264609
0.000215511
0.000166321
0.000143341
0.000134284
0.000128008
0.000123218
0.000120047
0.000118269
0.000117165
0.000117171
0.000117888
0.000119797
0.000123993
0.000132327
0.00015183
0.000203456
0.000272841
0.000274769
0.000239307
0.000183705
0.000150736
0.000137908
0.000130865
0.000125624
0.000121517
0.000119284
0.000117588
0.000117045
0.000117134
0.000117978
0.000119311
0.000123403
0.000130505
0.000146182
0.000181976
0.000263665
0.00028143
0.000261536
0.000204752
0.000161067
0.000142442
0.000133938
0.000128172
0.000123617
0.00012033
0.000118532
0.000117128
0.000116971
0.000117123
0.000117953
0.00011877
0.000122793
0.000128932
0.000141951
0.000171474
0.000245198
0.000286719
0.000274886
0.000227115
0.000176065
0.000148168
0.000137372
0.000130783
0.000125955
0.000121954
0.000119477
0.000117812
0.00011687
0.000116894
0.000117118
0.000117884
0.000118356
0.000122192
0.000127668
0.000138775
0.000162445
0.000221113
0.000285391
0.000285143
0.000249602
0.00019356
0.000156965
0.000141229
0.00013367
0.000128321
0.000124079
0.000120648
0.000118759
0.000117237
0.000116753
0.000116851
0.000117111
0.000117794
0.000118023
0.000121556
0.000126639
0.000136668
0.00015556
0.000199078
0.000278802
0.000290753
0.000270946
0.000214487
0.000168314
0.00014628
0.000136761
0.000130806
0.000126326
0.000122522
0.000119741
0.000118127
0.000116855
0.000116692
0.000116863
0.000117104
0.000117707
0.000117723
0.000120958
0.000125906
0.000135164
0.000150569
0.000183851
0.000264794
0.000297224
0.000283812
0.000235049
0.000183796
0.000153067
0.000140208
0.000133432
0.000128601
0.000124658
0.000121236
0.000119051
0.000117571
0.000116665
0.000116671
0.000116899
0.000117099
0.000117627
0.000117435
0.000120473
0.00012543
0.000134027
0.000147034
0.000175077
0.0002445
0.000298404
0.000294205
0.00025742
0.000201019
0.000162375
0.000144637
0.000136222
0.000130907
0.00012682
0.000123253
0.000120228
0.000118491
0.000117152
0.000116649
0.000116709
0.000116954
0.000117099
0.000117548
0.00011716
0.000120073
0.000124991
0.000132916
0.000144579
0.000167624
0.000222198
0.000295124
0.00030029
0.000276828
0.00022128
0.000174391
0.000150229
0.000139514
0.000133361
0.000129005
0.000125338
0.000122086
0.000119495
0.000118066
0.000116905
0.000116743
0.000116789
0.000116998
0.000117069
0.000117483
0.00011692
0.000119697
0.000124539
0.000131854
0.000142598
0.000161667
0.000203227
0.000286477
0.000306903
0.000292041
0.000240882
0.000189562
0.000157557
0.000143492
0.000136054
0.000131286
0.000127486
0.000124101
0.000121086
0.000118981
0.000117762
0.000116856
0.000116936
0.000116937
0.000117092
0.000117053
0.000117413
0.000116695
0.000119295
0.0001241
0.000130963
0.00014098
0.000157139
0.000190053
0.00027127
0.000311909
0.000302183
0.000261969
0.000206811
0.000167078
0.000148354
0.000139357
0.00013375
0.000129759
0.000126253
0.000123103
0.000120284
0.000118634
0.000117606
0.000116967
0.000117183
0.000117114
0.000117166
0.000117068
0.000117342
0.000116456
0.000118937
0.000123757
0.000130359
0.000139666
0.000153712
0.000181973
0.000252536
0.000311064
0.000311108
0.0002804
0.000225209
0.000179329
0.000154268
0.000143164
0.000136664
0.000132197
0.000128581
0.00012529
0.000122294
0.000119781
0.000118489
0.000117642
0.000117244
0.000117511
0.000117363
0.000117174
0.000117053
0.00011727
0.000116218
0.000118673
0.00012349
0.000129963
0.00013862
0.000151169
0.000175873
0.000232935
0.000307392
0.000315812
0.000298241
0.000244245
0.000193811
0.000161812
0.000147602
0.000139967
0.000135029
0.000131203
0.000127736
0.000124555
0.000121632
0.000119567
0.00011856
0.000117847
0.000117609
0.000117843
0.000117669
0.000117241
0.000117034
0.0001172
0.000116008
0.000118529
0.000123304
0.000129611
0.000137698
0.000149212
0.00017079
0.000216167
0.0002983
0.000321989
0.000309291
0.000261866
0.000209759
0.000171288
0.000152637
0.000143819
0.000138183
0.000134244
0.000130613
0.000127252
0.000124078
0.000121261
0.000119562
0.000118879
0.000118296
0.000118109
0.000118216
0.00011792
0.000117379
0.000117048
0.000117137
0.000115825
0.000118524
0.000123258
0.000129371
0.000136882
0.000147913
0.000166826
0.000203288
0.00028519
0.000325226
0.000318048
0.000281277
0.000226327
0.000182733
0.000158595
0.000148023
0.000141808
0.000137637
0.000133922
0.000130371
0.000127043
0.000123852
0.000121162
0.00011981
0.000119381
0.00011899
0.00011872
0.000118592
0.000118134
0.000117543
0.000117083
0.000117091
0.000115702
0.000118692
0.000123362
0.000129236
0.00013621
0.00014705
0.000164056
0.000194879
0.000271056
0.000324737
0.000325112
0.000297849
0.000243256
0.000195878
0.000165908
0.00015257
0.000145736
0.000141432
0.000137682
0.000134075
0.000130553
0.000127191
0.000124018
0.000121463
0.000120252
0.000119972
0.000119896
0.000119634
0.000119125
0.000118427
0.000117726
0.000117102
0.000117064
0.00011567
0.00011907
0.000123624
0.000129169
0.000135736
0.000146407
0.00016239
0.000189622
0.000256614
0.000322041
0.000328969
0.000312992
0.000260932
0.000209985
0.000174531
0.000157689
0.000149955
0.000145482
0.000141847
0.000138511
0.000134903
0.000131218
0.000127625
0.000124425
0.00012205
0.00012095
0.000120714
0.000120778
0.00012045
0.000119714
0.00011889
0.00011814
0.000117121
0.000117461
0.000117043
0.000115764
0.000119637
0.000124057
0.000129195
0.00013547
0.00014611
0.000161534
0.000186031
0.000243851
0.00031592
0.000334105
0.000322478
0.000276207
0.000225292
0.000184622
0.000163602
0.000154346
0.000149831
0.0001463
0.000143382
0.000140136
0.00013647
0.000132631
0.000128814
0.000125575
0.000123175
0.000122003
0.00012167
0.00012161
0.000121231
0.000120486
0.000119502
0.000118054
0.000118818
0.00011719
0.000117678
0.000116906
0.000116114
0.000120416
0.0001246
0.000129335
0.000135486
0.000146354
0.000161306
0.000183607
0.000233514
0.000307381
0.000337332
0.000330055
0.000293533
0.000239936
0.000196268
0.000169872
0.000159175
0.00015444
0.000151041
0.000148655
0.000146194
0.000143069
0.000139461
0.000135499
0.000131499
0.000127658
0.000124956
0.000123578
0.000122964
0.000122468
0.00012217
0.000120544
0.000121698
0.000119861
0.000121184
0.000120943
0.000118346
0.000119374
0.000117322
0.00011786
0.000116759
0.000116847
0.000121316
0.000125282
0.000129649
0.000135878
0.000147153
0.000161558
0.000182183
0.000225584
0.000297588
0.000337681
0.000335705
0.00030831
0.000255119
0.000208619
0.000177022
0.000163792
0.000159089
0.00015627
0.000154422
0.000153061
0.000150953
0.000147845
0.000144067
0.000140016
0.000135996
0.000130777
0.000127579
0.000125713
0.000124496
0.000123739
0.000122836
0.000123823
0.000122355
0.000120583
0.000122195
0.000121725
0.000118824
0.000120031
0.000117445
0.000118076
0.000116696
0.000117861
0.000122254
0.000126081
0.000130199
0.000136745
0.0001484
0.000162218
0.000181481
0.000220119
0.000287916
0.000337224
0.000339727
0.000320636
0.000269762
0.000221646
0.000185868
0.000168553
0.000163822
0.00016139
0.000160643
0.000159952
0.000159229
0.00015746
0.000153642
0.000145474
0.000137736
0.000132357
0.000124572
0.000110529
9.89249e-05
9.92935e-05
0.000112972
0.000100168
0.000123736
0.000113967
0.000123333
0.000121249
0.000122927
0.000122393
0.000119269
0.00012042
0.000117452
0.000118357
0.000116768
0.000119055
0.000123286
0.000126986
0.000131166
0.000138448
0.000150238
0.000163246
0.000181332
0.000216804
0.000279513
0.000334452
0.000342903
0.000331202
0.000283822
0.000234282
0.000196055
0.000173822
0.000168372
0.000166796
0.000166702
0.000167346
0.000167625
0.000160369
0.000153809
0.000158553
0.000153957
0.000145329
0.000135748
0.000129199
0.000125771
9.53491e-05
8.8146e-05
7.89841e-05
9.77482e-05
8.82351e-05
0.000110664
9.82155e-05
0.000113056
0.000121483
0.000112217
0.000109663
0.000119372
0.00012033
0.000117469
0.000118271
0.000117059
0.000120383
0.000124384
0.000128028
0.000132689
0.000140977
0.000152488
0.000164693
0.000181739
0.000215085
0.000272937
0.000328941
0.000344733
0.000337271
0.000297798
0.00024685
0.000206369
0.00017948
0.000171667
0.000170911
0.000172365
0.000174092
0.000172432
0.000164565
0.000179339
0.000177619
0.000172918
0.000163155
0.000151957
0.000137194
0.0001222
0.00011151
7.01649e-05
8.99289e-05
7.66195e-05
6.9895e-05
8.58915e-05
7.61605e-05
9.72867e-05
8.45664e-05
9.57182e-05
0.000103402
9.40181e-05
9.04626e-05
0.000111625
9.66198e-05
9.46618e-05
9.14683e-05
0.000117562
0.000121671
0.000125551
0.000129286
0.000134904
0.000144269
0.000155175
0.000166798
0.000182694
0.000214728
0.000268304
0.000323646
0.000346262
0.000341484
0.000310863
0.000259492
0.000216652
0.000186013
0.000174716
0.000173558
0.000176785
0.000180156
0.000176324
0.000175841
0.000200538
0.00021544
0.000223901
0.000222027
0.000226143
0.000210727
0.000173433
0.000137196
0.000107991
9.80261e-05
7.26788e-05
0.000112481
6.84696e-05
6.7935e-05
7.39239e-05
6.63899e-05
8.25229e-05
7.19938e-05
8.12487e-05
8.429e-05
7.9127e-05
7.5481e-05
8.71435e-05
7.80402e-05
7.46227e-05
7.28588e-05
0.000118199
0.000122834
0.000126833
0.000130961
0.000138015
0.000147994
0.00015817
0.000169461
0.000184895
0.000215634
0.00026551
0.000319147
0.000346415
0.000344854
0.000322359
0.000272223
0.000227544
0.000194328
0.00017808
0.000175956
0.000179649
0.000184813
0.000180721
0.000191292
0.000222176
0.000261895
0.00030691
0.000374761
0.000432419
0.000444267
0.000399507
0.000320221
0.00011644
0.000231696
9.68266e-05
9.79128e-05
8.33439e-05
9.89869e-05
6.48016e-05
7.37794e-05
6.39244e-05
6.22362e-05
7.00615e-05
6.19625e-05
6.86589e-05
6.98285e-05
6.61982e-05
6.26712e-05
7.0377e-05
6.44832e-05
6.08694e-05
6.00042e-05
0.000118816
0.000123909
0.000128419
0.000133438
0.000141927
0.000151872
0.000161572
0.000172693
0.000188828
0.000217307
0.000264491
0.000315623
0.000345363
0.000346045
0.00033098
0.000285236
0.000239207
0.000203469
0.000182857
0.00017832
0.000182164
0.000188482
0.000186237
0.000205807
0.000240868
0.000301497
0.000390852
0.00051877
0.00057158
0.000563565
0.000522321
0.000478151
0.000343748
0.000440377
0.000180149
0.000309435
9.30037e-05
0.000148627
0.000101014
9.32215e-05
6.89582e-05
0.000101481
5.97612e-05
6.64102e-05
6.01109e-05
5.76225e-05
5.8482e-05
5.78581e-05
5.64046e-05
5.34067e-05
5.85639e-05
5.35437e-05
5.12937e-05
5.09429e-05
0.000119353
0.000125225
0.000130819
0.000137272
0.000146727
0.000156121
0.000165525
0.000176637
0.000192896
0.00022063
0.000265297
0.000313179
0.00034429
0.000347299
0.000337252
0.000297411
0.000251454
0.000212892
0.000188361
0.000181603
0.000184377
0.000192157
0.000194386
0.000210306
0.000251202
0.000329726
0.000457566
0.000605132
0.000631308
0.000613877
0.000584493
0.000527474
0.000472086
0.000498478
0.000401387
0.000454338
0.000275524
0.000373461
0.000130749
0.00025027
9.49646e-05
0.000126103
9.79665e-05
9.7679e-05
6.44892e-05
9.68098e-05
5.55042e-05
6.33177e-05
5.35675e-05
4.94757e-05
5.14155e-05
4.81586e-05
4.9356e-05
4.57608e-05
4.46081e-05
4.43426e-05
0.000119776
0.000126805
0.000134017
0.000141938
0.000151982
0.000160949
0.000170165
0.000181311
0.000197857
0.000226646
0.000267183
0.000312086
0.000343396
0.000347942
0.000342092
0.00030773
0.000263416
0.000222374
0.000195217
0.000185577
0.000186298
0.000196099
0.000204126
0.00021416
0.000254312
0.000340181
0.000509509
0.000652584
0.000662171
0.000643516
0.00061808
0.000588136
0.000516163
0.000539844
0.00047728
0.000495345
0.000435954
0.000464561
0.000352635
0.000422562
0.000236545
0.000339782
0.000130351
0.000236899
0.000101961
0.000141114
9.88899e-05
0.000107941
6.20625e-05
0.000100685
6.00933e-05
4.45336e-05
5.67948e-05
5.12046e-05
4.24775e-05
4.13842e-05
4.07232e-05
3.93089e-05
0.000120057
0.000128402
0.000137345
0.000146591
0.000157326
0.000166381
0.000175529
0.000186748
0.000203835
0.00023279
0.000270664
0.000312664
0.000342693
0.000349039
0.000345226
0.000317708
0.000274976
0.00023286
0.000203539
0.000190693
0.000188893
0.00019971
0.000210775
0.000219128
0.000253359
0.000339182
0.000529081
0.000685046
0.000686883
0.000651708
0.000614283
0.000599913
0.00058299
0.000513216
0.000543567
0.000480552
0.000496098
0.000458232
0.000473982
0.000414722
0.00045717
0.000336369
0.000412735
0.00024867
0.000343528
0.000158974
0.00026707
0.00011506
0.000180158
0.000101547
0.000121499
0.000101177
4.45236e-05
9.90682e-05
8.81983e-05
3.86283e-05
3.86251e-05
3.99824e-05
3.6744e-05
0.000120152
0.00012953
0.000140627
0.00015142
0.000162941
0.000172513
0.00018169
0.000193035
0.000210721
0.000239701
0.000277363
0.000314636
0.000342315
0.000351076
0.000348134
0.000327118
0.000287366
0.000245143
0.000214013
0.000198341
0.000192722
0.000202491
0.000216781
0.000227004
0.000250445
0.000333466
0.000525913
0.000707524
0.000708285
0.000657118
0.000573492
0.000558232
0.000568806
0.000569543
0.000571726
0.000515026
0.000547766
0.000487428
0.000498591
0.000473812
0.000485079
0.000460169
0.000478881
0.000417179
0.000466216
0.00035971
0.000428504
0.000290126
0.00038047
0.00020083
0.000313623
0.000126261
0.000216356
0.000127517
7.45119e-05
0.000125285
0.000118493
3.56855e-05
5.41897e-05
4.38388e-05
3.66726e-05
0.000120206
0.000129568
0.000143689
0.000156276
0.000168855
0.000179366
0.000188653
0.000200222
0.000218619
0.000247834
0.000284659
0.000317805
0.000342962
0.000353489
0.00035176
0.000336302
0.000300986
0.000259563
0.000226264
0.000209498
0.000199115
0.000204933
0.000220843
0.000234984
0.000250932
0.000319703
0.000507309
0.000723899
0.000730798
0.000672222
0.000525465
0.000401343
0.000444335
0.000560517
0.000503649
0.000557268
0.000554793
0.0005203
0.000546275
0.000492982
0.000502041
0.000487866
0.000493059
0.00048712
0.000493687
0.000474862
0.000496603
0.000445176
0.000485481
0.00040154
0.000461361
0.00033371
0.000419504
0.00022397
0.000347267
0.000222537
0.000110313
0.000210595
0.00018527
3.83602e-05
9.82806e-05
6.48421e-05
3.51837e-05
0.000120651
0.000128296
0.000145891
0.000160961
0.000175177
0.000186864
0.000196439
0.000208346
0.000227554
0.000257184
0.000292823
0.000323932
0.00034469
0.000355168
0.000355511
0.000345094
0.000315848
0.000276615
0.000242143
0.000222635
0.000207979
0.000208952
0.000223742
0.000240963
0.000254253
0.00030883
0.000472254
0.00072974
0.000762623
0.000702467
0.000541512
0.000305779
0.000324403
0.000433738
0.000369814
0.000530663
0.00047396
0.000541433
0.000534871
0.000522559
0.000538541
0.000496501
0.000505228
0.000496013
0.00049638
0.000500961
0.000500577
0.000505071
0.000507828
0.000496256
0.000510928
0.00047417
0.000503132
0.000432943
0.000483046
0.000353883
0.000441246
0.000354327
0.000161566
0.00034695
0.000325097
7.64051e-05
0.00013453
5.94955e-05
3.93959e-05
0.00012267
0.000128789
0.000146223
0.000165286
0.000181943
0.000195094
0.000205053
0.000217447
0.0002376
0.000267864
0.000302649
0.000331768
0.000348057
0.000357712
0.000361396
0.000355057
0.000332442
0.000297814
0.00026407
0.000239825
0.000220027
0.000216585
0.000227772
0.000244492
0.000258461
0.00029896
0.000444051
0.000724608
0.000807002
0.000763648
0.000587023
0.000293536
0.000235003
0.000316723
0.000412871
0.000374269
0.000503656
0.000454104
0.000524283
0.000513363
0.000518534
0.000523611
0.000497801
0.000504416
0.000497575
0.000495861
0.000504122
0.000499454
0.000511926
0.000506402
0.000513091
0.000512023
0.0005064
0.000512216
0.000488263
0.000506304
0.000445092
0.000490494
0.00044522
0.000284372
0.000438882
0.000425208
0.000104057
0.000222889
1.64524e-05
6.32925e-05
0.000135039
0.000147746
0.000168081
0.000189156
0.000203904
0.000214702
0.000227434
0.000248945
0.000279883
0.000314283
0.000340919
0.000355659
0.00036441
0.000370387
0.000368221
0.000353045
0.000325373
0.000293064
0.000265226
0.000244167
0.000231833
0.000235731
0.000248247
0.000262853
0.000290913
0.000419268
0.00070255
0.000845816
0.000831929
0.000695617
0.000331818
0.000189275
0.000222375
0.000356643
0.000336799
0.000407285
0.000378366
0.000479439
0.000436629
0.000507153
0.00048751
0.000507384
0.000509343
0.000497085
0.000497701
0.000495184
0.000494002
0.000499578
0.000494577
0.000506132
0.000499883
0.000509973
0.000506002
0.000509805
0.000508935
0.000504507
0.000505914
0.000489839
0.000501497
0.000487998
0.000401767
0.000485074
0.000480749
0.000160441
0.000354812
9.08205e-06
9.78766e-05
0.000155769
0.000170855
0.000195292
0.000213779
0.000224833
0.000238989
0.000261103
0.000293811
0.000327646
0.000352562
0.00036599
0.00037599
0.000383202
0.000386504
0.00038137
0.000361986
0.000332549
0.000303727
0.000284318
0.000266152
0.00025215
0.000255151
0.000267872
0.00028534
0.000396758
0.000674176
0.000868469
0.000906478
0.000813518
0.000460187
0.000197782
0.000169015
0.000299596
0.000222088
0.000376057
0.000359107
0.000410427
0.000392249
0.000455967
0.000432525
0.000484871
0.000466011
0.00049795
0.000496005
0.000493832
0.000493237
0.000493217
0.000493421
0.000495624
0.000495641
0.000503699
0.000504602
0.000511914
0.000519355
0.000513657
0.000528159
0.000504922
0.00052154
0.000497878
0.000503652
0.000494845
0.000471293
0.000492174
0.000489904
0.000489809
0.000273994
0.000451252
8.96211e-06
0.00014606
0.000179129
0.000200336
0.000222916
0.000237289
0.000250349
0.000275641
0.000308721
0.000343754
0.000366836
0.000379187
0.000390073
0.000399635
0.000413769
0.000419958
0.000409831
0.000385
0.000354029
0.000330556
0.000313345
0.000289225
0.000269093
0.000274471
0.00028305
0.000376493
0.000643183
0.000878792
0.000974317
0.00091953
0.000622847
0.000234833
0.000148616
0.00016906
0.000296932
0.000225355
0.000397596
0.000364572
0.000422544
0.000408224
0.000447948
0.000443723
0.000473452
0.000463292
0.000490197
0.000483448
0.000493843
0.000492602
0.00049792
0.000500592
0.000509308
0.000514746
0.000529803
0.000542566
0.000547587
0.000572217
0.000549468
0.000584468
0.000529449
0.0005704
0.000499721
0.000537731
0.000517712
0.000493314
0.000496156
0.000489174
0.000486629
0.000492437
0.000488591
0.000488093
0.000493571
0.000486909
0.000292314
0.000412841
0.000493082
0.000496274
0.000473255
5.40652e-05
0.000302732
0.000125275
0.000191574
0.000208725
0.000232874
0.00024794
0.000265509
0.000289438
0.00032701
0.000361618
0.000385085
0.000396619
0.000408558
0.000422696
0.000443761
0.000452673
0.000446772
0.000427978
0.000398046
0.000370393
0.000352106
0.000334192
0.000298772
0.00028593
0.000286966
0.000359222
0.000611889
0.000879435
0.00102938
0.00101484
0.000775554
0.00030485
0.000159642
0.000136106
0.000175776
0.000143203
0.000281887
0.000217767
0.000407992
0.000345764
0.00043785
0.000429225
0.000462264
0.000464633
0.000482043
0.000484088
0.000489195
0.000484717
0.000503693
0.000504461
0.000520259
0.000528034
0.000551715
0.000560974
0.000595719
0.000610913
0.00061806
0.000632512
0.00058867
0.000610283
0.000621105
0.000588517
0.000558804
0.000581874
0.000577538
0.000550015
0.000593678
0.000538597
0.000510284
0.000533321
0.000562352
0.000506171
0.00048876
0.000491786
0.000485141
0.000492704
0.000499457
0.000483228
0.000396576
0.000496802
0.000502194
0.000458099
0.000224302
0.000169908
0.000292351
0.000199205
0.000242765
0.000263402
0.000277523
0.000308065
0.000344891
0.000384271
0.000406372
0.00041981
0.000431161
0.000448226
0.000461234
0.000465846
0.000462248
0.000449083
0.000425648
0.000398078
0.000378024
0.000367266
0.000349885
0.000307683
0.00029924
0.000345952
0.000582716
0.000874148
0.00107255
0.00110006
0.000908745
0.000392307
0.000187968
0.000134017
0.000129483
0.00015923
0.000138546
0.000257065
0.000197993
0.000396546
0.000299892
0.000458357
0.00044269
0.000488447
0.000486048
0.000510187
0.000512195
0.000504846
0.000505742
0.000532207
0.000534997
0.000571362
0.000576077
0.000623818
0.000630652
0.000590024
0.000562198
0.000608418
0.000527761
0.000547754
0.0004877
0.000581809
0.000546788
0.000526888
0.000581988
0.000565216
0.000522733
0.000490794
0.000522495
0.000558315
0.000527223
0.000552168
0.000557216
0.000519706
0.000483244
0.000485506
0.000485676
0.000510125
0.000499341
0.000480027
0.000373851
0.000489758
0.000493816
0.00044246
0.000206833
0.000206378
0.000445448
0.000323376
0.000288716
0.000217874
0.000278194
0.000297134
0.000323007
0.000368797
0.000407736
0.000434549
0.000446362
0.000458148
0.000466531
0.0004672
0.000468649
0.000466821
0.000456367
0.000438946
0.000415785
0.000396866
0.000389625
0.000387174
0.000353936
0.000315295
0.000337993
0.00055633
0.000861819
0.00110216
0.00117561
0.00102784
0.000502487
0.000230923
0.000143419
0.000127717
0.000128225
0.000124725
0.000147976
0.000134937
0.000223934
0.000174272
0.000339685
0.000249369
0.00047146
0.000430772
0.000507171
0.00049303
0.000534002
0.000525212
0.00053791
0.000539572
0.000578581
0.000577353
0.000623954
0.000619719
0.000538513
0.000519722
0.000510725
0.000465396
0.000489161
0.000454577
0.000495112
0.000482213
0.00045872
0.000450731
0.000486928
0.000464422
0.00044345
0.000518643
0.000479241
0.000448007
0.000404388
0.000439743
0.000535528
0.000543693
0.00051133
0.00048824
0.000533242
0.000476369
0.00047493
0.000488281
0.00052059
0.000506417
0.000478045
0.000373093
0.000474814
0.000474254
0.000451877
0.000255166
0.000200402
0.00029914
0.000386288
0.000301803
0.000316826
0.000347391
0.000388864
0.000439617
0.000464591
0.000480095
0.000485043
0.000483932
0.000483853
0.000485997
0.00048389
0.000472357
0.000454327
0.000434159
0.000416638
0.000410107
0.000415127
0.000406069
0.000344826
0.000339959
0.000531419
0.000849774
0.00112028
0.00124195
0.00113582
0.000629579
0.000273495
0.000158143
0.000131809
0.000125328
0.00012699
0.000124105
0.000142104
0.000133092
0.000188181
0.000156791
0.000271542
0.000199896
0.000449096
0.000366882
0.000503624
0.000456156
0.000538032
0.000504085
0.000569912
0.00055762
0.000612515
0.000599149
0.000518317
0.000509801
0.000473623
0.000452185
0.000470445
0.000443086
0.000436789
0.00043303
0.000424316
0.000420369
0.000425559
0.000415139
0.000403777
0.000397792
0.000415544
0.000395871
0.000380663
0.00044385
0.000402103
0.00037256
0.000333057
0.000364614
0.000463985
0.000497187
0.000448937
0.000420033
0.000493566
0.000469362
0.000462255
0.000491138
0.000497207
0.000506121
0.000476112
0.000411343
0.000455679
0.000448577
0.000471521
0.000381103
0.000332773
0.000286701
0.000158007
0.000394228
0.000371545
0.00042056
0.000466533
0.000505985
0.000514583
0.000519876
0.00051828
0.000527912
0.00053293
0.000528361
0.000513005
0.000489655
0.000466299
0.000446513
0.000436207
0.000441245
0.000447416
0.000410394
0.00035872
0.000507558
0.000842067
0.00113062
0.00130236
0.00123434
0.000762999
0.00031548
0.000177921
0.000139897
0.000128728
0.000122844
0.00012436
0.000126008
0.000123703
0.000139251
0.000131572
0.000163522
0.000148199
0.000211149
0.000170121
0.000380707
0.000287929
0.000452296
0.000381241
0.000500171
0.000441838
0.000578268
0.000545625
0.0005119
0.000523318
0.000422763
0.000416213
0.00041323
0.000411357
0.000409027
0.000401639
0.00038986
0.000385104
0.000376946
0.000371114
0.00036983
0.000362579
0.00035627
0.000350421
0.000350765
0.000336099
0.000325514
0.00037484
0.000333561
0.000307684
0.000268253
0.000296264
0.000401728
0.000443365
0.000395738
0.000357679
0.000447933
0.000461856
0.000448835
0.00049347
0.000462253
0.00047915
0.000474526
0.000464371
0.000435674
0.000422111
0.000439272
0.000451237
0.000427735
0.000275345
0.000138337
0.000334935
0.000452087
0.000509371
0.000539884
0.00056184
0.000561846
0.000579647
0.000597167
0.000607675
0.000599133
0.000579282
0.000551043
0.000519406
0.000491813
0.000473694
0.000471738
0.000482249
0.00046984
0.000390034
0.000487663
0.000835289
0.00113702
0.00135475
0.00132255
0.000902657
0.000363212
0.000202169
0.000150593
0.000134472
0.00012672
0.000122765
0.000123315
0.000124926
0.000122877
0.000137625
0.000129933
0.000153882
0.000145657
0.000178564
0.000159878
0.00029834
0.000223797
0.000374093
0.000303884
0.000430556
0.000366538
0.000536585
0.000491096
0.000411509
0.000427177
0.000341448
0.000337757
0.000351641
0.000340668
0.000362747
0.000354675
0.000343956
0.000334354
0.000344997
0.000339152
0.000333107
0.000327774
0.000318649
0.000314439
0.000310556
0.00030685
0.000291193
0.000280832
0.000274667
0.00031099
0.000268014
0.000249392
0.000212381
0.00023432
0.000348396
0.000399525
0.000351535
0.000299389
0.000415394
0.000454292
0.00043523
0.000489227
0.000440066
0.000465328
0.000469208
0.000425972
0.000417163
0.000399518
0.000407539
0.000420221
0.000401373
0.000206526
0.000317606
0.000287205
0.000552156
0.000595561
0.000601476
0.000624137
0.000651547
0.000684513
0.00069691
0.000686397
0.000660424
0.000626962
0.000590715
0.000552489
0.000523891
0.000510179
0.000515636
0.000520546
0.000439117
0.000476842
0.000826014
0.00114162
0.00140081
0.00140382
0.00104525
0.000424716
0.000231479
0.000163531
0.000143058
0.000132199
0.000123748
0.000126958
0.000121641
0.000122904
0.000122976
0.000121623
0.000134849
0.000127442
0.000151555
0.000143492
0.000166688
0.000156552
0.000237915
0.000189702
0.000302993
0.000245824
0.000338018
0.000283248
0.000447003
0.000393863
0.00035093
0.000375256
0.00036661
0.000312113
0.000310074
0.000325113
0.000319933
0.000320988
0.000314761
0.000309759
0.000309999
0.000303434
0.000300313
0.000297912
0.000296519
0.000272056
0.00027173
0.000271909
0.0002745
0.000238137
0.000233936
0.000234534
0.000250552
0.000209302
0.000203138
0.000171522
0.000182524
0.000300834
0.000368102
0.000317927
0.000246714
0.000396282
0.000445926
0.00042227
0.000479244
0.000432007
0.000462402
0.000458411
0.000393944
0.000401032
0.000381606
0.000383179
0.000398263
0.000274307
0.00016486
0.000329573
0.000210325
0.000648914
0.000667218
0.000680823
0.000735201
0.000775204
0.000790281
0.000775166
0.000744127
0.000703608
0.000663939
0.00062171
0.000584337
0.000557745
0.000550983
0.000561143
0.000511754
0.000482904
0.000805276
0.00114125
0.00144001
0.00148107
0.00118168
0.000507247
0.000269555
0.000179406
0.000153409
0.00013982
0.000130496
0.000123493
0.000125551
0.000120767
0.000121708
0.000120943
0.000120203
0.000130295
0.000124088
0.000147707
0.000138409
0.000158945
0.000147994
0.000197821
0.000171581
0.000232284
0.000190089
0.00025365
0.000213874
0.000330473
0.000295613
0.000350254
0.00036835
0.000312871
0.000301381
0.000318227
0.000325245
0.00034222
0.000333507
0.000296716
0.000299677
0.000304939
0.000312077
0.000279699
0.000287237
0.000298486
0.000311734
0.000238352
0.000247316
0.00026245
0.000284851
0.000199654
0.000203855
0.000216617
0.000197965
0.000165388
0.000174245
0.000168189
0.00016019
0.000263842
0.000350016
0.00030065
0.000212087
0.000394451
0.000434375
0.000409197
0.000465898
0.00043717
0.000468283
0.000444
0.000371059
0.000386851
0.000366367
0.000364961
0.000378616
0.00024476
0.000135216
0.000285746
0.000233098
0.000730391
0.000762332
0.000811511
0.000868469
0.000873946
0.00085499
0.000816721
0.000773421
0.000730229
0.0006895
0.000648871
0.000612586
0.000591633
0.000594759
0.000566315
0.000511153
0.000765377
0.00113667
0.00146774
0.00155586
0.00131285
0.000635289
0.000315347
0.000200119
0.000165284
0.000149536
0.000137853
0.000126735
0.000131243
0.000122071
0.000124724
0.000118881
0.000120287
0.000118085
0.000118168
0.000123872
0.000119638
0.00013787
0.000129968
0.000135306
0.000127765
0.000162422
0.00014672
0.000177035
0.000152421
0.000218887
0.000189677
0.000287246
0.000270381
0.000248177
0.000333297
0.000323764
0.00031461
0.000303867
0.000338309
0.000336982
0.000333406
0.000334869
0.000324474
0.000335592
0.000342974
0.000339851
0.000312728
0.000328525
0.000326206
0.000325713
0.000243007
0.000279717
0.00030085
0.000300815
0.000188064
0.000216166
0.000254601
0.000175241
0.000167947
0.00018505
0.000188396
0.000174948
0.000252127
0.000352946
0.000311763
0.00021392
0.000409073
0.000419569
0.000395454
0.0004497
0.000453636
0.000450681
0.000425645
0.00035172
0.000372185
0.000351118