/*--------------------------------*- C++ -*----------------------------------*\
  =========                 |
  \\      /  F ield         | OpenFOAM: The Open Source CFD Toolbox
   \\    /   O peration     | Website:  https://openfoam.org
    \\  /    A nd           | Version:  dev
     \\/     M anipulation  |
\*---------------------------------------------------------------------------*/
FoamFile
{
    version     2.0;
    format      ascii;
    class       volScalarField;
    location    "2500";
    object      CO2;
}
// * * * * * * * * * * * * * * * * * * * * * * * * * * * * * * * * * * * * * //

dimensions      [0 0 0 0 0 0 0];

internalField   nonuniform List<scalar> 
9840
(
2.07881e-34
6.66823e-34
3.28268e-34
1.37258e-33
2.36273e-33
2.76665e-34
2.97149e-33
8.32484e-33
2.73555e-33
4.92297e-34
8.10187e-33
2.02296e-32
1.24978e-32
3.55839e-33
2.79165e-34
4.50099e-32
5.28046e-32
4.8767e-32
1.37653e-32
1.53118e-33
7.30076e-35
9.7307e-32
1.46417e-31
1.24042e-31
5.44478e-32
8.48324e-33
1.08384e-33
6.3605e-35
4.39426e-31
5.93353e-31
3.48964e-31
1.48933e-31
4.31e-32
4.78029e-33
5.9178e-34
3.44711e-35
7.3653e-31
2.04998e-30
1.10212e-30
3.98497e-31
1.36089e-31
1.80539e-32
3.0996e-33
3.03049e-34
5.34561e-36
1.13495e-30
5.06223e-30
4.09377e-30
1.49266e-30
3.60608e-31
7.63659e-32
1.24992e-32
1.67808e-33
1.23178e-34
4.52148e-36
1.76593e-30
1.20461e-29
1.12371e-29
4.3095e-30
1.25379e-30
2.9138e-31
5.45931e-32
6.09365e-33
6.33379e-34
4.42576e-35
2.1003e-35
6.3445e-30
2.54248e-29
2.749e-29
1.46656e-29
5.48706e-30
1.17958e-30
2.07588e-31
2.17381e-32
2.32104e-33
3.39144e-34
1.49002e-34
2.4287e-34
2.14271e-29
4.01996e-29
6.43492e-29
4.68225e-29
1.7129e-29
4.82714e-30
1.02524e-30
1.0171e-31
1.16769e-32
2.22931e-33
1.47382e-33
2.29901e-33
2.58751e-33
5.93887e-29
1.3526e-28
1.54504e-28
1.09627e-28
5.05768e-29
1.47326e-29
3.07639e-30
4.39574e-31
4.55932e-32
1.05863e-32
1.0279e-32
1.36511e-32
2.69665e-32
2.96021e-32
1.06531e-28
2.84197e-28
3.80611e-28
2.94855e-28
1.33318e-28
4.81385e-29
1.30937e-29
1.82578e-30
2.26284e-31
6.35005e-32
8.12382e-32
1.18695e-31
1.7515e-31
3.02714e-31
2.83263e-31
1.27681e-28
4.30294e-28
8.37797e-28
6.93826e-28
3.78367e-28
1.42189e-28
4.11442e-29
6.34253e-30
8.11663e-31
3.01829e-31
4.14395e-31
9.63176e-31
1.26926e-30
2.30259e-30
2.94724e-30
2.6761e-30
2.91422e-28
1.08616e-27
1.93862e-27
1.97262e-27
9.31616e-28
3.6759e-28
1.2451e-28
2.28184e-29
4.4919e-30
1.19078e-30
2.41417e-30
4.57118e-30
1.02338e-29
1.26826e-29
2.47285e-29
2.55278e-29
1.81663e-29
3.82165e-28
3.33559e-27
5.03987e-27
4.22013e-27
2.29232e-27
8.33715e-28
3.35484e-28
9.87465e-29
2.12131e-29
8.61691e-30
1.26454e-29
2.40701e-29
3.66037e-29
1.15269e-28
1.94206e-28
1.8548e-28
2.59621e-28
7.00891e-29
2.19198e-27
6.55369e-27
1.19187e-26
1.22489e-26
5.96586e-27
2.31404e-27
8.72727e-28
2.95849e-28
7.44546e-29
4.76618e-29
7.98917e-29
1.12768e-28
2.50841e-28
4.37605e-28
1.17673e-27
1.87811e-27
2.53885e-27
1.54889e-27
8.06735e-28
5.18427e-27
1.03031e-26
1.7235e-26
2.66767e-26
1.98642e-26
6.33979e-27
2.35957e-27
9.79874e-28
4.23447e-28
2.28194e-28
4.15582e-28
8.33386e-28
1.85848e-27
2.63695e-27
7.27818e-27
9.75421e-27
1.47947e-26
2.12499e-26
2.08746e-26
1.58857e-26
7.48374e-27
2.56527e-26
3.00202e-26
5.03032e-26
4.26446e-26
2.12875e-26
8.13393e-27
5.7876e-27
2.06598e-27
1.46351e-27
2.22173e-27
5.59204e-27
9.84837e-27
1.88543e-26
3.45697e-26
6.78488e-26
8.52502e-26
1.34341e-25
1.71166e-25
1.4243e-25
1.6565e-25
5.33631e-27
4.61843e-26
7.48337e-26
8.52161e-26
9.41742e-26
7.2161e-26
3.38431e-26
3.4977e-26
1.7248e-26
1.28401e-26
1.65961e-26
2.4441e-26
4.46756e-26
1.06914e-25
1.16894e-25
3.44909e-25
5.16133e-25
9.98497e-25
1.441e-24
9.51403e-25
1.78217e-24
1.42222e-24
6.21864e-27
6.74771e-26
1.34577e-25
1.70069e-25
2.31075e-25
1.77141e-25
1.61719e-25
1.61551e-25
2.12636e-25
9.33585e-26
7.92379e-26
1.7352e-25
2.45863e-25
4.84645e-25
9.6526e-25
1.44426e-24
4.10882e-24
6.82705e-24
9.88586e-24
1.38851e-23
1.20813e-23
1.77197e-23
1.20448e-23
8.45691e-27
8.29511e-26
2.51489e-25
4.49206e-25
5.80994e-25
7.14625e-25
8.26053e-25
7.82243e-25
1.26389e-24
7.97748e-25
3.54099e-25
6.83587e-25
1.93375e-24
2.4086e-24
4.01971e-24
9.40615e-24
1.87482e-23
2.92666e-23
6.98673e-23
1.16655e-22
1.57134e-22
1.71758e-22
1.90021e-22
8.95647e-23
6.5955e-27
8.796e-26
4.09168e-25
1.01899e-24
2.29287e-24
4.22993e-24
5.03935e-24
5.84266e-24
6.12621e-24
5.62396e-24
2.79658e-24
3.93464e-24
6.62511e-24
1.91707e-23
2.24843e-23
2.91985e-23
8.88777e-23
2.27383e-22
5.39225e-22
1.09518e-21
1.76827e-21
1.86683e-21
2.39484e-21
1.82103e-21
9.31733e-22
4.99838e-26
1.64887e-25
7.50337e-25
2.79739e-24
6.12483e-24
1.73556e-23
2.38429e-23
3.96711e-23
4.9569e-23
2.6514e-23
2.39043e-23
2.18187e-23
5.45622e-23
7.44206e-23
1.685e-22
1.73358e-22
3.9439e-22
1.47267e-21
5.15265e-21
1.18551e-20
2.48593e-20
2.72089e-20
2.45588e-20
2.70347e-20
2.14643e-20
9.65983e-21
8.52633e-26
5.51973e-25
1.71631e-24
9.31714e-24
2.61348e-23
7.70525e-23
1.17938e-22
2.21626e-22
2.47945e-22
2.1032e-22
2.03795e-22
1.54571e-22
1.26593e-22
6.2047e-22
1.02075e-21
1.65644e-21
2.95593e-21
1.19886e-20
4.64272e-20
1.62051e-19
3.56083e-19
4.68669e-19
5.03449e-19
3.41401e-19
3.09166e-19
2.14306e-19
1.31825e-19
4.16833e-25
1.19798e-24
5.76948e-24
2.94105e-23
1.10037e-22
2.75915e-22
7.60777e-22
1.25185e-21
1.69704e-21
1.71572e-21
1.19476e-21
9.51846e-22
7.16136e-22
1.39497e-21
4.84248e-21
7.85321e-21
1.98777e-20
8.39617e-20
4.54994e-19
1.6527e-18
4.72049e-18
6.81989e-18
6.00026e-18
6.73209e-18
4.96181e-18
2.85376e-18
2.21395e-18
1.18104e-18
1.31146e-24
6.3506e-24
2.39355e-23
1.24415e-22
3.1504e-22
9.45382e-22
3.28048e-21
6.31394e-21
8.23704e-21
1.13518e-20
8.17762e-21
8.75633e-21
7.56304e-21
6.34915e-21
1.38138e-20
4.63892e-20
9.89927e-20
6.70175e-19
4.677e-18
1.67046e-17
6.28438e-17
9.76029e-17
9.66281e-17
9.62604e-17
7.25398e-17
4.95874e-17
3.22675e-17
1.43089e-17
1.04906e-17
4.96867e-24
3.17883e-23
1.31988e-22
4.46806e-22
1.31882e-21
3.4764e-21
1.38756e-20
3.38302e-20
2.81806e-20
5.23186e-20
3.12559e-20
4.35968e-20
3.7902e-20
4.30386e-20
4.3485e-20
1.57653e-19
7.80612e-19
4.88364e-18
4.00258e-17
1.97452e-16
6.1568e-16
1.26159e-15
1.273e-15
1.24866e-15
1.037e-15
8.06208e-16
4.28085e-16
2.66641e-16
1.7507e-16
4.86871e-17
1.99988e-23
7.76666e-23
5.54788e-22
1.97536e-21
8.25852e-21
1.37179e-20
4.45158e-20
1.33938e-19
1.5256e-19
1.66689e-19
2.17258e-19
1.96271e-19
1.85318e-19
2.19656e-19
1.95694e-19
4.06689e-19
2.29974e-18
3.61658e-17
3.07425e-16
1.77509e-15
7.73395e-15
1.77356e-14
2.0228e-14
2.17458e-14
2.0267e-14
1.5195e-14
9.33951e-15
4.69755e-15
2.2405e-15
1.02771e-15
1.86618e-16
9.78661e-23
4.13405e-22
1.43974e-21
6.21043e-21
2.3346e-20
6.8413e-20
9.84053e-20
5.30577e-19
6.12264e-19
8.35129e-19
9.21474e-19
6.67851e-19
9.62467e-19
9.54925e-19
1.05768e-18
1.63055e-18
8.16508e-18
1.3403e-16
2.11156e-15
1.42302e-14
6.51757e-14
2.18607e-13
2.88804e-13
3.4911e-13
3.58926e-13
2.92577e-13
1.91797e-13
1.02339e-13
4.49005e-14
1.68436e-14
5.07277e-15
4.33364e-16
3.75443e-22
9.75497e-22
6.24873e-21
2.35819e-20
8.27965e-20
4.14835e-19
6.87762e-19
9.79215e-19
2.48395e-18
3.31583e-18
3.89549e-18
3.85707e-18
3.37963e-18
3.31175e-18
3.30413e-18
5.83179e-18
2.8439e-17
4.5951e-16
8.54265e-15
1.1598e-13
5.43807e-13
1.87445e-12
3.5312e-12
4.61312e-12
5.58583e-12
5.04367e-12
3.60641e-12
2.08149e-12
9.66254e-13
3.57317e-13
1.02244e-13
1.73213e-14
2.64722e-16
2.1471e-21
2.31602e-21
1.98475e-20
1.12093e-19
3.79143e-19
1.26112e-18
3.34486e-18
3.25947e-18
8.98253e-18
1.33964e-17
1.5698e-17
1.32934e-17
1.69412e-17
1.5549e-17
1.34672e-17
2.42518e-17
8.27214e-17
1.4068e-15
3.23496e-14
4.89138e-13
4.46143e-12
1.54075e-11
3.8637e-11
5.00107e-11
7.13133e-11
7.58128e-11
5.98016e-11
3.78368e-11
1.90961e-11
7.54773e-12
2.19864e-12
3.7713e-13
1.00958e-14
2.12425e-16
4.2107e-15
9.70595e-21
1.47633e-20
3.72074e-20
3.22386e-19
1.71436e-18
3.0566e-18
1.14629e-17
1.68521e-17
2.7217e-17
6.00843e-17
5.84011e-17
4.83045e-17
6.12532e-17
6.0141e-17
5.344e-17
7.59125e-17
2.25317e-16
3.94733e-15
1.08989e-13
1.88636e-12
1.83781e-11
8.05291e-11
2.81954e-10
4.42763e-10
7.42146e-10
9.31704e-10
8.56743e-10
6.02442e-10
3.3519e-10
1.44872e-10
4.6019e-11
8.69407e-12
0
3.39847e-14
2.66586e-13
9.23627e-16
1.67051e-14
3.4471e-20
5.14249e-20
1.15612e-19
8.01692e-19
4.6292e-18
1.6456e-17
3.37631e-17
6.6117e-17
1.32423e-16
1.72147e-16
1.80252e-16
1.7223e-16
1.61711e-16
1.94834e-16
1.68486e-16
1.87034e-16
3.84279e-16
9.08974e-15
3.04986e-13
6.67207e-12
7.21418e-11
4.73774e-10
1.34561e-09
3.15711e-09
6.31959e-09
9.27137e-09
1.0045e-08
8.1673e-09
5.11951e-09
2.45219e-09
8.60792e-10
1.84568e-10
4.78151e-12
2.08968e-11
1.62748e-12
1.30783e-11
1.04901e-11
1.45846e-13
1.04786e-12
3.49667e-15
6.47449e-14
2.96657e-20
2.26382e-19
3.95771e-19
2.31608e-18
9.74705e-18
4.77604e-17
1.10899e-16
2.21398e-16
3.68312e-16
4.90591e-16
5.34354e-16
5.48825e-16
5.98643e-16
6.31136e-16
5.71651e-16
7.1862e-16
1.1476e-15
1.11432e-14
7.06493e-13
1.77981e-11
2.69276e-10
1.92234e-09
9.35145e-09
1.91147e-08
4.40962e-08
7.5205e-08
9.45638e-08
8.95992e-08
6.56859e-08
3.56871e-08
1.39186e-08
3.39656e-09
9.17655e-11
4.42465e-10
6.7966e-11
6.67892e-12
5.51685e-11
3.82776e-11
5.5933e-13
3.91997e-12
1.23719e-14
2.28758e-13
1.70591e-19
5.29761e-19
1.07257e-18
5.73632e-18
3.23924e-17
1.16221e-16
3.29178e-16
4.87868e-16
1.20068e-15
1.36634e-15
1.93912e-15
2.15581e-15
1.96267e-15
2.0963e-15
2.18051e-15
1.76365e-15
2.79605e-15
1.37705e-14
7.60688e-13
4.15411e-11
5.85366e-10
7.66521e-09
3.68181e-08
9.0278e-08
2.47439e-07
4.99663e-07
7.31132e-07
7.96033e-07
6.79756e-07
4.42685e-07
1.9817e-07
5.48384e-08
1.81649e-09
7.64236e-09
3.26137e-10
1.43219e-09
2.66586e-10
2.42447e-11
1.97313e-10
1.33496e-10
1.98538e-12
1.37727e-11
4.10238e-14
7.73468e-13
1.14026e-18
2.9556e-18
3.81731e-18
1.62809e-17
1.12511e-16
3.30236e-16
7.35331e-16
1.69808e-15
3.02871e-15
5.20126e-15
6.93324e-15
8.52088e-15
8.65926e-15
9.73723e-15
1.10805e-14
7.66432e-15
1.05998e-14
2.39628e-14
6.92713e-13
4.6397e-11
1.4383e-09
1.41121e-08
1.11806e-07
3.22203e-07
1.08513e-06
2.65034e-06
4.58496e-06
5.86238e-06
5.65837e-06
4.38729e-06
2.43777e-06
7.86859e-07
2.99031e-08
1.19994e-07
5.81198e-09
2.24408e-08
1.17799e-09
4.8848e-09
9.19061e-10
8.40618e-11
6.70616e-10
4.6695e-10
6.86e-12
4.8182e-11
1.28523e-13
2.55887e-12
5.78649e-18
1.99823e-17
2.09453e-17
5.37973e-17
2.74089e-16
8.69303e-16
2.49684e-15
5.85798e-15
1.10794e-14
2.01361e-14
2.89568e-14
3.61191e-14
3.93721e-14
4.4789e-14
5.89492e-14
3.8706e-14
4.64787e-14
7.6353e-14
5.9642e-13
4.26679e-11
1.71021e-09
3.22099e-08
2.37474e-07
8.8651e-07
3.66245e-06
1.07347e-05
2.21037e-05
3.33693e-05
3.83077e-05
3.36364e-05
2.32362e-05
9.95694e-06
4.91614e-07
1.98427e-06
8.47362e-08
3.26159e-07
1.9157e-08
7.30781e-08
3.97139e-09
1.63522e-08
3.14135e-09
3.0414e-10
2.41904e-09
1.79081e-09
2.40218e-11
1.79344e-10
3.99428e-13
8.9299e-12
3.10026e-17
1.05792e-16
6.557e-17
1.31836e-16
5.73026e-16
2.45208e-15
7.89037e-15
2.00947e-14
4.36245e-14
7.95202e-14
1.2188e-13
1.57278e-13
1.81215e-13
2.0658e-13
2.5298e-13
2.30588e-13
2.0585e-13
3.07614e-13
7.44611e-13
3.09658e-11
1.55315e-09
3.40993e-08
2.88708e-07
1.65725e-06
8.68866e-06
3.12301e-05
7.69141e-05
0.000133431
0.000177894
0.000183786
0.000147851
9.36647e-05
7.77437e-06
2.88782e-05
1.2551e-06
4.78668e-06
2.7567e-07
1.04099e-06
6.42726e-08
2.45969e-07
1.38343e-08
5.82144e-08
1.18173e-08
1.21886e-09
9.82666e-09
7.79742e-09
9.02317e-11
7.32298e-10
1.37471e-12
3.38225e-11
2.97591e-16
4.11657e-16
2.05226e-16
3.00373e-16
1.32536e-15
6.38897e-15
2.46537e-14
7.06782e-14
1.64228e-13
3.10048e-13
4.89926e-13
6.59294e-13
7.95374e-13
9.38156e-13
1.14886e-12
1.31256e-12
8.95906e-13
1.24669e-12
1.94287e-12
1.89223e-11
1.17747e-09
3.40986e-08
4.18875e-07
2.58727e-06
1.50524e-05
6.06789e-05
0.000171565
0.000351971
0.000511137
0.000592719
0.00055354
0.000411197
0.000102144
0.000311096
1.76183e-05
6.58823e-05
3.82732e-06
1.35703e-05
9.29056e-07
3.40174e-06
2.33993e-07
9.05474e-07
5.42344e-08
2.35949e-07
5.12232e-08
5.50089e-09
4.67154e-08
3.94242e-08
3.67882e-10
3.3165e-09
5.18979e-12
1.38582e-10
1.06775e-15
1.13225e-15
8.50587e-16
7.26875e-16
2.96981e-15
1.77238e-14
7.65442e-14
2.42193e-13
5.93239e-13
1.15999e-12
1.88171e-12
2.61866e-12
3.28704e-12
4.02204e-12
5.14393e-12
6.66073e-12
3.95188e-12
4.93147e-12
6.93333e-12
1.75798e-11
7.37747e-10
2.67271e-08
3.31119e-07
2.89658e-06
2.08245e-05
9.11112e-05
0.000272821
0.000563207
0.000885538
0.00109789
0.0012014
0.00110211
0.000571368
0.000923046
0.000210425
0.000483565
4.82288e-05
0.000154804
1.17384e-05
3.97833e-05
3.37697e-06
1.16359e-05
9.7664e-07
3.78948e-06
2.50104e-07
1.12586e-06
2.63463e-07
2.84023e-08
2.60521e-07
2.28269e-07
1.64774e-09
1.69181e-08
2.11833e-11
6.07782e-10
2.33217e-15
4.59621e-15
3.23796e-15
1.70069e-15
6.58475e-15
4.5718e-14
2.24109e-13
7.83413e-13
2.04346e-12
4.15835e-12
6.91937e-12
9.87358e-12
1.27491e-11
1.60949e-11
2.09978e-11
3.03734e-11
1.80203e-11
1.91448e-11
2.54107e-11
3.52258e-11
4.11973e-10
1.96539e-08
3.64127e-07
2.97764e-06
2.33885e-05
0.000116383
0.000356412
0.00074992
0.0011267
0.00138661
0.00158833
0.00170166
0.00123214
0.00159843
0.000797414
0.0011397
0.00039486
0.0006964
0.000126008
0.000336254
3.81539e-05
0.000117993
1.32919e-05
4.31356e-05
4.70362e-06
1.71321e-05
1.352e-06
6.10284e-06
1.54441e-06
1.65509e-07
1.60424e-06
1.42572e-06
8.11174e-09
9.61122e-08
9.27871e-11
2.84347e-09
9.15983e-15
1.86166e-14
1.15988e-14
5.15141e-15
1.37387e-14
1.04632e-13
5.99799e-13
2.35212e-12
6.64373e-12
1.42194e-11
2.43671e-11
3.55261e-11
4.67154e-11
5.99545e-11
7.97102e-11
1.13642e-10
9.18385e-11
7.35875e-11
9.10935e-11
1.10719e-10
3.14334e-10
1.14245e-08
3.09873e-07
2.71154e-06
2.31661e-05
0.000125122
0.000420228
0.000859417
0.00115892
0.00139712
0.0016295
0.0018534
0.00184071
0.00200428
0.00149261
0.00181037
0.0010344
0.00139354
0.000627028
0.000958254
0.000314087
0.000599793
0.000129105
0.000332238
5.56743e-05
0.000159731
2.34192e-05
7.6983e-05
7.86004e-06
3.18381e-05
9.27164e-06
1.03648e-06
9.80112e-06
8.81677e-06
4.36143e-08
5.88118e-07
4.37719e-10
1.42529e-08
4.25326e-14
8.24015e-14
5.18532e-14
1.86057e-14
2.65702e-14
2.16879e-13
1.4361e-12
6.46655e-12
2.01783e-11
4.60663e-11
8.20537e-11
1.22483e-10
1.63296e-10
2.09964e-10
2.8123e-10
3.89176e-10
4.35473e-10
2.78056e-10
3.18438e-10
3.67727e-10
4.61315e-10
6.3619e-09
2.08342e-07
2.17773e-06
2.1595e-05
0.000122918
0.000438174
0.000869218
0.00108885
0.00127758
0.00150046
0.00176526
0.0020764
0.00203852
0.00215231
0.00174371
0.00203893
0.00131727
0.00168221
0.000930219
0.00128915
0.000622867
0.000960879
0.000394062
0.000705716
0.000214247
0.000499892
0.000107213
0.000295181
4.11268e-05
0.00014291
4.80652e-05
6.50588e-06
5.05612e-05
4.61052e-05
2.52018e-07
3.71233e-06
2.23926e-09
7.60457e-08
1.93034e-13
3.61007e-13
2.28103e-13
7.62272e-14
5.60408e-14
4.13016e-13
3.09973e-12
1.60458e-11
5.65136e-11
1.40164e-10
2.63079e-10
4.04775e-10
5.48378e-10
7.02129e-10
9.25866e-10
1.3113e-09
1.79947e-09
1.05363e-09
1.08415e-09
1.19409e-09
1.22917e-09
4.16313e-09
1.30346e-07
1.59966e-06
1.76894e-05
0.000116371
0.000432088
0.000856647
0.00100438
0.00105096
0.0011258
0.00148319
0.00184474
0.00228051
0.00217594
0.00222681
0.00229081
0.00201657
0.00227707
0.00166039
0.00201577
0.00132729
0.00170475
0.00106085
0.00144318
0.000853111
0.00124033
0.000647934
0.00105965
0.00039662
0.000830399
0.000177751
0.000503595
0.000201949
3.53359e-05
0.000208759
0.000191454
1.51988e-06
2.12876e-05
1.2463e-08
4.23316e-07
8.28244e-13
1.55967e-12
9.90324e-13
3.2815e-13
1.31467e-13
7.62452e-13
6.12818e-12
3.62574e-11
1.44309e-10
3.96611e-10
7.97271e-10
1.27938e-09
1.77376e-09
2.2714e-09
2.89719e-09
4.0852e-09
6.40406e-09
3.85774e-09
3.61677e-09
3.76148e-09
3.70261e-09
4.67239e-09
7.42849e-08
1.17716e-06
1.30598e-05
9.99937e-05
0.000412497
0.000838775
0.000954762
0.000884881
0.000679852
0.00100823
0.00153194
0.00202778
0.00187254
0.00242116
0.00229826
0.0024208
0.00245156
0.00232005
0.00253674
0.00207184
0.00240062
0.00183326
0.00221038
0.0016466
0.00205673
0.00149957
0.00194378
0.00132034
0.0018255
0.00103739
0.00161787
0.000595988
0.00124445
0.000655389
0.000151527
0.00066272
0.000609243
8.95519e-06
9.71728e-05
7.27955e-08
2.34083e-06
2.92897e-12
6.53886e-12
4.35997e-12
1.31307e-12
3.54432e-13
1.20084e-12
1.15462e-11
7.46427e-11
3.38903e-10
1.03511e-09
2.26664e-09
3.84987e-09
5.51824e-09
7.14128e-09
8.83585e-09
1.17738e-08
1.99177e-08
1.35125e-08
1.18225e-08
1.15113e-08
1.09645e-08
9.89524e-09
4.20824e-08
8.54425e-07
9.22976e-06
7.93602e-05
0.000369099
0.000820433
0.000932975
0.000809546
0.000439432
0.000494645
0.00114044
0.00183601
0.00180025
0.00214679
0.00207689
0.0025911
0.00245112
0.00263538
0.00264038
0.00266159
0.00282559
0.00255329
0.00283905
0.00244779
0.00280073
0.00238041
0.00279256
0.00232762
0.00280422
0.00220792
0.00277995
0.00193314
0.00261931
0.00142194
0.00222961
0.001545
0.000501806
0.00157933
0.0014862
4.31858e-05
0.000339363
3.60068e-07
1.10421e-05
8.74584e-12
2.03851e-11
1.89833e-11
5.63351e-12
1.26544e-12
1.85308e-12
1.98847e-11
1.45271e-10
7.27558e-10
2.50458e-09
6.00911e-09
1.09598e-08
1.64539e-08
2.17683e-08
2.66017e-08
3.25221e-08
5.40484e-08
4.41962e-08
3.7079e-08
3.43166e-08
3.15079e-08
2.69979e-08
3.749e-08
5.80753e-07
6.44919e-06
6.08989e-05
0.000315366
0.000792601
0.000924388
0.000798653
0.000382493
0.000200768
0.00050712
0.00178617
0.00208426
0.00217343
0.00234375
0.00232312
0.00278946
0.00266192
0.00287861
0.00286686
0.003044
0.00314805
0.00309976
0.00332623
0.00315691
0.00346179
0.00324358
0.00362548
0.00331689
0.0037921
0.00328042
0.00389866
0.00302926
0.00379499
0.00247357
0.0033877
0.0026288
0.00125733
0.00267374
0.00257602
0.000166227
0.000896773
1.24667e-06
4.46546e-05
5.66432e-11
5.03249e-11
2.31261e-11
5.03454e-12
3.21556e-12
2.99333e-11
2.63078e-10
1.47821e-09
5.59405e-09
1.48953e-08
2.93873e-08
4.6765e-08
6.39752e-08
7.85793e-08
9.10208e-08
1.18161e-07
1.26586e-07
1.0966e-07
9.93291e-08
8.78202e-08
7.3877e-08
5.57627e-08
3.64408e-07
4.51496e-06
4.61047e-05
0.000263407
0.00075021
0.000923114
0.000810797
0.000395853
0.000122159
0.000152796
0.000777934
0.00235144
0.00196237
0.00235948
0.00238328
0.00259814
0.00259994
0.00302919
0.00292708
0.00316231
0.00313212
0.00346345
0.00350539
0.00369628
0.00384661
0.0039318
0.00416136
0.00419726
0.00450137
0.00441422
0.00478773
0.00448643
0.00494203
0.00428093
0.00497452
0.0036722
0.00465792
0.00383911
0.00231869
0.0038864
0.00376419
0.000501138
0.00183657
4.3701e-06
0.000145486
1.34586e-10
9.00403e-11
2.19603e-11
6.57411e-12
4.41145e-11
4.51063e-10
2.75936e-09
1.18769e-08
3.44015e-08
7.42356e-08
1.26155e-07
1.80146e-07
2.2524e-07
2.56271e-07
2.85132e-07
3.37365e-07
3.00962e-07
2.78895e-07
2.35764e-07
1.93941e-07
1.28461e-07
2.64604e-07
3.12909e-06
3.45629e-05
0.000216826
0.000691114
0.000923632
0.000843853
0.000454479
0.000125194
4.71631e-05
0.000165441
0.00133153
0.000578643
0.00246393
0.00192992
0.00264436
0.00264137
0.00289201
0.00290186
0.00331543
0.00323258
0.00349328
0.00342885
0.00390688
0.00390216
0.00430711
0.00436793
0.00470055
0.00481429
0.00497958
0.00508098
0.00514056
0.0052095
0.00525528
0.00531531
0.00530356
0.00543857
0.004946
0.00556446
0.00505991
0.00345256
0.00509656
0.00502179
0.00428398
0.00115801
0.00291754
1.19025e-05
0.000342406
1.97872e-10
7.98176e-11
1.58171e-11
6.52747e-11
6.63573e-10
4.99485e-09
2.28461e-08
7.57436e-08
1.76e-07
3.22369e-07
4.83939e-07
6.21104e-07
7.07384e-07
7.43494e-07
7.79946e-07
7.73578e-07
7.59249e-07
6.0083e-07
4.86379e-07
3.24998e-07
2.86543e-07
2.08069e-06
2.55363e-05
0.000176971
0.000623339
0.00092292
0.000883533
0.000544463
0.00016287
3.5708e-05
2.76563e-05
0.000137475
0.00112391
0.000520838
0.00247435
0.00174856
0.00290059
0.00279004
0.00320439
0.00316706
0.00363326
0.00354932
0.00385716
0.00374366
0.00436453
0.0043193
0.00484366
0.00482083
0.00512049
0.00511408
0.00522398
0.00521609
0.00528135
0.00520211
0.00537968
0.00516816
0.00560379
0.00534687
0.00574655
0.0057042
0.00577131
0.00555312
0.00590073
0.00487615
0.00389433
0.00474906
0.00554417
0.0059883
0.00591027
0.00552767
0.00139586
0.00233987
0.00449958
0.00425368
0.00327952
4.93052e-05
0.0018579
0.000388631
0.00116646
1.9067e-10
4.88166e-11
8.80875e-11
9.89872e-10
8.3508e-09
4.31154e-08
1.50378e-07
3.97218e-07
7.75783e-07
1.23482e-06
1.63766e-06
1.88576e-06
1.95299e-06
1.91358e-06
1.8749e-06
1.85165e-06
1.48015e-06
1.17383e-06
8.04794e-07
5.15091e-07
1.3943e-06
1.79527e-05
0.0001431
0.000554283
0.000918395
0.000917312
0.000624156
0.000232458
4.71986e-05
9.34413e-06
1.72069e-05
0.000160039
3.17597e-05
0.000968508
0.000415198
0.0022578
0.00144034
0.00305501
0.00280773
0.00344504
0.00329293
0.0038942
0.00371333
0.00420311
0.00405717
0.00474908
0.00460478
0.00508028
0.004999
0.00519793
0.0051579
0.00509121
0.00500503
0.00482012
0.00455186
0.00509621
0.00477295
0.00450287
0.00422467
0.00551395
0.00514552
0.00460381
0.00426277
0.00475289
0.00572573
0.00593555
0.00581026
0.00550018
0.00601228
0.00543606
0.00528416
0.00598086
0.00615687
0.0060848
0.00595965
0.00290981
0.00508291
0.00485219
0.0039266
0.00110645
0.000654089
0.00247382
0.00191194
1.48832e-10
1.27945e-10
1.356e-09
1.25968e-08
7.30336e-08
2.93171e-07
8.11212e-07
1.77155e-06
2.96988e-06
4.11513e-06
4.8387e-06
5.02566e-06
4.80693e-06
4.4538e-06
4.22154e-06
3.63067e-06
2.72466e-06
1.93434e-06
1.21181e-06
1.24741e-06
1.27248e-05
0.000113584
0.00048791
0.000904524
0.000942857
0.000694198
0.000304839
7.10947e-05
1.02615e-05
2.67752e-06
3.83776e-06
8.04853e-05
2.11948e-05
0.000712541
0.000272657
0.00185043
0.00104715
0.00305548
0.002592
0.0035177
0.00325696
0.00397311
0.00372534
0.00441716
0.00420058
0.00486099
0.00467526
0.00508363
0.00496582
0.00494819
0.00489725
0.00441351
0.00437865
0.00404033
0.00387941
0.00380019
0.00375381
0.00420467
0.00387492
0.00361655
0.00509406
0.00459712
0.00385764
0.0035407
0.00406563
0.00551029
0.00589803
0.00555729
0.00505177
0.00597711
0.00589882
0.00578871
0.00621078
0.00606727
0.00616702
0.00624494
0.00360843
0.00562994
0.00545057
0.00460936
0.00353302
0.00144842
0.00253207
0.00379204
0.00330768
0.00312267
1.96117e-10
1.8786e-09
1.76594e-08
1.23754e-07
5.0979e-07
1.61565e-06
3.6895e-06
6.77187e-06
9.80528e-06
1.19588e-05
1.26217e-05
1.20608e-05
1.08271e-05
9.59769e-06
8.06473e-06
6.13072e-06
4.54754e-06
2.90609e-06
1.62487e-06
7.7758e-06
8.5592e-05
0.000425015
0.000882399
0.000961486
0.000753888
0.00037431
9.72682e-05
1.5506e-05
1.78487e-06
7.15411e-07
2.9254e-06
4.57228e-07
4.35922e-05
1.06388e-05
0.000453008
0.000153226
0.00135911
0.000664155
0.00281494
0.00215314
0.00340797
0.00296103
0.00387761
0.0035076
0.00444675
0.00418387
0.00479027
0.00455531
0.00481606
0.00467407
0.00438835
0.00437566
0.00375211
0.00377298
0.0038046
0.00383844
0.00344367
0.00333456
0.00330002
0.00329987
0.00348076
0.0031783
0.00297661
0.00449099
0.0038747
0.00308822
0.00273443
0.00326509
0.00505185
0.00562537
0.00509644
0.0044284
0.00572312
0.0062428
0.00620426
0.00626787
0.0058493
0.00600252
0.0063621
0.00438664
0.00611708
0.0059931
0.00527292
0.00427218
0.00464365
0.00101954
0.00364224
0.00426196
2.20823e-09
2.57749e-08
1.86546e-07
8.84494e-07
2.86476e-06
7.391e-06
1.42329e-05
2.2222e-05
2.82698e-05
3.08417e-05
2.99229e-05
2.66174e-05
2.2554e-05
1.82847e-05
1.43506e-05
1.05743e-05
6.7802e-06
3.14217e-06
5.43515e-06
6.05893e-05
0.000363814
0.00085208
0.000973876
0.000804631
0.000439455
0.000127114
2.2388e-05
2.40865e-06
2.4279e-07
9.01955e-08
1.13578e-06
4.30769e-07
2.06225e-05
4.89378e-06
0.00025105
7.75236e-05
0.000875233
0.000371622
0.00234861
0.00160246
0.00304101
0.00245631
0.00352317
0.00304685
0.00426506
0.00392362
0.00445471
0.00415968
0.0042916
0.0041002
0.00385959
0.00386353
0.00384463
0.00378192
0.00333603
0.0033778
0.0034224
0.00344903
0.00287297
0.00284279
0.00285422
0.0028948
0.00273944
0.00251811
0.00242396
0.00373332
0.00303962
0.00233329
0.00198021
0.00243285
0.00442638
0.00518359
0.00448998
0.00366392
0.00531381
0.00643624
0.00647532
0.0061784
0.00548699
0.00570299
0.00635507
0.00512543
0.00648085
0.00643909
0.00584938
0.00506101
0.0050717
0.00496665
0.000353399
0.00276024
3.24913e-08
2.69663e-07
1.35926e-06
4.9769e-06
1.31494e-05
2.81111e-05
4.6214e-05
6.25052e-05
7.23272e-05
7.32794e-05
6.56452e-05
5.4351e-05
4.25698e-05
3.33084e-05
2.33531e-05
1.54859e-05
7.0087e-06
5.52761e-06
3.89974e-05
0.000303462
0.000812792
0.000980668
0.00084782
0.000499943
0.000161434
3.13448e-05
3.73956e-06
2.94403e-07
2.30622e-08
5.79781e-08
5.50433e-09
5.18155e-07
1.77273e-07
9.45913e-06
2.09139e-06
0.000127398
3.72565e-05
0.000511269
0.000195445
0.00176781
0.00106548
0.00248494
0.00185563
0.00293185
0.0024139
0.00379958
0.00339203
0.00381075
0.00344362
0.00344285
0.00312238
0.00345559
0.00344149
0.0034026
0.00335924
0.00294203
0.00298119
0.00299674
0.00299015
0.00240213
0.00241759
0.00245857
0.00249943
0.00209866
0.00200983
0.00199118
0.00289672
0.00221521
0.00172869
0.00141667
0.00170114
0.00368384
0.00461303
0.00378795
0.00285149
0.00479477
0.00651267
0.00663171
0.0059556
0.00503147
0.00532307
0.00622775
0.00572208
0.00671148
0.00675617
0.00634294
0.00564112
0.00555557
0.00494056
0.000405597
0.00304565
3.63143e-07
2.12359e-06
7.64514e-06
2.23068e-05
4.9051e-05
8.69464e-05
0.000124361
0.00015293
0.000158778
0.000145477
0.000121207
9.54966e-05
7.39591e-05
5.34578e-05
3.6778e-05
1.59299e-05
7.66103e-06
2.71863e-05
0.000242721
0.000763269
0.000982688
0.000885511
0.000555457
0.000203385
4.32088e-05
5.77754e-06
5.18884e-07
3.02094e-08
1.99291e-09
1.66758e-08
4.93434e-09
2.19451e-07
7.11804e-08
3.55665e-06
7.45023e-07
6.08429e-05
1.56336e-05
0.000275802
8.80907e-05
0.00121402
0.000653947
0.00185239
0.00128499
0.00214834
0.00167548
0.00303092
0.00260041
0.00274512
0.00234526
0.00250812
0.00234429
0.00199264
0.00217531
0.00295331
0.00288797
0.00279136
0.00266545
0.00251937
0.00251681
0.00248626
0.00242306
0.00200255
0.00203311
0.00205292
0.00205266
0.0016376
0.00161558
0.00161498
0.00209836
0.00151411
0.00130893
0.00103284
0.00117013
0.00291447
0.0039688
0.00307759
0.00209346
0.00422362
0.00649435
0.00671483
0.00566334
0.00454474
0.00492943
0.00603529
0.00622084
0.00686688
0.00697059
0.00675032
0.00608854
0.00589857
0.00528906
0.00233659
0.00476387
2.82329e-06
1.15447e-05
3.3661e-05
7.94359e-05
0.000144161
0.000216519
0.000267676
0.000283962
0.000265383
0.000225296
0.000178755
0.000138118
0.000103588
7.8107e-05
3.6325e-05
1.4321e-05
2.33442e-05
0.000182317
0.000700499
0.000981771
0.000918978
0.000610036
0.000254116
5.9374e-05
8.88426e-06
9.61774e-07
6.73759e-08
2.86223e-09
1.50242e-09
5.67652e-10
8.0055e-09
3.05234e-09
9.1793e-08
2.70197e-08
1.11307e-06
2.57797e-07
2.26986e-05
5.21082e-06
0.000109063
2.84761e-05
0.000759464
0.000341448
0.00119877
0.000735008
0.0012085
0.000848866
0.00195088
0.00157172
0.00181046
0.00161665
0.001183
0.00180107
0.00166043
0.00141809
0.00153382
0.00233452
0.00222268
0.0020894
0.00194776
0.00202858
0.00197481
0.00189811
0.00180374
0.00162508
0.00162544
0.00161053
0.0015743
0.00127558
0.00126411
0.00125943
0.00143123
0.000995712
0.000983637
0.000766528
0.000822861
0.00220977
0.00333605
0.00244951
0.00146593
0.00368183
0.00640822
0.006738
0.00536736
0.00410353
0.00459364
0.00584275
0.00665534
0.00697758
0.00713099
0.00702805
0.00647113
0.00631821
0.00613055
0.00470607
0.0061423
1.56277e-05
4.81943e-05
0.000114708
0.000216902
0.000325805
0.000409361
0.000442764
0.000426284
0.000369818
0.000297347
0.000227823
0.000171659
0.000133273
7.99235e-05
3.05548e-05
2.30838e-05
0.000130372
0.000623643
0.000976462
0.000948872
0.000664267
0.000313448
8.15016e-05
1.36249e-05
1.71962e-06
1.54998e-07
8.38645e-09
3.87112e-10
1.22077e-09
5.87672e-10
5.23563e-09
2.45426e-09
4.03039e-08
1.28583e-08
3.24874e-07
1.13078e-07
6.59633e-06
1.46718e-06
2.97355e-05
7.36963e-06
0.000339487
0.00011044
0.000509998
0.000243029
0.000544881
0.000354784
0.000943246
0.000765494
0.00131595
0.00123841
0.00107446
0.000992673
0.00139786
0.00134408
0.00124698
0.00129541
0.00170327
0.00160521
0.00152198
0.00145535
0.00152665
0.00147548
0.00143352
0.00140812
0.00125386
0.00124406
0.00123709
0.00123979
0.000970429
0.00097147
0.000981594
0.000933021
0.000703832
0.000761172
0.000636973
0.000638599
0.0016534
0.00280165
0.00198716
0.00103676
0.00325208
0.00631656
0.0067377
0.00513707
0.00378468
0.00438298
0.00571127
0.00699265
0.00705597
0.00726103
0.00722375
0.00683777
0.00673448
0.00672684
0.00285768
0.00584505
6.31157e-05
0.000153425
0.00029206
0.000444507
0.000564444
0.000627092
0.000620016
0.000555334
0.0004549
0.000349807
0.000262699
0.000202895
0.000138705
6.95175e-05
2.82052e-05
9.57008e-05
0.000531767
0.000963178
0.000974949
0.000717968
0.000378387
0.00011336
2.10272e-05
2.93906e-06
3.27691e-07
2.38453e-08
9.39229e-10
2.92826e-10
1.24813e-10
1.12419e-09
5.68682e-10
4.23876e-09
2.17884e-09
2.16492e-08
8.80757e-09
1.49951e-07
6.13191e-08
1.84664e-06
4.9983e-07
8.65914e-06
3.04166e-06
9.13382e-05
2.79916e-05
0.000192081
9.2622e-05
0.000571699
0.000394186
0.000895991
0.000816265
0.000775847
0.00119762
0.00114284
0.00154548
0.00146293
0.0015059
0.00156285
0.00162224
0.00160344
0.00139984
0.00140653
0.001424
0.00146333
0.00125472
0.00130273
0.00137313
0.0014686
0.00101593
0.00107199
0.00115009
0.00125465
0.000777198
0.000844327
0.000934228
0.000716725
0.000622301
0.000689249
0.000658428
0.000612655
0.00132375
0.00244295
0.00175315
0.000882987
0.00300284
0.00626955
0.00675607
0.00503175
0.00364663
0.00434751
0.00568611
0.00724297
0.00713183
0.00738359
0.00738021
0.00715778
0.0070213
0.00684293
0.000756838
0.00462006
0.000191591
0.000364326
0.000559938
0.000722965
0.000820333
0.000836036
0.000772343
0.000651619
0.000509533
0.000380434
0.000284857
0.000205808
0.000126731
4.58017e-05
7.9529e-05
0.000436902
0.000936848
0.000997208
0.000771289
0.000444204
0.000162668
3.3186e-05
4.98389e-06
6.15924e-07
5.83712e-08
3.2649e-09
1.08973e-10
2.4789e-10
1.14946e-10
1.02056e-09
5.14782e-10
3.78386e-09
1.97464e-09
1.70529e-08
7.37101e-09
1.23886e-07
4.72503e-08
1.02244e-06
3.49182e-07
6.55336e-06
3.02279e-06
3.97194e-05
1.57893e-05
0.000235719
0.000133291
0.00142515
0.00122312
0.00109966
0.0013469
0.00119503
0.0016362
0.0018666