/*--------------------------------*- C++ -*----------------------------------*\
  =========                 |
  \\      /  F ield         | OpenFOAM: The Open Source CFD Toolbox
   \\    /   O peration     | Website:  https://openfoam.org
    \\  /    A nd           | Version:  dev
     \\/     M anipulation  |
\*---------------------------------------------------------------------------*/
FoamFile
{
    version     2.0;
    format      ascii;
    class       volScalarField;
    location    "2500";
    object      G;
}
// * * * * * * * * * * * * * * * * * * * * * * * * * * * * * * * * * * * * * //

dimensions      [1 0 -3 0 0 0 0];

internalField   nonuniform List<scalar> 
9840
(
3999.46
4005.22
4006.66
4010.25
4012.43
4014.61
4014.56
4017.47
4020.39
4023.31
4018.16
4021.78
4025.43
4029.1
4032.79
4021.06
4025.38
4029.75
4034.15
4038.59
4043.06
4023.28
4028.28
4033.34
4038.45
4043.64
4048.87
4054.13
4024.82
4030.49
4036.21
4042.02
4047.92
4053.9
4059.95
4066.04
4025.73
4032.02
4038.39
4044.86
4051.45
4058.16
4064.97
4071.87
4078.82
4026
4032.9
4039.89
4047
4054.24
4061.64
4069.18
4076.86
4084.64
4092.49
4025.67
4033.15
4040.73
4048.44
4056.31
4064.36
4072.6
4081.03
4089.61
4098.31
4107.1
4024.77
4032.8
4040.93
4049.22
4057.68
4066.35
4075.25
4084.37
4093.71
4103.24
4112.92
4122.69
4023.32
4031.87
4040.53
4049.35
4058.37
4067.62
4077.13
4086.91
4096.96
4107.27
4117.8
4128.5
4139.31
4021.35
4030.38
4039.54
4048.86
4058.4
4068.19
4078.27
4088.66
4099.37
4110.41
4121.74
4133.33
4145.11
4157.03
4018.89
4028.38
4037.99
4047.78
4057.8
4068.1
4078.71
4089.66
4100.98
4112.67
4124.74
4137.16
4149.87
4162.82
4175.91
4015.96
4025.88
4035.92
4046.15
4056.61
4067.37
4078.46
4089.92
4101.8
4114.1
4126.84
4140.01
4153.58
4167.49
4181.67
4196.02
4012.61
4022.92
4033.35
4043.98
4054.85
4066.03
4077.56
4089.49
4101.86
4114.71
4128.05
4141.9
4156.25
4171.05
4186.25
4201.76
4217.47
4008.86
4019.52
4030.32
4041.32
4052.56
4064.12
4076.04
4088.38
4101.2
4114.53
4128.42
4142.88
4157.91
4173.51
4189.64
4206.23
4223.17
4240.34
4004.73
4015.73
4026.86
4038.19
4049.77
4061.66
4073.94
4086.65
4099.86
4113.62
4127.97
4142.96
4158.6
4174.91
4191.86
4209.42
4227.5
4245.99
4264.75
4000.26
4011.56
4023
4034.62
4046.51
4058.71
4071.3
4084.33
4097.88
4112
4126.76
4142.2
4158.36
4175.28
4192.95
4211.36
4230.46
4250.17
4270.34
4290.82
3995.48
4007.05
4018.76
4030.66
4042.81
4055.28
4068.14
4081.46
4095.3
4109.73
4124.82
4140.64
4157.24
4174.67
4192.95
4212.09
4232.08
4252.86
4274.33
4296.35
4318.72
3990.42
4002.23
4014.18
4026.32
4038.71
4051.42
4064.52
4078.07
4092.15
4106.84
4122.21
4138.34
4155.29
4173.13
4191.91
4211.68
4232.41
4254.11
4276.72
4300.13
4324.16
4348.59
3985.09
3997.12
4009.29
4021.64
4034.25
4047.16
4060.46
4074.21
4088.5
4103.39
4118.98
4135.34
4152.56
4170.72
4189.9
4210.15
4231.51
4253.98
4277.55
4302.16
4327.68
4353.93
4380.65
3979.52
3991.75
4004.11
4016.66
4029.44
4042.54
4056
4069.92
4084.36
4099.42
4115.17
4131.71
4149.13
4167.52
4186.98
4207.6
4229.43
4252.53
4276.89
4302.5
4329.3
4357.16
4385.86
4415.11
3973.75
3986.15
3998.68
4011.39
4024.33
4037.57
4051.18
4065.23
4079.8
4094.97
4110.84
4127.5
4145.05
4163.59
4183.24
4204.1
4226.26
4249.81
4274.8
4301.23
4329.09
4358.31
4388.75
4420.16
4452.29
3967.79
3980.34
3993.01
4005.86
4018.94
4032.31
4046.03
4060.18
4074.84
4090.09
4106.03
4122.76
4140.37
4159
4178.74
4199.74
4222.09
4245.94
4271.36
4298.42
4327.11
4357.44
4389.34
4422.65
4457.16
4492.53
3961.66
3974.33
3987.13
4000.1
4013.3
4026.77
4040.58
4054.81
4069.53
4084.83
4100.8
4117.54
4135.17
4153.8
4173.56
4194.6
4217.03
4241.02
4266.68
4294.15
4323.47
4354.66
4387.73
4422.6
4459.16
4497.16
4536.11
3955.38
3968.17
3981.07
3994.14
4007.43
4020.98
4034.86
4049.15
4063.9
4079.22
4095.19
4111.91
4129.5
4148.08
4167.78
4188.76
4211.17
4235.16
4260.91
4288.56
4318.27
4350.08
4384.03
4420.12
4458.35
4498.58
4540.45
4583.46
3948.97
3961.85
3974.85
3988
4001.36
4014.97
4028.91
4043.22
4057.99
4073.3
4089.24
4105.9
4123.41
4141.89
4161.47
4182.32
4204.59
4228.47
4254.15
4281.81
4311.64
4343.8
4378.36
4415.36
4454.86
4496.88
4541.17
4587.42
4635.06
3942.45
3955.41
3968.47
3981.69
3995.11
4008.77
4022.74
4037.07
4051.84
4067.12
4082.99
4099.57
4116.97
4135.29
4154.7
4175.34
4197.4
4221.06
4246.53
4274.02
4303.77
4335.98
4370.85
4408.45
4448.86
4492.21
4538.4
4587.29
4638.55
4691.52
3935.84
3948.85
3961.97
3975.24
3988.7
4002.4
4016.38
4030.72
4045.46
4060.69
4076.5
4092.97
4110.22
4128.36
4147.55
4167.93
4189.69
4213.03
4238.17
4265.35
4294.83
4326.85
4361.69
4399.54
4440.52
4484.77
4532.35
4583.26
4637.38
4694.46
4753.61
3929.13
3942.2
3955.36
3968.67
3982.16
3995.87
4009.86
4024.18
4038.89
4054.06
4069.78
4086.12
4103.2
4121.14
4140.07
4160.14
4181.55
4204.48
4229.19
4255.92
4284.95
4316.59
4351.11
4388.83
4430
4474.78
4523.26
4575.57
4631.8
4691.98
4755.82
4822.22
3922.35
3935.45
3948.66
3961.99
3975.49
3989.21
4003.19
4017.49
4032.15
4047.25
4062.86
4079.07
4095.97
4113.68
4132.33
4152.06
4173.06
4195.53
4219.71
4245.87
4274.3
4305.35
4339.35
4376.63
4417.54
4462.42
4511.38
4564.53
4622.16
4684.47
4751.7
4823.55
4898.5
3915.52
3928.64
3941.87
3955.22
3968.73
3982.44
3996.41
4010.66
4025.27
4040.28
4055.78
4071.84
4088.55
4106.02
4124.37
4143.75
4164.31
4186.27
4209.86
4235.34
4263.04
4293.33
4326.57
4363.16
4403.48
4447.97
4496.92
4550.46
4608.84
4672.46
4741.75
4817.44
4898.76
4960.99
4963.04
3908.66
3921.77
3935.01
3948.37
3961.88
3975.58
3989.51
4003.73
4018.27
4033.19
4048.57
4064.47
4080.98
4098.2
4116.24
4135.25
4155.37
4176.78
4199.73
4224.47
4251.34
4280.7
4312.98
4348.62
4388.07
4431.79
4480.22
4533.63
4592.23
4656.41
4726.84
4804.19
4890.48
4962.69
4959.48
5006.37
5008.21
3901.77
3914.87
3928.1
3941.46
3954.96
3968.64
3982.53
3996.7
4011.17
4026
4041.25
4056.98
4073.29
4090.26
4107.99
4126.61
4146.27
4167.14
4189.42
4213.38
4239.33
4267.65
4298.79
4333.25
4371.54
4414.19
4461.68
4514.39
4572.67
4636.84
4707.51
4785.81
4860.8
4850.87
4954.18
4897.29
4945.81
5007.26
5003.44
5054.78
5056.32
3894.87
3907.94
3921.16
3934.49
3947.97
3961.63
3975.48
3989.59
4003.98
4018.71
4033.84
4049.41
4065.52
4082.23
4099.65
4117.88
4137.08
4157.39
4179.01
4202.17
4227.17
4254.37
4284.23
4317.28
4354.13
4395.39
4441.61
4493.21
4550.59
4614.17
4684.42
4762.41
4840.09
4827.24
4886.47
4996.92
4935.65
4987.61
5054.73
5050.04
5106.55
5107.71
3887.97
3901
3914.19
3927.49
3940.94
3954.56
3968.37
3982.42
3996.73
4011.36
4026.36
4041.77
4057.67
4074.14
4091.25
4109.12
4127.86
4147.61
4168.56
4190.91
4214.95
4241
4269.49
4300.98
4336.13
4375.65
4420.24
4470.4
4526.49
4588.92
4658.16
4735.08
4813.97
4798.9
4874.04
4860.03
4923.52
5042.34
4975.99
5031.69
5105.37
5099.64
5162.04
5162.81
3881.09
3894.07
3907.21
3920.47
3933.87
3947.44
3961.21
3975.19
3989.43
4003.96
4018.83
4034.08
4049.79
4066.01
4082.83
4100.33
4118.63
4137.85
4158.15
4179.72
4202.79
4227.67
4254.76
4284.59
4317.83
4355.3
4397.87
4446.19
4500.67
4561.62
4629.4
4704.57
4783.66
4766.76
4844.99
4828.77
4909.54
4893.98
4962.29
5090.61
5018.46
5078.39
5159.56
5152.57
5221.68
5222.02
3874.22
3887.14
3900.23
3913.43
3926.78
3940.3
3954
3967.92
3982.07
3996.51
4011.25
4026.36
4041.88
4057.86
4074.39
4091.55
4109.43
4128.14
4147.83
4168.64
4190.79
4214.53
4240.22
4268.33
4299.52
4334.69
4374.87
4420.89
4473.34
4532.54
4598.62
4671.86
4749.91
4731.67
4811.72
4793.68
4877.26
4859.43
4946.6
4929.26
5002.96
5141.97
5063.29
5127.91
5217.72
5209.21
5285.94
5285.87
3867.4
3880.24
3893.26
3906.4
3919.68
3933.13
3946.76
3960.61
3974.68
3989.02
4003.65
4018.61
4033.95
4049.71
4065.97
4082.8
4100.28
4118.51
4137.6
4157.71
4179
4201.68
4226.03
4252.46
4281.56
4314.24
4351.68
4394.99
4444.85
4501.79
4565.94
4637.18
4713.87
4694.91
4775.05
4755.74
4840.68
4821.07
4910.68
4891.02
4985.34
4965.97
5045.71
5196.74
5110.64
5180.47
5280.39
5270.03
5355.49
5354.94
3860.62
3873.38
3886.31
3899.37
3912.58
3925.95
3939.51
3953.27
3967.26
3981.5
3996.02
4010.84
4026.01
4041.57
4057.57
4074.09
4091.2
4108.97
4127.52
4146.96
4167.44
4189.14
4212.28
4237.15
4264.27
4294.45
4328.94
4368.97
4415.56
4469.4
4531.12
4600.19
4676.52
4656.37
4736.26
4716.36
4800.79
4780
4870.42
4849.01
4945.29
4923.54
5025.91
5004.23
5090.65
5255.29
5160.66
5236.39
5348.07
5335.5
5431.07
5429.87
3853.9
3866.56
3879.41
3892.37
3905.49
3918.77
3932.24
3945.92
3959.82
3973.96
3988.36
4003.05
4018.06
4033.43
4049.2
4065.43
4082.19
4099.55
4117.59
4136.43
4156.16
4176.95
4198.97
4222.45
4247.77
4275.67
4307.24
4343.65
4386.07
4435.6
4493.55
4560.2
4636.51
4614.2
4696.26
4675.29
4758.98
4737.69
4826.95
4804.5
4900.88
4877.46
4981.13
4957.01
5068.37
5044.03
5137.88
5318.05
5213.62
5296.06
5421.35
5406.24
5513.66
5511.65
3847.25
3859.81
3872.55
3885.41
3898.42
3911.6
3924.98
3938.56
3952.36
3966.4
3980.7
3995.26
4010.12
4025.31
4040.86
4056.83
4073.26
4090.24
4107.82
4126.09
4145.16
4165.13
4186.14
4208.36
4232.1
4257.99
4287.03
4320.13
4357.88
4401.95
4454.1
4515.97
4592.36
4568.03
4653.38
4630.08
4716.03
4693.51
4781.85
4758.95
4853.48
4829.24
4932.05
4906.43
5018.2
4991.46
5112.7
5085.37
5187.63
5385.54
5269.88
5359.85
5501.24
5483.09
5604.4
5601.38
3840.69
3853.13
3865.75
3878.5
3891.39
3904.46
3917.72
3931.2
3944.9
3958.84
3973.02
3987.47
4002.19
4017.21
4032.56
4048.28
4064.42
4081.04
4098.19
4115.96
4134.42
4153.66
4173.79
4194.91
4217.27
4241.4
4268.34
4298.76
4332.55
4370.79
4416.06
4470.77
4543.8
4518.82
4605.79
4580.12
4669.86
4644.9
4735.54
4711.2
4804.85
4780.14
4880.45
4854.39
4964.06
4936.22
5056.59
5027.17
5159.11
5128.49
5240.2
5458.38
5329.71
5428.22
5588.67
5566.86
5704.67
5700.32
3834.22
3846.53
3859.03
3871.64
3884.41
3897.35
3910.48
3923.84
3937.43
3951.26
3965.34
3979.67
3994.26
4009.13
4024.3
4039.8
4055.67
4071.95
4088.72
4106.02
4123.94
4142.53
4161.87
4182.06
4203.23
4225.89
4251.05
4279.5
4310.49
4343.62
4381.5
4428.59
4485.67
4553.88
4527.61
4618.69
4591.31
4685.72
4658.95
4754.78
4728.5
4828.14
4801.45
4908.3
4880.38
4997.47
4967.61
5096.76
5064.97
5207.96
5174.1
5295.98
5537.29
5393.59
5501.93
5684.68
5658.48
5816.25
5810.17
3827.85
3840.03
3852.39
3864.86
3877.48
3890.28
3903.28
3916.5
3929.97
3943.69
3957.65
3971.87
3986.35
4001.08
4016.08
4031.38
4047
4062.99
4079.4
4096.28
4113.69
4131.7
4150.36
4169.72
4189.9
4211.31
4235.02
4261.99
4291.21
4320.91
4352.03
4390.67
4440.25
4509.42
4484.01
4563.49
4536.05
4630.94
4601.91
4701.07
4672.41
4774.03
4745.65
4852.17
4823.37
4937.84
4908.05
5033.33
5001.81
5139.93
5106.37
5260.16
5223.82
5355.99
5623.31
5462.89
5582.59
5790.78
5759.23
5941.45
5933.13
3821.6
3833.63
3845.85
3858.17
3870.64
3883.27
3896.12
3909.19
3922.52
3936.11
3949.96
3964.07
3978.43
3993.04
4007.89
4023.01
4038.41
4054.14
4070.22
4086.72
4103.67
4121.15
4139.2
4157.85
4177.18
4197.51
4219.95
4245.76
4273.87
4301.86
4328.68
4358.64
4399.57
4460.26
4437.99
4516.6
4490.49
4572.68
4544.13
4642.62
4612.01
4716.16
4685.53
4793.73
4763.1
4877.76
4846.67
4970.35
4938.61
5073.46
5040.61
5188.18
5153.84
5317.68
5280.4
5422.67
5718.06
5540.47
5673.4
5908.8
5870.89
6083.3
6072.15
3815.46
3827.35
3839.42
3851.58
3863.88
3876.34
3889.01
3901.92
3915.09
3928.54
3942.27
3956.27
3970.52
3985.01
3999.74
4014.7
4029.91
4045.4
4061.19
4077.34
4093.88
4110.88
4128.37
4146.4
4165
4184.42
4205.68
4230.42
4257.75
4284.98
4310.05
4334.31
4364.47
4416.93
4397.17
4466.11
4443.22
4523.39
4496.57
4581.45
4551.81
4653.92
4621.72
4731.37
4698.6
4814.57
4781.39
4906.02
4872.28
5007.44
4973.5
5120.1
5085.95
5244.63
5209.99
5383.85
5347.2
5500.09
5825.06
5631.11
5779.98
6041.44
5997.5
6245.22
6230.55
3809.51
3821.19
3833.11
3845.11
3857.23
3869.5
3881.98
3894.7
3907.69
3920.98
3934.57
3948.45
3962.6
3976.99
3991.61
4006.44
4021.49
4036.76
4052.3
4068.13
4084.3
4100.86
4117.85
4135.31
4153.28
4171.92
4192.13
4215.74
4242.39
4269.23
4293.83
4315.84
4338.77
4369.59
4421.44
4400.38
4471.49
4447.82
4529.72
4502.1
4589.84
4559.06
4665.03
4631.15
4747.15
4711.97
4837.31
4801.17
4938.17
4901.24
5050.84
5014.2
5175.48
5139.85
5311.87
5277.05
5462.38
5426.65
5592.33
5950.98
5739.67
5908.62
6192.49
6146.23
6430.74
6412.21
3815.23
3826.92
3838.76
3850.7
3862.78
3875.04
3887.55
3900.34
3913.44
3926.87
3940.62
3954.67
3968.97
3983.5
3998.22
4013.13
4028.23
4043.54
4059.09
4074.93
4091.09
4107.62
4124.57
4141.96
4159.93
4179.21
4201.66
4227.56
4254.08
4278.66
4300.15
4320.37
4342.43
4382.58
4365.28
4425.15
4403.32
4476.17
4451.57
4535.49
4506.9
4597.87
4565.88
4676.15
4640.4
4764
4725.97
4862.79
4823.07
4975.48
4934.56
5102.29
5062.08
5241.61
5203.75
5391.84
5356.57
5555.57
5520.14
5701.49
6103.8
5868.91
6062.43
6368.75
6327.35
6644.6
6622.54
3820.95
3832.55
3844.3
3856.18
3868.22
3880.49
3893.05
3905.94
3919.18
3932.79
3946.72
3960.93
3975.38
3990.03
4004.83
4019.79
4034.91
4050.22
4065.75
4081.55
4097.67
4114.14
4131
4148.37
4166.85
4188.17
4213.19
4239.33
4263.99
4285.48
4305.06
4324.36
4350.89
4340.66
4384.61
4366.93
4427.99
4405.45
4479.94
4454.27
4540.57
4510.77
4605.56
4572.19
4687.56
4649.6
4782.35
4740.92
4891.77
4847.62
5018.79
4972.68
5162.44
5117.14
5318.87
5277.06
5484.96
5447.44
5664.4
5626.88
5828.53
6290.4
6021.54
6188.07
6213.74
6580.57
6551.69
6891.74
6867.78
3826.56
3838.06
3849.72
3861.53
3873.55
3885.85
3898.48
3911.51
3924.93
3938.73
3952.86
3967.25
3981.84
3996.57
4011.42
4026.39
4041.49
4056.77
4072.25
4087.98
4104.01
4120.39
4137.2
4154.97
4175.24
4199.3
4224.95
4249.57
4271.25
4290.68
4309.47
4328.78
4353.13
4342.78
4385.92
4368.68
4429.76
4406.72
4482.59
4455.8
4544.79
4513.56
4612.91
4577.9
4699.44
4658.86
4802.54
4756.97
4924.4
4874.78
5067.75
5015.01
5230.12
5177.85
5404.99
5357.01
5588.56
5545.97
5788.42
5702.85
5728.34
5951.74
5924.24
6314.38
6470.62
6447.56
6166.58
6136.17
6027.14
6289.02
6784.39
6769.96
6595.12
6749.27
6764.04
7178.34
6928.39
7094.34
7083.8
3832.04
3843.43
3855.01
3866.76
3878.76
3891.11
3903.87
3917.07
3930.71
3944.74
3959.08
3973.64
3988.33
4003.11
4017.97
4032.91
4047.96
4063.16
4078.54
4094.17
4110.09
4126.39
4143.51
4162.83
4185.89
4210.95
4235.39
4257.25
4276.63
4295.23
4314.01
4336.85
4329.09
4355.48
4345.36
4386.92
4370.58
4430.51
4407.24
4484.04
4456.21
4547.98
4515.17
4619.9
4582.9
4711.78
4668.04
4824.41
4773.92
4959.98
4903.79
5120.66
5059.91
5302.22
5241.16
5487.91
5459.85
5433.35
5403.33
5683.24
5657.14
5530.58
5605.23
5634.44
5785.93
5902.78
5872.89
5762.09
5999.78
6425.23
6573.91
6261.28
6229.2
6108.36
6397.5
6922.23
6734.31
6908.28
6918.09
7579.35
7260.44
7088.59
7263.37
3837.4
3848.65
3860.13
3871.82
3883.84
3896.28
3909.21
3922.65
3936.56
3950.84
3965.39
3980.08
3994.85
4009.64
4024.46
4039.33
4054.28
4069.36
4084.61
4100.11
4115.93
4132.44
4150.9
4172.94
4197.36
4221.52
4243.43
4262.81
4281.17
4299.61
4318.87
4339.72
4331.72
4358.11
4348.25
4388
4372.81
4430.43
4407.37
4484.37
4455.76
4550.17
4515.74
4626.38
4587.04
4724.39
4676.96
4847.23
4791.1
4997.06
4933.44
5174.84
5105.12
5372.66
5339.76
5305.29
5269.7
5503.92
5474.6
5442.61
5737.92
5711.36
5577.41
5653.84
5683.93
5847.67
5971.73
5940.88
5820.68
6076.93
6547.85
6712.24
6364.6
6194.52
6326.52
6515.32
7094.25
6891.42
7087.99
7095.81
7753.6
7459.65
8241.84
8183.54
7281.79
7488.43
3842.6
3853.7
3865.07
3876.72
3888.79
3901.38
3914.55
3928.29
3942.51
3957.06
3971.79
3986.59
4001.37
4016.11
4030.85
4045.6
4060.41
4075.33
4090.43
4105.8
4121.73
4139.37
4160.45
4184.18
4207.99
4229.87
4249.21
4267.31
4285.34
4303.89
4326.56
4318.65
4342.7
4334.49
4361.05
4351.36
4389.54
4375.46
4429.9
4407.62
4483.8
4454.84
4551.31
4515.36
4632.17
4590.26
4736.66
4685.08
4869.95
4807.61
5033.74
4962.15
5232.46
5195.08
5156.18
5117.83
5408.97
5373.54
5336.48
5298.14
5547.44
5515.05
5480.32
5792.83
5763.47
5622.52
5699.81
5732.58
5909.92
6043.34
6007.76
5878.31
6156.53
6681.96
6865.57
6475.75
6284.19
6429.24
6642.65
7297.63
7068.42
7293.24
7302.59
7791.02
8166.12
8715.45
8668.19
7521.19
3847.63
3858.55
3869.81
3881.44
3893.61
3906.43
3919.94
3934.04
3948.6
3963.4
3978.29
3993.12
4007.85
4022.49
4037.09
4051.69
4066.32
4081.05
4096
4111.37
4128.23
4148.37
4171.4
4194.83
4216.62
4235.9
4253.72
4271.31
4289.23
4307.85
4328.83
4320.66
4345.62
4337.11
4364.2
4354.52
4391.67
4378.45
4429.5
4408.4
4482.75
4454.03
4551.51
4514.45
4636.93
4592.39
4747.85
4691.92
4891.18
4822.35
5078.36
5039.91
5000.67
4962.98
5258.68
5218.54
5177.66
5136.64
5443.86
5405.76
5366.06
5325.13
5589.2
5553.68
5516.08
5846.36
5813.35
5665.2
5742.97
5778.93
5971.15
6116.08
6073.97
5934.34
6238.05
6828.8
7036.12
6594.42
6377.32
6537.66
6780.36
7540.82
7268.06
7526.83
7543.04
7818.02
8167
8613.34
9084.19
9070.05
3852.45
3863.16
3874.31
3885.97
3898.35
3911.51
3925.44
3939.96
3954.85
3969.87
3984.83
3999.61
4014.23
4028.73
4043.16
4057.56
4071.96
4086.49
4101.36
4117.45
4136.65
4158.99
4182.01
4203.67
4222.92
4240.47
4257.63
4274.96
4292.74
4314.54
4306.65
4330.94
4322.59
4348.36
4339.52
4367.42
4357.57
4394.3
4381.55
4429.68
4409.93
4481.72
4453.74
4551
4513.42
4640.41
4593.43
4757.24
4697.04
4909.35
4834.39
5095.44
5054.51
5013.72
4973.66
5283.22
5240.6
5197.46
5154.17
5476.86
5436.08
5393.78
5350.28
5628.61
5590.1
5549.66
5897.74
5860.73
5705.16
5783.54
5822.78
6031.1
6189.28
6139.36
5988.54
6321.5
6989.86
7225.88
6721.25
6474.44
6652.66
6929.83
7827.94
7491.66
7790.01
7818.93
8167.89
8581.31
9040.84
9426.35
9449.35
3856.98
3867.47
3878.55
3890.35
3903.07
3916.7
3931.13
3946.08
3961.26
3976.41
3991.34
4006.01
4020.46
4034.78
4049.01
4063.14
4077.28
4091.68
4107.02
4125.28
4146.9
4169.51
4191.03
4210.26
4227.6
4244.35
4261.14
4278.22
4295.72
4316.05
4308.02
4332.8
4324.28
4350.82
4341.64
4370.49
4360.38
4397.12
4384.51
4430.61
4412.06
4481.11
4454.09
4550.07
4512.49
4642.46
4593.49
4764.39
4700.28
4940.54
4900.53
4822.94
4860.62
5110.94
5067.88
5025.11
4982.75
5305.88
5260.87
5215.51
5170.13
5507.7
5464.27
5419.33
5373.28
5665.56
5624.15
5580.89
5946.91
5905.81
5742.64
5821.83
5864.36
6089.54
6263.19
6204.4
6040.9
6407.46
7166.94
7436.41
6857.66
6576.81
6775.67
7092.73
8156.77
7739.87
8082.89
8129.64
8555.96
9009.07
9472.85
9878.01
9944.5
3861.18
3871.44
3882.54
3894.65
3907.87
3922.09
3937.04
3952.38
3967.77
3982.94
3997.75
4012.23
4026.48
4040.6
4054.55
4068.35
4082.31
4096.99
4114.27
4135.13
4157.32
4178.68
4197.92
4215.11
4231.49
4247.79
4264.25
4280.99
4301.46
4293.84
4317.37
4309.27
4334.39
4325.72
4352.88
4343.42
4373.26
4362.8
4399.85
4387.13
4432.1
4414.43
4480.87
4454.88
4548.86
4511.66
4643.12
4592.68
4786.03
4751.53
4702.23
4948.22
4906.48
4826.8
4865.86
5124.9
5079.91
5035.41
4991.45
5326.45
5279.14
5231.68
5184.41
5536.17
5490.05
5442.51
5393.98
5700.05
5655.73
5609.62
5994.11
5948.87
5777.73
5858.02
5903.85
6146.99
6338.54
6270.17
6092.02
6497.23
7362.03
7668.49
7005.66
6686.17
6908.75
7271.26
8522.14
8013.93
8405.21
8473.55
8971.04
9459.87
9983.78
10669.4
10652.2
3864.94
3875.03
3886.35
3898.98
3912.85
3927.69
3943.15
3958.8
3974.28
3989.36
4003.97
4018.21
4032.24
4046.1
4059.69
4073.24
4087.34
4103.63
4123.66
4145.4
4166.6
4185.87
4202.99
4219.03
4234.89
4250.82
4266.92
4283.16
4302.36
4294.69
4318.41
4310.25
4335.64
4326.86
4354.48
4344.82
4375.52
4364.69
4402.12
4389.05
4433.89
4416.76
4480.92
4455.93
4547.59
4510.8
4643.3
4591.58
4789.44
4754.15
4719.99
4687.36
4955.22
4912.26
4830.36
4870.58
5137.41
5090.74
5044.8
4999.56
5344.88
5295.52
5246.27
5197.45
5562.17
5513.44
5463.49
5412.81
5732.14
5684.96
5636.13
6040.1
5990.57
5810.87
5892.93
5941.99
6204.73
6416.86
6338.56
6143.39
6593.21
7576.5
7923.52
7167.8
6804.95
7054.83
7467.51
8919.05
8315.04
8756.64
8848.61
9415.71
9963.86
10607.5
11534.9
11428.3
3868.17
3878.29
3890.1
3903.44
3918.05
3933.52
3949.4
3965.24
3980.68
3995.55
4009.89
4023.89
4037.68
4051.19
4064.44
4078.03
4093.39
4112.47
4133.74
4154.75
4174.06
4191.21
4206.97
4222.41
4237.87
4253.42
4269.06
4288.11
4280.94
4303.1
4295.48
4319.15
4310.97
4336.51
4327.65
4355.56
4345.78
4377.06
4365.95
4403.35
4389.94
4435.5
4418.32
4480.61
4455.93
4544.48
4507.65
4656.79
4628.85
4588.43
4791.93
4755.31
4720.12
4686.53
4961.65
4917.47
4833.24
4874.63
5149.02
5100.97
5053.71
5007.21
5361.79
5310.73
5259.92
5209.67
5586.16
5535.15
5483.08
5430.45
5762.41
5712.57
5661.3
6086.39
6032.46
5843
5927.57
5979.94
6264.9
6500.97
6412.52
6196.97
6698.37
7812.56
8203.7
7346.44
6936.04
7216.6
7684.73
9346.86
8643.43
9137.59
9253.99
9900.99
10533
11284.4
12140.6
12084.1
3870.82
3881.32
3893.92
3908.13
3923.5
3939.53
3955.71
3971.58
3986.84
4001.41
4015.47
4029.23
4042.71
4055.83
4068.99
4083.52
4101.57
4122.3
4143.11
4162.44
4179.72
4195.3
4210.34
4225.36
4240.43
4255.55
4270.66
4288.66
4281.45
4303.62
4296.03
4319.59
4311.46
4336.95
4328.07
4356.07
4346.25
4377.74
4366.51
4403.07
4389.64
4435.48
4418.16
4477.67
4453.17
4549.55
4529.38
4500.2
4655.44
4626.92
4571.43
4596
4793.71
4756.06
4718.58
4684.24
4967.04
4921.41
4834.69
4877.27
5159.87
5110.48
5061.88
5014.03
5377.65
5324.93
5272.52
5220.66
5609.04
5555.81
5501.61
5446.92
5791.92
5739.35
5685.55
6134.32
6075.45
5874.8
5962.77
6018.72
6330.18
6593.73
6494.36
6254.76
6815.32
8072.89
8510.15
7545.03
7082.13
7397.78
7926.1
9808.38
8999.96
9548.13
9690.02
10430.9
11144
11938.4
12677.8
12672.1
3872.96
3884.32
3897.96
3913.1
3929.17
3945.62
3961.93
3977.67
3992.64
4006.89
4020.69
4034.17
4047.28
4060.15
4073.98
4090.98
4111.06
4131.63
4150.99
4168.43
4183.99
4198.67
4213.26
4227.9
4242.57
4257.19
4275.01
4268.24
4289.06
4281.93
4303.91
4296.38
4319.74
4311.68
4336.93
4328.13
4355.96
4346.19
4377.49
4366.34
4401.18
4388.13
4432.93
4415.9
4471.07
4447.09
4544.36
4524.41
4500.52
4484.37
4652.54
4623.23
4566.33
4590.73
4794.02
4755.34
4714.68
4679.73
4970.36
4923.21
4833.88
4877.68
5169.3
5118.38
5068.24
5018.87
5392.11
5337.44
5283.12
5229.37
5630.95
5575.39
5518.78
5461.61
5820.95
5765.63
5709.16
6185.48
6120.86
5906.82
5999.2
6059.27
6402.36
6697.5
6586.48
6318.43
6947.12
8358.99
8843.9
7767.84
7247.41
7602.94
8193.52
10304.6
9385.58
9987.37
10156.4
10995.2
11765.7
12569.3
13390.3
13372.4
3874.9
3887.54
3902.33
3918.35
3934.97
3951.67
3967.94
3983.43
3998.04
4011.99
4025.52
4038.68
4051.42
4064.72
4080.69
4100.03
4120.3
4139.67
4157.28
4172.97
4187.39
4201.57
4215.8
4230.06
4244.28
4258.35
4275.32
4268.53
4289.28
4282.22
4303.97
4296.52
4319.6
4311.65
4336.5
4327.86
4355.21
4345.6
4376.31
4365.41
4397.79
4385.52
4427.67
4411.58
4470.64
4457.65
4438.39
4537.64
4518.06
4493.56
4478.35
4647.51
4617.84
4559.34
4583.4
4792.05
4752.26
4708.05
4672.6
4970.89
4922.23
4830.27
4875.27
5176.26
5123.69
5071.87
5020.9
5404.37
5347.42
5290.92
5235.04
5651.75
5593.22
5533.65
5473.62
5849.77
5791.24
5731.52
6241.38
6169.85
5939.2
6036.8
6102.29
6483.97
6815.65
6691.56
6389.96
7097.49
8672.4
9206.12
8017.48
7435.81
7834.71
8488.32
10830.6
9799.5
10452.3
10649.5
11578.1
12388.8
13232.8
14163.1
14114.2
3877.04
3891.17
3907.08
3923.81
3940.81
3957.59
3973.66
3988.78
4003.04
4016.7
4029.94
4042.7
4055.64
4070.69
4089.19
4109.1
4128.43
4146.23
4162.15
4176.46
4190.26
4204.09
4217.97
4231.83
4245.58
4259.15
4275.5
4268.85
4289.31
4282.33
4303.8
4296.46
4319.16
4311.36
4335.69
4327.26
4353.87
4344.54
4374.26
4363.75
4393.3
4382.02
4420.41
4405.79
4464.74
4452.27
4426.75
4436.39
4529.37
4510.44
4485.93
4471.52
4639.98
4610.23
4550.5
4574.01
4787.32
4746.43
4698.87
4662.96
4968.11
4918.11
4823.72
4869.85
5179.99
5125.62
5072
5019.48
5413.69
5354.2
5295.31
5237.15
5670.63
5608.53
5545.57
5482.36
5878.13
5815.65
5751.99
6303.72
6223.69
5971.5
6075.47
6148.3
6576.72
6951.09
6812.42
6471.24
7269.78
9013.72
9596.51
8294.38
7649.61
8092.71
8810.32
11377.7
10239.1
10938.3
11164.4
12172.3
13022.3
13912.9
14688
14674
3879.79
3895.37
3912.2
3929.45
3946.63
3963.27
3979
3993.72
4007.65
4021.03
4033.88
4046.63
4060.93
4078.55
4098.01
4117.27
4135.23
4151.44
4165.83
4179.31
4192.75
4206.26
4219.8
4233.25
4246.52
4262.61
4268.88
4256.39
4275.52
4289.15
4282.26
4303.4
4296.19
4318.45
4310.81
4334.54
4326.34
4352.03
4343.08
4371.46
4361.47
4388.25
4377.97
4412.36
4399.38
4458.51
4446.76
4421.84
4430.93
4519.9
4501.93
4477.82
4464.27
4630.05
4600.38
4540.15
4562.95
4779.72
4737.91
4687.37
4651.11
4961.78
4910.71
4814.32
4861.44
5180.01
5123.79
5068.41
5014.35
5419.46
5357.22
5295.76
5235.25
5686.91
5620.7
5553.91
5487.2
5905.39
5838.19
5769.71
6374.03
6283.35
6003.27
6114.95
6197.56
6683.55
7107.44
6952.14
6564.43
7465.44
9382.18
10011.9
8596.5
7887.28
8373.33
9157.27
11939.5
10699.5
11442.4
11696.2
12774.7
13657.4
14521.6
15125.1
15137.6
3883.43
3900.17
3917.67
3935.19
3952.32
3968.65
3983.94
3998.27
4011.89
4024.9
4037.59
4051.34
4068.09
4087.05
4106.16
4124.26
4140.77
4155.42
4168.69
4181.76
4194.91
4208.12
4221.3
4234.34
4247.07
4268.96
4262.62
4256.38
4275.45
4288.82
4282.07
4302.78
4295.72
4317.47
4310.03
4333.05
4325.13
4349.81
4341.27
4368.15
4358.76
4383.16
4373.68
4410.29
4403.62
4393.21
4451.99
4440.91
4417.52
4425.85
4509.61
4492.82
4469.53
4456.93
4618.13
4588.76
4528.67
4550.53
4769.4
4726.89
4673.93
4637.42
4951.88
4900.02
4802.25
4850.1
5175.96
5117.95
5061.02
5005.56
5421.08
5355.9
5291.81
5228.94
5699.73
5628.85
5557.85
5487.38
5930.75
5857.64
5783.42
6453.64
6348.91
6033.72
6154.6
6249.37
6806.28
7284.72
7110.05
6670.07
7681.96
9773.09
10447.6
8920.84
8144.36
8672.99
9523.5
12512.1
11178
11962.4
12241.3
13378.4
14263.1
15044.8
15535.6
15549.8
3887.97
3905.52
3923.38
3940.91
3957.77
3973.66
3988.5
4002.46
4015.7
4028.46
4041.84
4057.79
4076.19
4095.11
4113.29
4130.09
4145.11
4158.36
4171.09
4183.88
4196.77
4209.67
4222.5
4235.11
4247.42
4268.91
4262.59
4256.49
4275.29
4288.38
4281.78
4301.98
4295.1
4316.23
4309.02
4331.27
4323.65
4347.28
4339.14
4364.54
4355.74
4378.3
4369.35
4406.28
4399.85
4386.78
4391.71
4445.51
4435.17
4413.26
4421.05
4499
4483.46
4461.43
4449.85
4604.55
4575.66
4516.7
4537.34
4756.66
4713.75
4659.08
4622.49
4938.55
4886.14
4787.75
4835.93
5167.59
5107.91
5049.71
4993.11
5417.88
5349.66
5282.9
5217.76
5707.88
5631.91
5556.47
5482.15
5952.94
5872.6
5791.86
6542.45
6419.74
6062.01
6187.63
6302.11
6942.73
7479.25
7280.1
6784.1
7913.75
10183.3
10901.3
9262.34
8415.64
8988
9906.9
13089.3
11674.8
12496.6
12795.9
13968.6
14820.7
15502.7
15926.6
15942.6
3893.26
3911.28
3929.2
3946.5
3962.93
3978.31
3992.69
4006.24
4019.17
4032.37
4047.63
4065.43
4084.09
4102.32
4119.38
4134.79
4148.25
4160.71
4173.16
4185.72
4198.35
4210.94
4223.41
4235.64
4247.57
4256.38
4268.78
4262.45
4275.05
4287.84
4281.4
4301.05
4294.38
4314.79
4307.84
4329.21
4321.91
4344.47
4336.72
4360.75
4352.47
4383.86
4376.94
4372.68
4364.89
4402.84
4396.92
4388.85
4439.3
4429.72
4409.4
4416.67
4488.47
4474.21
4453.82
4443.24
4589.86
4561.58
4504.72
4523.94
4741.93
4698.97
4643.18
4606.88
4921.92
4869.32
4771.08
4819.09
5154.52
5093.37
5034.19
4976.92
5409.23
5337.96
5268.58
5201.32
5710.33
5629.2
5549.38
5471.47
5970.34
5876.67
5789.6
6627.98
6483.47
6084.57
6242.78
6355.22
7085.9
7684.65
7452.26
6901.5
8154.03
10610.5
11374.3
9618.75
8695.48
9321.29
10306.3
13663.1
12188.4
13042.1
13355.6
14536
15334.2
15933.8
16300.5
16331.6
3899.15
3917.28
3934.99
3951.86
3967.74
3982.58
3996.5
4009.66
4022.83
4037.56
4054.77
4073.13
4091.33
4108.61
4124.42
4138.27
4150.58
4162.71
4174.96
4187.3
4199.66
4211.96
4224.09
4235.98
4250.47
4256.4
4256.22
4244.83
4268.55
4262.3
4274.71
4287.21
4280.93
4300.02
4293.57
4313.21
4306.56
4326.94
4320
4341.39
4334.06
4356.77
4348.96
4381.44
4374.42
4370.04
4360.23
4399.7
4394.04
4386.23
4433.56
4424.72
4405.9
4412.73
4478.35
4465.42
4446.87
4437.23
4574.71
4547.09
4493.12
4510.81
4725.54
4682.87
4626.64
4591.02
4901.85
4849.48
4752.35
4799.64
5136.42
5074.03
5014.23
4956.8
5395.39
5321.3
5249.49
5180.26
5705.34
5621.45
5538.98
5458.79
5990.38
5903.44
5775.7
6727.05
6503.86
6086.76
6221.57
6378.12
7227.58
7896.81
7639.2
7034.85
8390.72
11057.6
11867.6
9990.45
8992.15
9676.71
10724.8
14229.4
12719
13596.6
13917.3
15079.1
15816.3
16349.2
16636.9
16725.8
3905.42
3923.34
3940.6
3956.88
3972.16
3986.46
3999.9
4013.14
4027.53
4044.19
4062.21
4080.35
4097.79
4113.96
4128.28
4140.66
4152.51
4164.46
4176.52
4188.64
4200.74
4212.75
4224.58
4236.18
4256.16
4250.39
4262.1
4244.71
4268.28
4274.3
4286.49
4280.38
4298.9
4292.67
4311.54
4305.18
4324.54
4317.99
4338.11
4331.23
4352.53
4345.2
4378.91
4371.86
4367.68
4364.89
4358.25
4354.68
4396.78
4391.31
4383.61
4428.37
4420.22
4402.7
4409.14
4468.96
4457.35
4440.58
4431.83
4559.6
4532.77
4482.26
4498.43
4707.67
4665.71
4609.65
4575.21
4878.2
4826.47
4731.5
4777.57
5113.89
5050.51
4990.31
4932.92
5380.48
5304.24
5230.35
5159.17
5694.11
5611.82
5529.89
5449.64
5997.57
5884.31
5770.52
6703.03
6499.77
6082.1
6217.13
6373.94
7291.87
8118.31
7619.1
7016.17
8499.76
11529.5
12384.1
10378.6
8981.33
10036
9522.88
11172.9
14789.2
13264.6
14163.7
14484.5
15606.3
16288.3
16773.6
17048.5
17225.5
3911.81
3929.26
3945.9
3961.52
3976.16
3989.91
4003.28
4017.45
4033.66
4051.34
4069.36
4086.92
4103.41
4118.21
4130.89
4142.53
4154.19
4165.99
4177.86
4189.75
4201.61
4213.36
4224.97
4236.4
4261.91
4256.04
4250.35
4267.98
4244.79
4273.88
4285.74
4279.8
4297.7
4291.71
4309.78
4303.72
4322.04
4315.88
4334.66
4328.28
4347.97
4341.21
4376.26
4369.11
4362.18
4355.57
4351.99
4393.93
4388.61
4380.89
4423.71
4416.16
4399.63
4405.78
4460.43
4450.05
4434.83
4426.88
4544.8
4519.04
4472.31
4486.95
4688.21
4647.51
4592.16
4559.46
4851.21
4800.22
4708.4
4752.71
5090.97
5025.01
4963.33
4905.95
5370.9
5294.21
5220.03
5148.67
5688.93
5606.71
5524.85
5444.66
5992.9
5879.22
5766.06
6699.44
6495.46
6077.74
6212.69
6369.75
7288.83
8100.65
7614.39
7011.69
8496.67
12041.2
12919.8
10799.2
8975.18
10042.6
9513.25
11653.4
15346
13826.8
14745.1
15057.7
16133.8
16773.8
17307.3
18860.1
18085.5
3918.12
3934.91
3950.79
3965.69
3979.7
3993.24
4007.3
4023.13
4040.49
4058.38
4076.01
4092.76
4108.02
4121.16
4132.73
4144.14
4155.67
4167.31
4178.99
4190.66
4202.31
4213.86
4225.3
4236.6
4244.74
4267.68
4261.7
4255.93
4250.31
4273.45
4284.98
4279.22
4296.49
4290.74
4307.97
4302.23
4319.45
4313.71
4331.07
4325.22
4343.21
4337.04
4373.45
4366.25
4359.31
4352.76
4349.38
4390.99
4385.79
4377.99
4419.42
4412.39
4396.52
4402.42
4452.68
4443.38
4429.41
4422.17
4530.5
4506.11
4463.26
4476.44
4666.97
4628.14
4573.84
4543.56
4823.8
4772.1
4682.6
4724.91
5080.19
4992.22
4936.45
4879.48
5365.98