/*--------------------------------*- C++ -*----------------------------------*\
  =========                 |
  \\      /  F ield         | OpenFOAM: The Open Source CFD Toolbox
   \\    /   O peration     | Website:  https://openfoam.org
    \\  /    A nd           | Version:  dev
     \\/     M anipulation  |
\*---------------------------------------------------------------------------*/
FoamFile
{
    version     2.0;
    format      ascii;
    class       volScalarField;
    location    "2500";
    object      H2O;
}
// * * * * * * * * * * * * * * * * * * * * * * * * * * * * * * * * * * * * * //

dimensions      [0 0 0 0 0 0 0];

internalField   nonuniform List<scalar> 
9840
(
1.98126e-34
6.35533e-34
3.12864e-34
1.30817e-33
2.25187e-33
2.63683e-34
2.83206e-33
7.93421e-33
2.60719e-33
4.69197e-34
7.7217e-33
1.92803e-32
1.19113e-32
3.39141e-33
2.66066e-34
4.28979e-32
5.03268e-32
4.64787e-32
1.31193e-32
1.45933e-33
6.95818e-35
9.2741e-32
1.39547e-31
1.18221e-31
5.18929e-32
8.08517e-33
1.03298e-33
6.06204e-35
4.18806e-31
5.65511e-31
3.3259e-31
1.41944e-31
4.10776e-32
4.55598e-33
5.64011e-34
3.28536e-35
7.01969e-31
1.95379e-30
1.05041e-30
3.79798e-31
1.29703e-31
1.72067e-32
2.95416e-33
2.88829e-34
5.09478e-36
1.08169e-30
4.82469e-30
3.90168e-30
1.42262e-30
3.43687e-31
7.27826e-32
1.19126e-32
1.59934e-33
1.17398e-34
4.30932e-36
1.68306e-30
1.14808e-29
1.07098e-29
4.10728e-30
1.19496e-30
2.77708e-31
5.20314e-32
5.80771e-33
6.03658e-34
4.21809e-35
2.00175e-35
6.0468e-30
2.42318e-29
2.62001e-29
1.39774e-29
5.22959e-30
1.12423e-30
1.97847e-31
2.07181e-32
2.21213e-33
3.2323e-34
1.4201e-34
2.31474e-34
2.04216e-29
3.83133e-29
6.13298e-29
4.46254e-29
1.63253e-29
4.60064e-30
9.77133e-31
9.69372e-32
1.1129e-32
2.1247e-33
1.40467e-33
2.19113e-33
2.46609e-33
5.6602e-29
1.28913e-28
1.47254e-28
1.04483e-28
4.82036e-29
1.40413e-29
2.93203e-30
4.18948e-31
4.34538e-32
1.00896e-32
9.79663e-33
1.30106e-32
2.57012e-32
2.82131e-32
1.01532e-28
2.70862e-28
3.62751e-28
2.8102e-28
1.27062e-28
4.58797e-29
1.24793e-29
1.7401e-30
2.15666e-31
6.05209e-32
7.74263e-32
1.13125e-31
1.66932e-31
2.8851e-31
2.69972e-31
1.21689e-28
4.10103e-28
7.98485e-28
6.61269e-28
3.60613e-28
1.35517e-28
3.92136e-29
6.04492e-30
7.73577e-31
2.87666e-31
3.9495e-31
9.17981e-31
1.2097e-30
2.19454e-30
2.80894e-30
2.55053e-30
2.77747e-28
1.03519e-27
1.84765e-27
1.88006e-27
8.87901e-28
3.50342e-28
1.18668e-28
2.17477e-29
4.28112e-30
1.1349e-30
2.30089e-30
4.35669e-30
9.75365e-30
1.20875e-29
2.35682e-29
2.43299e-29
1.73139e-29
3.64233e-28
3.17907e-27
4.80338e-27
4.02211e-27
2.18476e-27
7.94594e-28
3.19742e-28
9.4113e-29
2.02177e-29
8.21257e-30
1.20521e-29
2.29407e-29
3.48862e-29
1.0986e-28
1.85094e-28
1.76777e-28
2.47439e-28
6.68003e-29
2.08912e-27
6.24617e-27
1.13594e-26
1.16741e-26
5.68592e-27
2.20545e-27
8.31776e-28
2.81967e-28
7.09609e-29
4.54254e-29
7.61429e-29
1.07477e-28
2.3907e-28
4.17071e-28
1.12152e-27
1.78998e-27
2.41972e-27
1.47621e-27
7.6888e-28
4.941e-27
9.81961e-27
1.64263e-26
2.5425e-26
1.89321e-26
6.0423e-27
2.24885e-27
9.33895e-28
4.03577e-28
2.17487e-28
3.96081e-28
7.94281e-28
1.77128e-27
2.51322e-27
6.93666e-27
9.29652e-27
1.41005e-26
2.02527e-26
1.98951e-26
1.51403e-26
7.13258e-27
2.4449e-26
2.86116e-26
4.79428e-26
4.06436e-26
2.02886e-26
7.75226e-27
5.51602e-27
1.96904e-27
1.39484e-27
2.11748e-27
5.32965e-27
9.38626e-27
1.79696e-26
3.29476e-26
6.46651e-26
8.125e-26
1.28037e-25
1.63134e-25
1.35747e-25
1.57877e-25
5.08592e-27
4.40172e-26
7.13222e-26
8.12175e-26
8.97553e-26
6.87749e-26
3.22551e-26
3.33358e-26
1.64387e-26
1.22376e-26
1.58174e-26
2.32941e-26
4.25793e-26
1.01897e-25
1.11409e-25
3.28725e-25
4.91914e-25
9.51644e-25
1.37338e-24
9.0676e-25
1.69855e-24
1.35549e-24
5.92684e-27
6.43108e-26
1.28262e-25
1.62089e-25
2.20232e-25
1.68829e-25
1.5413e-25
1.53971e-25
2.02659e-25
8.89779e-26
7.55198e-26
1.65378e-25
2.34327e-25
4.61904e-25
9.19967e-25
1.37649e-24
3.91602e-24
6.50671e-24
9.42199e-24
1.32335e-23
1.15144e-23
1.68882e-23
1.14796e-23
8.06008e-27
7.90588e-26
2.39689e-25
4.28128e-25
5.53732e-25
6.81092e-25
7.87292e-25
7.45537e-25
1.20459e-24
7.60315e-25
3.37484e-25
6.51511e-25
1.84301e-24
2.29559e-24
3.83109e-24
8.96478e-24
1.78685e-23
2.78933e-23
6.65889e-23
1.11181e-22
1.49761e-22
1.63698e-22
1.81105e-22
8.53621e-23
6.28602e-27
8.38326e-26
3.89969e-25
9.71178e-25
2.18529e-24
4.03145e-24
4.80289e-24
5.5685e-24
5.83875e-24
5.36007e-24
2.66535e-24
3.75002e-24
6.31424e-24
1.82711e-23
2.14293e-23
2.78284e-23
8.47073e-23
2.16714e-22
5.13923e-22
1.04379e-21
1.68529e-21
1.77924e-21
2.28247e-21
1.73558e-21
8.88013e-22
4.76384e-26
1.5715e-25
7.15129e-25
2.66613e-24
5.83743e-24
1.65412e-23
2.27241e-23
3.78096e-23
4.7243e-23
2.52699e-23
2.27826e-23
2.07949e-23
5.2002e-23
7.09286e-23
1.60593e-22
1.65224e-22
3.75884e-22
1.40357e-21
4.91087e-21
1.12988e-20
2.36928e-20
2.59322e-20
2.34064e-20
2.57661e-20
2.04571e-20
9.20656e-21
8.12625e-26
5.26073e-25
1.63578e-24
8.87995e-24
2.49085e-23
7.3437e-23
1.12404e-22
2.11227e-22
2.36311e-22
2.00451e-22
1.94232e-22
1.47318e-22
1.20653e-22
5.91356e-22
9.7285e-22
1.57872e-21
2.81722e-21
1.14261e-20
4.42487e-20
1.54447e-19
3.39374e-19
4.46677e-19
4.79826e-19
3.25381e-19
2.94659e-19
2.0425e-19
1.2564e-19
3.97273e-25
1.14176e-24
5.49875e-24
2.80305e-23
1.04873e-22
2.62969e-22
7.25079e-22
1.19311e-21
1.61741e-21
1.63521e-21
1.1387e-21
9.07182e-22
6.82533e-22
1.32952e-21
4.61525e-21
7.48471e-21
1.8945e-20
8.00219e-20
4.33644e-19
1.57515e-18
4.49899e-18
6.49988e-18
5.71871e-18
6.4162e-18
4.72899e-18
2.71985e-18
2.11006e-18
1.12562e-18
1.24993e-24
6.05261e-24
2.28124e-23
1.18577e-22
3.00257e-22
9.01021e-22
3.12655e-21
6.01767e-21
7.85054e-21
1.08192e-20
7.7939e-21
8.34545e-21
7.20816e-21
6.05123e-21
1.31656e-20
4.42124e-20
9.43477e-20
6.38728e-19
4.45754e-18
1.59208e-17
5.98949e-17
9.30231e-17
9.2094e-17
9.17435e-17
6.9136e-17
4.72606e-17
3.07534e-17
1.36375e-17
9.99838e-18
4.73553e-24
3.02967e-23
1.25795e-22
4.2584e-22
1.25694e-21
3.31328e-21
1.32245e-20
3.22427e-20
2.68583e-20
4.98637e-20
2.97893e-20
4.15511e-20
3.61235e-20
4.10191e-20
4.14446e-20
1.50255e-19
7.43984e-19
4.65448e-18
3.81477e-17
1.88187e-16
5.86791e-16
1.20239e-15
1.21327e-15
1.19007e-15
9.88339e-16
7.68378e-16
4.07998e-16
2.5413e-16
1.66856e-16
4.64025e-17
1.90604e-23
7.40223e-23
5.28756e-22
1.88267e-21
7.871e-21
1.30742e-20
4.2427e-20
1.27653e-19
1.45401e-19
1.58868e-19
2.07064e-19
1.87061e-19
1.76622e-19
2.09349e-19
1.86511e-19
3.87606e-19
2.19183e-18
3.44687e-17
2.93e-16
1.6918e-15
7.37105e-15
1.69034e-14
1.92789e-14
2.07254e-14
1.9316e-14
1.4482e-14
8.90127e-15
4.47713e-15
2.13537e-15
9.79489e-16
1.77862e-16
9.3274e-23
3.94007e-22
1.37218e-21
5.91902e-21
2.22506e-20
6.52029e-20
9.37878e-20
5.05681e-19
5.83535e-19
7.95943e-19
8.78235e-19
6.36513e-19
9.17305e-19
9.10117e-19
1.00806e-18
1.55404e-18
7.78195e-18
1.2774e-16
2.01248e-15
1.35625e-14
6.21175e-14
2.0835e-13
2.75253e-13
3.32729e-13
3.42084e-13
2.78849e-13
1.82797e-13
9.75365e-14
4.27937e-14
1.60532e-14
4.83474e-15
4.13029e-16
3.57827e-22
9.29724e-22
5.95552e-21
2.24753e-20
7.89114e-20
3.95369e-19
6.5549e-19
9.33267e-19
2.3674e-18
3.16024e-18
3.71271e-18
3.67609e-18
3.22105e-18
3.15635e-18
3.14909e-18
5.55815e-18
2.71045e-17
4.37948e-16
8.1418e-15
1.10538e-13
5.1829e-13
1.7865e-12
3.36551e-12
4.39665e-12
5.32373e-12
4.80701e-12
3.43718e-12
1.98382e-12
9.20914e-13
3.40551e-13
9.74462e-14
1.65085e-14
2.523e-16
2.04635e-21
2.20735e-21
1.89162e-20
1.06833e-19
3.61352e-19
1.20195e-18
3.18791e-18
3.10652e-18
8.56104e-18
1.27678e-17
1.49614e-17
1.26696e-17
1.61463e-17
1.48194e-17
1.28353e-17
2.31139e-17
7.88398e-17
1.34079e-15
3.08317e-14
4.66186e-13
4.25208e-12
1.46846e-11
3.6824e-11
4.7664e-11
6.7967e-11
7.22554e-11
5.69955e-11
3.60614e-11
1.82001e-11
7.19356e-12
2.09547e-12
3.59434e-13
9.62204e-15
2.02457e-16
4.01312e-15
9.25052e-21
1.40705e-20
3.54615e-20
3.07259e-19
1.63392e-18
2.91318e-18
1.09251e-17
1.60614e-17
2.59399e-17
5.7265e-17
5.56607e-17
4.60379e-17
5.8379e-17
5.7319e-17
5.09324e-17
7.23505e-17
2.14745e-16
3.76211e-15
1.03875e-13
1.79785e-12
1.75158e-11
7.67504e-11
2.68724e-10
4.21988e-10
7.07322e-10
8.87986e-10
8.16542e-10
5.74173e-10
3.19462e-10
1.38074e-10
4.38596e-11
8.28612e-12
0
3.23901e-14
2.54077e-13
8.80287e-16
1.59213e-14
3.28535e-20
4.90119e-20
1.10187e-19
7.64074e-19
4.41198e-18
1.56838e-17
3.21789e-17
6.30146e-17
1.26209e-16
1.64069e-16
1.71794e-16
1.64149e-16
1.54123e-16
1.85692e-16
1.6058e-16
1.78258e-16
3.66247e-16
8.66322e-15
2.90675e-13
6.35899e-12
6.87567e-11
4.51543e-10
1.28247e-09
3.00897e-09
6.02306e-09
8.83633e-09
9.5737e-09
7.78406e-09
4.87929e-09
2.33713e-09
8.20401e-10
1.75908e-10
4.55715e-12
1.99163e-11
1.55111e-12
1.24646e-11
9.9979e-12
1.39003e-13
9.98688e-13
3.33259e-15
6.17068e-14
2.82737e-20
2.1576e-19
3.772e-19
2.2074e-18
9.28969e-18
4.55193e-17
1.05695e-16
2.11009e-16
3.51029e-16
4.67571e-16
5.0928e-16
5.23072e-16
5.70553e-16
6.01521e-16
5.44827e-16
6.849e-16
1.09375e-15
1.06203e-14
6.73342e-13
1.69629e-11
2.56641e-10
1.83214e-09
8.91265e-09
1.82178e-08
4.2027e-08
7.16761e-08
9.01266e-08
8.5395e-08
6.26037e-08
3.40126e-08
1.32654e-08
3.23718e-09
8.74596e-11
4.21703e-10
6.47768e-11
6.36552e-12
5.25799e-11
3.64815e-11
5.33085e-13
3.73603e-12
1.17914e-14
2.18024e-13
1.62586e-19
5.04903e-19
1.02224e-18
5.46716e-18
3.08725e-17
1.10768e-16
3.13732e-16
4.64976e-16
1.14434e-15
1.30222e-15
1.84813e-15
2.05465e-15
1.87058e-15
1.99794e-15
2.0782e-15
1.68089e-15
2.66485e-15
1.31243e-14
7.24994e-13
3.95919e-11
5.57899e-10
7.30553e-09
3.50905e-08
8.60419e-08
2.35829e-07
4.76217e-07
6.96825e-07
7.5868e-07
6.47859e-07
4.21913e-07
1.88871e-07
5.22652e-08
1.73125e-09
7.28376e-09
3.10834e-10
1.36499e-09
2.54077e-10
2.31071e-11
1.88055e-10
1.27232e-10
1.89222e-12
1.31265e-11
3.90989e-14
7.37174e-13
1.08675e-18
2.81691e-18
3.63819e-18
1.5517e-17
1.07232e-16
3.1474e-16
7.00827e-16
1.6184e-15
2.88659e-15
4.9572e-15
6.60791e-15
8.12106e-15
8.25294e-15
9.28033e-15
1.05606e-14
7.30469e-15
1.01025e-14
2.28384e-14
6.60208e-13
4.42199e-11
1.37081e-09
1.34499e-08
1.0656e-07
3.07085e-07
1.03421e-06
2.52598e-06
4.36982e-06
5.58729e-06
5.39286e-06
4.18142e-06
2.32338e-06
7.49937e-07
2.85e-08
1.14363e-07
5.53926e-09
2.13878e-08
1.12272e-09
4.65559e-09
8.75936e-10
8.01174e-11
6.39148e-10
4.45039e-10
6.53811e-12
4.59211e-11
1.22492e-13
2.4388e-12
5.51497e-18
1.90447e-17
1.99625e-17
5.1273e-17
2.61228e-16
8.28512e-16
2.37968e-15
5.58311e-15
1.05595e-14
1.91912e-14
2.7598e-14
3.44243e-14
3.75246e-14
4.26874e-14
5.61831e-14
3.68898e-14
4.42978e-14
7.27703e-14
5.68434e-13
4.06658e-11
1.62996e-09
3.06985e-08
2.26331e-07
8.44913e-07
3.49059e-06
1.0231e-05
2.10665e-05
3.18035e-05
3.65102e-05
3.20581e-05
2.21459e-05
9.48973e-06
4.68546e-07
1.89116e-06
8.07601e-08
3.10855e-07
1.82581e-08
6.9649e-08
3.78504e-09
1.55849e-08
2.99395e-09
2.89869e-10
2.30553e-09
1.70678e-09
2.28946e-11
1.70928e-10
3.80686e-13
8.51088e-12
2.95479e-17
1.00828e-16
6.24933e-17
1.2565e-16
5.46137e-16
2.33702e-15
7.52013e-15
1.91518e-14
4.15775e-14
7.57888e-14
1.16161e-13
1.49898e-13
1.72711e-13
1.96887e-13
2.4111e-13
2.19768e-13
1.96191e-13
2.9318e-13
7.09672e-13
2.95128e-11
1.48027e-09
3.24992e-08
2.75161e-07
1.57949e-06
8.28096e-06
2.97646e-05
7.3305e-05
0.00012717
0.000169546
0.000175162
0.000140914
8.92696e-05
7.40957e-06
2.75231e-05
1.1962e-06
4.56207e-06
2.62734e-07
9.92141e-07
6.12567e-08
2.34427e-07
1.31852e-08
5.54828e-08
1.12628e-08
1.16167e-09
9.36556e-09
7.43154e-09
8.59978e-11
6.97936e-10
1.31021e-12
3.22354e-11
2.83627e-16
3.92341e-16
1.95596e-16
2.86279e-16
1.26317e-15
6.08918e-15
2.34968e-14
6.73617e-14
1.56521e-13
2.955e-13
4.66938e-13
6.28358e-13
7.58053e-13
8.94134e-13
1.09495e-12
1.25097e-12
8.53867e-13
1.18819e-12
1.8517e-12
1.80344e-11
1.12222e-09
3.24986e-08
3.9922e-07
2.46586e-06
1.43461e-05
5.78317e-05
0.000163515
0.000335455
0.000487153
0.000564906
0.000527566
0.000391902
9.73507e-05
0.000296499
1.67916e-05
6.27909e-05
3.64773e-06
1.29335e-05
8.85461e-07
3.24212e-06
2.23013e-07
8.62987e-07
5.16896e-08
2.24878e-07
4.88196e-08
5.24277e-09
4.45234e-08
3.75743e-08
3.5062e-10
3.16088e-09
4.94627e-12
1.32079e-10
1.01765e-15
1.07912e-15
8.10675e-16
6.92768e-16
2.83045e-15
1.68922e-14
7.29525e-14
2.30829e-13
5.65403e-13
1.10556e-12
1.79341e-12
2.49579e-12
3.1328e-12
3.83331e-12
4.90256e-12
6.34819e-12
3.76645e-12
4.70007e-12
6.60799e-12
1.67549e-11
7.03129e-10
2.5473e-08
3.15582e-07
2.76066e-06
1.98474e-05
8.6836e-05
0.000260019
0.000536779
0.000843986
0.00104638
0.00114502
0.0010504
0.000544558
0.000879734
0.000200552
0.000460874
4.59658e-05
0.00014754
1.11876e-05
3.79166e-05
3.21851e-06
1.10899e-05
9.30813e-07
3.61167e-06
2.38368e-07
1.07303e-06
2.511e-07
2.70696e-08
2.48297e-07
2.17558e-07
1.57042e-09
1.61243e-08
2.01893e-11
5.79263e-10
2.22274e-15
4.38054e-15
3.08603e-15
1.62089e-15
6.27577e-15
4.35728e-14
2.13593e-13
7.46653e-13
1.94758e-12
3.96323e-12
6.59469e-12
9.41028e-12
1.21509e-11
1.53397e-11
2.00125e-11
2.89482e-11
1.71747e-11
1.82464e-11
2.42183e-11
3.35729e-11
3.92642e-10
1.87316e-08
3.47041e-07
2.83792e-06
2.2291e-05
0.000110922
0.000339688
0.000714732
0.00107383
0.00132155
0.0015138
0.00162182
0.00117432
0.00152343
0.000759997
0.00108622
0.000376332
0.000663723
0.000120096
0.000320476
3.63636e-05
0.000112456
1.26682e-05
4.11116e-05
4.48292e-06
1.63282e-05
1.28856e-06
5.81648e-06
1.47194e-06
1.57743e-07
1.52896e-06
1.35882e-06
7.73111e-09
9.16023e-08
8.84333e-11
2.71004e-09
8.73003e-15
1.77431e-14
1.10545e-14
4.90969e-15
1.30941e-14
9.97226e-14
5.71655e-13
2.24175e-12
6.33198e-12
1.35522e-11
2.32237e-11
3.38591e-11
4.45234e-11
5.71413e-11
7.59699e-11
1.0831e-10
8.75291e-11
7.01345e-11
8.68191e-11
1.05524e-10
2.99584e-10
1.08885e-08
2.95332e-07
2.5843e-06
2.20791e-05
0.000119251
0.00040051
0.00081909
0.00110454
0.00133157
0.00155304
0.00176643
0.00175434
0.00191023
0.00142257
0.00172542
0.000985862
0.00132815
0.000597606
0.000913289
0.000299349
0.000571649
0.000123047
0.000316648
5.30619e-05
0.000152236
2.23203e-05
7.33707e-05
7.49122e-06
3.03441e-05
8.83659e-06
9.87841e-07
9.34122e-06
8.40306e-06
4.15677e-08
5.60522e-07
4.1718e-10
1.35841e-08
4.05368e-14
7.85349e-14
4.94201e-14
1.77327e-14
2.53234e-14
2.06703e-13
1.36871e-12
6.16312e-12
1.92315e-11
4.39047e-11
7.82035e-11
1.16735e-10
1.55634e-10
2.00112e-10
2.68034e-10
3.70915e-10
4.1504e-10
2.65009e-10
3.03496e-10
3.50472e-10
4.39669e-10
6.06338e-09
1.98566e-07
2.07554e-06
2.05817e-05
0.00011715
0.000417614
0.000828432
0.00103776
0.00121763
0.00143006
0.00168242
0.00197897
0.00194286
0.00205131
0.00166189
0.00194325
0.00125546
0.00160328
0.00088657
0.00122866
0.00059364
0.000915792
0.000375571
0.000672601
0.000204194
0.000476436
0.000102182
0.00028133
3.9197e-05
0.000136204
4.58098e-05
6.20061e-06
4.81887e-05
4.39418e-05
2.40193e-07
3.53814e-06
2.13419e-09
7.24774e-08
1.83976e-13
3.44068e-13
2.174e-13
7.26504e-14
5.34112e-14
3.93636e-13
2.95428e-12
1.52929e-11
5.38618e-11
1.33587e-10
2.50735e-10
3.85782e-10
5.22646e-10
6.69183e-10
8.82422e-10
1.24977e-09
1.71504e-09
1.00419e-09
1.03328e-09
1.13806e-09
1.1715e-09
3.96778e-09
1.2423e-07
1.5246e-06
1.68594e-05
0.00011091
0.000411813
0.00081645
0.000957254
0.00100165
0.00107297
0.00141359
0.00175818
0.0021735
0.00207384
0.00212232
0.00218331
0.00192195
0.00217022
0.00158248
0.00192118
0.00126501
0.00162475
0.00101107
0.00137546
0.000813081
0.00118213
0.000617531
0.00100993
0.000378009
0.000791434
0.00016941
0.000479964
0.000192473
3.36779e-05
0.000198963
0.000182471
1.44856e-06
2.02887e-05
1.18782e-08
4.03453e-07
7.89381e-13
1.48648e-12
9.43855e-13
3.12752e-13
1.25299e-13
7.26676e-13
5.84063e-12
3.45561e-11
1.37538e-10
3.78001e-10
7.5986e-10
1.21934e-09
1.69053e-09
2.16482e-09
2.76124e-09
3.89351e-09
6.10356e-09
3.67673e-09
3.44706e-09
3.58498e-09
3.52887e-09
4.45315e-09
7.07992e-08
1.12192e-06
1.2447e-05
9.53017e-05
0.000393141
0.000799417
0.000909962
0.000843359
0.000647951
0.000960921
0.00146006
0.00193263
0.00178467
0.00230755
0.00219042
0.00230721
0.00233652
0.00221118
0.00241771
0.00197462
0.00228797
0.00174723
0.00210666
0.00156933
0.00196022
0.0014292
0.00185257
0.00125839
0.00173984
0.000988713
0.00154195
0.000568022
0.00118606
0.000624636
0.000144417
0.000631623
0.000580655
8.53498e-06
9.26132e-05
6.93797e-08
2.23099e-06
2.79153e-12
6.23204e-12
4.15539e-12
1.25146e-12
3.37801e-13
1.1445e-12
1.10044e-11
7.11402e-11
3.23e-10
9.8654e-10
2.16029e-09
3.66922e-09
5.2593e-09
6.80619e-09
8.42125e-09
1.12213e-08
1.89831e-08
1.28784e-08
1.12678e-08
1.09711e-08
1.045e-08
9.43092e-09
4.01078e-08
8.14333e-07
8.79667e-06
7.56364e-05
0.00035178
0.000781936
0.000889197
0.00077156
0.000418813
0.000471435
0.00108693
0.00174986
0.00171577
0.00204605
0.00197943
0.00246952
0.00233611
0.00251172
0.00251648
0.0025367
0.002693
0.00243348
0.00270583
0.00233293
0.00266931
0.00226872
0.00266153
0.00221841
0.00267264
0.00210431
0.0026495
0.00184243
0.00249641
0.00135522
0.00212499
0.0014725
0.00047826
0.00150522
0.00141646
4.11594e-05
0.000323439
3.43172e-07
1.0524e-05
8.33546e-12
1.94285e-11
1.80926e-11
5.36917e-12
1.20606e-12
1.76613e-12
1.89516e-11
1.38455e-10
6.93418e-10
2.38706e-09
5.72715e-09
1.04455e-08
1.56819e-08
2.07468e-08
2.53535e-08
3.09961e-08
5.15123e-08
4.21223e-08
3.53391e-08
3.27064e-08
3.00295e-08
2.5731e-08
3.57308e-08
5.53502e-07
6.14657e-06
5.80414e-05
0.000300568
0.00075541
0.000881013
0.000761178
0.000364545
0.000191347
0.000483324
0.00170236
0.00198646
0.00207144
0.00223378
0.00221411
0.00265857
0.00253701
0.00274353
0.00273233
0.00290117
0.00300033
0.00295431
0.00317015
0.00300878
0.00329935
0.00309138
0.00345536
0.00316125
0.00361416
0.00312649
0.00371572
0.00288711
0.00361692
0.0023575
0.00322874
0.00250545
0.00119833
0.00254828
0.00245514
0.000158427
0.000854693
1.18817e-06
4.25593e-05
5.39853e-11
4.79635e-11
2.20409e-11
4.7983e-12
3.06468e-12
2.85287e-11
2.50733e-10
1.40884e-09
5.33156e-09
1.41963e-08
2.80083e-08
4.45706e-08
6.09733e-08
7.48922e-08
8.67498e-08
1.12616e-07
1.20646e-07
1.04514e-07
9.46683e-08
8.36994e-08
7.04104e-08
5.31462e-08
3.47308e-07
4.30311e-06
4.39414e-05
0.000251047
0.000715008
0.000879799
0.000772752
0.000377278
0.000116427
0.000145627
0.000741431
0.0022411
0.00187029
0.00224876
0.00227145
0.00247623
0.00247794
0.00288705
0.00278973
0.00301392
0.00298515
0.00330094
0.00334091
0.00352284
0.00366611
0.00374731
0.0039661
0.00400031
0.00429015
0.0042071
0.00456308
0.00427592
0.00471014
0.00408005
0.0047411
0.00349989
0.00443935
0.00365897
0.00220989
0.00370404
0.00358757
0.000477623
0.00175039
4.16505e-06
0.00013866
1.28271e-10
8.58154e-11
2.09299e-11
6.26563e-12
4.20445e-11
4.29898e-10
2.62988e-09
1.13196e-08
3.27873e-08
7.07522e-08
1.20236e-07
1.71693e-07
2.14671e-07
2.44246e-07
2.71753e-07
3.21535e-07
2.8684e-07
2.65808e-07
2.24701e-07
1.84841e-07
1.22434e-07
2.52188e-07
2.98226e-06
3.29411e-05
0.000206652
0.000658685
0.000880292
0.000804257
0.000433153
0.00011932
4.495e-05
0.000157678
0.00126905
0.000551491
0.00234832
0.00183936
0.00252027
0.00251743
0.00275631
0.0027657
0.00315986
0.0030809
0.00332937
0.00326796
0.00372356
0.00371906
0.004105
0.00416298
0.00447998
0.00458838
0.00474593
0.00484257
0.00489935
0.00496506
0.00500869
0.0050659
0.0050547
0.00518338
0.00471392
0.00530336
0.00482248
0.00329056
0.00485741
0.00478616
0.00408297
0.00110367
0.00278064
1.1344e-05
0.000326339
1.88588e-10
7.60723e-11
1.50749e-11
6.22118e-11
6.32436e-10
4.76047e-09
2.1774e-08
7.21895e-08
1.67742e-07
3.07243e-07
4.61231e-07
5.9196e-07
6.74191e-07
7.08607e-07
7.43348e-07
7.3728e-07
7.23623e-07
5.72637e-07
4.63557e-07
3.09748e-07
2.73098e-07
1.98306e-06
2.4338e-05
0.000168667
0.00059409
0.000879614
0.000842075
0.000518915
0.000155228
3.40324e-05
2.63585e-05
0.000131025
0.00107117
0.000496399
0.00235825
0.00166651
0.00276448
0.00265913
0.00305403
0.00301845
0.00346278
0.00338278
0.00367617
0.00356799
0.00415973
0.00411662
0.00461638
0.00459462
0.00488022
0.00487411
0.00497886
0.00497133
0.00503353
0.00495801
0.00512725
0.00492566
0.00534084
0.00509598
0.0054769
0.00543654
0.0055005
0.00529255
0.00562385
0.00464734
0.0037116
0.00452622
0.00528402
0.00570731
0.00563294
0.0052683
0.00133037
0.00223008
0.00428845
0.00405408
0.00312564
4.69917e-05
0.00177073
0.000370395
0.00111173
1.81723e-10
4.6526e-11
8.39541e-11
9.43425e-10
7.95895e-09
4.10922e-08
1.43321e-07
3.78579e-07
7.39381e-07
1.17688e-06
1.56082e-06
1.79727e-06
1.86135e-06
1.82379e-06
1.78693e-06
1.76476e-06
1.4107e-06
1.11875e-06
7.67031e-07
4.90921e-07
1.32888e-06
1.71103e-05
0.000136385
0.000528274
0.000875301
0.000874269
0.000594869
0.00022155
4.49839e-05
8.90567e-06
1.63995e-05
0.00015253
3.02694e-05
0.000923063
0.000395716
0.00215186
0.00137276
0.00291166
0.00267599
0.00328339
0.00313841
0.00371147
0.00353909
0.00400588
0.00386679
0.00452624
0.00438871
0.0048419
0.00476443
0.00495403
0.00491588
0.00485231
0.00477018
0.00459395
0.00433828
0.00485708
0.00454899
0.00429159
0.00402644
0.00525521
0.00490408
0.00438779
0.00406275
0.00452987
0.00545706
0.00565704
0.00553762
0.0052421
0.00573016
0.00518099
0.00503622
0.00570022
0.00586797
0.00579928
0.00568
0.00277328
0.0048444
0.00462451
0.00374235
0.00105453
0.000623397
0.00235774
0.00182223
1.41848e-10
1.21941e-10
1.29237e-09
1.20057e-08
6.96067e-08
2.79415e-07
7.73148e-07
1.68843e-06
2.83052e-06
3.92203e-06
4.61166e-06
4.78984e-06
4.58138e-06
4.24482e-06
4.02345e-06
3.4603e-06
2.59681e-06
1.84357e-06
1.15495e-06
1.18888e-06
1.21277e-05
0.000108254
0.000465015
0.000862081
0.000898615
0.000661624
0.000290535
6.77587e-05
9.78003e-06
2.55188e-06
3.65768e-06
7.67087e-05
2.02003e-05
0.000679107
0.000259863
0.0017636
0.00099801
0.00291211
0.00247038
0.00335264
0.00310414
0.00378668
0.00355054
0.0042099
0.00400347
0.0046329
0.00445588
0.00484509
0.00473281
0.00471601
0.00466745
0.00420641
0.00417319
0.00385074
0.00369737
0.00362187
0.00357767
0.00400737
0.0036931
0.00344685
0.00485503
0.00438141
0.00367663
0.00337456
0.00387485
0.00525173
0.00562128
0.00529653
0.00481472
0.00569664
0.00562203
0.00551708
0.00591935
0.00578258
0.00587764
0.00595191
0.00343911
0.00536577
0.00519481
0.00439307
0.00336724
0.00138046
0.00241325
0.0036141
0.00315247
0.00297615
1.86915e-10
1.79045e-09
1.68308e-08
1.17947e-07
4.85869e-07
1.53984e-06
3.51637e-06
6.45411e-06
9.34518e-06
1.13977e-05
1.20295e-05
1.14949e-05
1.03191e-05
9.14734e-06
7.68631e-06
5.84305e-06
4.33416e-06
2.76972e-06
1.54863e-06
7.41093e-06
8.15757e-05
0.000405072
0.000840995
0.00091637
0.000718514
0.000356746
9.27041e-05
1.47785e-05
1.70112e-06
6.81841e-07
2.78814e-06
4.35773e-07
4.15467e-05
1.01396e-05
0.000431751
0.000146036
0.00129533
0.000632991
0.00268285
0.00205211
0.00324805
0.00282209
0.00369566
0.00334301
0.00423809
0.00398755
0.00456549
0.00434156
0.00459008
0.00445474
0.00418244
0.00417034
0.00357605
0.00359594
0.00362608
0.00365833
0.00328209
0.00317809
0.00314517
0.00314503
0.00331743
0.00302916
0.00283693
0.00428025
0.00369288
0.00294331
0.00260612
0.00311188
0.0048148
0.00536141
0.00485729
0.00422061
0.00545457
0.00594987
0.00591313
0.00597376
0.00557483
0.00572086
0.00606357
0.00418081
0.00583005
0.00571188
0.0050255
0.00407171
0.00442575
0.000971704
0.00347133
0.00406198
2.10461e-09
2.45654e-08
1.77792e-07
8.4299e-07
2.73034e-06
7.04419e-06
1.3565e-05
2.11793e-05
2.69433e-05
2.93945e-05
2.85189e-05
2.53684e-05
2.14957e-05
1.74267e-05
1.36773e-05
1.00781e-05
6.46205e-06
2.99473e-06
5.18011e-06
5.77462e-05
0.000346742
0.000812098
0.000928179
0.000766876
0.000418835
0.000121149
2.13375e-05
2.29563e-06
2.31398e-07
8.59632e-08
1.08248e-06
4.10556e-07
1.96548e-05
4.66414e-06
0.00023927
7.3886e-05
0.000834164
0.000354184
0.0022384
0.00152726
0.00289832
0.00234105
0.00335786
0.00290388
0.00406493
0.00373951
0.00424568
0.0039645
0.00409022
0.00390781
0.00367848
0.00368224
0.00366422
0.00360446
0.00317949
0.0032193
0.00326181
0.00328719
0.00273816
0.00270939
0.00272029
0.00275897
0.0026109
0.00239996
0.00231022
0.00355814
0.00289699
0.0022238
0.00188729
0.0023187
0.00421868
0.00494036
0.0042793
0.003492
0.00506447
0.00613423
0.00617148
0.00588849
0.00522953
0.00543539
0.00605687
0.00488493
0.00617675
0.00613695
0.0055749
0.00482353
0.00483372
0.0047336
0.000336817
0.00263072
3.09667e-08
2.5701e-07
1.29548e-06
4.74337e-06
1.25324e-05
2.67921e-05
4.40455e-05
5.95723e-05
6.89334e-05
6.98409e-05
6.25649e-05
5.18007e-05
4.05723e-05
3.17455e-05
2.22573e-05
1.47593e-05
6.67983e-06
5.26824e-06
3.71675e-05
0.000289223
0.000774653
0.000934652
0.000808038
0.000476484
0.000153859
2.9874e-05
3.56408e-06
2.80589e-07
2.198e-08
5.52576e-08
5.24605e-09
4.93841e-07
1.68954e-07
9.01528e-06
1.99326e-06
0.00012142
3.55083e-05
0.000487279
0.000186275
0.00168486
0.00101548
0.00236834
0.00176856
0.00279428
0.00230063
0.00362129
0.00323286
0.00363194
0.00328203
0.0032813
0.00297587
0.00329345
0.00328
0.00324294
0.00320162
0.00280398
0.00284131
0.00285612
0.00284985
0.00228941
0.00230415
0.00234321
0.00238215
0.00200018
0.00191552
0.00189775
0.00276079
0.00211127
0.00164757
0.0013502
0.00162132
0.00351098
0.00439657
0.00361021
0.00271769
0.00456978
0.00620707
0.00632053
0.00567614
0.00479537
0.00507329
0.00593552
0.00545358
0.00639656
0.00643915
0.00604531
0.00537642
0.00529488
0.00470873
0.000386565
0.00290274
3.46103e-07
2.02395e-06
7.28641e-06
2.12601e-05
4.67494e-05
8.28666e-05
0.000118526
0.000145754
0.000151328
0.000138651
0.00011552
9.10156e-05
7.04887e-05
5.09494e-05
3.50523e-05
1.51824e-05
7.30155e-06
2.59106e-05
0.000231332
0.000727454
0.000936578
0.00084396
0.000529393
0.000193841
4.11813e-05
5.50644e-06
4.94537e-07
2.87919e-08
1.8994e-09
1.58933e-08
4.70281e-09
2.09154e-07
6.78404e-08
3.38976e-06
7.10064e-07
5.79879e-05
1.49001e-05
0.00026286
8.39572e-05
0.00115705
0.000623262
0.00176547
0.00122469
0.00204753
0.00159686
0.0028887
0.00247839
0.00261631
0.00223522
0.00239043
0.00223429
0.00189914
0.00207324
0.00281473
0.00275246
0.00266038
0.00254037
0.00240115
0.00239871
0.0023696
0.00230937
0.00190858
0.00193771
0.00195659
0.00195634
0.00156076
0.00153977
0.0015392
0.0019999
0.00144306
0.00124752
0.000984372
0.00111522
0.00277772
0.00378257
0.00293318
0.00199523
0.00402543
0.00618962
0.00639975
0.0053976
0.00433149
0.00469813
0.0057521
0.00592894
0.00654467
0.00664351
0.00643357
0.00580285
0.00562179
0.00504088
0.00222695
0.00454034
2.69081e-06
1.1003e-05
3.20815e-05
7.57085e-05
0.000137396
0.00020636
0.000255116
0.000270637
0.000252931
0.000214725
0.000170368
0.000131637
9.87275e-05
7.4442e-05
3.46205e-05
1.3649e-05
2.22488e-05
0.000173762
0.00066763
0.000935704
0.000875857
0.000581411
0.000242192
5.6588e-05
8.46739e-06
9.16644e-07
6.42144e-08
2.72793e-09
1.43192e-09
5.41016e-10
7.62986e-09
2.90911e-09
8.74858e-08
2.57519e-08
1.06084e-06
2.457e-07
2.16335e-05
4.96631e-06
0.000103945
2.71399e-05
0.000723828
0.000325426
0.00114252
0.00070052
0.00115179
0.000809034
0.00185933
0.00149797
0.0017255
0.00154079
0.00112749
0.00171656
0.00158252
0.00135155
0.00146185
0.00222498
0.00211839
0.00199136
0.00185637
0.00193339
0.00188215
0.00180905
0.0017191
0.00154883
0.00154917
0.00153496
0.00150042
0.00121573
0.0012048
0.00120033
0.00136407
0.00094899
0.000937482
0.000730561
0.00078425
0.00210608
0.00317951
0.00233457
0.00139715
0.00350906
0.00610753
0.00642183
0.00511551
0.00391098
0.00437809
0.00556859
0.00634305
0.00665017
0.00679638
0.00669827
0.00616748
0.00602174
0.00584288
0.00448524
0.00585409
1.48944e-05
4.59329e-05
0.000109325
0.000206725
0.000310517
0.000390153
0.000421989
0.000406281
0.000352465
0.000283394
0.000217133
0.000163604
0.000127019
7.61733e-05
2.91211e-05
2.20006e-05
0.000124254
0.00059438
0.000930643
0.000904348
0.000633097
0.00029874
7.76773e-05
1.29856e-05
1.63893e-06
1.47725e-07
7.99293e-09
3.68948e-10
1.16349e-09
5.60097e-10
4.98996e-09
2.3391e-09
3.84127e-08
1.2255e-08
3.0963e-07
1.07772e-07
6.28681e-06
1.39834e-06
2.83402e-05
7.02382e-06
0.000323557
0.000105258
0.000486067
0.000231625
0.000519313
0.000338137
0.000898986
0.000729575
0.0012542
0.0011803
0.00102404
0.000946094
0.00133227
0.00128102
0.00118847
0.00123463
0.00162334
0.00152989
0.00145056
0.00138706
0.00145501
0.00140625
0.00136626
0.00134204
0.00119503
0.00118569
0.00117904
0.00118162
0.000924893
0.000925885
0.000935534
0.000889241
0.000670806
0.000725456
0.000607084
0.000608634
0.00157582
0.00267019
0.00189391
0.00098811
0.00309948
0.00602017
0.00642155
0.00489602
0.00360709
0.00417732
0.00544328
0.00666453
0.00672488
0.00692032
0.00688479
0.00651692
0.00641848
0.0064112
0.00272359
0.00557078
6.01542e-05
0.000146225
0.000278355
0.000423649
0.000537958
0.000597667
0.000590923
0.000529276
0.000433555
0.000333393
0.000250372
0.000193374
0.000132197
6.62555e-05
2.68817e-05
9.12102e-05
0.000506815
0.000917983
0.000929201
0.000684279
0.000360632
0.000108041
2.00405e-05
2.80115e-06
3.12315e-07
2.27264e-08
8.95158e-10
2.79086e-10
1.18957e-10
1.07144e-09
5.41998e-10
4.03986e-09
2.0766e-09
2.06333e-08
8.39429e-09
1.42915e-07
5.84419e-08
1.75999e-06
4.76377e-07
8.25282e-06
2.89894e-06
8.70524e-05
2.66781e-05
0.000183068
8.82759e-05
0.000544874
0.00037569
0.000853948
0.000777963
0.000739441
0.00114142
0.00108922
0.00147297
0.00139429
0.00143524
0.00148951
0.00154612
0.0015282
0.00133415
0.00134053
0.00135718
0.00139467
0.00119584
0.0012416
0.0013087
0.00139969
0.000968256
0.00102169
0.00109613
0.00119578
0.000740729
0.000804708
0.000890391
0.000683094
0.000593101
0.000656907
0.000627533
0.000583907
0.00126164
0.00232832
0.00167088
0.000841554
0.00286193
0.00597536
0.00643906
0.00479564
0.00347552
0.00414351
0.0054193
0.0069031
0.00679718
0.00703713
0.0070339
0.00682191
0.00669184
0.00652184
0.000721324
0.00440327
0.000182601
0.000347231
0.000533664
0.000689041
0.000781841
0.000796807
0.000736102
0.000621043
0.000485625
0.000362583
0.000271491
0.000196151
0.000120784
4.36526e-05
7.57972e-05
0.000416401
0.000892888
0.000950416
0.000735098
0.000423361
0.000155035
3.16289e-05
4.75004e-06
5.87023e-07
5.56322e-08
3.1117e-09
1.0386e-10
2.36258e-10
1.09552e-10
9.72673e-10
4.90627e-10
3.60631e-09
1.88198e-09
1.62527e-08
7.02514e-09
1.18073e-07
4.50332e-08
9.74466e-07
3.32797e-07
6.24586e-06
2.88095e-06
3.78556e-05
1.50484e-05
0.000224658
0.000127037
0.00135828
0.00116573
0.00104806