/*--------------------------------*- C++ -*----------------------------------*\
  =========                 |
  \\      /  F ield         | OpenFOAM: The Open Source CFD Toolbox
   \\    /   O peration     | Website:  https://openfoam.org
    \\  /    A nd           | Version:  dev
     \\/     M anipulation  |
\*---------------------------------------------------------------------------*/
FoamFile
{
    version     2.0;
    format      ascii;
    class       volScalarField;
    location    "2500";
    object      k;
}
// * * * * * * * * * * * * * * * * * * * * * * * * * * * * * * * * * * * * * //

dimensions      [0 2 -2 0 0 0 0];

internalField   nonuniform List<scalar> 
9840
(
0.000164098
0.00016913
0.000157281
0.000142088
0.000225062
0.000126538
0.000120633
0.00023831
0.000203941
0.000111082
0.000111114
0.000221667
0.000245607
0.000156244
0.000106706
0.000105783
0.000183281
0.000268013
0.000214466
0.00012913
0.000104287
0.000103166
0.000148773
0.000265364
0.000256033
0.000163055
0.000118221
0.000102645
0.000101667
0.000130168
0.000246758
0.000276671
0.000210805
0.000135357
0.000112101
0.00010159
0.000100864
0.000117836
0.000208492
0.00028796
0.000253593
0.000162136
0.000123052
0.000107824
0.000100904
0.000100421
0.000110783
0.000167587
0.000283116
0.00028031
0.000199348
0.000136482
0.000115743
0.000104881
0.000100464
0.000100175
0.000106709
0.000143601
0.000264605
0.000295253
0.000243518
0.000156215
0.000124199
0.000110571
0.00010279
0.000100156
0.000100037
0.00010438
0.00012782
0.000226139
0.000303853
0.00027659
0.000187017
0.00013385
0.000116744
0.000106884
0.000101277
9.99111e-05
9.99467e-05
0.000103004
0.00011821
0.000183312
0.00029847
0.000297931
0.000225904
0.000149268
0.000122831
0.000111471
0.000104056
0.000100274
9.95907e-05
9.98186e-05
0.000102077
0.000112489
0.000155133
0.000279672
0.000311098
0.0002664
0.000174032
0.000130284
0.000116012
0.000107523
0.00010173
9.95915e-05
9.93175e-05
9.9697e-05
0.000101396
0.000108924
0.000137497
0.000241137
0.000318009
0.000294486
0.000207629
0.000142275
0.000120616
0.000110991
0.000104382
0.000100114
9.89088e-05
9.91735e-05
9.96041e-05
0.000100914
0.000106618
0.000126281
0.000199024
0.00031243
0.000312803
0.000246276
0.000162059
0.000126547
0.000114373
0.00010708
0.000101754
9.90472e-05
9.82213e-05
9.91134e-05
9.95454e-05
0.000100541
0.000105063
0.000119373
0.000167985
0.000294667
0.000324356
0.000283647
0.000190687
0.000135831
0.000118163
0.00010972
0.000103924
9.97329e-05
9.813e-05
9.77054e-05
9.90747e-05
9.95614e-05
0.000100237
0.00010391
0.000114866
0.000149259
0.000259279
0.00033126
0.000308494
0.000224987
0.00015187
0.000122826
0.000112463
0.000106067
0.000101314
9.83554e-05
9.722e-05
9.73919e-05
9.90301e-05
9.964e-05
0.000100019
0.000102953
0.000111762
0.000136605
0.000219493
0.000327145
0.000325756
0.000261604
0.000174849
0.000130566
0.000115526
0.000108193
0.000103097
9.91784e-05
9.7256e-05
9.64351e-05
9.72261e-05
9.8993e-05
9.97135e-05
9.97743e-05
0.000102098
0.000109396
0.00012826
0.00018471
0.000312785
0.000336514
0.000296565
0.000204579
0.000142508
0.000119671
0.000110456
0.000104899
0.000100623
9.75927e-05
9.62679e-05
9.58941e-05
9.7128e-05
9.89837e-05
9.97108e-05
9.93599e-05
0.000101291
0.000107432
0.000122446
0.000163932
0.000283523
0.000345184
0.000319944
0.000237649
0.000161204
0.00012548
0.00011316
0.000106711
0.000102221
9.85645e-05
9.6393e-05
9.5401e-05
9.55672e-05
9.70477e-05
9.89805e-05
9.96872e-05
9.89544e-05
0.000100593
0.000105852
0.000118239
0.000149549
0.000245963
0.000343671
0.000337917
0.000272175
0.00018502
0.000135108
0.000116593
0.000108681
0.0001038
9.99744e-05
9.69105e-05
9.54122e-05
9.47329e-05
9.53977e-05
9.70122e-05
9.89764e-05
9.96462e-05
9.858e-05
9.99881e-05
0.000104604
0.000115346
0.000139355
0.00020998
0.000334186
0.00034823
0.000305731
0.000214483
0.000148929
0.000121515
0.000111037
0.000105377
0.000101446
9.8099e-05
9.56854e-05
9.45987e-05
9.42819e-05
9.53148e-05
9.7033e-05
9.8975e-05
9.95966e-05
9.82345e-05
9.94447e-05
0.000103558
0.000113188
0.000132148
0.00018373
0.000312786
0.000358491
0.000329406
0.000245331
0.000168578
0.000128784
0.000114047
0.000107159
0.000102869
9.94906e-05
9.65339e-05
9.47364e-05
9.39311e-05
9.40453e-05
9.53063e-05
9.70797e-05
9.89734e-05
9.95389e-05
9.79192e-05
9.89263e-05
0.000102639
0.000111371
0.000126995
0.000166621
0.000280432
0.000361764
0.000348144
0.000278727
0.000192245
0.000139537
0.000118246
0.000109299
0.000104352
0.000100869
9.78536e-05
9.52878e-05
9.39861e-05
9.34546e-05
9.40127e-05
9.53778e-05
9.71487e-05
9.89723e-05
9.948e-05
9.7624e-05
9.8403e-05
0.000101764
0.000109667
0.000123236
0.000154355
0.000245266
0.000357429
0.000360365
0.000310027
0.000220533
0.00015433
0.000124031
0.000112137
0.000106055
0.000102282
9.92272e-05
9.64969e-05
9.43469e-05
9.34346e-05
9.31898e-05
9.41274e-05
9.55066e-05
9.72183e-05
9.89479e-05
9.94241e-05
9.73568e-05
9.78441e-05
0.000100886
0.000108076
0.000120179
0.000145181
0.000213854
0.000344686
0.00037119
0.000336703
0.000249708
0.000173781
0.000132235
0.000115839
0.000108227
0.000103858
0.000100677
9.78659e-05
9.53484e-05
9.36671e-05
9.30583e-05
9.31531e-05
9.43578e-05
9.56987e-05
9.7326e-05
9.89323e-05
9.93659e-05
9.70868e-05
9.7225e-05
0.000100035
0.000106682
0.000117638
0.000138264
0.000190805
0.00032104
0.000380112
0.00035642
0.000280892
0.000197079
0.000143424
0.000120757
0.000111082
0.00010576
0.000102308
9.93966e-05
9.67748e-05
9.44229e-05
9.32133e-05
9.29015e-05
9.33287e-05
9.46814e-05
9.59402e-05
9.74222e-05
9.89422e-05
9.93066e-05
9.6782e-05
9.66172e-05
9.92878e-05
0.000105576
0.000115511
0.000132973
0.000175083
0.000290591
0.000380115
0.000373151
0.000310511
0.000222845
0.000158503
0.000127174
0.000114662
0.000108234
0.000104255
0.000101203
9.84333e-05
9.58901e-05
9.38095e-05
9.30126e-05
9.29923e-05
9.36851e-05
9.50933e-05
9.62468e-05
9.74481e-05
9.89227e-05
9.9251e-05
9.64514e-05
9.60493e-05
9.85996e-05
0.000104667
0.000113733
0.000128918
0.000163587
0.000259104
0.000374988
0.000383128
0.000339824
0.00025034
0.000177053
0.000135754
0.000119145
0.000111243
0.000106684
0.000103407
0.00010047
9.77459e-05
9.5242e-05
9.35337e-05
9.30759e-05
9.33334e-05
9.42012e-05
9.55896e-05
9.66515e-05
9.7537e-05
9.8897e-05
9.91995e-05
9.6122e-05
9.55528e-05
9.79619e-05
0.000103747
0.000112105
0.000125682
0.000154871
0.000231504
0.000361316
0.000393044
0.000361973
0.00027707
0.000198307
0.000147028
0.000124508
0.000114989
0.000109609
0.000106127
0.000103027
0.000100113
9.73143e-05
9.49101e-05
9.35604e-05
9.34188e-05
9.38991e-05
9.48551e-05
9.61196e-05
9.70241e-05
9.77075e-05
9.88977e-05
9.9157e-05
9.57824e-05
9.51315e-05
9.74088e-05
0.000102848
0.000110521
0.00012317
0.000148163
0.000209427
0.000339844
0.000399028
0.000379444
0.000306023
0.00022114
0.000161044
0.000131088
0.000119271
0.000113184
0.000109392
0.000106219
0.000103103
0.000100076
9.72032e-05
9.48968e-05
9.39287e-05
9.40141e-05
9.46769e-05
9.56507e-05
9.66986e-05
9.73822e-05
9.7917e-05
9.89221e-05
9.91245e-05
9.54595e-05
9.48104e-05
9.6931e-05
0.000102008
0.000109056
0.000121109
0.000143117
0.000193664
0.000315716
0.00039869
0.000392951
0.000333277
0.000245166
0.000177479
0.000139511
0.000124047
0.000117264
0.000113254
0.000110071
0.000106909
0.000103697
0.000100477
9.75164e-05
9.53682e-05
9.46174e-05
9.48599e-05
9.56665e-05
9.664e-05
9.74016e-05
9.78398e-05
9.82352e-05
9.90242e-05
9.90989e-05
9.51758e-05
9.46252e-05
9.65743e-05
0.000101243
0.00010781
0.000119329
0.000139433
0.000182568
0.000291064
0.000394611
0.000401038
0.000359194
0.000270377
0.000195838
0.00014966
0.000129626
0.000121743
0.000117593
0.000114593
0.000111734
0.000108447
0.000104905
0.000101312
9.82461e-05
9.62746e-05
9.56572e-05
9.5997e-05
9.68221e-05
9.75909e-05
9.80751e-05
9.8341e-05
9.87348e-05
9.95061e-05
9.91363e-05
9.90657e-05
9.49518e-05
9.45524e-05
9.63759e-05
0.000100594
0.000106776
0.000117953
0.000136744
0.000174308
0.000268878
0.000384425
0.000409027
0.000378689
0.000293703
0.000216107
0.000161658
0.00013617
0.00012649
0.000122374
0.000119672
0.000117421
0.000114572
0.000111047
0.000107079
0.00010306
9.9887e-05
9.78356e-05
9.717e-05
9.74738e-05
9.81292e-05
9.867e-05
9.90122e-05
9.91127e-05
9.91564e-05
9.94667e-05
9.95866e-05
9.94639e-05
9.89235e-05
9.48829e-05
9.46753e-05
9.62967e-05
0.000100108
0.000106031
0.000117121
0.000134861
0.000168157
0.000250281
0.000368696
0.000413538
0.000393722
0.000319136
0.000236307
0.000175711
0.000143267
0.000131699
0.000127459
0.000125243
0.000123862
0.000122084
0.000119243
0.000115572
0.000111123
0.000106599
0.000102746
0.00010029
9.93417e-05
9.93472e-05
9.96464e-05
0.000100171
9.95968e-05
0.00010045
0.000100101
0.000100477
0.000100843
9.96876e-05
0.000100284
9.97212e-05
9.98343e-05
9.87577e-05
9.50685e-05
9.49534e-05
9.64243e-05
9.98645e-05
0.000105676
0.000116849
0.000133631
0.000163725
0.000235428
0.000350614
0.000413591
0.000404637
0.00034297
0.000257077
0.000191161
0.000151493
0.000136777
0.000132608
0.00013135
0.000131095
0.000130943
0.000129651
0.000126707
0.000122656
0.00011779
0.000112898
0.000107458
0.000104203
0.000102525
0.000101755
0.000101677
0.000101409
0.000102298
0.000101468
0.0001012
0.000101925
0.000102107
0.000100473
0.000101414
9.99029e-05
0.000100359
9.86486e-05
9.54504e-05
9.53428e-05
9.67802e-05
9.99471e-05
0.000105831
0.000117085
0.000132989
0.000160653
0.000224293
0.000332509
0.000411185
0.000411682
0.00036476
0.000277411
0.000207691
0.000161535
0.000142044
0.000137823
0.000137411
0.000138904
0.000140289
0.00014133
0.000141009
0.000139052
0.000134848
0.000128951
0.000122496
0.000115551
0.000110166
0.00010648
0.000104457
0.000103313
0.000104368
0.000102716
0.000103684
0.00010296
0.000102465
0.000103184
0.000103506
0.000101453
0.0001026
0.000100073
0.000101072
9.86089e-05
9.59987e-05
9.59242e-05
9.73851e-05
0.000100526
0.000106819
0.000118009
0.000132934
0.000158699
0.000216477
0.000316216
0.000404097
0.000415719
0.000383403
0.000297597
0.000223897
0.000173145
0.000147812
0.000142733
0.000143577
0.000146825
0.000150555
0.000154084
0.000158292
0.000161198
0.000166199
0.000169754
0.000165819
0.000152406
0.000137052
0.000121898
0.00011141
0.000105614
0.000107304
0.000104737
0.00010576
0.00010408
0.00010506
0.000104256
0.000103699
0.000104485
0.000104661
0.000102469
0.000103734
0.000100253
0.000101773
9.86527e-05
9.67238e-05
9.67045e-05
9.82758e-05
0.000101718
0.000108675
0.00011958
0.000133598
0.000157797
0.000211311
0.000302772
0.000392702
0.000416967
0.000395803
0.000317915
0.000240122
0.000185048
0.000153728
0.00014625
0.000147983
0.000153574
0.000159807
0.000166529
0.000177735
0.000203958
0.000247582
0.00030642
0.000350926
0.000354813
0.000302866
0.000226638
0.000155875
0.000110939
0.000119375
0.000107112
0.000109657
0.000106055
0.000107216
0.00010529
0.000106263
0.000105458
0.000104806
0.000105575
0.000105763
0.000103448
0.000104839
0.000100406
0.000102476
9.88157e-05
9.7602e-05
9.77337e-05
9.95095e-05
0.000103646
0.000111394
0.000121889
0.000135223
0.000157939
0.000208359
0.000292494
0.000381087
0.000416248
0.000403596
0.000337889
0.000256609
0.000197162
0.000160554
0.000149375
0.000150691
0.000158675
0.000167746
0.000178932
0.000200891
0.000271939
0.000440574
0.000718271
0.00101627
0.00122938
0.00117369
0.000879775
0.000556795
0.000146405
0.000244874
0.000115527
0.000132857
0.00010936
0.000114413
0.000107351
0.00010928
0.000106432
0.000107499
0.000106483
0.000105977
0.000106598
0.000106845
0.000104492
0.000106059
0.000100606
0.000103274
9.91123e-05
9.86079e-05
9.91259e-05
0.000101272
0.000106494
0.000114858
0.000124965
0.000137726
0.000159668
0.000207364
0.000285202
0.000370437
0.000413061
0.000407667
0.000355856
0.000273648
0.00021031
0.000169128
0.000152709
0.000152881
0.000162085
0.000173674
0.000188817
0.000225293
0.000352434
0.000725491
0.00147506
0.00252856
0.00328118
0.00346526
0.00308163
0.00241066
0.000608627
0.0017058
0.000193594
0.000439837
0.000129347
0.000177767
0.00011381
0.000127628
0.000109367
0.000113757
0.000107506
0.000109392
0.000107543
0.000107147
0.000107721
0.000108009
0.000105663
0.000107297
0.000100854
0.000104184
9.94377e-05
9.97924e-05
0.000101104
0.000103962
0.000110271
0.000118885
0.00012881
0.000141258
0.000163299
0.000207828
0.000280709
0.000361271
0.000407866
0.000408216
0.000369725
0.00029114
0.000224613
0.000178693
0.000157268
0.000154939
0.000164762
0.000178353
0.000195714
0.000244096
0.000433547
0.00102145
0.00234932
0.00399263
0.00466396
0.00465483
0.00431987
0.00400421
0.00283305
0.00381648
0.00126512
0.00255528
0.00035923
0.000985075
0.00017237
0.000326334
0.000127654
0.000174227
0.000114029
0.000129448
0.000109413
0.000114461
0.00010953
0.000108278
0.000109731
0.000109911
0.0001069
0.000108406
0.000101187
0.000105218
9.97553e-05
0.000101447
0.000104064
0.000108074
0.000115208
0.000123742
0.000133463
0.000145813
0.00016787
0.000210646
0.000279025
0.000353874
0.000402252
0.000407267
0.000380217
0.00030763
0.000239473
0.000188755
0.000162604
0.000157816
0.000166787
0.000183095
0.000201609
0.000253155
0.000486702
0.00128896
0.00309674
0.00490379
0.0052509
0.00506915
0.00480746
0.00436334
0.00409191
0.00425305
0.00350457
0.00399939
0.00225259
0.00329124
0.000833737
0.00204425
0.000326809
0.000804667
0.000183255
0.00035771
0.000133054
0.000200979
0.000115168
0.000138202
0.000115776
0.000109908
0.000115952
0.000115266
0.000108008
0.000109586
0.000101613
0.000106332
0.00010003
0.000103551
0.000107955
0.000113243
0.00012115
0.000129679
0.000139078
0.000151447
0.000173825
0.000216662
0.000279386
0.000348703
0.000396712
0.000404663
0.000386878
0.000321963
0.000253954
0.000199341
0.000169383
0.0001614
0.000168378
0.000187946
0.0002087
0.000257305
0.000496915
0.00142803
0.00366775
0.00539061
0.00554283
0.005304
0.00507374
0.00484154
0.00429189
0.00446976
0.00416569
0.00420811
0.00391158
0.00416299
0.00316708
0.00390563
0.00196968
0.00314897
0.00087156
0.00206187
0.000420399
0.00102372
0.000227505
0.000514944
0.000144231
0.000259864
0.00014812
0.000113878
0.000148093
0.000142542
0.000108595
0.000111991
0.000102164
0.000106859
0.000100186
0.000105822
0.000112148
0.000118857
0.000127967
0.000136821
0.000145882
0.000158274
0.000181237
0.000223872
0.000282408
0.000346213
0.000391517
0.000402181
0.000390292
0.000335425
0.00026827
0.000211529
0.000178441
0.000166274
0.000170432
0.000191967
0.000216891
0.000260707
0.000488801
0.00143052
0.00390611
0.00569337
0.005734
0.00534444
0.0050503
0.00499221
0.00494941
0.00430281
0.00457647
0.00421269
0.00426389
0.00424905
0.00433697
0.00399201
0.0044301
0.00326496
0.00417987
0.00230915
0.00353819
0.00127519
0.00267217
0.000636851
0.00159956
0.000291008
0.000761712
0.000307935
0.00013318
0.000305294
0.000277466
0.000109762
0.00012275
0.000102689
0.000106219
0.000100042
0.000107553
0.000116402
0.000125089
0.000135789
0.000145214
0.000154064
0.000166507
0.000190187
0.000232881
0.000289613
0.000346195
0.000387397
0.000400667
0.000392494
0.000348264
0.00028419
0.000226126
0.000190697
0.000174111
0.000173844
0.000194823
0.000224293
0.000266485
0.000462941
0.0013827
0.00388411
0.00587714
0.00588608
0.00528754
0.00461072
0.00461017
0.00483846
0.00498266
0.00502959
0.00442144
0.00472725
0.00436122
0.00443119
0.00456625
0.00458185
0.00470425
0.00489136
0.00448315
0.00506762
0.00395259
0.00491035
0.00312806
0.00445998
0.0019506
0.00361696
0.00086138
0.00225384
0.000905483
0.000232263
0.000882839
0.000777626
0.000114118
0.000181624
0.000102357
0.000107211
9.94577e-05
0.00010775
0.000120548
0.000131931
0.000144642
0.000155017
0.000163715
0.00017632
0.000200932
0.000243918
0.000298662
0.00034852
0.000385258
0.000400115
0.000394914
0.000361244
0.000302968
0.000244517
0.000205582
0.000186863
0.000180037
0.000197408
0.000229551
0.000274422
0.000433609
0.00125813
0.00371608
0.00599739
0.00604742
0.00534902
0.00391589
0.00312553
0.0036652
0.00489798
0.00430165
0.00503614
0.00498623
0.00463884
0.00490939
0.0046039
0.00469189
0.00491096
0.00490762
0.00530447
0.00532894
0.00551938
0.00579858
0.00543617
0.00605585
0.00500463
0.00600461
0.00408322
0.00554299
0.00245156
0.00446502
0.00251456
0.000619189
0.00241237
0.00209117
0.00013825
0.000430985
0.000101087
0.000112577
9.93814e-05
0.000106037
0.000123659
0.000139325
0.000154626
0.000166274
0.000175005
0.000187893
0.000213645
0.000257295
0.000310126
0.000355123
0.000385304
0.000400181
0.000398462
0.000374927
0.000325387
0.000268622
0.00022614
0.000204052
0.000190118
0.000201918
0.000233409
0.000282023
0.000413263
0.0011103
0.00338431
0.00601686
0.00629037
0.00559377
0.00393216
0.00199624
0.00250906
0.00360616
0.00302138
0.00468211
0.00405731
0.00506945
0.00492892
0.00490059
0.00506368
0.00493222
0.00503221
0.0053136
0.00531365
0.00583419
0.00581522
0.00635974
0.00642755
0.00664932
0.00698723
0.00659
0.00727763
0.0060561
0.007186
0.0047385
0.00650777
0.0049024
0.00170104
0.0049029
0.00460197
0.000252118
0.00118997
0.000101809
0.000141745
0.000102585
0.000105904
0.000124119
0.000146849
0.000165702
0.000179195
0.000188087
0.000201431
0.000228571
0.000273348
0.000324416
0.000364602
0.000388452
0.000402577
0.000405741
0.000391407
0.000352739
0.00030071
0.000255959
0.000227585
0.000207612
0.000211215
0.00023896
0.000287661
0.000401606
0.00097289
0.00305123
0.00594809
0.00666192
0.00613606
0.00429576
0.00167619
0.00150069
0.00266685
0.00347104
0.00319878
0.00449619
0.00396388
0.00512334
0.00485914
0.00516776
0.005196
0.00534371
0.00542217
0.00580289
0.00581054
0.00641621
0.00640322
0.0071107
0.00713663
0.00768505
0.00790316
0.00796557
0.00848298
0.00779432
0.00869197
0.00687907
0.00837104
0.00716027
0.00394561
0.00726309
0.00713253
0.000660417
0.00292971
0.000106994
0.000276944
0.000113147
0.000125801
0.000151865
0.000178197
0.000193722
0.000203448
0.000216918
0.000246249
0.000292216
0.000342261
0.000377465
0.000397776
0.000411167
0.000419106
0.000413288
0.000387393
0.000343634
0.000297345
0.00026297
0.000243061
0.000231631
0.000250289
0.000293438
0.000395766
0.000857337
0.00271797
0.00573714
0.00700681
0.00681902
0.0052956
0.00192197
0.000893305
0.00165381
0.00335947
0.00320624
0.00355935
0.00337173
0.00441467
0.00399722
0.00519024
0.00483246
0.00543473
0.00537998
0.0058428
0.00584089
0.00640478
0.00642099
0.00713782
0.00714337
0.00801366
0.00807452
0.0088528
0.00911513
0.0094118
0.0100003
0.00948053
0.0103912
0.008859
0.0102312
0.00926673
0.00670252
0.00952785
0.00956361
0.00179299
0.0057389
0.000127481
0.000771928
0.000137006
0.000156145
0.000189418
0.000211005
0.00022036
0.00023578
0.000265942
0.00031523
0.000363813
0.000395635
0.000413614
0.000429186
0.000441291
0.000445212
0.00043469
0.000402503
0.000357202
0.000318673
0.000300619
0.000281892
0.000274954
0.000304731
0.000394936
0.000767925
0.00239766
0.00545928
0.00722901
0.00759931
0.00654576
0.00292376
0.000797484
0.000806784
0.00280456
0.0017654
0.00377133
0.00359816
0.00379668
0.00378236
0.00445642
0.00424037
0.00528328
0.00496098
0.00577975
0.00559609
0.00641839
0.00635824
0.00716224
0.00716619
0.00809921
0.00813242
0.00930307
0.00944991
0.0105737
0.0110892
0.0114768
0.0125663
0.0115363
0.013133
0.0108832
0.0126226
0.0113962
0.00930931
0.0117105
0.0118387
0.0106716
0.0041824
0.0086742
0.00017895
0.00210282
0.000168873
0.000198579
0.000228022
0.000242359
0.000255083
0.000290933
0.000340913
0.00039164
0.000420143
0.000438722
0.000457651
0.00047661
0.000498678
0.000506154
0.000488889
0.000447197
0.00040102
0.000375815
0.000363588
0.000335015
0.000329348
0.000400066
0.000702846
0.00211402
0.0051426
0.00733751
0.00832967
0.00774329
0.00439172
0.000985708
0.000520433
0.000857981
0.00282391
0.00175831
0.00424873
0.00381102
0.00422914
0.00427468
0.0047537
0.00474741
0.00559234
0.00540003
0.00617402
0.00588608
0.00712256
0.00696257
0.00816402
0.00814312
0.00956867
0.00964208
0.0115002
0.0117921
0.0135341
0.0143564
0.0149016
0.0164561
0.0148494
0.0171735
0.013438
0.0161897
0.0146811
0.0127317
0.0139883
0.0117744
0.0104183
0.0117921
0.0128827
0.0142253
0.0141162
0.0129454
0.0054249
0.00778553
0.0116093
0.0114993
0.00981824
0.000577122
0.00708966
0.0034404
0.00621974
0.000212708
0.000247354
0.000262293
0.000282527
0.00031551
0.000374535
0.000424419
0.000455451
0.000476095
0.000503009
0.000535538
0.000576808
0.000598093
0.00059025
0.000554261
0.000502002
0.000464526
0.000452217
0.000437362
0.000387879
0.000417065
0.000662143
0.00187598
0.00482144
0.00735323
0.00893186
0.00886603
0.00596021
0.00149106
0.000498621
0.00046681
0.00101819
0.000603847
0.00270386
0.0016268
0.0045621
0.00367212
0.00481877
0.00485266
0.00538788
0.00547445
0.00623425
0.00619189
0.00670179
0.00642635
0.00802309
0.00778861
0.00963227
0.00952738
0.0119138
0.0118865
0.0148929
0.0150642
0.0175015
0.0178773
0.01768
0.0184999
0.0187986
0.019065
0.0173538
0.0185778
0.0191921
0.0195978
0.0190978
0.0166427
0.0152903
0.0170269
0.0180876
0.0155692
0.0129558
0.0128896
0.0141854
0.0156094
0.0156305
0.0141671
0.00941598
0.012802
0.0126768
0.0112656
0.0105614
0.00617225
0.00912285
0.00951657
0.00026655
0.000292907
0.000305191
0.000350983
0.000408963
0.000469561
0.000501313
0.000532894
0.000572264
0.000625163
0.000678
0.000709607
0.000706848
0.000673348
0.000618864
0.000567781
0.00054551
0.00054722
0.000521505
0.00046163
0.000646427
0.0016787
0.00452397
0.00730924
0.00940787
0.00989763
0.00747719
0.00222438
0.000583551
0.000386287
0.000433583
0.000821972
0.000572083
0.00235307
0.00137616
0.00450639
0.00310326
0.00548676
0.00523488
0.00622698
0.00614933
0.00717887
0.00704502
0.00752515
0.00729521
0.00927886
0.00895943
0.0117186
0.0113391
0.0149403
0.0145454
0.0177536
0.0173002
0.0190564
0.0189988
0.0188362
0.0186703
0.0195193
0.0195545
0.0194807
0.0191299
0.0196435
0.0197463
0.0196768
0.019754
0.0184293
0.0171349
0.0185996
0.0194422
0.0172015
0.0141038
0.0139936
0.0155171
0.0171346
0.0169848
0.0153849
0.0110663
0.0138321
0.0136032
0.0124957
0.0149583
0.0121044
0.0299163
0.0322562
0.0111946
0.0122017
0.00032433
0.000344525
0.000380576
0.000458536
0.000519744
0.000568868
0.000611582
0.000676204
0.000752944
0.000818783
0.000859068
0.000858978
0.000818606
0.000757312
0.000692823
0.000655856
0.000659604
0.000670123
0.000591958
0.000654483
0.00150766
0.00426025
0.00720281
0.00972365
0.0108305
0.00892122
0.00322512
0.000754555
0.000378431
0.000363828
0.000460363
0.00039739
0.000716756
0.000540496
0.00185241
0.00108443
0.00376484
0.00234086
0.00584792
0.00514184
0.00678345
0.00637391
0.00788613
0.00740762
0.0086434
0.00832355
0.0108554
0.0102775
0.0138198
0.0129371
0.0165281
0.0156203
0.0183488
0.0180627
0.0176009
0.0171627
0.0193109
0.0190611
0.01877
0.0183948
0.019712
0.0194422
0.0190261
0.0198304
0.019828
0.0192946
0.0185141
0.0193549
0.0195573
0.0186372
0.0195694
0.0198902
0.0185615
0.0152127
0.0149751
0.0167736
0.0183777
0.0181302
0.0165187
0.012335
0.0146276
0.0141493
0.0132662
0.0126857
0.0152289
0.0209218
0.0364386
0.0123518
0.000388681
0.000431895
0.000501907
0.000594515
0.000649556
0.000730109
0.000823872
0.000938994
0.00103388
0.00108571
0.00108161
0.00102384
0.000939401
0.000856381
0.000798976
0.000789692
0.000819082
0.000795525
0.000717044
0.00137277
0.00400747
0.00709851
0.00990211
0.0116574
0.0102766
0.00445098
0.000986567
0.000396677
0.000338073
0.00035919
0.00044557
0.00039744
0.000651027
0.000523909
0.00137484
0.000885704
0.00275257
0.00165633
0.00555883
0.00422827
0.00677079
0.00578424
0.00799253
0.0070071
0.00957582
0.00880964
0.0119424
0.0108825
0.0144664
0.0131935
0.0165734
0.0160055
0.0153779
0.0147358
0.0179868
0.0175074
0.0169862
0.0164036
0.0185767
0.0181254
0.0176736
0.0171937
0.0187029
0.0180117
0.017339
0.0196982
0.0188245
0.0174705
0.015956
0.017479
0.0198495
0.0194823
0.0197439
0.019465
0.0193256
0.0162056
0.0157743
0.0178173
0.0191116
0.0188452
0.0174663
0.0128295
0.0151691
0.0143868
0.0135146
0.0123245
0.0121646
0.0162229
0.00762857
0.0367673
0.0004892
0.000575904
0.00066253
0.000772185
0.000876225
0.00104542
0.00121505
0.00136131
0.0014241
0.00140617
0.00132226
0.00120069
0.0010843
0.000995495
0.000955786
0.00097791
0.00100103
0.000909686
0.00130495
0.00373362
0.00704879
0.00999266
0.0123938
0.0115304
0.00584472
0.00130296
0.000437723
0.000330093
0.000329931
0.000371464
0.000347006
0.000439208
0.000395747
0.000613014
0.000507724
0.00106617
0.000775039
0.00191878
0.00125829
0.00446083
0.00304126
0.00582161
0.00449896
0.00717221
0.00579763
0.00975031
0.00850777
0.0118086
0.0103257
0.0133182
0.0116183
0.015781
0.0151328
0.0144814
0.0138412
0.0166899
0.0161336
0.0155397
0.0148886
0.0167459
0.0162139
0.0156969
0.015166
0.0164251
0.0155176
0.0147913
0.0182362
0.0164178
0.0145151
0.0125664
0.0143928
0.0192468
0.0195917
0.0190828
0.0177703
0.0194153
0.0170082
0.0163733
0.0185326
0.0192179
0.0190059
0.0181446
0.0126666
0.0155224
0.0144998
0.0134232
0.0117057
0.0118315
0.0181956
0.00828381
0.037813
0.000657722
0.000779957
0.000887055
0.00109093
0.0013214
0.00160732
0.00180075
0.00188063
0.00183637
0.0017224
0.00156601
0.00139933
0.00126117
0.00117602
0.00116314
0.00120159
0.00116387
0.00131211
0.00342418
0.00705455
0.0100381
0.0130114
0.012657
0.00739954
0.00173623
0.000501817
0.000332042
0.000315269
0.000327533
0.000367194
0.000347194
0.000432203
0.000393821
0.000585368
0.000493564
0.000913571
0.00071624
0.00146874
0.0010647
0.00321078
0.00216705
0.00448202
0.00334003
0.00582417
0.0045313
0.00883638
0.00729217
0.00997994
0.00836329
0.0111008
0.0103172
0.00877518
0.00954702
0.0142063
0.0134973
0.0127474
0.011949
0.0145946
0.0139735
0.0133034
0.0126003
0.0141996
0.0136548
0.0131055
0.0125239
0.0133697
0.0125295
0.0118915
0.0155505
0.0130703
0.0111772
0.00920553
0.010843
0.0175166
0.0189836
0.0174956
0.0150546
0.0189351
0.0175871
0.0167895
0.0187785
0.0189167
0.018856
0.0184762
0.0122666
0.01579
0.0146691
0.0133464
0.0113433
0.0122537
0.0179761
0.0412397
0.0405227
0.000908525
0.00108714
0.00130091
0.00169549
0.00206615
0.00233369
0.00241297
0.00234561
0.00219052
0.00199981
0.00179992
0.00160029
0.00145728
0.00138799
0.00140395
0.00141558
0.00143241
0.00310246
0.00702791
0.0100685
0.0135237
0.0136882
0.0090584
0.00234779
0.000600324
0.000342631
0.000309678
0.000310427
0.000334243
0.000319848
0.000365859
0.00034721
0.000423286
0.000389467
0.000556148
0.00047614
0.000826284
0.00066776
0.00122109
0.000930951
0.00240737
0.0016923
0.0034385
0.00257131
0.00432954
0.00331295
0.00691699
0.00553835
0.00806444
0.00732186
0.00607629
0.00910886
0.00853653
0.00753854
0.0080165
0.0118861
0.0111683
0.0104412
0.00975165
0.0119038
0.0112564
0.010604
0.0099764
0.0113311
0.0107787
0.0102242
0.00966899
0.0102433
0.00957505
0.00903205
0.0121886
0.00957035
0.00818006
0.00650218
0.0076384
0.0149968
0.017665
0.0153577
0.0119073
0.0179429
0.0179363
0.0170822
0.0187407
0.0182564
0.0185216
0.0185297
0.0121713
0.0160826
0.0149852
0.0134942
0.0115397
0.0123509
0.0161599
0.04819
0.0344559
0.00128912
0.00163261
0.00205945
0.00260279
0.00289699
0.00297973
0.00287274
0.00267834
0.00243968
0.00221607
0.00198677
0.00179337
0.00165906
0.00161819
0.00164585
0.00167132
0.0028408
0.00686159
0.010066
0.0139252
0.0146508
0.0107062
0.00321545
0.00075996
0.00036369
0.000309977
0.000301637
0.00030745
0.000331263
0.000319633
0.000364385
0.00034644
0.000415489
0.000386647
0.000523963
0.000458917
0.000744078
0.000615125
0.00100317
0.00079102
0.00185347
0.00133275
0.00246822
0.00179191
0.00319648
0.00242338
0.00503014
0.00412308
0.00706895
0.00662174
0.00628079
0.0057939
0.00805447
0.00783403
0.0073531
0.00760488
0.00940243
0.0089186
0.00855438
0.0082884
0.00914875
0.00869634
0.0083688
0.00818825
0.00854356
0.00810635
0.00775692
0.00752974
0.00753651
0.00707779
0.00674513
0.00890806
0.00663051
0.00597753
0.00519987
0.00558776
0.0123435
0.0159999
0.0133143
0.0092266
0.0167726
0.0181164
0.0173604
0.0186001
0.0175368
0.0181508
0.0185269
0.012379
0.0164806
0.0153836
0.0138124
0.011722
0.0120403
0.0145275
0.0353064
0.0351697
0.00195157
0.00257783
0.00311002
0.00349112
0.00350698
0.00336935
0.00312072
0.00285338
0.00259961
0.00237248
0.00215606
0.00196965
0.00185803
0.00185287
0.00188948
0.00271951
0.00649193
0.0100402
0.0141853
0.0155612
0.0123328
0.00451456
0.00100971
0.000403337
0.00031463
0.000298997
0.000297082
0.00031083
0.000301419
0.000330011
0.000318653
0.000361108
0.000343674
0.000406523
0.00038163
0.000490541
0.000440728
0.000653367
0.000558296
0.000774776
0.000647814
0.00129493
0.000976561
0.00177384
0.0013207
0.00335916
0.00248487
0.00530729
0.00480337
0.00432772
0.00705609
0.00669798
0.00793619
0.00736732
0.00856771
0.00873023
0.00879537
0.00879642
0.00813534
0.00814735
0.00821766
0.00837612
0.0074823
0.00752732
0.00773365
0.00806551
0.00659312
0.00657046
0.00667778
0.00694537
0.00575246
0.0057007
0.00575448
0.0067178
0.0055518
0.00512868
0.00509639
0.00515625
0.0103737
0.0145777
0.0120408
0.00787996
0.0158973
0.0182926
0.0177676
0.0185233
0.0170939
0.0180446
0.0186794
0.0125778
0.016911
0.0156938
0.0141005
0.0115872
0.0119404
0.0154602
0.00727474
0.0263322
0.00305939
0.00376029
0.00397693
0.00398182
0.00376182
0.00347603
0.00318543
0.00292576
0.00270409
0.00249882
0.00229525
0.00212434
0.00204992
0.00207298
0.00269297
0.00603095
0.00996645
0.014289
0.0164214
0.0140066
0.00629261
0.00139447
0.000471254
0.000327348
0.000299824
0.000292909
0.000292264
0.000307275
0.000299951
0.000327582
0.000316786
0.000356572
0.000340958
0.000396272
0.000375309
0.000459004
0.000423009
0.000565371
0.000504779
0.000614745
0.000539757
0.000979376
0.000753314
0.00175748
0.00126533
0.00544465
0.00459551
0.00392446
0.00667819
0.0059263
0.00627557
0.00727551
0.00866032
0.00837505
0.0107606
0.0100274
0.010818
0.0112966
0.0116614
0.0115844
0.00849339
0.00905264
0.00964264
0.0102456
0.0073728
0.00794821
0.00865977
0.00947251
0.00606321
0.0064932
0.00705263
0.00776654
0.00523392
0.00556556
0.00602168
0.00632597
0.0056465
0.00523501
0.00557438
0.00548127
0.00972774
0.0138759
0.0118737
0.00794718
0.0156313
0.0187088
0.0182209
0.0186944
0.0171429
0.0183855
0.0192815
0.012627
0.0171995
0.015812
0.0142435
0.011641
0.0124835
0.0156638
0.0047044
0.0194251
0.00431572
0.00446653
0.00429618
0.00405589
0.00371155
0.00340239
0.00314492
0.00293478
0.00276118
0.00258687
0.00240096
0.00225308
0.00222561
0.0027038
0.00554532
0.00978455