/*--------------------------------*- C++ -*----------------------------------*\
  =========                 |
  \\      /  F ield         | OpenFOAM: The Open Source CFD Toolbox
   \\    /   O peration     | Website:  https://openfoam.org
    \\  /    A nd           | Version:  dev
     \\/     M anipulation  |
\*---------------------------------------------------------------------------*/
FoamFile
{
    version     2.0;
    format      ascii;
    class       volScalarField;
    location    "2500";
    object      N2;
}
// * * * * * * * * * * * * * * * * * * * * * * * * * * * * * * * * * * * * * //

dimensions      [0 0 0 0 0 0 0];

internalField   nonuniform List<scalar> 
9840
(
0.76699
0.76699
0.76699
0.76699
0.76699
0.76699
0.76699
0.76699
0.76699
0.76699
0.76699
0.76699
0.76699
0.76699
0.76699
0.76699
0.76699
0.76699
0.76699
0.76699
0.76699
0.76699
0.76699
0.76699
0.76699
0.76699
0.76699
0.76699
0.76699
0.76699
0.76699
0.76699
0.76699
0.76699
0.76699
0.76699
0.76699
0.76699
0.76699
0.76699
0.76699
0.76699
0.76699
0.76699
0.76699
0.76699
0.76699
0.76699
0.76699
0.76699
0.76699
0.76699
0.76699
0.76699
0.76699
0.76699
0.76699
0.76699
0.76699
0.76699
0.76699
0.76699
0.76699
0.76699
0.76699
0.76699
0.76699
0.76699
0.76699
0.76699
0.76699
0.76699
0.76699
0.76699
0.76699
0.76699
0.76699
0.76699
0.76699
0.76699
0.76699
0.76699
0.76699
0.76699
0.76699
0.76699
0.76699
0.76699
0.76699
0.76699
0.76699
0.76699
0.76699
0.76699
0.76699
0.76699
0.76699
0.76699
0.76699
0.76699
0.76699
0.76699
0.76699
0.76699
0.76699
0.76699
0.76699
0.76699
0.76699
0.76699
0.76699
0.76699
0.76699
0.76699
0.76699
0.76699
0.76699
0.76699
0.76699
0.76699
0.76699
0.76699
0.76699
0.76699
0.76699
0.76699
0.76699
0.76699
0.76699
0.76699
0.76699
0.76699
0.76699
0.76699
0.76699
0.76699
0.76699
0.76699
0.76699
0.76699
0.76699
0.76699
0.76699
0.76699
0.76699
0.76699
0.76699
0.76699
0.76699
0.76699
0.76699
0.76699
0.76699
0.76699
0.76699
0.76699
0.76699
0.76699
0.76699
0.76699
0.76699
0.76699
0.76699
0.76699
0.76699
0.76699
0.76699
0.76699
0.76699
0.76699
0.76699
0.76699
0.76699
0.76699
0.76699
0.76699
0.76699
0.76699
0.76699
0.76699
0.76699
0.76699
0.76699
0.76699
0.76699
0.76699
0.76699
0.76699
0.76699
0.76699
0.76699
0.76699
0.76699
0.76699
0.76699
0.76699
0.76699
0.76699
0.76699
0.76699
0.76699
0.76699
0.76699
0.76699
0.76699
0.76699
0.76699
0.76699
0.76699
0.76699
0.76699
0.76699
0.76699
0.76699
0.76699
0.76699
0.76699
0.76699
0.76699
0.76699
0.76699
0.76699
0.76699
0.76699
0.76699
0.76699
0.76699
0.76699
0.76699
0.76699
0.76699
0.76699
0.76699
0.76699
0.76699
0.76699
0.76699
0.76699
0.76699
0.76699
0.76699
0.76699
0.76699
0.76699
0.76699
0.76699
0.76699
0.76699
0.76699
0.76699
0.76699
0.76699
0.76699
0.76699
0.76699
0.76699
0.76699
0.76699
0.76699
0.76699
0.76699
0.76699
0.76699
0.76699
0.76699
0.76699
0.76699
0.76699
0.76699
0.76699
0.76699
0.76699
0.76699
0.76699
0.76699
0.76699
0.76699
0.76699
0.76699
0.76699
0.76699
0.76699
0.76699
0.76699
0.76699
0.76699
0.76699
0.76699
0.76699
0.76699
0.76699
0.76699
0.76699
0.76699
0.76699
0.76699
0.76699
0.76699
0.76699
0.76699
0.76699
0.76699
0.76699
0.76699
0.76699
0.76699
0.76699
0.76699
0.76699
0.76699
0.76699
0.76699
0.76699
0.76699
0.76699
0.76699
0.76699
0.76699
0.76699
0.76699
0.76699
0.76699
0.76699
0.76699
0.76699
0.76699
0.76699
0.76699
0.76699
0.76699
0.76699
0.76699
0.76699
0.76699
0.76699
0.76699
0.76699
0.76699
0.76699
0.76699
0.76699
0.76699
0.76699
0.76699
0.76699
0.76699
0.76699
0.76699
0.76699
0.76699
0.76699
0.76699
0.76699
0.76699
0.76699
0.76699
0.76699
0.76699
0.76699
0.76699
0.76699
0.76699
0.76699
0.76699
0.76699
0.76699
0.76699
0.76699
0.76699
0.76699
0.76699
0.76699
0.76699
0.76699
0.76699
0.76699
0.76699
0.76699
0.76699
0.76699
0.76699
0.76699
0.76699
0.76699
0.76699
0.76699
0.76699
0.76699
0.76699
0.76699
0.76699
0.76699
0.76699
0.76699
0.76699
0.76699
0.76699
0.76699
0.76699
0.76699
0.76699
0.76699
0.76699
0.76699
0.76699
0.76699
0.76699
0.76699
0.76699
0.76699
0.76699
0.76699
0.76699
0.76699
0.76699
0.76699
0.76699
0.76699
0.76699
0.76699
0.76699
0.76699
0.76699
0.76699
0.76699
0.76699
0.76699
0.76699
0.76699
0.76699
0.76699
0.76699
0.76699
0.76699
0.76699
0.76699
0.76699
0.76699
0.76699
0.76699
0.76699
0.76699
0.76699
0.76699
0.76699
0.76699
0.76699
0.76699
0.76699
0.76699
0.76699
0.76699
0.76699
0.76699
0.76699
0.76699
0.76699
0.76699
0.76699
0.76699
0.76699
0.76699
0.76699
0.76699
0.76699
0.76699
0.76699
0.76699
0.76699
0.76699
0.76699
0.76699
0.76699
0.76699
0.76699
0.76699
0.76699
0.76699
0.76699
0.76699
0.76699
0.76699
0.76699
0.76699
0.76699
0.76699
0.76699
0.76699
0.76699
0.76699
0.76699
0.76699
0.76699
0.76699
0.76699
0.76699
0.76699
0.76699
0.76699
0.76699
0.76699
0.76699
0.76699
0.76699
0.76699
0.76699
0.76699
0.76699
0.76699
0.76699
0.76699
0.76699
0.76699
0.76699
0.76699
0.76699
0.76699
0.76699
0.76699
0.76699
0.76699
0.76699
0.76699
0.76699
0.76699
0.76699
0.76699
0.76699
0.76699
0.76699
0.76699
0.76699
0.76699
0.76699
0.76699
0.76699
0.76699
0.76699
0.76699
0.76699
0.76699
0.76699
0.76699
0.76699
0.76699
0.76699
0.76699
0.76699
0.76699
0.76699
0.76699
0.76699
0.76699
0.76699
0.76699
0.76699
0.76699
0.76699
0.76699
0.76699
0.76699
0.76699
0.76699
0.76699
0.76699
0.76699
0.76699
0.76699
0.76699
0.76699
0.76699
0.76699
0.76699
0.76699
0.76699
0.76699
0.76699
0.76699
0.76699
0.76699
0.76699
0.76699
0.76699
0.76699
0.76699
0.76699
0.76699
0.76699
0.76699
0.76699
0.76699
0.76699
0.76699
0.76699
0.76699
0.76699
0.76699
0.76699
0.76699
0.76699
0.76699
0.76699
0.76699
0.76699
0.76699
0.76699
0.76699
0.76699
0.76699
0.76699
0.76699
0.76699
0.76699
0.76699
0.76699
0.76699
0.76699
0.76699
0.76699
0.76699
0.76699
0.76699
0.76699
0.76699
0.76699
0.76699
0.76699
0.76699
0.76699
0.76699
0.76699
0.76699
0.76699
0.76699
0.76699
0.76699
0.76699
0.76699
0.76699
0.76699
0.76699
0.76699
0.76699
0.76699
0.76699
0.76699
0.76699
0.76699
0.76699
0.76699
0.76699
0.76699
0.76699
0.76699
0.76699
0.76699
0.76699
0.76699
0.76699
0.76699
0.76699
0.76699
0.76699
0.76699
0.76699
0.76699
0.76699
0.76699
0.76699
0.76699
0.76699
0.76699
0.76699
0.76699
0.76699
0.76699
0.76699
0.76699
0.76699
0.76699
0.76699
0.76699
0.76699
0.76699
0.76699
0.76699
0.76699
0.76699
0.76699
0.76699
0.76699
0.76699
0.76699
0.76699
0.76699
0.76699
0.76699
0.76699
0.76699
0.76699
0.76699
0.76699
0.76699
0.76699
0.76699
0.76699
0.76699
0.76699
0.76699
0.76699
0.76699
0.76699
0.76699
0.76699
0.76699
0.76699
0.76699
0.76699
0.76699
0.76699
0.76699
0.76699
0.76699
0.76699
0.76699
0.76699
0.76699
0.76699
0.76699
0.76699
0.76699
0.76699
0.76699
0.76699
0.76699
0.76699
0.76699
0.76699
0.76699
0.76699
0.76699
0.76699
0.76699
0.76699
0.76699
0.76699
0.76699
0.76699
0.76699
0.76699
0.76699
0.76699
0.76699
0.76699
0.76699
0.76699
0.76699
0.76699
0.76699
0.76699
0.76699
0.76699
0.76699
0.76699
0.76699
0.76699
0.76699
0.76699
0.76699
0.76699
0.76699
0.76699
0.76699
0.76699
0.76699
0.76699
0.76699
0.76699
0.76699
0.76699
0.76699
0.76699
0.76699
0.76699
0.76699
0.766989
0.766988
0.766988
0.766988
0.766988
0.766989
0.76699
0.76699
0.76699
0.76699
0.76699
0.76699
0.76699
0.76699
0.76699
0.76699
0.76699
0.76699
0.76699
0.76699
0.76699
0.76699
0.76699
0.76699
0.76699
0.76699
0.76699
0.76699
0.76699
0.76699
0.76699
0.76699
0.76699
0.76699
0.76699
0.76699
0.76699
0.76699
0.76699
0.76699
0.76699
0.76699
0.76699
0.76699
0.76699
0.766989
0.766986
0.766981
0.766976
0.766974
0.766976
0.766981
0.766986
0.76699
0.766989
0.76699
0.76699
0.76699
0.76699
0.76699
0.76699
0.76699
0.76699
0.76699
0.76699
0.76699
0.76699
0.76699
0.76699
0.76699
0.76699
0.76699
0.76699
0.76699
0.76699
0.76699
0.76699
0.76699
0.76699
0.76699
0.76699
0.76699
0.76699
0.76699
0.76699
0.76699
0.76699
0.76699
0.76699
0.76699
0.76699
0.76699
0.766989
0.766986
0.766977
0.766959
0.766936
0.766918
0.766915
0.76693
0.766952
0.766987
0.766978
0.766989
0.766988
0.76699
0.76699
0.76699
0.76699
0.76699
0.76699
0.76699
0.76699
0.76699
0.76699
0.76699
0.76699
0.76699
0.76699
0.76699
0.76699
0.76699
0.76699
0.76699
0.76699
0.76699
0.76699
0.76699
0.76699
0.76699
0.76699
0.76699
0.76699
0.76699
0.76699
0.76699
0.76699
0.76699
0.76699
0.76699
0.76699
0.76699
0.766989
0.766984
0.766965
0.76692
0.766847
0.766782
0.766749
0.766765
0.766823
0.766948
0.766863
0.766983
0.766963
0.766988
0.766984
0.76699
0.766989
0.76699
0.76699
0.76699
0.76699
0.76699
0.76699
0.76699
0.76699
0.76699
0.76699
0.76699
0.76699
0.76699
0.76699
0.76699
0.76699
0.76699
0.76699
0.76699
0.76699
0.76699
0.76699
0.76699
0.76699
0.76699
0.76699
0.76699
0.76699
0.76699
0.76699
0.76699
0.76699
0.76699
0.76699
0.76699
0.766989
0.766982
0.766953
0.766879
0.766761
0.76663
0.766543
0.766501
0.766542
0.766758
0.766614
0.766904
0.766793
0.76697
0.766927
0.766985
0.766974
0.766989
0.766985
0.76699
0.766988
0.76699
0.76699
0.76699
0.76699
0.76699
0.76699
0.76699
0.76699
0.76699
0.76699
0.76699
0.76699
0.76699
0.76699
0.76699
0.76699
0.76699
0.76699
0.76699
0.76699
0.76699
0.76699
0.76699
0.76699
0.76699
0.76699
0.76699
0.76699
0.76699
0.76699
0.76699
0.76699
0.76699
0.766989
0.76698
0.766943
0.766845
0.766685
0.766532
0.766426
0.766344
0.766298
0.766489
0.76634
0.766666
0.766526
0.766829
0.766707
0.766939
0.766853
0.766974
0.766942
0.766985
0.766972
0.766988
0.766983
0.766989
0.766988
0.766989
0.76699
0.766989
0.766989
0.76699
0.76699
0.76699
0.76699
0.76699
0.76699
0.76699
0.76699
0.76699
0.76699
0.76699
0.76699
0.76699
0.76699
0.76699
0.76699
0.76699
0.76699
0.76699
0.76699
0.76699
0.76699
0.76699
0.76699
0.76699
0.76699
0.76699
0.766989
0.766981
0.766939
0.766819
0.76664
0.766518
0.766422
0.766327
0.766236
0.766241
0.766175
0.766383
0.766253
0.766569
0.766423
0.766735
0.7666
0.766862
0.766746
0.766937
0.766855
0.766967
0.766925
0.76698
0.766959
0.766987
0.766977
0.766986
0.76699
0.766986
0.766986
0.76699
0.76699
0.76699
0.76699
0.76699
0.76699
0.76699
0.76699
0.76699
0.76699
0.76699
0.76699
0.76699
0.76699
0.76699
0.76699
0.76699
0.76699
0.76699
0.76699
0.76699
0.76699
0.76699
0.76699
0.76699
0.76699
0.76699
0.766989
0.766981
0.76694
0.766812
0.766636
0.766547
0.76647
0.76638
0.766272
0.766145
0.766161
0.766114
0.766281
0.76616
0.766454
0.766306
0.766612
0.766466
0.766737
0.766599
0.76683
0.766703
0.766903
0.766787
0.766946
0.76687
0.766973
0.766932
0.76697
0.766987
0.766969
0.766971
0.76699
0.766988
0.76699
0.76699
0.76699
0.76699
0.76699
0.76699
0.76699
0.76699
0.76699
0.76699
0.76699
0.76699
0.76699
0.76699
0.76699
0.76699
0.76699
0.76699
0.76699
0.76699
0.76699
0.76699
0.76699
0.76699
0.76699
0.766989
0.766983
0.766943
0.766814
0.766641
0.766581
0.766562
0.766532
0.766387
0.766239
0.766062
0.766105
0.766084
0.766058
0.76617
0.766064
0.766314
0.76617
0.76645
0.766296
0.766558
0.766403
0.766643
0.766485
0.766726
0.766559
0.766829
0.766652
0.766918
0.766785
0.766908
0.766976
0.766905
0.766912
0.766989
0.766981
0.76699
0.76699
0.76699
0.76699
0.76699
0.76699
0.76699
0.76699
0.76699
0.76699
0.76699
0.76699
0.76699
0.76699
0.76699
0.76699
0.76699
0.76699
0.76699
0.76699
0.76699
0.76699
0.76699
0.76699
0.76699
0.76699
0.766985
0.766949
0.766822
0.766649
0.766602
0.76663
0.766713
0.76658
0.766367
0.766165
0.766228
0.766005
0.766055
0.766005
0.765993
0.766046
0.765958
0.766147
0.766013
0.766244
0.766091
0.76632
0.766153
0.76638
0.766199
0.766453
0.766247
0.766568
0.766332
0.766748
0.766484
0.766723
0.766928
0.76672
0.766742
0.766986
0.76695
0.76699
0.766989
0.76699
0.76699
0.76699
0.76699
0.76699
0.76699
0.76699
0.76699
0.76699
0.76699
0.76699
0.76699
0.76699
0.76699
0.76699
0.76699
0.76699
0.76699
0.76699
0.76699
0.76699
0.76699
0.76699
0.76699
0.766986
0.766958
0.76684
0.766656
0.76661
0.766661
0.766811
0.766789
0.766526
0.766243
0.766258
0.766117
0.766145
0.765936
0.765993
0.765918
0.765916
0.765907
0.76584
0.765951
0.765835
0.765994
0.765851
0.766022
0.765854
0.766043
0.765849
0.766092
0.765859
0.766204
0.765924
0.766411
0.766083
0.766361
0.766786
0.766347
0.766385
0.766972
0.766852
0.76699
0.766986
0.76699
0.76699
0.76699
0.76699
0.76699
0.76699
0.76699
0.76699
0.76699
0.76699
0.76699
0.76699
0.76699
0.76699
0.76699
0.76699
0.76699
0.76699
0.76699
0.76699
0.76699
0.76699
0.76699
0.76699
0.766987
0.766965
0.766862
0.766668
0.766614
0.766665
0.766834
0.766908
0.766784
0.766263
0.766142
0.766106
0.766036
0.766045
0.765855
0.765907
0.765819
0.765824
0.765752
0.765709
0.765729
0.765637
0.765706
0.765582
0.76567
0.765515
0.765641
0.765447
0.765655
0.765404
0.765758
0.765446
0.765984
0.765612
0.76592
0.766478
0.765902
0.765942
0.766922
0.766625
0.766989
0.766972
0.76699
0.76699
0.76699
0.76699
0.76699
0.76699
0.76699
0.76699
0.76699
0.76699
0.76699
0.76699
0.76699
0.76699
0.76699
0.76699
0.76699
0.76699
0.76699
0.76699
0.76699
0.76699
0.76699
0.766988
0.766971
0.766883
0.766685
0.766614
0.76666
0.766829
0.76694
0.766928
0.766674
0.766033
0.766192
0.76603
0.76602
0.765933
0.765932
0.765758
0.765799
0.765703
0.765716
0.765581
0.765564
0.765486
0.765425
0.76539
0.765297
0.765282
0.765159
0.765194
0.765042
0.765165
0.764979
0.765248
0.764966
0.765496
0.765095
0.765428
0.766047
0.765409
0.765459
0.766786
0.766243
0.766988
0.766931
0.76699
0.76699
0.76699
0.76699
0.76699
0.76699
0.76699
0.76699
0.76699
0.76699
0.76699
0.76699
0.76699
0.76699
0.76699
0.76699
0.76699
0.76699
0.76699
0.76699
0.76699
0.76699
0.766989
0.766976
0.766902
0.766709
0.766614
0.766647
0.766805
0.766939
0.766971
0.766923
0.766448
0.766755
0.765988
0.766205
0.765914
0.765915
0.765813
0.765809
0.765641
0.765675
0.765569
0.765595
0.7654
0.765402
0.765238
0.765213
0.765078
0.765031
0.764964
0.764923
0.764899
0.764871
0.764852
0.764827
0.764832
0.764777
0.764978
0.764726
0.764931
0.765585
0.764916
0.764947
0.765247
0.766519
0.765803
0.766985
0.766851
0.76699
0.76699
0.76699
0.76699
0.76699
0.76699
0.76699
0.76699
0.76699
0.76699
0.76699
0.76699
0.76699
0.76699
0.76699
0.76699
0.76699
0.76699
0.76699
0.76699
0.76699
0.766989
0.76698
0.766918
0.766736
0.766615
0.766631
0.766768
0.766924
0.766975
0.766979
0.766934
0.766533
0.766778
0.765983
0.766279
0.76581
0.765855
0.765686
0.765701
0.765512
0.765546
0.765421
0.765467
0.765214
0.765233
0.765019
0.765029
0.764907
0.764909
0.764865
0.764868
0.764841
0.764874
0.764801
0.764887
0.76471
0.764815
0.764652
0.764669
0.764642
0.764731
0.764589
0.765006
0.765406
0.765058
0.764734
0.764554
0.764585
0.764741
0.766422
0.766038
0.765159
0.765259
0.765656
0.76697
0.766234
0.766832
0.766515
0.76699
0.76699
0.76699
0.76699
0.76699
0.76699
0.76699
0.76699
0.76699
0.766989
0.766989
0.766989
0.766989
0.766989
0.766989
0.766989
0.766989
0.76699
0.76699
0.76699
0.766989
0.766983
0.766932
0.766764
0.766616
0.766617
0.766736
0.766895
0.766971
0.766986
0.766983
0.766925
0.766977
0.766596
0.766821
0.766071
0.766404
0.765747
0.765848
0.765588
0.76565
0.765406
0.765479
0.76528
0.765339
0.765058
0.765117
0.764923
0.764956
0.764875
0.764892
0.764919
0.764954
0.765029
0.765138
0.764917
0.765048
0.765158
0.765271
0.764747
0.764897
0.765117
0.765256
0.765056
0.764661
0.764575
0.764626
0.764752
0.764544
0.764778
0.76484
0.764557
0.764485
0.764514
0.764565
0.765806
0.764922
0.765016
0.765392
0.76654
0.766724
0.765984
0.766212
0.76699
0.76699
0.76699
0.76699
0.76699
0.76699
0.76699
0.766989
0.766989
0.766988
0.766988
0.766988
0.766988
0.766988
0.766988
0.766989
0.766989
0.766989
0.76699
0.766989
0.766985
0.766944
0.766791
0.766622
0.766606
0.766708
0.766866
0.766961
0.766986
0.766989
0.766988
0.766957
0.766981
0.7667
0.766879
0.766237
0.766564
0.765747
0.765935
0.765559
0.765665
0.765374
0.765474
0.765193
0.765281
0.765012
0.765088
0.764922
0.76497
0.764977
0.764998
0.765194
0.765209
0.765346
0.765412
0.765444
0.765463
0.765279
0.765414
0.765519
0.764917
0.76512
0.765421
0.765549
0.765336
0.764748
0.76459
0.764729
0.764935
0.764558
0.76459
0.764635
0.764463
0.764522
0.764481
0.764449
0.765522
0.764699
0.764772
0.765115
0.765553
0.766401
0.76596
0.765447
0.765644
0.76572
0.76699
0.76699
0.76699
0.76699
0.76699
0.766989
0.766988
0.766987
0.766986
0.766985
0.766985
0.766985
0.766986
0.766986
0.766987
0.766988
0.766988
0.766989
0.766989
0.766987
0.766955
0.766817
0.766631
0.766599
0.766683
0.766838
0.76695
0.766984
0.766989
0.76699
0.766989
0.76699
0.766972
0.766986
0.766806
0.766928
0.766437
0.76672
0.765845
0.766114
0.765603
0.765785
0.765412
0.765563
0.765181
0.765288
0.765041
0.765137
0.765031
0.765088
0.765205
0.76521
0.765463
0.765455
0.765442
0.765428
0.765589
0.765633
0.765647
0.765647
0.765574
0.765697
0.765779
0.765163
0.765414
0.765734
0.765878
0.765662
0.764935
0.764701
0.764917
0.765188
0.764662
0.76445
0.764466
0.76444
0.76461
0.764548
0.764402
0.765205
0.764501
0.764552
0.764845
0.765252
0.765101
0.766575
0.765508
0.765256
0.76699
0.76699
0.76699
0.76699
0.766989
0.766987
0.766984
0.766981
0.766978
0.766977
0.766978
0.766979
0.766981
0.766983
0.766984
0.766986
0.766987
0.766989
0.766988
0.766965
0.766842
0.766643
0.766594
0.766663
0.766811
0.766938
0.766981
0.766989
0.76699
0.76699
0.76699
0.76699
0.766982
0.766988
0.766888
0.766958
0.766634
0.766839
0.766034
0.766338
0.765753
0.765991
0.765557
0.76575
0.765255
0.765394
0.765178
0.765298
0.765244
0.765322
0.76542
0.765418
0.765426
0.765451
0.765633
0.765616
0.765598
0.765587
0.765821
0.765833
0.765829
0.765812
0.765875
0.765966
0.766004
0.765471
0.765753
0.766041
0.766184
0.766
0.765189
0.764881
0.765163
0.765499
0.764828
0.764371
0.764356
0.764476
0.764758
0.76467
0.764404
0.764905
0.764353
0.76437
0.76461
0.764931
0.764927
0.764969
0.766846
0.765867
0.76699
0.76699
0.766989
0.766988
0.766985
0.766979
0.766971
0.766965
0.766961
0.76696
0.766963
0.766968
0.766973
0.766976
0.76698
0.766984
0.766987
0.766988
0.766974
0.766867
0.766659
0.766591
0.766645
0.766787
0.766924
0.766977
0.766988
0.76699
0.76699
0.76699
0.76699
0.76699
0.76699
0.766986
0.766989
0.766938
0.766975
0.766782
0.76691
0.766271
0.766557
0.765979
0.766235
0.765797
0.766008
0.765444
0.76561
0.76544
0.765589
0.765589
0.76572
0.765584
0.76559
0.765606
0.765623
0.765793
0.765777
0.765771
0.765773
0.766013
0.766006
0.76599
0.765973
0.766136
0.766172
0.76618
0.765811
0.766089
0.766287
0.766414
0.766298
0.765491
0.765113
0.765449
0.76583
0.765039
0.76434
0.764292
0.764567
0.764943
0.764824
0.764456
0.764662
0.764259
0.764241
0.764409
0.764695
0.76473
0.76498
0.766825
0.765751
0.76699
0.766989
0.766987
0.766981
0.76697
0.766955
0.766939
0.766928
0.766925
0.766931
0.766941
0.766951
0.76696
0.766968
0.766975
0.766984
0.766987
0.766979
0.766891
0.766679
0.76659
0.76663
0.766764
0.766907
0.766972
0.766988
0.76699
0.76699
0.76699
0.76699
0.76699
0.76699
0.76699
0.766989
0.76699
0.766965
0.766984
0.766878
0.766954
0.766496
0.766724
0.766236
0.766467
0.766116
0.766308
0.765757
0.765932
0.765873
0.766036
0.76597
0.766036
0.766179
0.766105
0.765788
0.765815
0.765854
0.765906
0.765965
0.765966
0.765978
0.766004
0.766175
0.766163
0.766155
0.766155
0.766324
0.766333
0.766333
0.766136
0.766374
0.766457
0.76657
0.766514
0.765804
0.765375
0.765738
0.766138
0.765272
0.764348
0.764258
0.764686
0.765141
0.764984
0.764535
0.764459
0.764196
0.764154
0.764244
0.764513
0.76459
0.764838
0.766039
0.765052
0.766989
0.766985
0.766976
0.766958
0.766931
0.766902
0.766881
0.766874
0.766882
0.766898
0.766917
0.766934
0.766948
0.766958
0.766975
0.766984
0.766981
0.766916
0.766705
0.766591
0.766616
0.766742
0.766887
0.766966
0.766986
0.76699
0.76699
0.76699
0.76699
0.76699
0.76699
0.76699
0.76699
0.76699
0.76699
0.76699
0.766981
0.766988
0.766946
0.766978
0.766681
0.766851
0.766502
0.766691
0.766498
0.766645
0.766196
0.766351
0.766253
0.766332
0.766509
0.766257
0.766314
0.766413
0.766366
0.76604
0.766086
0.76614
0.766198
0.766165
0.766187
0.766218
0.766256
0.766329
0.766329
0.766335
0.76635
0.766471
0.766476
0.766478
0.766408
0.766585
0.76659
0.766678
0.766655
0.766091
0.765633
0.765993
0.766394
0.765492
0.764383
0.764249
0.764806
0.76532
0.765121
0.764613
0.764282
0.764151
0.764089
0.764131
0.764357
0.764419
0.764496
0.765075
0.764491
0.766984
0.76697
0.766943
0.766902
0.766857
0.766823
0.76681
0.766817
0.76684
0.766869
0.766897
0.76692
0.766936
0.766957
0.766978
0.766981
0.766937
0.766736
0.766593
0.766604
0.76672
0.766862
0.766957
0.766984
0.766989
0.76699
0.76699
0.76699
0.76699
0.76699
0.76699
0.76699
0.76699
0.76699
0.76699
0.76699
0.766987
0.766989
0.766978
0.766987
0.766852
0.766945
0.766783
0.766891
0.766768
0.766846
0.766606
0.766679
0.766455
0.766486
0.766553
0.766586
0.766421
0.766443
0.766483
0.766463
0.766297
0.766337
0.766371
0.766398
0.766369
0.76639
0.766407
0.766417
0.76648
0.766484
0.766487
0.766486
0.766595
0.766595
0.766591
0.76661
0.766704
0.76668
0.766731
0.76673
0.766317
0.76585
0.766182
0.766568
0.765667
0.76442
0.764249
0.7649
0.76545
0.765207
0.764666
0.764145
0.764119
0.764036
0.764051
0.764208
0.76425
0.764253
0.765827
0.764612
0.766964
0.766928
0.766871
0.766809
0.76676
0.766735
0.766738
0.766764
0.766805
0.766848
0.766883
0.766907
0.766934
0.766962
0.766979
0.766951
0.766774
0.766598
0.766593
0.766698
0.766836
0.766944
0.766981
0.766989
0.76699
0.76699
0.76699
0.76699
0.76699
0.76699
0.76699
0.76699
0.76699
0.76699
0.76699
0.76699
0.76699
0.766989
0.76699
0.766986
0.766989
0.766953
0.766979
0.766912
0.766952
0.766757
0.76683
0.766625
0.766658
0.766674
0.766503
0.766525
0.766361
0.766395
0.766377
0.766354
0.76633
0.766338
0.76642
0.766418
0.766411
0.766395
0.76648
0.76646
0.766431
0.766393
0.766577
0.766554
0.766522
0.76648
0.766674
0.766646
0.76661
0.766698
0.766737
0.76671
0.766722
0.766741
0.766451
0.765996
0.766277
0.766631
0.765768
0.764439
0.764241
0.764943
0.765506
0.765221
0.764677
0.764043
0.764088
0.763986
0.763987
0.764078
0.764133
0.764206
0.766682
0.76511
0.766912
0.766842
0.766762
0.766696
0.766656
0.76665
0.766676
0.766725
0.766783
0.766835
0.766874
0.766906
0.766938
0.766971
0.766958
0.766812
0.766609
0.766584
0.766676
0.766809
0.766924
0.766976
0.766988
0.76699
0.76699
0.76699
0.76699
0.76699
0.76699
0.76699
0.76699
0.76699
0.76699
0.76699
0.76699
0.76699
0.76699
0.76699
0.76699
0.766987
0.766989
0.766974
0.766984
0.766894
0.766936
0.76641
0.766492
0.766543
0.766442
0.766504
0.766324
0.766231
0.766329
0.76634
0.765962
0.76601
0.766071
0.76601
0.765934
0.765962
0.76634
0.766279
0.766211
0.76614
0.766423
0.766349
0.766261
0.766161
0.76656
0.766498
0.766419
0.766321
0.766669
0.766616
0.766547
0.766703
0.766723
0.766681
0.766672
0.766718
0.766481
0.766048
0.766272
0.766614
0.76578
0.764428
0.764217
0.764928
0.765486
0.765168
0.764641
0.763965
0.764049
0.763935
0.763931
0.763979
0.764048
0.764316
0.766682
0.765198
0.766814
0.76672
0.766635
0.76658
0.766561
0.766581
0.766633
0.766704
0.766777
0.766834
0.766875
0.766912
0.766954
0.766958
0.766848
0.766627
0.766577
0.766654
0.766781
0.766896
0.766968
0.766986
0.76699
0.76699
0.76699
0.76699
0.76699
0.76699
0.76699
0.76699
0.76699
0.76699
0.76699
0.76699
0.76699
0.76699
0.76699
0.76699
0.76699
0.76699
0.766986
0.766988
0.766963
0.766979
0.766704
0.766832
0.766126
0.766253
0.76613
0.766275
0.766075
0.76615
0.766005
0.76589
0.765927
0.765934
0.765521
0.765593
0.765618
0.765537
0.765454
0.76548
0.766052
0.765937
0.765823
0.765715
0.766209
0.766085
0.765951
0.765812
0.766454
0.766334
0.766195
0.766049
0.766611
0.766516
0.766387
0.766666
0.766671
0.76659
0.766541
0.766633
0.766446
0.766016
0.7662
0.766539
0.765714
0.764381
0.764162
0.764839
0.765369
0.764988
0.764529
0.763904
0.763992
0.763886
0.763881
0.763916
0.76402
0.764418
0.765922
0.764891
0.766681
0.766585
0.766512
0.766481
0.766491
0.766539
0.766618
0.766707
0.766782
0.766838
0.766882
0.766929
0.766956
0.766878
0.766653
0.766572
0.766633
0.766752
0.766866
0.766952
0.766984
0.766989
0.76699
0.76699
0.76699
0.76699
0.76699
0.76699
0.76699
0.76699
0.76699
0.76699
0.76699
0.76699
0.76699
0.76699
0.76699
0.76699
0.766989
0.76699
0.76698
0.766987
0.766918
0.766962
0.766392
0.766527
0.766651
0.765875
0.766003
0.766016
0.766142
0.765682
0.765782
0.765746
0.765619
0.765451
0.765472
0.76516
0.765262
0.765167
0.765086
0.765023
0.765035
0.765669
0.765528
0.765394
0.765271
0.765904
0.765756
0.7656
0.765446
0.766231
0.76606
0.765887
0.765717
0.766465
0.766305
0.766115
0.76656
0.766532
0.766394
0.766291
0.766443
0.766318
0.765894
0.766015
0.766349
0.765521
0.76427
0.764072
0.764636
0.765106
0.764723
0.764348
0.763856
0.763928
0.763836
0.763835
0.76388
0.764068
0.764499
0.766612
0.765484
0.766541
0.76646
0.766418
0.766419
0.766457
0.766532
0.766627
0.766719
0.766794
0.766849
0.766901
0.766947
0.766898
0.766685
0.766571
0.766611
0.766721
0.766833
0.766926
0.766978
0.766988
0.76699
0.76699
0.76699
0.76699
0.76699
0.76699
0.76699
0.76699
0.76699
0.76699
0.76699
0.76699
0.76699
0.76699
0.76699
0.76699
0.76699
0.766989
0.76699
0.766972
0.766985
0.766838
0.766934
0.76627
0.766404
0.766623
0.766474
0.765771
0.765893
0.765996
0.766112
0.765374
0.765494
0.765645
0.765514
0.765033
0.76508
0.764923
0.765064
0.764796
0.764722
0.764685
0.764688
0.765293
0.765147
0.765013
0.764894
0.765556
0.765394
0.76523
0.765073
0.765918
0.765717
0.765523
0.765338
0.766203
0.765992
0.765763
0.766336
0.766268
0.766095
0.765953
0.766143
0.766077
0.765637
0.765704
0.766088
0.765201
0.764136
0.763978
0.764408
0.764785
0.76444
0.764179
0.763819
0.76386
0.76379
0.763795
0.763872
0.764114
0.764677
0.76695
0.766328
0.766421
0.76638
0.766373
0.766398
0.766458
0.766549
0.766652
0.766744
0.766813
0.766871
0.766929
0.766906
0.766719
0.766572
0.766591
0.766689
0.766797
0.766893
0.766968
0.766987
0.76699
0.76699
0.76699
0.76699
0.76699
0.76699
0.76699
0.76699
0.76699
0.76699
0.76699
0.76699
0.76699
0.76699
0.76699
0.76699
0.76699
0.76699
0.76699
0.766988
0.766989
0.766968
0.766984
0.766777
0.766917
0.766232
0.766355
0.766603
0.766482
0.765769
0.765883
0.766049
0.766148
0.765218
0.765372
0.765649
0.765518
0.764722
0.764806
0.764796
0.764992
0.764476
0.764426
0.764432
0.764415
0.764923
0.764784
0.76466
0.764557
0.76517
0.765002
0.764839
0.764688
0.765535
0.765312
0.765105
0.764914
0.76586
0.765604
0.765336
0.76606
0.765959
0.765714
0.765531
0.765781
0.76572
0.765246
0.765255
0.765691
0.764806
0.764008
0.763892
0.764202
0.764451
0.764217
0.764026
0.763792
0.763802
0.763752
0.763762
0.763875
0.764181
0.765077
0.766973
0.76661
0.766363
0.766351
0.766363
0.766407
0.766485
0.766586
0.76669
0.766773
0.76684
0.766908
0.766906
0.766754
0.766578
0.766573
0.766656
0.766758
0.766854
0.766946
0.766984
0.766989
0.76699
0.76699
0.76699
0.76699
0.76699
0.76699
0.76699
0.76699
0.76699
0.76699
0.76699
0.76699
0.76699
0.76699
0.76699
0.76699
0.76699
0.76699
0.76699
0.766988
0.766989
0.766969
0.766984
0.766726
0.766839
0.766924
0.766253
0.766365
0.76663
0.76653
0.765861
0.765955
0.766172
0.76625
0.765191
0.765368
0.765757
0.765629
0.764503
0.76463
0.764723
0.764984
0.764175
0.764155
0.764218
0.764161
0.764548
0.764424
0.764317
0.764234
0.764745
0.764581
0.764427
0.764291
0.76508
0.764844
0.764634
0.764449
0.765432
0.765126
0.764821
0.765565
0.765349
0.765225
0.764758
0.765078
0.765219
0.764804
0.764772
0.765083
0.764447
0.76393
0.763833
0.764046
0.76422
0.764049
0.763958
0.763775
0.763769
0.763731
0.763739
0.763887
0.764311
0.765458
0.766987
0.766873
0.766347
0.76635
0.766383
0.766445
0.766534
0.766637
0.766731
0.766807
0.766883
0.766903
0.766786
0.766591
0.766557
0.766624
0.766718
0.766812
0.766911
0.766977
0.766988
0.76699
0.76699
0.76699
0.76699
0.76699
0.76699
0.76699
0.76699
0.76699
0.76699
0.76699
0.76699
0.76699
0.76699
0.76699
0.76699
0.76699
0.76699
0.76699
0.76699
0.766988
0.766989
0.766977
0.766985
0.766779
0.76685
0.766961
0.766928
0.766336
0.766431
0.766699
0.766616
0.76603
0.766101
0.766337
0.766394
0.765244
0.765464
0.765945
0.765822
0.76433
0.764501
0.764657
0.764985
0.763897
0.763896
0.764018
0.763921
0.764169
0.764067
0.763984
0.763925
0.764288
0.764136
0.764
0.763887
0.764552
0.764327
0.764136
0.763977
0.764895
0.764558
0.764245
0.764866
0.76462
0.764437
0.764214
0.764405
0.764653
0.764416
0.764376
0.764508
0.764194
0.763854
0.763791
0.763965
0.764063
0.763992
0.763876
0.763766
0.763735
0.763699
0.763719
0.763915
0.764509
0.765918
0.766989
0.766914
0.766351
0.766378
0.76643
0.766501
0.766595
0.766689
0.766774
0.766855
0.766894
0.76681
0.766607
0.766545
0.766593
0.766677
0.766767
0.766868
0.766964
0.766987
0.76699
0.76699
0.76699
0.76699
0.76699
0.76699
0.76699
0.76699
0.76699
0.76699
0.76699
0.76699
0.76699
0.76699
0.76699
0.76699
0.76699
0.76699
0.76699
0.76699
0.76699
0.766988
0.766989
0.766965
0.76698
0.766985
0.766987
0.766834
0.766887
0.76695
0.766461
0.766536
0.766776
0.766716
0.766237
0.766287
0.766518
0.766556
0.765338
0.765627
0.766166
0.76604
0.764169
0.76438
0.76458
0.764964
0.763642
0.763653
0.763831
0.763714
0.763795
0.763726
0.763672
0.763646
0.763843
0.763732
0.763643
0.763579
0.764042
0.763869
0.763752
0.763653
0.764165
0.76393
0.763835
0.764313
0.764261
0.764143
0.764183
0.764217
0.764338
0.764197
0.764214
0.7643
0.764096
0.763807
0.763752
0.763889
0.763999
0.763895
0.763815
0.763758
0.763701
0.763654
0.763702
0.763969
0.764706
0.766067
0.76699
0.766966
0.766383
0.766428
0.766489
0.766565
0.766654
0.766741
0.766828
0.76688
0.766823
0.766627
0.766537
0.766565
0.766637
0.76672
0.76682
0.766937
0.766983
0.766989
0.76699
0.76699
0.76699
0.76699
0.76699
0.76699
0.76699
0.76699
0.76699
0.76699
0.76699
0.76699
0.76699
0.76699
0.76699
0.76699
0.76699
0.76699
0.76699
0.76699
0.76699
0.76699
0.76699
0.766988
0.766989
0.766975
0.766983
0.766985
0.766987
0.76689
0.766924
0.766965
0.766602
0.766657
0.766852
0.766812
0.766447
0.766485
0.766688
0.76671
0.765384
0.765776
0.766374
0.76622
0.764017
0.764259
0.764486
0.764921
0.76348
0.763497
0.763685
0.763569
0.76353
0.763498
0.763481
0.763476
0.763583
0.763525
0.763477
0.763444
0.763669
0.763598
0.763517
0.763473
0.764037
0.763944
0.763415
0.764252
0.763762
0.76364
0.763734
0.763759
0.764164
0.764101
0.764094
0.764179
0.76401
0.763759
0.763698
0.763845
0.763912
0.763875
0.763781
0.763757
0.76364
0.763618
0.763679
0.764029
0.76487
0.766433
0.766974
0.766971
0.766434
0.766487
0.766552
0.766628
0.766712
0.766799
0.766864
0.766825
0.766647
0.766534
0.766539
0.766597
0.766673
0.766768
0.766893
0.766975
0.766988
0.76699
0.76699
0.76699
0.76699
0.76699
0.76699