/*--------------------------------*- C++ -*----------------------------------*\
  =========                 |
  \\      /  F ield         | OpenFOAM: The Open Source CFD Toolbox
   \\    /   O peration     | Website:  https://openfoam.org
    \\  /    A nd           | Version:  dev
     \\/     M anipulation  |
\*---------------------------------------------------------------------------*/
FoamFile
{
    version     2.0;
    format      ascii;
    class       volScalarField;
    location    "2500";
    object      nut;
}
// * * * * * * * * * * * * * * * * * * * * * * * * * * * * * * * * * * * * * //

dimensions      [0 2 -1 0 0 0 0];

internalField   nonuniform List<scalar> 
9840
(
0.00013028
0.000133163
0.000127666
0.000120533
0.000162868
0.000113208
0.000112011
0.000171553
0.000154271
0.000106571
0.000107563
0.000164383
0.000176527
0.000131775
0.000104598
0.000104552
0.000146734
0.000189374
0.000162533
0.000118603
0.0001032
0.000102969
0.000130399
0.000189003
0.000184699
0.000137941
0.000112833
0.000102209
0.000102122
0.000121067
0.000181005
0.000196619
0.000163971
0.000123798
0.000109232
0.000101506
0.000101919
0.000113824
0.000163017
0.000203962
0.000186683
0.00013999
0.000116987
0.000106684
0.000101078
0.000101809
0.000109652
0.000141836
0.00020219
0.000201396
0.000160629
0.00012616
0.000112624
0.000104815
0.000100917
0.000101707
0.000107087
0.00013061
0.000193851
0.000210533
0.000184822
0.000138465
0.000119057
0.000109489
0.000103348
0.000100784
0.000101552
0.000105516
0.000121522
0.000174536
0.000216108
0.000202693
0.00015678
0.000125898
0.000114492
0.000107214
0.000102456
0.000100638
0.000101235
0.00010449
0.000115657
0.000151819
0.000213511
0.000214484
0.000178421
0.000136259
0.000119382
0.00011115
0.000105274
0.000101914
0.000100389
0.00010089
0.000104022
0.000112002
0.000138457
0.000204161
0.000222441
0.000200731
0.000151608
0.000125005
0.000115111
0.000108613
0.000103734
0.000101563
0.00010017
0.000100612
0.000103702
0.000109764
0.000128637
0.000183642
0.000226457
0.000215774
0.000171428
0.000133424
0.000119028
0.00011179
0.000106452
0.000102723
0.000101119
0.000100065
0.000100487
0.000103443
0.000108308
0.00012202
0.000161633
0.000223313
0.000225479
0.000192963
0.000146643
0.000123761
0.000114958
0.000109146
0.000104648
0.000102134
0.000100603
0.000100033
0.000100454
0.000103097
0.000107284
0.000117867
0.00014605
0.000214015
0.0002321
0.000213497
0.000164199
0.000130749
0.000118444
0.000111808
0.000106981
0.000103302
0.000101585
0.000100211
0.000100014
0.0001005
0.000102661
0.000106427
0.00011502
0.000136897
0.000194976
0.000235788
0.000226284
0.000184265
0.000142162
0.000122478
0.000114707
0.000109319
0.000105209
0.000102482
0.000100949
9.99913e-05
9.99807e-05
0.000100602
0.000102256
0.000105868
0.000113021
0.000129733
0.000173919
0.000233299
0.00023499
0.000204642
0.000157055
0.000128824
0.000117825
0.00011178
0.000107279
0.000103754
0.000101831
0.000100367
9.98881e-05
9.99489e-05
0.000100679
0.000101838
0.000105358
0.000111462
0.0001249
0.000155545
0.000225454
0.000240697
0.000223681
0.000175081
0.000137683
0.000121724
0.000114426
0.000109474
0.000105564
0.000102739
0.000101187
9.99747e-05
9.9826e-05
9.99403e-05
0.000100657
0.000101376
0.000104834
0.000110116
0.000121276
0.00014656
0.00020966
0.000245224
0.00023512
0.000194236
0.000150535
0.000126644
0.000117381
0.000111725
0.000107577
0.000104142
0.000102009
0.000100572
9.97538e-05
9.97593e-05
9.9936e-05
0.000100596
0.000101023
0.000104322
0.000109032
0.000118563
0.000138841
0.000189059
0.000244091
0.000243909
0.000213496
0.000165526
0.000134189
0.0001207
0.000114211
0.000109615
0.000105971
0.000103023
0.000101396
0.000100081
9.9653e-05
9.97236e-05
9.99298e-05
0.00010052
0.00010074
0.000103778
0.00010815
0.000116761
0.000132948
0.00017021
0.000238455
0.000248721
0.000231778
0.000183451
0.000143919
0.000125042
0.000116873
0.000111758
0.000107907
0.00010464
0.000102249
0.000100855
9.97549e-05
9.96014e-05
9.97335e-05
9.99247e-05
0.000100446
0.000100482
0.000103269
0.000107525
0.000115472
0.000128682
0.000157186
0.000226471
0.000254265
0.000242805
0.000201065
0.000157184
0.000130868
0.000119839
0.000114021
0.000109869
0.000106481
0.000103539
0.000101658
0.000100381
9.95926e-05
9.95839e-05
9.97646e-05
9.99202e-05
0.000100376
0.000100235
0.000102855
0.000107119
0.0001145
0.000125659
0.000149681
0.00020911
0.000255278
0.000251713
0.00022023
0.000171943
0.00013885
0.000123648
0.000116424
0.000111856
0.000108344
0.000105278
0.000102677
0.000101179
0.000100022
9.95798e-05
9.96175e-05
9.9812e-05
9.99199e-05
0.00010031
9.99998e-05
0.000102512
0.000106744
0.000113548
0.000123558
0.000143305
0.000190032
0.000252476
0.000256934
0.000236858
0.000189304
0.000149153
0.00012845
0.000119258
0.000113972
0.000110226
0.000107074
0.000104278
0.00010205
0.000100816
9.98111e-05
9.96604e-05
9.96859e-05
9.98504e-05
9.98947e-05
0.000100254
9.97967e-05
0.000102192
0.000106359
0.000112642
0.000121864
0.000138209
0.000173803
0.000245078
0.000262601
0.000249896
0.0002061
0.000162153
0.00013474
0.000122679
0.000116293
0.000112194
0.000108926
0.000106014
0.000103424
0.000101611
0.000100557
9.97708e-05
9.98258e-05
9.98132e-05
9.9931e-05
9.98819e-05
0.000100196
9.96035e-05
0.00010185
0.000105985
0.000111882
0.00012048
0.000134337
0.000162533
0.000232067
0.000266891
0.00025859
0.000224166
0.000176936
0.000142903
0.000126858
0.000119135
0.000114317
0.000110883
0.00010787
0.000105161
0.000102738
0.000101315
0.000100424
9.98664e-05
0.000100037
9.99651e-05
9.99955e-05
9.98952e-05
0.000100135
9.94003e-05
0.000101545
0.000105694
0.000111367
0.000119358
0.000131407
0.000155622
0.000216036
0.000266173
0.000266243
0.000239961
0.000192703
0.000153409
0.000131934
0.00012241
0.000116825
0.000112984
0.000109875
0.000107045
0.00010447
0.000102309
0.000101192
0.000100456
0.000100104
0.000100319
0.000100179
0.000100002
9.98825e-05
0.000100074
9.9199e-05
0.000101322
0.000105467
0.000111031
0.000118466
0.000129234
0.000150406
0.000199267
0.000263034
0.000270278
0.000255249
0.000209017
0.000165823
0.000138409
0.000126223
0.000119668
0.000115422
0.000112132
0.00010915
0.000106415
0.000103903
0.000102125
0.000101253
0.000100631
0.000100416
0.000100604
0.000100441
0.00010006
9.98659e-05
0.000100015
9.90203e-05
0.000101202
0.000105311
0.000110734
0.000117681
0.000127563
0.000146058
0.000184921
0.000255253
0.000275575
0.000264724
0.000224119
0.000179494
0.000146537
0.000130548
0.000122977
0.000118136
0.000114748
0.000111625
0.000108734
0.000106007
0.000103586
0.000102122
0.000101526
0.000101017
0.000100845
0.000100923
0.000100657
0.000100179
9.98787e-05
9.9963e-05
9.88672e-05
0.0001012
0.000105275
0.000110532
0.000116988
0.000126454
0.000142673
0.000173908
0.00024404
0.000278354
0.000272235
0.000240755
0.000193695
0.000156354
0.000135665
0.000126591
0.000121252
0.000117663
0.000114468
0.000111415
0.000108555
0.000105814
0.000103503
0.000102336
0.000101957
0.000101612
0.000101368
0.000101247
0.000100842
0.00010032
9.99088e-05
9.99242e-05
9.87642e-05
0.000101347
0.000105368
0.000110422
0.000116418
0.000125721
0.000140305
0.000166717
0.000231947
0.000277943
0.000278297
0.00025496
0.000208205
0.000167622
0.000141942
0.0001305
0.000124628
0.000120924
0.000117694
0.000114595
0.000111568
0.000108681
0.000105956
0.000103761
0.000102715
0.000102464
0.000102388
0.000102152
0.000101704
0.000101093
0.000100478
9.99251e-05
9.9902e-05
9.87376e-05
0.000101675
0.000105598
0.000110371
0.000116019
0.000125177
0.000138883
0.000162222
0.000219595
0.000275643
0.000281609
0.000267942
0.000223359
0.000179717
0.000149341
0.000134897
0.000128252
0.000124403
0.000121273
0.000118397
0.0001153
0.000112135
0.000109052
0.000106305
0.000104264
0.000103313
0.000103101
0.000103144
0.000102851
0.000102209
0.000101491
0.000100832
9.99316e-05
0.000100232
9.98857e-05
9.8823e-05
0.000102162
0.000105973
0.000110401
0.000115797
0.000124929
0.000138156
0.000159154
0.00020868
0.000270411
0.000286016
0.000276082
0.000236456
0.000192844
0.000157997
0.000139976
0.000132025
0.000128136
0.000125094
0.000122582
0.000119783
0.000116638
0.000113342
0.000110068
0.000107289
0.000105228
0.000104215
0.00010392
0.000103857
0.000103521
0.000102871
0.000102011
0.00010075
0.000101414
9.99902e-05
0.000100418
9.97696e-05
9.9124e-05
0.000102832
0.000106444
0.000110526
0.000115819
0.000125147
0.000137969
0.000157089
0.000199843
0.000263109
0.00028879
0.000282584
0.000251309
0.000205401
0.000167983
0.000145359
0.000136174
0.000132094
0.000129164
0.000127104
0.00012498
0.00012229
0.000119193
0.000115794
0.000112364
0.000109072
0.000106753
0.000105565
0.000105029
0.000104593
0.000104326
0.000102917
0.000103911
0.000102315
0.000103457
0.000103249
0.000101
0.000101888
0.000100103
0.000100573
9.96405e-05
9.97539e-05
0.000103607
0.000107033
0.000110801
0.000116163
0.000125837
0.000138193
0.000155877
0.000193059
0.000254735
0.000289101
0.000287438
0.000263981
0.000218418
0.000178578
0.000151498
0.000140145
0.000136091
0.00013365
0.000132049
0.000130867
0.000129044
0.000126372
0.000123131
0.000119656
0.00011621
0.000111741
0.000108998
0.000107393
0.000106342
0.000105682
0.000104891
0.000105743
0.000104468
0.000102932
0.000104328
0.000103918
0.000101408
0.000102451
0.000100208
0.000100758
9.9588e-05
0.000100616
0.000104412
0.000107722
0.00011128
0.000116911
0.000126913
0.000138765
0.000155283
0.000188389
0.000246466
0.000288725
0.000290895
0.000274552
0.000230976
0.000189749
0.000159087
0.000144236
0.000140161
0.000138056
0.000137385
0.000136771
0.000136134
0.000134604
0.000131329
0.000124337
0.000117714
0.000113108
0.000106445
9.44367e-05
8.45126e-05
8.48169e-05
9.64836e-05
8.55549e-05
0.000105658
9.73248e-05
0.000105309
0.000103502
0.000104955
0.00010449
0.000101789
0.000102784
0.000100214
0.000100999
9.96521e-05
0.000101639
0.000105304
0.000108503
0.000112116
0.000118376
0.000128493
0.000139653
0.000155165
0.000185563
0.000239284
0.000286364
0.00029363
0.000283619
0.000243034
0.00020059
0.000167828
0.000148763
0.000144071
0.000142696
0.000142595
0.000143116
0.000143326
0.000137106
0.000131486
0.000135535
0.000131601
0.000124221
0.000116022
0.000110412
0.000107468
8.14616e-05
7.52929e-05
6.74723e-05
8.34818e-05
7.53635e-05
9.44996e-05
8.38768e-05
9.65364e-05
0.000103703
9.58129e-05
9.36242e-05
0.000101878
0.000102709
0.00010023
0.000100927
9.99019e-05
0.00010278
0.000106253
0.000109406
0.000113425
0.000120546
0.000130427
0.000140903
0.000155523
0.000184103
0.000233668
0.00028166
0.000295213
0.000288836
0.000255022
0.000211373
0.000176678
0.000153625
0.000146908
0.00014623
0.000147454
0.000148911
0.000147462
0.000140709
0.000153332
0.00015187
0.000147873
0.000139546
0.000129971
0.000117326
0.000104474
9.53008e-05
5.99442e-05
7.68378e-05
6.5448e-05
5.97094e-05
7.33582e-05
6.50527e-05
8.30788e-05
7.22226e-05
8.17338e-05
8.82709e-05
8.02762e-05
7.72339e-05
9.52678e-05
8.24726e-05
8.07698e-05
7.80555e-05
0.000100333
0.000103894
0.000107259
0.000110491
0.000115329
0.00012337
0.000132734
0.000142714
0.000156353
0.000183809
0.000229717
0.000277143
0.00029654
0.000292463
0.000266233
0.000222218
0.000185504
0.000159237
0.000149534
0.000148514
0.000151245
0.00015411
0.000150813
0.000150374
0.00017149
0.000184296
0.000191684
0.000190269
0.000193945
0.000180733
0.000148639
0.000117454
9.22891e-05
8.38134e-05
6.20941e-05
9.61152e-05
5.84887e-05
5.8038e-05
6.3139e-05
5.67093e-05
7.04731e-05
6.1487e-05
6.93803e-05
7.19574e-05
6.75636e-05
6.44452e-05
7.43754e-05
6.66152e-05
6.3672e-05
6.21758e-05
0.000100885
0.000104895
0.000108354
0.00011193
0.000117997
0.000126565
0.000135306
0.000145003
0.000158249
0.000184599
0.00022734
0.000273308
0.00029669
0.000295369
0.0002761
0.000233142
0.000194852
0.000166376
0.000152432
0.000150585
0.000153714
0.000158107
0.000154592
0.000163618
0.000190041
0.000224179
0.000263235
0.000322484
0.000373168
0.000383937
0.000344983
0.000275783
9.97014e-05
0.000199168
8.27658e-05
8.37768e-05
7.12123e-05
8.46016e-05
5.53581e-05
6.30363e-05
5.46004e-05
5.31639e-05
5.98332e-05
5.29218e-05
5.86316e-05
5.96137e-05
5.65262e-05
5.35103e-05
6.00669e-05
5.50446e-05
5.19374e-05
5.12069e-05
0.000101414
0.000105803
0.000109718
0.000114054
0.000121349
0.000129891
0.000138226
0.00014778
0.000161627
0.000186045
0.000226484
0.000270309
0.000295809
0.000296409
0.000283504
0.000244308
0.00020486
0.000174223
0.000156541
0.000152624
0.000155887
0.000161258
0.000159318
0.000176052
0.000206077
0.00025824
0.000335885
0.000448173
0.000496689
0.000491574
0.000456402
0.000417019
0.000296912
0.000382819
0.000154564
0.000266836
7.95464e-05
0.000127382
8.63266e-05
7.97162e-05
5.89142e-05
8.67214e-05
5.10472e-05
5.6735e-05
5.13374e-05
4.92179e-05
4.99432e-05
4.93963e-05
4.81658e-05
4.56022e-05
4.99858e-05
4.57081e-05
4.37672e-05
4.3475e-05
0.000101869
0.00010693
0.000111769
0.000117332
0.00012546
0.000133533
0.000141618
0.000151166
0.000165121
0.000188905
0.000227193
0.000268236
0.000294912
0.000297504
0.000288899
0.000254757
0.000215371
0.000182313
0.000161273
0.000155452
0.000157799
0.000164424
0.000166303
0.000179914
0.000214959
0.000282588
0.000393834
0.000524613
0.000551039
0.000538317
0.000514352
0.000465041
0.000412676
0.000438615
0.000348118
0.000396483
0.000237197
0.000323291
0.000111995
0.000215214
8.12003e-05
0.000107994
8.37168e-05
8.35251e-05
5.50922e-05
8.27306e-05
4.74062e-05
5.40903e-05
4.57495e-05
4.22417e-05
4.39088e-05
4.11241e-05
4.2128e-05
3.90658e-05
3.80631e-05
3.78433e-05
0.000102231
0.000108284
0.0001145
0.00012133
0.000129958
0.000137671
0.000145596
0.000155176
0.00016938
0.000194071
0.000228826
0.000267322
0.000294169
0.000298077
0.000293066
0.000263618
0.000225636
0.000190454
0.000167163
0.000158875
0.000159459
0.000167818
0.000174649
0.000183217
0.000217629
0.000291628
0.000439096
0.000566905
0.000578363
0.000564469
0.000544374
0.000519994
0.000456143
0.000478484
0.000419139
0.000437466
0.000379701
0.000407221
0.000304863
0.000367512
0.000203319
0.000293589
0.000111649
0.00020368
8.72029e-05
0.00012093
8.45145e-05
9.23504e-05
5.3017e-05
8.60581e-05
5.13334e-05
3.80249e-05
4.85131e-05
4.37339e-05
3.62583e-05
3.53316e-05
3.47486e-05
3.35485e-05
0.000102472
0.000109651
0.000117348
0.00012531
0.000134534
0.000142323
0.000150194
0.00015984
0.000174511
0.000199347
0.000231826
0.000267839
0.00029359
0.00029904
0.000295774
0.000272188
0.000235559
0.000199456
0.00017431
0.000163275
0.000161697
0.000170928
0.000180363
0.000187481
0.000216816
0.000290773
0.000456153
0.000595247
0.000599213
0.000570463
0.000539837
0.000529633
0.000517409
0.000455093
0.000482999
0.000423858
0.000439852
0.000401098
0.000417565
0.000360486
0.000399933
0.000290742
0.000358926
0.000214029
0.000297351
0.000136366
0.000230292
9.84915e-05
0.000154758
8.68061e-05
0.000104067
8.64961e-05
3.80226e-05
8.46923e-05
7.5388e-05
3.29743e-05
3.29799e-05
3.4117e-05
3.13606e-05
0.000102555
0.000110616
0.000120154
0.000129437
0.000139341
0.000147573
0.000155473
0.00016523
0.000180419
0.000205282
0.000237583
0.000269551
0.000293291
0.000300811
0.000298291
0.000280272
0.000246194
0.000209999
0.000183302
0.000169845
0.000164996
0.000173327
0.000185524
0.00019424
0.000214324
0.000285846
0.000453386
0.000614655
0.000616973
0.000572912
0.000500697
0.00049045
0.000502852
0.00050718
0.00050824
0.000458157
0.000487855
0.000431932
0.000443838
0.000417207
0.000429777
0.000402784
0.00042194
0.000363399
0.000408855
0.000312151
0.000374403
0.000250823
0.000331342
0.000172825
0.000271999
0.000108211
0.000186535
0.00010933
6.36709e-05
0.000107423
0.00010156
3.04645e-05
4.6288e-05
3.74084e-05
3.13012e-05
0.000102603
0.000110649
0.000122769
0.00013359
0.000144403
0.00015344
0.000161437
0.000171391
0.000187193
0.000212262
0.000243852
0.000272289
0.000293871
0.000302905
0.000301423
0.000288166
0.000257884
0.000222372
0.000193816
0.00017942
0.000170491
0.000175434
0.000189021
0.00020109
0.000214745
0.000273984
0.000437204
0.000628695
0.000636036
0.000584367
0.000455134
0.000349665
0.000390692
0.000497028
0.000445416
0.000497384
0.000494162
0.000464341
0.000487807
0.000439082
0.000448829
0.000432591
0.00043966
0.000430085
0.000438702
0.000417846
0.000440051
0.000390675
0.000429289
0.000351249
0.00040708
0.000290455
0.000368803
0.000193409
0.000303321
0.000192364
9.4472e-05
0.000182054
0.00016
3.27544e-05
8.40736e-05
5.53319e-05
3.00327e-05
0.000102986
0.000109564
0.000124649
0.000137596
0.000149804
0.000159855
0.000168104
0.000178352
0.000194855
0.000220286
0.000250867
0.000277562
0.000295378
0.00030437
0.000304665
0.000295727
0.000270641
0.000237002
0.000207441
0.000190695
0.000178104
0.000178895
0.000191523
0.000206226
0.000217594
0.000264591
0.000406689
0.000633572
0.00066349
0.000609852
0.000467016
0.000263958
0.000283261
0.000383341
0.000326623
0.000471461
0.000420576
0.000484567
0.000477582
0.000467988
0.000482361
0.0004447
0.000453791
0.00044333
0.000445789
0.000446845
0.000449132
0.000449895
0.000455439
0.000441563
0.000458179
0.000421008
0.000450912
0.000382608
0.000431724
0.000310022
0.000391828
0.000311041
0.00013925
0.000304719
0.000285053
6.52852e-05
0.000115598
5.07703e-05
3.3635e-05
0.000104714
0.000109989
0.000124931
0.000141288
0.00015558
0.000166893
0.000175478
0.000186149
0.000203467
0.00022945
0.000259306
0.000284301
0.000298289
0.000306578
0.000309736
0.000304293
0.000284889
0.000255187
0.000226247
0.000205442
0.000188444
0.000185455
0.000194991
0.000209269
0.000221206
0.000256072
0.000382048
0.000628812
0.000702002
0.000662848
0.000505755
0.000252048
0.00020289
0.00027964
0.000366409
0.000332653
0.000448897
0.00040459
0.000470691
0.00045992
0.000466184
0.000470674
0.000448605
0.000455378
0.000448645
0.00044877
0.000454807
0.00045282
0.000462335
0.000460127
0.00046379
0.000466272
0.00045738
0.000467075
0.000439199
0.000460861
0.000396781
0.000443635
0.000397854
0.000248351
0.000392431
0.000379572
8.91188e-05
0.000193424
1.40401e-05
5.40727e-05
0.000115337
0.000126235
0.000143673
0.00016174
0.000174426
0.000183735
0.000194702
0.000213191
0.00023976
0.000269295
0.000292168
0.000304831
0.000312347
0.000317471
0.000315604
0.00030258
0.000278831
0.000251113
0.000227227
0.000209145
0.000198537
0.000201825
0.000212506
0.000224979
0.000249134
0.000360409
0.000609217
0.000735758
0.000722278
0.000599466
0.000284521
0.000162369
0.000192887
0.000317916
0.000298245
0.000363099
0.000337456
0.000429073
0.000390775
0.000457025
0.000438602
0.00045819
0.000459751
0.000450912
0.000451813
0.000450654
0.000450691
0.000456125
0.000453204
0.000463804
0.000460218
0.000468678
0.000467641
0.000468888
0.000471249
0.000462521
0.000468529
0.000444926
0.000462249
0.000444332
0.000357122
0.000441929
0.000437128
0.000138241
0.000312855
7.75082e-06
8.37732e-05
0.000133099
0.000146044
0.000166982
0.000182871
0.000192403
0.000204596
0.000223611
0.000251705
0.000280764
0.000302171
0.000313714
0.000322302
0.000328486
0.000331305
0.000326885
0.000310242
0.000284977
0.000260241
0.000243566
0.000227956
0.000215912
0.000218439
0.000229293
0.000244332
0.000340794
0.000584004
0.00075548
0.00078747
0.000701824
0.000394623
0.000169347
0.000145005
0.000262412
0.000191942
0.000335838
0.000317804
0.000367611
0.000351324
0.000410001
0.000389
0.000438903
0.000421299
0.000451974
0.000449773
0.000451019
0.000450474
0.000453033
0.000453725
0.000457723
0.000458596
0.000466895
0.000468485
0.00047541
0.000482868
0.000477635
0.000491603
0.000469716
0.000486098
0.000460754
0.000470162
0.000458639
0.000426443
0.000456336
0.000453677
0.000448771
0.000238799
0.000404877
7.64911e-06
0.000125455
0.000153121
0.000171295
0.000190681
0.000203059
0.000214322
0.000236067
0.000264491
0.000294587
0.00031443
0.000325055
0.000334405
0.000342604
0.00035471
0.000359995
0.000351286
0.000329965
0.000303374
0.000283215
0.000268414
0.000247695
0.000230395
0.000234962
0.000242354
0.000323177
0.000556497
0.000764458
0.000847006
0.000794583
0.000534496
0.000201036
0.000127193
0.000144955
0.000259121
0.000194559
0.00035512
0.000321623
0.000380044
0.000366519
0.000404817
0.000400791
0.000430711
0.000420958
0.000447421
0.000440525
0.000454138
0.00045274
0.000461019
0.000463405
0.000473259
0.000478363
0.000492803
0.000504714
0.000509487
0.000531887
0.000511714
0.000542687
0.000494462
0.000530725
0.00046757
0.000502751
0.000484537
0.000460307
0.000465115
0.000452011
0.00044322
0.000454181
0.000455779
0.000458034
0.000462704
0.000454069
0.000255774
0.000366948
0.000453091
0.000454374
0.000426971
4.61745e-05
0.000266941
0.000107682
0.000166943
0.000178471
0.000199188
0.000212166
0.000227297
0.000247886
0.00028017
0.000309915
0.000330096
0.000340027
0.000350283
0.000362409
0.00038046
0.000388079
0.000382991
0.000366845
0.000341143
0.000317392
0.000301662
0.000286249
0.00025584
0.000244799
0.0002457
0.000308188
0.000528784
0.000764963
0.000895414
0.000878213
0.000666413
0.000261044
0.000136591
0.000116451
0.000150761
0.000122539
0.000245309
0.000187643
0.00036307
0.000303402
0.000394799
0.000385486
0.000419378
0.000420545
0.000440354
0.000441032
0.000448885
0.000443853
0.000465868
0.000465683
0.000483351
0.000490124
0.000513208
0.000521675
0.000552994
0.000566593
0.000571116
0.000582393
0.000545806
0.000563241
0.000571039
0.00053897
0.000520989
0.00053961
0.000531607
0.000503629
0.000547456
0.000503605
0.000478525
0.000499185
0.000524069
0.000475103
0.000455189
0.000457005
0.000455193
0.000463295
0.000469223
0.000453245
0.000355717
0.000460337
0.000463796
0.000417381
0.000195181
0.000146737
0.000260404
0.000175801
0.000207643
0.000225391
0.000237577
0.00026384
0.000295499
0.000329347
0.000348368
0.00035994
0.0003697
0.000384341
0.000395488
0.000399423
0.000396309
0.000384985
0.000364854
0.000341168
0.000323921
0.000314631
0.000299659
0.000263445
0.000256209
0.000296672
0.000502998
0.000760186
0.000933398
0.000953164
0.000781916
0.000336104
0.000160837
0.000114641
0.000110747
0.000136368
0.000118525
0.00022269
0.000170162
0.000350448
0.000261347
0.000413317
0.000396169
0.000443679
0.000439717
0.0004667
0.000466787
0.00046482
0.000464194
0.000493137
0.000494483
0.000530947
0.000534591
0.000578306
0.000584443
0.000542411
0.000516826
0.000555788
0.000481076
0.000498826
0.000443948
0.000532477
0.000498083
0.000478222
0.000539192
0.000519911
0.000475865
0.000444593
0.000476933
0.000520275
0.000493996
0.000514787
0.000515818
0.000487415
0.000452863
0.000454281
0.000456988
0.000478967
0.000469439
0.000451862
0.000338992
0.00045725
0.000459896
0.000407209
0.000187403
0.000180697
0.000396949
0.000294129
0.000260595
0.0001961
0.000238042
0.000254357
0.000276635
0.000315989
0.000349475
0.000372551
0.000382743
0.00039289
0.0004001
0.000400677
0.000401904
0.000400306
0.000391302
0.000376321
0.000356411
0.00034013
0.000333847
0.000331656
0.00030308
0.000269966
0.000289732
0.000479706
0.000749183
0.000959492
0.00101973
0.000885535
0.000430734
0.000197627
0.000122689
0.000109237
0.000109657
0.000106662
0.000126641
0.00011541
0.000193089
0.000149448
0.000297666
0.000215847
0.000423486
0.000382685
0.000459951
0.000443943
0.000487867
0.000477108
0.000495579
0.000495211
0.000535696
0.000532833
0.000577768
0.000572839
0.000495331
0.000478157
0.000465011
0.000423986
0.000445952
0.00041473
0.000448333
0.000436052
0.000414699
0.000407578
0.000440878
0.000418698
0.000398681
0.000476233
0.000436124
0.000403173
0.000361894
0.000396621
0.00049564
0.000507281
0.000473453
0.000447813
0.000498135
0.000448399
0.000446807
0.00045964
0.000487104
0.000474798
0.000450558
0.000342274
0.000446175
0.000444916
0.000419814
0.000233739
0.000184664
0.000259763
0.000350414
0.000276394
0.000271203
0.000297511
0.000333187
0.000376818
0.000398337
0.000411718
0.000416031
0.000415135
0.000415098
0.000416936
0.000415096
0.00040515
0.000389624
0.00037226
0.000357165
0.000351483
0.000355676
0.000347783
0.000295278
0.000291318
0.000457753
0.00073833
0.000975499
0.00107826
0.000979747
0.000540007
0.00023411
0.000135296
0.000112744
0.000107182
0.000108591
0.000106123
0.000121557
0.000113816
0.000161667
0.000134265
0.000235941
0.000172113
0.000400308
0.000322887
0.000454109
0.00040737
0.000488923
0.000454611
0.00052377
0.000509864
0.000564484
0.00054981
0.000476416
0.000467346
0.000432322
0.000412839
0.000429447
0.000404135
0.000395293
0.000392233
0.000384678
0.000381322
0.000382096
0.000372654
0.000362611
0.00035755
0.000372081
0.000353366
0.000339381
0.000402986
0.000361362
0.000331453
0.000294617
0.000324721
0.000425466
0.000460846
0.000411967
0.000380887
0.000458259
0.000442812
0.000436335
0.00046156
0.000462699
0.000472358
0.000448509
0.000381395
0.000430166
0.000423245
0.000441516
0.00035308
0.000308389
0.000265402
0.000135644
0.000352456
0.000318184
0.000360346
0.000399905
0.000433865
0.000441361
0.000446037
0.000444806
0.000453188
0.000457555
0.000453615
0.000440344
0.000420184
0.000400021
0.00038294
0.000373982
0.000378157
0.000383281
0.000351456
0.000307319
0.000436761
0.000731141
0.000984634
0.00113159
0.00106592
0.000654894
0.000270117
0.000152235
0.00011967
0.000110099
0.000105046
0.000106348
0.000107745
0.000105775
0.000119087
0.000112504
0.000140158
0.000126807
0.000182271
0.000145997
0.000336043
0.000251045
0.000404156
0.000337054
0.000450273
0.000394373
0.000527774
0.000494829
0.000467256
0.000474971
0.000383643
0.000375799
0.000374924
0.000373175
0.00037087
0.000363945
0.000350749
0.000346737
0.000339509
0.000334241
0.000329677
0.000323365
0.000318012
0.000313043
0.000311012
0.000297657
0.000288241
0.000336058
0.000295997
0.000271163
0.00023517
0.000260854
0.00036432
0.000407503
0.000359369
0.00032038
0.000412707
0.000436012
0.000424403
0.000462122
0.000427273
0.000444655
0.000446023
0.000434108
0.000412397
0.000399804
0.000413967
0.000421421
0.000399085
0.0002547
0.00011886
0.000300793
0.000387352
0.00043664
0.000462971
0.000481991
0.000482242
0.000497848
0.000513219
0.000522497
0.000515184
0.000497971
0.00047346
0.000446036
0.000422137
0.000406384
0.000404491
0.000413247
0.000402432
0.000334113
0.000419223
0.00072464
0.000990252
0.00117793
0.00114326
0.000775399
0.000311079
0.000173005
0.000128833
0.000115019
0.000108372
0.000104973
0.000105446
0.000106814
0.000105065
0.000117678
0.000111096
0.000131724
0.000124575
0.00015347
0.000136923
0.000260826
0.000193696
0.000330739
0.000266019
0.000382583
0.000323066
0.000483814
0.000439693
0.000369281
0.000380795
0.000305155
0.000301033
0.000311549
0.000302768
0.000326533
0.000318943
0.000308827
0.000299592
0.000308323
0.000303099
0.000297556
0.000292492
0.000282265
0.00027872
0.000275387
0.000272106
0.000256303
0.000247124
0.000241717
0.0002754
0.000235216
0.000218283
0.000184994
0.000204546
0.000312295
0.000363708
0.000315823
0.000265041
0.000379498
0.000428563
0.000411819
0.000456114
0.000403841
0.000429307
0.000439665
0.000400828
0.00039553
0.000379313
0.000385994
0.000394782
0.00037621
0.000192002
0.000281889
0.000264935
0.000473322
0.000510765
0.000516114
0.000536012
0.000560185
0.00058927
0.000600475
0.000591572
0.000568976
0.000539731
0.000508068
0.000474803
0.000449898
0.000437842
0.000442081
0.000445988
0.000376169
0.000409522
0.000715824
0.000994255
0.00121871
0.00121474
0.000898759
0.000363893
0.000198116
0.000139914
0.000122374
0.000113066
0.000105819
0.000108568
0.000104007
0.000105091
0.000105142
0.000103988
0.000115293
0.00010896
0.000129631
0.000122692
0.000142806
0.000133915
0.000206312
0.000163238
0.000264827
0.000213067
0.000295455
0.000245991
0.000395806
0.000346474
0.000309949
0.000330318
0.000320256
0.000275596
0.00027313
0.000285167
0.000281193
0.000286016
0.000279943
0.000274874
0.000274423
0.000268971
0.000265961
0.000263487
0.000261827
0.000239486
0.000239204
0.000239298
0.000241422
0.000208334
0.000204628
0.000205139
0.000219541
0.000182137
0.000176804
0.000148701
0.000158389
0.000266741
0.000331929
0.000282886
0.000216243
0.000359116
0.00041996
0.000399462
0.000444814
0.000393846
0.00042447
0.000428235
0.000372703
0.000380611
0.000362902
0.00036408
0.000375961
0.000258499
0.000155037
0.000303529
0.000197849
0.000556569
0.000572687
0.000585073
0.00063294
0.000668662
0.000682677
0.000670011
0.000642978
0.000607327
0.000572307
0.000535197
0.000502468
0.000479209
0.000472831
0.000480988
0.000438432
0.000414393
0.000696934
0.000993863
0.0012535
0.00128287
0.00101721
0.000434814
0.000230745
0.000153513
0.00013124
0.000119594
0.000111601
0.000105594
0.00010736
0.000103256
0.000104064
0.000103399
0.00010277
0.000111392
0.000106085
0.000126293
0.000118331
0.000135958
0.000126535
0.00017021
0.000146995
0.000200484
0.000163252
0.000219037
0.000184045
0.000287447
0.0002563
0.000306669
0.000322074
0.00027272
0.000262324
0.000278989
0.000284869
0.000299217
0.000291852
0.000261541
0.000263697
0.000267932
0.000273879
0.000245783
0.000252173
0.000261845
0.000273333
0.000208455
0.000216248
0.000229439
0.000249022
0.000173731
0.000177385
0.000188517
0.000172049
0.000143198
0.000151044
0.000145452
0.000138542
0.000231896
0.000313061
0.000265587
0.000184594
0.000355139
0.000408368
0.000386878
0.000430909
0.000396637
0.000428488
0.000413864
0.000352438
0.000367296
0.000348801
0.000347475
0.000358978
0.000231796
0.000128057
0.0002555
0.000218209
0.000627087
0.000655581
0.000699583
0.000750712
0.000757068
0.00074148
0.000708198
0.000669859
0.000631281
0.000594904
0.000558925
0.000527043
0.000508321
0.000510242
0.000485272
0.00043842
0.000661368
0.000989666
0.00127825
0.00134897
0.0011315
0.000544928
0.000270006
0.000171257
0.000141412
0.000127916
0.000117902
0.000108372
0.000112234
0.000104372
0.000106645
0.000101638
0.000102843
0.000100951
0.000101026
0.000105895
0.000102276
0.000117866
0.000111107
0.000115684
0.000109223
0.000139091
0.000125491
0.000151884
0.000130522
0.000189075
0.000163315
0.000249589
0.000234598
0.00021517
0.000291161
0.000282558
0.000276464
0.00026665
0.00029708
0.000296197
0.000293353
0.000294544
0.000284449
0.000294218
0.000300771
0.000298222
0.00027345
0.000287482
0.000285784
0.000285808
0.000211596
0.00024378
0.000262537
0.000262967
0.000163063
0.00018763
0.000221323
0.000151732
0.000145184
0.000160168
0.000162958
0.000151211
0.000220423
0.000313932
0.000274374
0.000185702
0.000366885
0.000393993
0.000373712
0.000415206
0.000410681
0.000412107
0.000396475
0.000334967