/*--------------------------------*- C++ -*----------------------------------*\
  =========                 |
  \\      /  F ield         | OpenFOAM: The Open Source CFD Toolbox
   \\    /   O peration     | Website:  https://openfoam.org
    \\  /    A nd           | Version:  dev
     \\/     M anipulation  |
\*---------------------------------------------------------------------------*/
FoamFile
{
    version     2.0;
    format      ascii;
    class       volScalarField;
    location    "2500";
    object      O2;
}
// * * * * * * * * * * * * * * * * * * * * * * * * * * * * * * * * * * * * * //

dimensions      [0 0 0 0 0 0 0];

internalField   nonuniform List<scalar> 
9840
(
0.23301
0.23301
0.23301
0.23301
0.23301
0.23301
0.23301
0.23301
0.23301
0.23301
0.23301
0.23301
0.23301
0.23301
0.23301
0.23301
0.23301
0.23301
0.23301
0.23301
0.23301
0.23301
0.23301
0.23301
0.23301
0.23301
0.23301
0.23301
0.23301
0.23301
0.23301
0.23301
0.23301
0.23301
0.23301
0.23301
0.23301
0.23301
0.23301
0.23301
0.23301
0.23301
0.23301
0.23301
0.23301
0.23301
0.23301
0.23301
0.23301
0.23301
0.23301
0.23301
0.23301
0.23301
0.23301
0.23301
0.23301
0.23301
0.23301
0.23301
0.23301
0.23301
0.23301
0.23301
0.23301
0.23301
0.23301
0.23301
0.23301
0.23301
0.23301
0.23301
0.23301
0.23301
0.23301
0.23301
0.23301
0.23301
0.23301
0.23301
0.23301
0.23301
0.23301
0.23301
0.23301
0.23301
0.23301
0.23301
0.23301
0.23301
0.23301
0.23301
0.23301
0.23301
0.23301
0.23301
0.23301
0.23301
0.23301
0.23301
0.23301
0.23301
0.23301
0.23301
0.23301
0.23301
0.23301
0.23301
0.23301
0.23301
0.23301
0.23301
0.23301
0.23301
0.23301
0.23301
0.23301
0.23301
0.23301
0.23301
0.23301
0.23301
0.23301
0.23301
0.23301
0.23301
0.23301
0.23301
0.23301
0.23301
0.23301
0.23301
0.23301
0.23301
0.23301
0.23301
0.23301
0.23301
0.23301
0.23301
0.23301
0.23301
0.23301
0.23301
0.23301
0.23301
0.23301
0.23301
0.23301
0.23301
0.23301
0.23301
0.23301
0.23301
0.23301
0.23301
0.23301
0.23301
0.23301
0.23301
0.23301
0.23301
0.23301
0.23301
0.23301
0.23301
0.23301
0.23301
0.23301
0.23301
0.23301
0.23301
0.23301
0.23301
0.23301
0.23301
0.23301
0.23301
0.23301
0.23301
0.23301
0.23301
0.23301
0.23301
0.23301
0.23301
0.23301
0.23301
0.23301
0.23301
0.23301
0.23301
0.23301
0.23301
0.23301
0.23301
0.23301
0.23301
0.23301
0.23301
0.23301
0.23301
0.23301
0.23301
0.23301
0.23301
0.23301
0.23301
0.23301
0.23301
0.23301
0.23301
0.23301
0.23301
0.23301
0.23301
0.23301
0.23301
0.23301
0.23301
0.23301
0.23301
0.23301
0.23301
0.23301
0.23301
0.23301
0.23301
0.23301
0.23301
0.23301
0.23301
0.23301
0.23301
0.23301
0.23301
0.23301
0.23301
0.23301
0.23301
0.23301
0.23301
0.23301
0.23301
0.23301
0.23301
0.23301
0.23301
0.23301
0.23301
0.23301
0.23301
0.23301
0.23301
0.23301
0.23301
0.23301
0.23301
0.23301
0.23301
0.23301
0.23301
0.23301
0.23301
0.23301
0.23301
0.23301
0.23301
0.23301
0.23301
0.23301
0.23301
0.23301
0.23301
0.23301
0.23301
0.23301
0.23301
0.23301
0.23301
0.23301
0.23301
0.23301
0.23301
0.23301
0.23301
0.23301
0.23301
0.23301
0.23301
0.23301
0.23301
0.23301
0.23301
0.23301
0.23301
0.23301
0.23301
0.23301
0.23301
0.23301
0.23301
0.23301
0.23301
0.23301
0.23301
0.23301
0.23301
0.23301
0.23301
0.23301
0.23301
0.23301
0.23301
0.23301
0.23301
0.23301
0.23301
0.23301
0.23301
0.23301
0.23301
0.23301
0.23301
0.23301
0.23301
0.23301
0.23301
0.23301
0.23301
0.23301
0.23301
0.23301
0.23301
0.23301
0.23301
0.23301
0.23301
0.23301
0.23301
0.23301
0.23301
0.23301
0.23301
0.23301
0.23301
0.23301
0.23301
0.23301
0.23301
0.23301
0.23301
0.23301
0.23301
0.23301
0.23301
0.23301
0.23301
0.23301
0.23301
0.23301
0.23301
0.23301
0.23301
0.23301
0.23301
0.23301
0.23301
0.23301
0.23301
0.23301
0.23301
0.23301
0.23301
0.23301
0.23301
0.23301
0.23301
0.23301
0.23301
0.23301
0.23301
0.23301
0.23301
0.23301
0.23301
0.23301
0.23301
0.23301
0.23301
0.23301
0.23301
0.23301
0.23301
0.23301
0.23301
0.23301
0.23301
0.23301
0.23301
0.23301
0.23301
0.23301
0.23301
0.23301
0.23301
0.23301
0.23301
0.23301
0.23301
0.23301
0.23301
0.23301
0.23301
0.23301
0.23301
0.23301
0.23301
0.23301
0.23301
0.23301
0.23301
0.23301
0.23301
0.23301
0.23301
0.23301
0.23301
0.23301
0.23301
0.23301
0.23301
0.23301
0.23301
0.23301
0.23301
0.23301
0.23301
0.23301
0.23301
0.23301
0.23301
0.23301
0.23301
0.23301
0.23301
0.23301
0.23301
0.23301
0.23301
0.23301
0.23301
0.23301
0.23301
0.23301
0.23301
0.23301
0.23301
0.23301
0.23301
0.23301
0.23301
0.23301
0.23301
0.23301
0.23301
0.23301
0.23301
0.23301
0.23301
0.23301
0.23301
0.23301
0.23301
0.23301
0.23301
0.23301
0.23301
0.23301
0.23301
0.23301
0.23301
0.23301
0.23301
0.23301
0.23301
0.23301
0.23301
0.23301
0.23301
0.23301
0.23301
0.23301
0.23301
0.23301
0.23301
0.23301
0.23301
0.23301
0.23301
0.23301
0.23301
0.23301
0.23301
0.23301
0.23301
0.23301
0.23301
0.23301
0.23301
0.23301
0.23301
0.23301
0.23301
0.23301
0.23301
0.23301
0.23301
0.23301
0.23301
0.23301
0.23301
0.23301
0.23301
0.23301
0.23301
0.23301
0.23301
0.23301
0.23301
0.23301
0.23301
0.23301
0.23301
0.23301
0.23301
0.23301
0.23301
0.23301
0.23301
0.23301
0.23301
0.23301
0.23301
0.23301
0.23301
0.23301
0.23301
0.23301
0.23301
0.23301
0.23301
0.23301
0.23301
0.23301
0.23301
0.23301
0.23301
0.23301
0.23301
0.23301
0.23301
0.23301
0.23301
0.23301
0.23301
0.23301
0.23301
0.23301
0.23301
0.23301
0.23301
0.23301
0.23301
0.23301
0.23301
0.23301
0.23301
0.23301
0.23301
0.23301
0.23301
0.23301
0.23301
0.23301
0.23301
0.23301
0.23301
0.23301
0.23301
0.23301
0.23301
0.23301
0.23301
0.23301
0.23301
0.23301
0.23301
0.23301
0.23301
0.23301
0.23301
0.23301
0.23301
0.23301
0.23301
0.23301
0.23301
0.23301
0.23301
0.23301
0.23301
0.23301
0.23301
0.23301
0.23301
0.23301
0.23301
0.23301
0.23301
0.23301
0.23301
0.23301
0.23301
0.23301
0.23301
0.23301
0.23301
0.23301
0.23301
0.23301
0.23301
0.23301
0.23301
0.23301
0.23301
0.23301
0.23301
0.23301
0.23301
0.23301
0.23301
0.23301
0.23301
0.23301
0.23301
0.23301
0.23301
0.23301
0.23301
0.23301
0.23301
0.23301
0.23301
0.23301
0.23301
0.23301
0.23301
0.23301
0.23301
0.23301
0.23301
0.23301
0.23301
0.23301
0.23301
0.23301
0.23301
0.23301
0.23301
0.23301
0.23301
0.23301
0.23301
0.23301
0.23301
0.23301
0.23301
0.23301
0.23301
0.23301
0.23301
0.23301
0.23301
0.23301
0.23301
0.23301
0.23301
0.23301
0.23301
0.23301
0.23301
0.23301
0.23301
0.23301
0.23301
0.23301
0.23301
0.23301
0.23301
0.23301
0.23301
0.23301
0.23301
0.23301
0.23301
0.23301
0.23301
0.23301
0.23301
0.23301
0.23301
0.23301
0.23301
0.23301
0.23301
0.23301
0.23301
0.23301
0.23301
0.23301
0.23301
0.23301
0.23301
0.23301
0.23301
0.23301
0.23301
0.23301
0.23301
0.23301
0.23301
0.23301
0.23301
0.23301
0.23301
0.23301
0.23301
0.23301
0.23301
0.23301
0.233009
0.233009
0.233009
0.233009
0.233009
0.23301
0.23301
0.23301
0.23301
0.23301
0.23301
0.23301
0.23301
0.23301
0.23301
0.23301
0.23301
0.23301
0.23301
0.23301
0.23301
0.23301
0.23301
0.23301
0.23301
0.23301
0.23301
0.23301
0.23301
0.23301
0.23301
0.23301
0.23301
0.23301
0.23301
0.23301
0.23301
0.23301
0.23301
0.23301
0.23301
0.23301
0.23301
0.233008
0.233006
0.233003
0.233001
0.233001
0.233003
0.233006
0.233009
0.23301
0.23301
0.23301
0.23301
0.23301
0.23301
0.23301
0.23301
0.23301
0.23301
0.23301
0.23301
0.23301
0.23301
0.23301
0.23301
0.23301
0.23301
0.23301
0.23301
0.23301
0.23301
0.23301
0.23301
0.23301
0.23301
0.23301
0.23301
0.23301
0.23301
0.23301
0.23301
0.23301
0.23301
0.23301
0.23301
0.23301
0.233009
0.233004
0.232993
0.232976
0.232958
0.232951
0.232958
0.232974
0.232995
0.233009
0.233007
0.23301
0.233009
0.23301
0.23301
0.23301
0.23301
0.23301
0.23301
0.23301
0.23301
0.23301
0.23301
0.23301
0.23301
0.23301
0.23301
0.23301
0.23301
0.23301
0.23301
0.23301
0.23301
0.23301
0.23301
0.23301
0.23301
0.23301
0.23301
0.23301
0.23301
0.23301
0.23301
0.23301
0.23301
0.23301
0.23301
0.23301
0.233007
0.232997
0.232962
0.232891
0.232804
0.232735
0.232726
0.232781
0.232865
0.232998
0.232965
0.233008
0.233003
0.23301
0.233008
0.23301
0.23301
0.23301
0.23301
0.23301
0.23301
0.23301
0.23301
0.23301
0.23301
0.23301
0.23301
0.23301
0.23301
0.23301
0.23301
0.23301
0.23301
0.23301
0.23301
0.23301
0.23301
0.23301
0.23301
0.23301
0.23301
0.23301
0.23301
0.23301
0.23301
0.23301
0.23301
0.23301
0.23301
0.233009
0.233006
0.232987
0.232916
0.232745
0.232466
0.23222
0.232094
0.232154
0.232374
0.232852
0.232529
0.232983
0.232908
0.233004
0.232989
0.233009
0.233005
0.23301
0.233009
0.23301
0.23301
0.23301
0.23301
0.23301
0.23301
0.23301
0.23301
0.23301
0.23301
0.23301
0.23301
0.23301
0.23301
0.23301
0.23301
0.23301
0.23301
0.23301
0.23301
0.23301
0.23301
0.23301
0.23301
0.23301
0.23301
0.23301
0.23301
0.23301
0.23301
0.23301
0.23301
0.233009
0.233006
0.232978
0.232869
0.232588
0.232139
0.231641
0.231312
0.231152
0.231306
0.232127
0.231583
0.232685
0.232262
0.232935
0.232771
0.232992
0.232948
0.233005
0.232992
0.233008
0.233004
0.23301
0.233008
0.23301
0.23301
0.23301
0.23301
0.23301
0.23301
0.23301
0.23301
0.23301
0.23301
0.23301
0.23301
0.23301
0.23301
0.23301
0.23301
0.23301
0.23301
0.23301
0.23301
0.23301
0.23301
0.23301
0.23301
0.23301
0.23301
0.23301
0.23301
0.23301
0.23301
0.233009
0.233005
0.232974
0.23283
0.232459
0.23185
0.231268
0.230866
0.230554
0.230379
0.231105
0.230538
0.231777
0.231248
0.232399
0.231933
0.232815
0.23249
0.232951
0.232828
0.232989
0.232943
0.233003
0.232984
0.233008
0.233001
0.233008
0.23301
0.233008
0.233008
0.23301
0.23301
0.23301
0.23301
0.23301
0.23301
0.23301
0.23301
0.23301
0.23301
0.23301
0.23301
0.23301
0.23301
0.23301
0.23301
0.23301
0.23301
0.23301
0.23301
0.23301
0.23301
0.23301
0.23301
0.23301
0.23301
0.23301
0.233006
0.232974
0.232817
0.23236
0.231681
0.231218
0.23085
0.23049
0.230144
0.230164
0.229911
0.230702
0.230211
0.231411
0.230855
0.23204
0.231528
0.232524
0.232083
0.23281
0.232496
0.232924
0.232763
0.232974
0.232891
0.232998
0.232961
0.232996
0.233008
0.232995
0.232996
0.23301
0.233009
0.23301
0.23301
0.23301
0.23301
0.23301
0.23301
0.23301
0.23301
0.23301
0.23301
0.23301
0.23301
0.23301
0.23301
0.23301
0.23301
0.23301
0.23301
0.23301
0.23301
0.23301
0.23301
0.23301
0.23301
0.23301
0.233007
0.232977
0.23282
0.232332
0.231666
0.231326
0.231035
0.23069
0.230281
0.229799
0.229858
0.229682
0.230314
0.229857
0.230973
0.230409
0.231572
0.231017
0.232047
0.231524
0.232401
0.231919
0.232679
0.232237
0.232844
0.232554
0.232946
0.232789
0.232936
0.233
0.232932
0.232939
0.23301
0.233004
0.23301
0.23301
0.23301
0.23301
0.23301
0.23301
0.23301
0.23301
0.23301
0.23301
0.23301
0.23301
0.23301
0.23301
0.23301
0.23301
0.23301
0.23301
0.23301
0.23301
0.23301
0.23301
0.23301
0.23301
0.23301
0.233008
0.232983
0.23283
0.232342
0.231685
0.231457
0.231385
0.231269
0.230717
0.230158
0.229484
0.229645
0.229567
0.229468
0.229892
0.229489
0.230443
0.229893
0.230958
0.230374
0.23137
0.230779
0.231691
0.231092
0.232008
0.231372
0.232397
0.231726
0.232735
0.232231
0.232698
0.232955
0.232687
0.232714
0.233008
0.232977
0.23301
0.233009
0.23301
0.23301
0.23301
0.23301
0.23301
0.23301
0.23301
0.23301
0.23301
0.23301
0.23301
0.23301
0.23301
0.23301
0.23301
0.23301
0.23301
0.23301
0.23301
0.23301
0.23301
0.23301
0.23301
0.233008
0.23299
0.232855
0.232372
0.231713
0.231534
0.231642
0.231959
0.231451
0.230641
0.229875
0.230115
0.229266
0.229456
0.229267
0.229219
0.229423
0.229088
0.229806
0.229298
0.230175
0.229592
0.230464
0.22983
0.230691
0.230004
0.230968
0.230187
0.231406
0.230508
0.232088
0.231086
0.231997
0.232776
0.231985
0.232068
0.232996
0.23286
0.23301
0.233006
0.23301
0.23301
0.23301
0.23301
0.23301
0.23301
0.23301
0.23301
0.23301
0.23301
0.23301
0.23301
0.23301
0.23301
0.23301
0.23301
0.23301
0.23301
0.23301
0.23301
0.23301
0.23301
0.23301
0.233009
0.232996
0.232887
0.232439
0.231741
0.231567
0.231758
0.232331
0.232245
0.231247
0.230171
0.230226
0.229691
0.229799
0.229004
0.22922
0.228935
0.228927
0.228895
0.228641
0.229062
0.22862
0.229225
0.228679
0.229329
0.228692
0.229411
0.228674
0.229596
0.228712
0.230021
0.22896
0.230811
0.229563
0.230621
0.232234
0.230568
0.230712
0.232943
0.232485
0.233009
0.232993
0.23301
0.23301
0.23301
0.23301
0.23301
0.23301
0.23301
0.23301
0.23301
0.23301
0.23301
0.23301
0.23301
0.23301
0.23301
0.23301
0.23301
0.23301
0.23301
0.23301
0.23301
0.23301
0.23301
0.233009
0.233
0.232916
0.232522
0.231784
0.231581
0.231775
0.232419
0.2327
0.232226
0.230248
0.229787
0.229649
0.229386
0.229418
0.228697
0.228894
0.228559
0.228577
0.228303
0.228142
0.228217
0.227867
0.228129
0.227657
0.227995
0.227404
0.227881
0.227147
0.227938
0.226982
0.228326
0.227142
0.229185
0.227772
0.228945
0.231066
0.228876
0.229027
0.232753
0.231623
0.233008
0.232941
0.23301
0.23301
0.23301
0.23301
0.23301
0.23301
0.23301
0.23301
0.23301
0.23301
0.23301
0.23301
0.23301
0.23301
0.23301
0.23301
0.23301
0.23301
0.23301
0.23301
0.23301
0.23301
0.233009
0.233003
0.232939
0.232603
0.23185
0.231583
0.231756
0.232398
0.232821
0.232774
0.231807
0.229374
0.229976
0.229362
0.229325
0.228993
0.22899
0.228326
0.228484
0.22812
0.228167
0.227655
0.22759
0.227295
0.227062
0.226931
0.226576
0.22652
0.22605
0.226185
0.225607
0.226073
0.225368
0.226391
0.225318
0.227332
0.225808
0.227074
0.229425
0.227001
0.22719
0.232235
0.23017
0.233003
0.232785
0.23301
0.23301
0.23301
0.23301
0.23301
0.23301
0.23301
0.23301
0.23301
0.23301
0.23301
0.23301
0.23301
0.23301
0.23301
0.233009
0.23301
0.23301
0.23301
0.23301
0.23301
0.23301
0.233005
0.232957
0.232675
0.231941
0.231582
0.231705
0.232307
0.232816
0.232937
0.232754
0.230951
0.232115
0.2292
0.230026
0.228921
0.228926
0.228538
0.228523
0.227884
0.228012
0.227609
0.227708
0.226969
0.226976
0.22635
0.226256
0.225742
0.225566
0.22531
0.225154
0.225062
0.224955
0.224884
0.224791
0.224809
0.224601
0.225362
0.224406
0.225186
0.227672
0.22513
0.225245
0.226386
0.231219
0.228499
0.232992
0.232481
0.23301
0.23301
0.23301
0.23301
0.23301
0.23301
0.23301
0.23301
0.23301
0.23301
0.233009
0.233009
0.233009
0.233009
0.233009
0.233009
0.233009
0.233009
0.233009
0.233009
0.23301
0.233007
0.232971
0.232736
0.232046
0.231583
0.231644
0.232168
0.232758
0.232955
0.232967
0.232797
0.231272
0.232205
0.229184
0.230306
0.228525
0.228696
0.228055
0.228113
0.227392
0.227522
0.227046
0.227221
0.226261
0.226331
0.225521
0.225556
0.225093
0.225102
0.224933
0.224945
0.224844
0.224966
0.224692
0.225019
0.224345
0.224743
0.224125
0.22419
0.224086
0.224424
0.223886
0.22547
0.226988
0.225667
0.224437
0.223751
0.223871
0.224463
0.230852
0.229392
0.226053
0.226433
0.227939
0.232934
0.230137
0.232409
0.231206
0.23301
0.23301
0.23301
0.23301
0.23301
0.23301
0.23301
0.233009
0.233009
0.233008
0.233007
0.233007
0.233007
0.233007
0.233007
0.233007
0.233008
0.233008
0.233009
0.233009
0.233008
0.232982
0.232789
0.232153
0.23159
0.231592
0.232045
0.232651
0.232937
0.232996
0.232983
0.232763
0.232961
0.231512
0.232368
0.229519
0.230783
0.228286
0.228669
0.227683
0.227918
0.226989
0.227268
0.226511
0.226737
0.225667
0.22589
0.225155
0.22528
0.224973
0.225035
0.225138
0.225271
0.225557
0.225972
0.22513
0.22563
0.226048
0.226478
0.224484
0.225054
0.225891
0.226419
0.225661
0.224157
0.223832
0.224026
0.224505
0.223714
0.224605
0.224839
0.223762
0.22349
0.223601
0.223795
0.228511
0.225151
0.225507
0.226939
0.231299
0.231999
0.229185
0.230054
0.23301
0.23301
0.23301
0.23301
0.23301
0.23301
0.233009
0.233007
0.233005
0.233004
0.233003
0.233002
0.233003
0.233003
0.233003
0.233004
0.233006
0.233007
0.233008
0.233008
0.23299
0.232834
0.232256
0.231611
0.231552
0.231937
0.232539
0.2329
0.232994
0.233006
0.233004
0.232886
0.232977
0.231908
0.232588
0.230149
0.231391
0.228286
0.229002
0.227571
0.227974
0.226867
0.22725
0.22618
0.226515
0.225494
0.225781
0.22515
0.225332
0.225359
0.225438
0.226186
0.22624
0.226763
0.227012
0.227134
0.227206
0.226509
0.227018
0.227418
0.225133
0.225902
0.227045
0.227535
0.226724
0.22449
0.22389
0.224417
0.225199
0.223768
0.223889
0.224059
0.223407
0.223629
0.223474
0.223354
0.227431
0.224305
0.224582
0.225883
0.227547
0.23077
0.229095
0.227147
0.227896
0.228182
0.23301
0.23301
0.23301
0.23301
0.233009
0.233008
0.233004
0.233
0.232995
0.232992
0.23299
0.232991
0.232993
0.232995
0.232998
0.233001
0.233003
0.233006
0.233007
0.232998
0.232878
0.232353
0.231646
0.231523
0.231844
0.232431
0.23286
0.232986
0.233007
0.233009
0.233005
0.233009
0.232943
0.232994
0.23231
0.232773
0.230909
0.231983
0.228657
0.229681
0.22774
0.228432
0.227014
0.227586
0.226134
0.226541
0.225603
0.225966
0.225563
0.225783
0.226225
0.226244
0.227208
0.227176
0.227127
0.227075
0.227685
0.227854
0.227907
0.227908
0.227628
0.228096
0.228407
0.226066
0.227019
0.228235
0.228782
0.227961
0.225199
0.224312
0.22513
0.226163
0.224161
0.223357
0.223417
0.223318
0.223966
0.223729
0.223173
0.226227
0.223552
0.223743
0.224857
0.226404
0.22583
0.231434
0.227378
0.22642
0.23301
0.23301
0.23301
0.233009
0.233006
0.232999
0.232988
0.232976
0.232966
0.232962
0.232964
0.232969
0.232975
0.232982
0.232988
0.232994
0.233
0.233005
0.233002
0.232916
0.232447
0.231692
0.231504
0.231766
0.232331
0.232813
0.232975
0.233006
0.23301
0.23301
0.233008
0.233009
0.232978
0.233002
0.232622
0.23289
0.231657
0.232435
0.229379
0.230532
0.228308
0.229212
0.227562
0.228299
0.226415
0.226943
0.226122
0.226578
0.226374
0.22667
0.227042
0.227036
0.227065
0.227162
0.227852
0.227787
0.227718
0.227677
0.228568
0.228614
0.228597
0.228534
0.228774
0.229116
0.229262
0.227237
0.22831
0.229402
0.229948
0.229248
0.226166
0.224995
0.226067
0.227345
0.224794
0.223058
0.222998
0.223457
0.224526
0.224192
0.223184
0.225085
0.222989
0.223054
0.223966
0.225185
0.225168
0.22533
0.232464
0.228742
0.23301
0.23301
0.233008
0.233002
0.23299
0.232967
0.232939
0.232913
0.232898
0.232897
0.232908
0.232926
0.232944
0.232958
0.232974
0.232986
0.232999
0.233001
0.23295
0.232541
0.231753
0.231494
0.231699
0.232237
0.23276
0.232962
0.233004
0.23301
0.23301
0.23301
0.23301
0.233009
0.23301
0.232995
0.233007
0.232813
0.232952
0.232219
0.232708
0.230277
0.231363
0.229168
0.230141
0.228477
0.229278
0.227135
0.227765
0.227118
0.227685
0.227687
0.228182
0.227667
0.227689
0.227749
0.227816
0.228461
0.2284
0.228376
0.228387
0.229296
0.229272
0.229208
0.229145
0.229765
0.229902
0.229931
0.228531
0.229585
0.230337
0.230819
0.23038
0.227314
0.225877
0.227153
0.228601
0.225596
0.22294
0.222756
0.223801
0.22523
0.224779
0.22338
0.224162
0.222633
0.222563
0.223202
0.224288
0.22442
0.225371
0.232383
0.228301
0.233009
0.233007
0.232998
0.232976
0.232934
0.232876
0.232818
0.232774
0.232764
0.232785
0.232823
0.232862
0.232896
0.232927
0.232953
0.232985
0.232998
0.232968
0.232635
0.23183
0.231491
0.231641
0.232151
0.232696
0.232943
0.233001
0.233009
0.23301
0.23301
0.23301
0.23301
0.23301
0.23301
0.233005
0.233009
0.232916
0.232986
0.232584
0.232874
0.231133
0.231999
0.230146
0.231023
0.229688
0.230419
0.228324
0.228989
0.228765
0.229384
0.229132
0.229385
0.229929
0.229646
0.228443
0.228545
0.228694
0.228889
0.229114
0.229118
0.229166
0.229263
0.229914
0.229866
0.229836
0.229836
0.230478
0.230512
0.230513
0.229765
0.230669
0.230986
0.231413
0.231201
0.228504
0.226873
0.228251
0.229773
0.226479
0.222968
0.222627
0.224253
0.225983
0.225388
0.223678
0.223391
0.222392
0.222232
0.222572
0.223596
0.223889
0.224832
0.229397
0.225644
0.233006
0.232992
0.232958
0.232887
0.232787
0.232675
0.232596
0.232571
0.2326
0.232662
0.232734
0.232796
0.23285
0.232889
0.232954
0.232988
0.232974
0.232728
0.231927
0.231492
0.231589
0.232067
0.232617
0.232918
0.232996
0.233009
0.23301
0.23301
0.23301
0.23301
0.23301
0.23301
0.23301
0.23301
0.233008
0.23301
0.232975
0.233002
0.232841
0.232966
0.231836
0.232482
0.231156
0.231874
0.231141
0.231697
0.229993
0.23058
0.230211
0.23051
0.231181
0.230225
0.230443
0.230817
0.230638
0.2294
0.229573
0.229779
0.229998
0.229873
0.229956
0.230075
0.230221
0.230497
0.230497
0.23052
0.230576
0.231038
0.231055
0.231063
0.230797
0.23147
0.231489
0.231825
0.231738
0.229593
0.227852
0.229222
0.230743
0.227317
0.223101
0.222591
0.224711
0.226665
0.225907
0.223976
0.222719
0.222221
0.221984
0.222143
0.223004
0.223241
0.223531
0.225733
0.223513
0.232986
0.232935
0.232833
0.232675
0.232506
0.232377
0.232325
0.232351
0.232438
0.23255
0.232658
0.232745
0.232804
0.232886
0.232963
0.232974
0.232808
0.232046
0.2315
0.231543
0.231983
0.232525
0.232884
0.232989
0.233007
0.23301
0.23301
0.23301
0.23301
0.23301
0.23301
0.23301
0.23301
0.23301
0.233009
0.23301
0.233
0.233008
0.232964
0.232999
0.232485
0.232839
0.232221
0.232634
0.232167
0.232461
0.231552
0.231826
0.230975
0.231095
0.231349
0.231475
0.230849
0.230932
0.231082
0.231007
0.230376
0.230528
0.230657
0.23076
0.230649
0.230729
0.230793
0.230833
0.231071
0.231086
0.231097
0.231093
0.231509
0.231508
0.231492
0.231567
0.231922
0.231833
0.232025
0.232023
0.230453
0.228678
0.229937
0.231407
0.227982
0.223243
0.222592
0.225067
0.227158
0.226233
0.224179
0.222198
0.2221
0.221783
0.22184
0.222437
0.222597
0.222609
0.228591
0.223972
0.232912
0.232773
0.232558
0.232323
0.232137
0.23204
0.232051
0.232151
0.232307
0.232469
0.232604
0.232696
0.232796
0.232903
0.232966
0.232862
0.232188
0.231521
0.231503
0.2319
0.232425
0.232835
0.232977
0.233005
0.233009
0.23301
0.23301
0.23301
0.23301
0.23301
0.23301
0.23301
0.23301
0.23301
0.23301
0.23301
0.23301
0.233007
0.233009
0.232997
0.233005
0.232869
0.232967
0.232713
0.232867
0.232126
0.2324
0.231625
0.231748
0.23181
0.231158
0.231243
0.23062
0.230748
0.230682
0.230593
0.230502
0.230531
0.230846
0.230835
0.230808
0.230747
0.23107
0.230996
0.230887
0.230739
0.231439
0.231352
0.231232
0.23107
0.231808
0.231704
0.231565
0.231902
0.232048
0.231944
0.231992
0.232063
0.230963
0.229233
0.230299
0.231645
0.228367
0.223316
0.222564
0.22523
0.227371
0.226288
0.224218
0.221811
0.221983
0.221593
0.221599
0.221942
0.222153
0.222429
0.23184
0.225866
0.232714
0.232447
0.232144
0.231892
0.231742
0.231717
0.231816
0.232002
0.232222
0.232422
0.23257
0.232692
0.232814
0.232939
0.232887
0.232334
0.231561
0.231468
0.231817
0.232323
0.232758
0.232959
0.233002
0.233009
0.23301
0.23301
0.23301
0.23301
0.23301
0.23301
0.23301
0.23301
0.23301
0.23301
0.23301
0.23301
0.23301
0.233008
0.233009
0.233
0.233005
0.232949
0.232986
0.232646
0.232804
0.230806
0.231119
0.23131
0.230927
0.231162
0.23048
0.230124
0.230499
0.230539
0.229105
0.229285
0.229517
0.229284
0.228998
0.229104
0.23054
0.230308
0.230049
0.229779
0.230853
0.230575
0.23024
0.22986
0.231377
0.231139
0.230839
0.230469
0.23179
0.231589
0.231326
0.231921
0.231997
0.231835
0.231803
0.231976
0.231075
0.229429
0.230282
0.231581
0.228412
0.223274
0.222471
0.225172
0.227294
0.226084
0.224081
0.221514
0.221834
0.2214
0.221383
0.221568
0.22183
0.222848
0.231838
0.226198
0.23234
0.231986
0.231662
0.231453
0.231381
0.231456
0.231654
0.231925
0.232201
0.232416
0.232573
0.232712
0.232872
0.232889
0.23247
0.23163
0.23144
0.231735
0.232217
0.232654
0.232926
0.232997
0.233008
0.23301
0.23301
0.23301
0.23301
0.23301
0.23301
0.23301
0.23301
0.23301
0.23301
0.23301
0.23301
0.23301
0.23301
0.23301
0.233008
0.233009
0.232993
0.233003
0.232909
0.232967
0.231924
0.232409
0.229725
0.230209
0.229741
0.230292
0.229531
0.229817
0.229266
0.228829
0.22897
0.228996
0.227427
0.227702
0.227794
0.227489
0.227172
0.22727
0.229444
0.229009
0.228575
0.228165
0.230042
0.229572
0.229062
0.228533
0.230972
0.230517
0.22999
0.229435
0.231571
0.231207
0.230718
0.231779
0.231797
0.231488
0.231302
0.231653
0.230943
0.22931
0.230008
0.231296
0.228161
0.223093
0.222263
0.224836
0.226848
0.225401
0.223657
0.221282
0.221614
0.221212
0.221193
0.221328
0.221722
0.223235
0.22895
0.225032
0.231837
0.231472
0.231193
0.231074
0.231115
0.231298
0.231596
0.231933
0.232218
0.232431
0.232599
0.232777
0.232879
0.232583
0.231729
0.231422
0.231652
0.232105
0.232539
0.232867
0.232986
0.233007
0.23301
0.23301
0.23301
0.23301
0.23301
0.23301
0.23301
0.23301
0.23301
0.23301
0.23301
0.23301
0.23301
0.23301
0.23301
0.23301
0.233007
0.233009
0.232973
0.232999
0.232734
0.232902
0.230737
0.231251
0.231724
0.228771
0.229258
0.229307
0.229786
0.22804
0.228418
0.228284
0.2278
0.22716
0.227242
0.226055
0.226443
0.226081
0.225774
0.225534
0.225581
0.22799
0.227454
0.226944
0.226476
0.228884
0.22832
0.227728
0.22714
0.230127
0.229475
0.228819
0.228172
0.231015
0.230406
0.229686
0.231375
0.23127
0.230745
0.230353
0.23093
0.230456
0.228844
0.229306
0.230572
0.227426
0.222673
0.22192
0.224062
0.225848
0.224395
0.222969
0.2211
0.221374
0.221022
0.221018
0.221189
0.221905
0.223545
0.231572
0.227286
0.231303
0.230997
0.230834
0.230841
0.230985
0.231269
0.231631
0.231981
0.232264
0.232473
0.23267
0.232845
0.232662
0.231851
0.231417
0.231571
0.231987
0.232413
0.232766
0.232966
0.233004
0.233009
0.23301
0.23301
0.23301
0.23301
0.23301
0.23301
0.23301
0.23301
0.23301
0.23301
0.23301
0.23301
0.23301
0.23301
0.23301
0.23301
0.233005
0.233008
0.232942
0.232989
0.232432
0.232796
0.230272
0.230781
0.231614
0.231049
0.228377
0.228842
0.229233
0.229673
0.226867
0.227323
0.227899
0.2274
0.225573
0.225752
0.225155
0.225691
0.22467
0.224392
0.22425
0.22426
0.226562
0.226007
0.225498
0.225045
0.227562
0.226943
0.226321
0.225724
0.228935
0.228173
0.227434
0.226732
0.230019
0.229218
0.228348
0.230525
0.230268
0.229608
0.22907
0.229792
0.229541
0.227867
0.228123
0.229583
0.226212
0.222165
0.221562
0.223195
0.224629
0.223319
0.222326
0.22096
0.221116
0.22085
0.220868
0.22116
0.222079
0.22422
0.232858
0.230495
0.230849
0.230693
0.230665
0.230759
0.230988
0.231333
0.231725
0.232074
0.232336
0.232558
0.23278
0.232691
0.231982
0.231423
0.231494
0.231865
0.232275
0.23264
0.232926
0.232998
0.233009
0.23301
0.23301
0.23301
0.23301
0.23301
0.23301
0.23301
0.23301
0.23301
0.23301
0.23301
0.23301
0.23301
0.23301
0.23301
0.23301
0.233009
0.23301
0.233004
0.233008
0.232926
0.232986
0.232199
0.232733
0.230129
0.230597
0.231539
0.231081
0.228369
0.228803
0.229434
0.229809
0.226276
0.226859
0.227913
0.227415
0.224392
0.224709
0.224672
0.225416
0.223455
0.223264
0.223289
0.223224
0.225154
0.224625
0.224156
0.223761
0.226093
0.225455
0.224836
0.224262
0.22748
0.226634
0.225844
0.22512
0.228715
0.227742
0.226722
0.229474
0.229093
0.228159
0.227464
0.228416
0.228184
0.226383
0.226418
0.228074
0.22471
0.221677
0.221238
0.222416
0.223359
0.222472
0.221744
0.220858
0.220895
0.220705
0.220743
0.221173
0.222336
0.225739
0.232944
0.231566
0.230628
0.230583
0.230629
0.230792
0.231091
0.231476
0.23187
0.232184
0.23244
0.232698
0.232692
0.232114
0.231444
0.231424
0.231742
0.232128
0.232494
0.232843
0.232986
0.233007
0.23301
0.23301
0.23301
0.23301
0.23301
0.23301
0.23301
0.23301
0.23301
0.23301
0.23301
0.23301
0.23301
0.23301
0.23301
0.23301
0.23301
0.233009
0.23301
0.233002
0.233007
0.232932
0.232986
0.232008
0.232438
0.232758
0.230211
0.230637
0.231641
0.231262
0.228718
0.229077
0.229902
0.230198
0.226173
0.226844
0.228324
0.227837
0.22356
0.224041
0.224393
0.225385
0.222313
0.222235
0.222473
0.222259
0.223731
0.223257
0.222853
0.222535
0.224478
0.223854
0.22327
0.222751
0.225753
0.224855
0.224057
0.223352
0.227089
0.225926
0.224765
0.227595
0.226773
0.226304
0.224527
0.225742
0.226278
0.224701
0.224581
0.225761
0.223345
0.221381
0.221013
0.22182
0.222481
0.221832
0.221488
0.220791
0.220769
0.220625
0.220656
0.221219
0.222827
0.227189
0.233
0.232565
0.230568
0.230579
0.230703
0.230937
0.231279
0.23167
0.232026
0.232315
0.232602
0.23268
0.232235
0.231492
0.231364
0.23162
0.231976
0.232334
0.232711
0.232961
0.233004
0.233009
0.23301
0.23301
0.23301
0.23301
0.23301
0.23301
0.23301
0.23301
0.23301
0.23301
0.23301
0.23301
0.23301
0.23301
0.23301
0.23301
0.23301
0.233009
0.23301
0.233002
0.233007
0.232961
0.232992
0.232206
0.232477
0.232901
0.232776
0.230526
0.230885
0.231903
0.23159
0.229361
0.229631
0.230529
0.230746
0.226376
0.227211
0.229038
0.228571
0.222902
0.22355
0.224142
0.225391
0.221254
0.221253
0.221714
0.221348
0.222291
0.221902
0.221586
0.221363
0.222739
0.222164
0.221646
0.221218
0.223746
0.222889
0.222165
0.221559
0.225048
0.223765
0.222577
0.224938
0.224001
0.223306
0.222462
0.223186
0.224129
0.223228
0.223077
0.223578
0.222382
0.22109
0.220852
0.221515
0.221888
0.221614
0.221175
0.220756
0.22064
0.220503
0.220577
0.221324
0.22358
0.228934
0.233006
0.232721
0.230582
0.230685
0.23088
0.231152
0.231507
0.231867
0.232189
0.232498
0.232645
0.232327
0.231556
0.231319
0.231503
0.231821
0.232163
0.232546
0.232912
0.232997
0.233009
0.23301
0.23301
0.23301
0.23301
0.23301
0.23301
0.23301
0.23301
0.23301
0.23301
0.23301
0.23301
0.23301
0.23301
0.23301
0.23301
0.23301
0.23301
0.233009
0.23301
0.233003
0.233007
0.232916
0.232972
0.232991
0.232998
0.232419
0.232617
0.232856
0.230998
0.231283
0.232199
0.23197
0.230148
0.230338
0.231215
0.231359
0.226731
0.22783
0.22988
0.229399
0.22229
0.22309
0.223851
0.225312
0.220285
0.220328
0.221004
0.220558
0.220868
0.220606
0.220402
0.220301
0.221049
0.220627
0.220291
0.220047
0.221807
0.22115
0.220702
0.220328
0.222275
0.22138
0.221021
0.222836
0.22264
0.222191
0.22234
0.222472
0.222931
0.222395
0.222459
0.222785
0.22201
0.220913
0.220702
0.221226
0.221643
0.221247
0.220944
0.220726
0.220511
0.220333
0.220514
0.221528
0.224331
0.229502
0.233009
0.232915
0.230705
0.230876
0.231105
0.231395
0.231734
0.232062
0.232393
0.232594
0.232374
0.231632
0.231289
0.231394
0.231667
0.231985
0.232363
0.232808
0.232983
0.233007
0.23301
0.23301
0.23301
0.23301
0.23301
0.23301
0.23301
0.23301
0.23301
0.23301
0.23301
0.23301
0.23301
0.23301
0.23301
0.23301
0.23301
0.23301
0.23301
0.23301
0.23301
0.233009
0.23301
0.233004
0.233007
0.232954
0.232982
0.23299
0.232997
0.232629
0.232757
0.232915
0.231536
0.231743
0.232484
0.232334
0.230945
0.23109
0.231864
0.231946
0.226906
0.228395
0.23067
0.230084
0.221712
0.222632
0.223494
0.225146
0.219669
0.219736
0.220448
0.220008
0.219862
0.219739
0.219673
0.219656
0.220063
0.21984
0.21966
0.219533
0.220387
0.220117
0.219813
0.219645
0.221787
0.221432
0.219423
0.222606
0.220742
0.220279
0.220634
0.220729
0.222271
0.222029
0.222005
0.222327
0.221684
0.22073
0.220499
0.221056
0.221314
0.221171
0.220814
0.220724
0.220278
0.220193
0.220427
0.221755
0.224952
0.230891
0.233026
0.232959
0.230896
0.231099
0.231345
0.231634
0.231953
0.232285
0.232532
0.232381
0.231708
0.231276
0.231295
0.231516
0.231805