/*--------------------------------*- C++ -*----------------------------------*\
  =========                 |
  \\      /  F ield         | OpenFOAM: The Open Source CFD Toolbox
   \\    /   O peration     | Website:  https://openfoam.org
    \\  /    A nd           | Version:  dev
     \\/     M anipulation  |
\*---------------------------------------------------------------------------*/
FoamFile
{
    version     2.0;
    format      ascii;
    class       volScalarField;
    location    "2500";
    object      omega;
}
// * * * * * * * * * * * * * * * * * * * * * * * * * * * * * * * * * * * * * //

dimensions      [0 0 -1 0 0 0 0];

internalField   nonuniform List<scalar> 
9840
(
1.25958
1.27009
1.23197
1.17883
1.38186
1.11775
1.07698
1.38913
1.32197
1.04233
1.03301
1.34848
1.39133
1.18569
1.02016
1.01178
1.24907
1.41525
1.31952
1.08876
1.01054
1.00191
1.14091
1.40402
1.38622
1.18206
1.04775
1.00427
0.995545
1.07518
1.36327
1.40715
1.28562
1.09337
1.02626
1.00082
0.989652
1.03525
1.27896
1.41183
1.35841
1.1582
1.05184
1.01068
0.998286
0.986369
1.01031
1.18156
1.40025
1.39183
1.24104
1.08182
1.02769
1.00064
0.995518
0.984934
0.996469
1.09947
1.36499
1.40241
1.31758
1.12819
1.04319
1.00988
0.994595
0.993766
0.985085
0.989234
1.05182
1.29566
1.40602
1.36458
1.19286
1.06316
1.01968
0.996922
0.988493
0.992775
0.987271
0.985779
1.02208
1.20744
1.39791
1.38906
1.26613
1.09547
1.02888
1.00289
0.988424
0.98391
0.992044
0.989377
0.981305
1.00435
1.12044
1.36986
1.39857
1.32715
1.14791
1.04223
1.00782
0.989962
0.980682
0.980587
0.99149
0.990908
0.977754
0.992353
1.06887
1.31308
1.40428
1.36479
1.21117
1.06634
1.01334
0.992846
0.980551
0.974605
0.978147
0.99109
0.991217
0.975553
0.98439
1.03491
1.23133
1.39907
1.38728
1.27629
1.10512
1.02251
0.994912
0.981065
0.972347
0.969773
0.976329
0.990807
0.990954
0.975206
0.979296
1.01278
1.15019
1.37685
1.39748
1.32858
1.16132
1.03886
0.997624
0.981322
0.971426
0.96545
0.965992
0.974992
0.990613
0.990662
0.976392
0.97635
0.998659
1.0903
1.3298
1.4049
1.3633
1.221
1.06829
1.00284
0.980436
0.970246
0.962981
0.959729
0.963065
0.974003
0.990492
0.990441
0.978122
0.972472
0.988858
1.05297
1.26204
1.40225
1.38626
1.27835
1.1133
1.01353
0.980489
0.967911
0.961018
0.955902
0.955071
0.960826
0.973351
0.990436
0.99041
0.979739
0.969057
0.981466
1.0269
1.18751
1.38735
1.39808
1.32584
1.16848
1.03505
0.983135
0.965307
0.958209
0.953193
0.949913
0.951386
0.959184
0.972973
0.990428
0.990605
0.98011
0.966208
0.975629
1.00965
1.11853
1.3523
1.40763
1.36077
1.22351
1.07087
0.990808
0.964042
0.955124
0.950213
0.946447
0.944949
0.948587
0.958031
0.972819
0.990439
0.990965
0.979528
0.964253
0.97084
0.997269
1.07713
1.30099
1.40796
1.38542
1.27484
1.11777
1.00685
0.965975
0.951578
0.946951
0.943415
0.940664
0.940991
0.946562
0.957299
0.972811
0.990459
0.99131
0.978564
0.963477
0.967214
0.987877
1.04819
1.23365
1.40146
1.40008
1.31907
1.16916
1.03481
0.971793
0.950066
0.942899
0.940125
0.937488
0.935811
0.937965
0.945136
0.956963
0.972922
0.990496
0.991542
0.977632
0.96297
0.963104
0.980214
1.02694
1.16887
1.38113
1.40991
1.35667
1.22016
1.07249
0.984075
0.951666
0.93982
0.936285
0.934354
0.932342
0.931913
0.935749
0.9443
0.957045
0.973088
0.990525
0.991659
0.976898
0.961808
0.958175
0.972671
1.01063
1.11317
1.34107
1.41714
1.3831
1.26562
1.11807
1.00495
0.956311
0.938801
0.932909
0.931013
0.929478
0.928031
0.928908
0.93434
0.944094
0.957441
0.973316
0.990517
0.991722
0.976243
0.959915
0.95335
0.965817
0.997391
1.07711
1.29066
1.41569
1.40256
1.30892
1.16497
1.03471
0.965604
0.940291
0.930536
0.92793
0.926712
0.925377
0.924516
0.926784
0.933661
0.944482
0.958074
0.97364
0.990521
0.991718
0.975551
0.95745
0.948545
0.959468
0.986175
1.05045
1.23044
1.40644
1.41351
1.34737
1.21159
1.07171
0.981412
0.944237
0.930634
0.925698
0.92427
0.923137
0.921916
0.921817
0.92543
0.933671
0.945224
0.958778
0.973932
0.990492
0.991714
0.974733
0.954589
0.94386
0.953521
0.976413
1.02923
1.17395
1.38339
1.42422
1.37832
1.25305
1.11384
1.00364
0.951911
0.932406
0.925144
0.922662
0.921452
0.92025
0.919064
0.920031
0.925089
0.934535
0.946459
0.959737
0.974266
0.990461
0.991728
0.973659
0.951468
0.939393
0.947997
0.967771
1.01192
1.12505
1.3451
1.42808
1.40155
1.29401
1.15641
1.03321
0.963923
0.936711
0.926464
0.922742
0.921071
0.919551
0.917871
0.916926
0.919171
0.925699
0.935882
0.947911
0.960749
0.974459
0.99039
0.991774
0.972302
0.947959
0.934885
0.942683
0.960051
0.997556
1.08764
1.30029
1.42562
1.41753
1.33134
1.1977
1.06772
0.980819
0.943917
0.929602
0.924291
0.922186
0.920473
0.918537
0.916644
0.915873
0.919241
0.927478
0.938106
0.95016
0.962269
0.97478
0.990297
0.991848
0.970731
0.944178
0.930214
0.936899
0.952611
0.985259
1.06033
1.25191
1.41552
1.42627
1.36736
1.23626
1.10481
1.00335
0.953732
0.935043
0.927821
0.924877
0.922974
0.920713
0.917999
0.916242
0.916159
0.920143
0.929538
0.9406
0.952401
0.96391
0.97533
0.990178
0.991937
0.968798
0.940034
0.925277
0.930481
0.944722
0.974025
1.03848
1.20424
1.39258
1.43353
1.39381
1.27109
1.14169
1.02999
0.966262
0.942176
0.933459
0.929708
0.927932
0.925394
0.921898
0.918626
0.916852
0.917848
0.922095
0.931753
0.943594
0.955081
0.965693
0.976045
0.990123
0.991997
0.966539
0.935501
0.919924
0.923804
0.936759
0.963316
1.02004
1.16164
1.36116
1.43443
1.41199
1.30717
1.17752
1.05881
0.982872
0.950553
0.940908
0.936573
0.935231
0.932931
0.929451
0.924518
0.920349
0.919117
0.921164
0.925791
0.934356
0.946045
0.957696
0.967818
0.977684
0.990985
0.991961
0.963926
0.930666
0.914544
0.917293
0.929246
0.953282
1.00396
1.12542
1.32546
1.4316
1.4241
1.34056
1.2105
1.0897
1.00214
0.96092
0.949248
0.945265
0.944919
0.943723
0.94056
0.935525
0.929032
0.924191
0.92337
0.925893
0.931101
0.93871
0.948853
0.959553
0.968966
0.979197
0.995743
0.989065
0.991791
0.960827
0.925514
0.909435
0.911177
0.922093
0.944161
0.989779
1.09522
1.28847
1.42163
1.43008
1.37165
1.2421
1.12063
1.02318
0.972805
0.958072
0.955029
0.956652
0.957898
0.956496
0.952067
0.944739
0.936327
0.931008
0.929749
0.932395
0.937967
0.944845
0.953137
0.962486
0.971585
0.984181
0.980801
0.995964
0.990496
0.991519
0.957214
0.92068
0.904671
0.905743
0.915486
0.935872
0.977474
1.07046
1.25239
1.40131
1.43197
1.39329
1.26989
1.15047
1.046
0.985609
0.967138
0.96491
0.969647
0.974495
0.976826
0.975083
0.969625
0.959656
0.948691
0.941999
0.939466
0.941051
0.945905
0.952704
0.960171
0.967741
0.966691
0.978362
0.971196
0.976699
0.987006
0.984253
0.996188
0.992653
0.991139
0.95303
0.916477
0.900885
0.901296
0.909726
0.928574
0.966987
1.05035
1.21946
1.37639
1.43061
1.40774
1.29922
1.17699
1.07046
0.999972
0.975964
0.974413
0.982788
0.992778
1.00059
1.0047
1.00264
0.996147
0.984399
0.971499
0.961672
0.956007
0.95467
0.956867
0.962103
0.966804
0.967426
0.971287
0.983173
0.976974
0.98258
0.990778
0.989885
0.996955
0.99604
0.990566
0.94866
0.913139
0.89843
0.898162
0.905222
0.922565
0.958376
1.03458
1.19058
1.3491
1.42414
1.41523
1.32856
1.20104
1.09455
1.01538
0.984803
0.983316
0.995331
1.01106
1.02572
1.03817
1.04758
1.05169
1.05155
1.04648
1.03251
1.0139
0.995298
0.979881
0.972459
0.969101
0.972195
0.972157
0.973649
0.977688
0.989982
0.983127
0.990582
0.996703
0.998209
0.998595
1.00072
0.989532
0.944506
0.910927
0.897534
0.89663
0.902375
0.918411
0.951887
1.02278
1.1666
1.32151
1.41113
1.41579
1.35182
1.22451
1.11619
1.03168
0.993605
0.990717
1.00617
1.02966
1.05198
1.07506
1.10641
1.14885
1.21318
1.28991
1.33487
1.3136
1.24127
1.13427
1.03673
0.978016
0.990569
0.976552
0.981259
0.979185
0.981614
0.984575
0.999959
0.992177
1.0021
1.0058
1.00998
1.00023
1.00838
0.987495
0.94108
0.910137
0.89827
0.89679
0.901528
0.916837
0.948161
1.01462
1.14779
1.29574
1.39424
1.41242
1.37034
1.24662
1.13601
1.04737
1.00067
0.995522
1.01199
1.04151
1.07317
1.10861
1.17523
1.33017
1.63023
2.07219
2.51478
2.72993
2.58141
2.16933
1.63561
1.02731
1.1448
0.991257
1.01655
0.986142
0.995129
0.98729
0.991881
0.995159
1.01392
1.00514
1.01782
1.01859
1.02626
1.0022
1.01974
0.984878
0.939434
0.911191
0.900609
0.898698
0.902929
0.918294
0.947509
1.01015
1.13356
1.27328
1.37506
1.40368
1.37999
1.26915
1.15476
1.06285
1.00827
0.998937
1.01466
1.04913
1.08848
1.14001
1.25222
1.58574
2.39058
3.74716
5.34126
6.33878
6.49403
5.91887
4.74056
1.58637
2.92165
1.09545
1.38227
1.01688
1.08381
1.00076
1.0209
1.00006
1.00927
1.01016
1.0326
1.02295
1.03862
1.03623
1.04771
1.00537
1.03544
0.982427
0.940064
0.914838
0.904776
0.902514
0.907503
0.923574
0.949813
1.00897
1.12332
1.25452
1.35538
1.39223
1.38019
1.28887
1.17374
1.07933
1.01654
1.00182
1.01524
1.05446
1.09846
1.16454
1.32883
1.85451
3.23621
5.60359
7.84088
8.79277
9.02559
8.93272
8.74113
6.1045
8.56465
2.33905
5.2501
1.31865
2.10123
1.08104
1.29381
1.02961
1.08876
1.0197
1.04111
1.03272
1.05651
1.04875
1.06748
1.0592
1.07446
1.01085
1.05581
0.980514
0.94319
0.92149
0.911516
0.908707
0.915262
0.931877
0.955871
1.01035
1.11708
1.23942
1.33651
1.37881
1.3772
1.30412
1.19169
1.09642
1.02565
1.00465
1.01517
1.05693
1.10601
1.18031
1.3865
2.10381
3.95544
6.99443
8.90867
9.3901
9.46924
9.46505
9.602
9.54173
9.96941
8.18509
9.57623
4.51598
7.73326
1.99672
4.09369
1.30212
2.00905
1.10539
1.34207
1.05557
1.12837
1.07306
1.08734
1.09267
1.11321
1.08749
1.10636
1.01917
1.08123
0.979252
0.948723
0.931063
0.921098
0.918288
0.926671
0.942421
0.964589
1.01665
1.11509
1.22814
1.31926
1.36397
1.36895
1.31609
1.20754
1.11191
1.03534
1.00825
1.01521
1.05695
1.11355
1.1883
1.40709
2.26416
4.56129
7.86304
9.34745
9.5291
9.41666
9.34663
9.38269
9.91555
9.69655
10.0672
10.0872
9.49671
10.1804
7.44443
9.49869
4.02473
7.45105
2.1272
4.28266
1.41245
2.35114
1.15818
1.50655
1.18837
1.13206
1.21305
1.22586
1.1201
1.14713
1.03034
1.11229
0.978474
0.956291
0.942837
0.933343
0.932221
0.941951
0.955232
0.975966
1.02624
1.11641
1.22095
1.30443
1.34859
1.35758
1.3201
1.22132
1.1255
1.04666
1.01328
1.01589
1.05593
1.11994
1.19496
1.40438
2.28332
4.89675
8.35296
9.50884
9.58364
9.39645
9.32033
9.31075
9.40909
9.34152
9.93868
9.61927
10.3018
10.2229
10.3885
10.6272
9.68761
10.7258
7.80622
10.1231
4.82094
8.46537
2.66302
5.57598
1.61374
3.01964
1.6977
1.22582
1.73364
1.69856
1.15048
1.21583
1.04468
1.13522
0.977696
0.965084
0.955689
0.948503
0.951193
0.96134
0.971291
0.990203
1.03855
1.12302
1.21819
1.29262
1.33355
1.34491
1.31956
1.23233
1.13886
1.06053
1.0237
1.01837
1.05402
1.12309
1.20252
1.39057
2.25445
4.91971
8.56315
9.56472
9.56922
9.36859
9.35522
9.42579
9.56576
9.45481
9.47511
9.93893
9.69393
10.5936
10.3863
11.0739
11.0771
11.2297
11.6455
10.789
11.899
9.35125
11.6034
6.46605
10.3359
3.35239
7.31941
3.5601
1.59943
3.5974
3.41401
1.19441
1.45987
1.05796
1.13358
0.9755
0.972306
0.968771
0.966413
0.974508
0.984013
0.990936
1.00772
1.05414
1.13445
1.219
1.28434
1.32086
1.33196
1.31581
1.24259
1.15434
1.0768
1.04034
1.02512
1.05363
1.12402
1.20897
1.37194
2.16
4.8372
8.56689
9.56169
9.54025
9.22924
9.2086
9.39987
9.62203
9.82425
9.89609
9.6505
9.68987
10.097
9.98379
10.9448
10.661
11.6793
11.5925
12.3367
12.3947
12.6624
13.1152
12.4712
13.4603
11.2865
13.2977
7.96022
12.0826
8.28212
3.00856
8.21831
7.65679
1.31244
2.45994
1.05029
1.1625
0.969345
0.973798
0.981906
0.987578
1.00166
1.01027
1.01411
1.02876
1.07339
1.14914
1.22477
1.27996
1.31098
1.32093
1.31017
1.2536
1.17482
1.09959
1.06071
1.04148
1.05599
1.12526
1.21442
1.36467
2.01918
4.59197
8.49965
9.53942
9.50799
9.15353
8.60383
8.93863
9.3813
9.85453
9.65761
10.1253
10.0903
9.99015
10.0642
10.4853
10.4536
11.3524
11.1623
12.3335
12.147
13.2091
13.1771
13.9148
14.1067
14.2481
14.7504
14.058
15.0296
12.6755
14.7204
13.0719
6.5542
13.2508
13.0698
1.85626
5.12628
1.02161
1.32449
0.965001
0.967807
0.992061
1.01257
1.03219
1.04015
1.04105
1.0535
1.09643
1.168
1.23622
1.27944
1.30445
1.31478
1.30787
1.26781
1.20229
1.13342
1.09014
1.07004
1.06745
1.12869
1.2187
1.36754
1.89924
4.19627
8.32162
9.49674
9.48072
9.17233
8.41977
7.5627
8.85774
9.40719
9.25034
9.93107
9.64703
10.4618
10.3206
10.4716
10.4977
11.0911
11.0893
11.9857
11.9197
13.0564
12.9477
14.136
14.1129
15.0586
15.25
15.6529
16.1398
15.8285
16.6449
15.2844
16.6088
15.7613
12.2157
16.0899
16.1442
3.622
10.294
1.04822
2.12222
0.979665
0.962861
0.993504
1.03936
1.06506
1.07371
1.07186
1.0821
1.12338
1.19132
1.25109
1.28245
1.30226
1.31313
1.30996
1.28628
1.23816
1.17839
1.13133
1.10778
1.10172
1.1389
1.22549
1.3746
1.81552
3.79928
7.98649
9.45925
9.48989
9.25711
8.49375
6.6503
7.39656
9.53673
9.47313
9.61596
10.0161
9.7973
10.8847
10.5652
11.0852
11.0395
11.9118
11.907
12.9343
12.9477
14.1076
14.1407
15.38
15.5101
16.5701
16.9497
17.4156
18.1619
17.7467
18.8603
17.3372
18.8692
17.9972
15.8872
18.5079
18.791
7.41053
15.1465
1.26905
4.37583
0.981006
0.996559
1.05702
1.10175
1.11063
1.10729
1.1141
1.15506
1.21879
1.27096
1.29195
1.30491
1.31638
1.32014
1.30951
1.2803
1.23241
1.18411
1.1573
1.16216
1.16669
1.24013
1.38085
1.75913
3.44127
7.54135
9.41724
9.52324
9.44099
8.83386
6.75512
5.50171
8.574
10.5672
10.7504
9.8027
9.99162
10.2888
10.229
11.3566
11.0179
11.8613
11.7019
12.9577
12.9277
14.2122
14.247
15.6488
15.7619
17.2781
17.545
18.8889
19.4917
20.0726
21.2208
20.4975
22.1784
19.9112
22.1334
20.8554
18.7682
21.5597
21.8783
12.97
18.3436
2.29881
9.2145
1.02936
1.06916
1.13436
1.15385
1.14531
1.15242
1.18931
1.25238
1.2958
1.30931
1.31844
1.33163
1.34341
1.34381
1.32979
1.29738
1.25344
1.22453
1.23424
1.23661
1.27345
1.39504
1.72241
3.14296
7.03551
9.34802
9.56877
9.65028
9.32678
7.40899
4.70919
5.56384
10.6876
9.19759
11.2296
11.322
10.328
10.766
10.8693
10.9007
12.0375
11.7754
12.7878
12.442
14.2309
14.1146
15.8095
15.7941
17.6946
17.7333
19.9254
20.1712
22.2412
22.9652
24.0284
25.5619
24.5602
27.0173
23.6205
26.8472
24.8479
21.8301
25.662
26.0951
23.7797
17.5143
21.4243
4.23747
16.7616
1.10287
1.15928
1.19583
1.19354
1.19018
1.23242
1.28894
1.32945
1.33621
1.34969
1.36856
1.39114
1.40588
1.406
1.39171
1.35528
1.32187
1.32696
1.35458
1.35253
1.42949
1.70268
2.90008
6.54137
9.24103
9.59832
9.83425
9.74511
8.21658
4.90315
4.09167
5.91896
10.8981
9.03739
11.9642
11.8493
11.128
11.6629
11.7429
11.8451
12.984
12.828
13.7991
13.3615
15.6837
15.3787
17.7086
17.5723
20.2187
20.1564
23.3362
23.364
26.5641
26.9915
29.121
30.3233
30.0313
32.3586
28.74
32.2022
30.2993
27.6591
30.075
26.0489
23.5059
25.9633
28.2652
31.0573
30.508
28.5098
19.4035
21.2169
25.6226
25.3079
22.9951
9.89428
21.6425
23.3564
24.7599
1.19184
1.24181
1.23626
1.24298
1.2728
1.33681
1.36947
1.37975
1.40017
1.43601
1.47772
1.51608
1.54116
1.54116
1.51089
1.47153
1.46357
1.49908
1.52791
1.5161
1.70371
2.69493
6.08711
9.11797
9.61254
9.97512
10.0955
8.94371
5.71191
3.65048
4.00866
6.75368
4.92778
11.0223
8.66964
12.5654
12.1031
12.2056
12.5884
12.8473
13.0175
14.1573
14.0396
14.9299
14.4785
17.2218
16.7251
19.9281
19.4387
23.2145
22.7852
26.9313
26.5873
30.6444
30.4083
32.3924
32.8455
32.92
32.9708
33.3093
34.4283
34.1912
35.4823
34.8846
33.0471
31.9531
34.1094
34.5138
32.7701
28.4625
28.2044
31.1634
33.6922
33.3114
31.2571
23.0051
27.8101
27.3326
24.9234
38.8795
32.9193
24.0341
28.8208
1.28369
1.29955
1.2846
1.33029
1.38397
1.42573
1.43903
1.48051
1.54792
1.62659
1.71434
1.77658
1.78358
1.74902
1.6962
1.66423
1.68408
1.73925
1.74033
1.75228
2.52305
5.65844
8.99402
9.61507
10.0792
10.384
9.56265
6.61815
3.62821
3.36953
3.91507
6.02761
4.82668
10.5666
8.08733
12.859
11.8741
13.2749
13.2138
14.0349
13.9848
15.3822
15.0926
16.1894
15.7158
18.816
18.1188
22.0711
21.2109
25.8345
24.8875
29.6877
28.6171
32.7178
32.4929
31.9955
31.5804
34.4207
34.4127
34.1641
35.4789
36.0702
35.6675
36.6013
36.4553
35.4222
34.6864
36.1305
36.3949
35.2913
31.1436
30.8038
33.9551
35.7739
36.1812
34.0478
24.9526
30.2505
29.5788
26.9338
40.5584
41.006
75.3657
75.4239
26.3164
30.4438
1.36249
1.35449
1.37574
1.45112
1.48721
1.52695
1.59789
1.7211
1.88189
2.0435
2.1375
2.1458
2.092
2.01241
1.94389
1.92825
1.97577
2.02054
1.95314
2.42432
5.20363
8.88097
9.61422
10.1342
10.621
10.0744
7.4875
3.81808
3.08447
3.33062
4.1982
3.72571
5.65977
4.68326
9.59352
7.25628
12.6479
10.845
13.809
13.4362
14.7482
14.3575
16.1645
15.5261
17.441
16.8081
20.2642
19.2885
23.7456
22.4897
27.3624
26.0721
30.9491
30.4024
29.6347
28.988
33.768
33.2288
32.6413
31.9718
35.6684
35.3333
34.7843
37.045
37.3898
36.4986
37.1477
37.3987
37.1182
36.7395
37.7366
37.7972
37.2619
33.9267
33.5157
36.4929
37.7284
38.1851
36.6627
26.7236
32.7844
31.8022
28.8576
29.5742
39.4298
80.542
80.1179
27.5904
1.43318
1.45169
1.50638
1.57772
1.63067
1.77332
1.98031
2.2619
2.49068
2.60403
2.60568
2.52706
2.41105
2.30049
2.23699
2.24675
2.30289
2.28742
2.42837
4.71228
8.75465
9.61428
10.1508
10.8113
10.489
8.24244
4.21411
2.93191
2.99858
3.3512
4.10319
3.74507
5.35572
4.60314
8.50418
6.59667
11.6664
9.62347
13.8864
13.0952
14.9101
14.199
16.3472
15.4134
18.2825
17.2784
21.1564
19.7931
24.5764
23.0062
28.1399
27.4111
26.5818
25.8994
31.2983
30.5583
29.8028
29.0182
34.1627
33.4448
32.6959
31.885
36.1462
35.5324
34.6994
38.0635
37.9975
36.6486
36.7183
37.5891
38.3563
38.2198
38.7554
38.5449
38.6388
36.5969
36.1519
38.6023
39.0561
39.5416
38.943
28.0488
35.2634
33.9917
30.6096
27.6878
28.7857
42.3826
56.2398
82.2645
1.53748
1.5982
1.65672
1.77978
1.98528
2.3438
2.73165
3.00386
3.11241
3.09992
3.0028
2.85754
2.7106
2.59961
2.5557
2.58599
2.61173
2.58834
4.24624
8.54844
9.64082
10.1486
10.9525
10.8174
8.92468
4.82368
2.87531
2.75835
2.99666
3.5362
3.26292
4.07636
3.7414
5.14761
4.51293
7.60694
6.11194
10.5271
8.61862
13.2746
12.1144
14.4043
13.3479
15.9286
14.7009
18.4744
17.1933
21.3677
19.6937
24.5752
22.7326
28.2116
27.4
26.5925
25.8032
31.0908
30.2703
29.4909
28.687
33.7457
32.7902
31.8665
30.9828
35.7467
34.5779
33.3595
38.3915
37.6934
35.4115
34.6192
36.3943
38.8886
39.0608
39.1164
38.5568
39.3844
39.0084
38.5797
40.1031
39.8105
40.4093
40.6809
29.1785
37.6396
36.2672
32.4258
27.7766
29.6467
48.2031
57.3295
86.3568
1.698
1.78627
1.91601
2.26338
2.74011
3.22853
3.50874
3.59932
3.56449
3.45884
3.30759
3.13725
2.9876
2.89385
2.87556
2.90767
2.89209
3.92716
8.16791
9.73525
10.1369
11.046
11.071
9.54287
5.58133
2.90059
2.57731
2.74102
3.02229
3.49799
3.29262
4.04631
3.74836
4.97433
4.44267
6.93549
5.74949
9.57022
7.77587
12.31
11.1879
13.5515
12.5556
15.2233
14.0259
18.0866
16.5847
20.9234
19.1102
24.3179
23.4378
21.5734
22.5027
27.9012
27.0956
26.2644
25.3321
30.1348
29.3096
28.5001
27.6963
32.2145
31.1666
30.2111
29.3231
33.8657
32.3378
30.9911
37.5272
35.8552
32.6221
31.1965
33.6268
38.5625
39.3146
38.5856
37.2719
39.6113
41.0374
40.769
41.1706
40.1675
41.0273
42.0235
30.6031
39.921
38.6728
34.5767
28.7331
31.9086
49.7841
104.513
92.2481
1.91947
2.12846
2.52058
3.16316
3.68834
3.9603
4.01843
3.96505
3.84994
3.7052
3.54267
3.37042
3.23914
3.17007
3.17578
3.17402
3.8079
7.5758
9.81794
10.1267
11.0967
11.2684
10.0788
6.45186
3.03016
2.44886
2.53059
2.74553
3.15864
2.94605
3.51763
3.3039
4.02584
3.7453
4.82378
4.36987
6.37411
5.44255
8.55073
6.95183
11.6686
10.3671
12.984
12.068
14.6538
13.4678
17.4757
15.9849
20.7508
19.8929
18.9732
23.9825
23.3359
22.0068
22.639
26.9142
26.1416
25.3902
24.6754
28.4858
27.6935
26.9658
26.3556
29.8261
28.7963
27.8998
27.1196
30.7845
29.2347
27.9739
35.1867
32.4644
28.9447
26.7288
29.4679
37.092
38.7642
37.1472
34.6133
39.2404
42.7094
42.763
42.1316
40.1452
41.527
43.27
32.6569
42.2547
41.2927
37.0638
30.694
33.5949
47.5674
116.791
94.4036
2.31618
2.85078
3.51998
4.11223
4.33251
4.36478
4.2876
4.16552
4.01708
3.87218
3.71222
3.56912
3.46207
3.42234
3.42181
3.81205
6.85533
9.8454
10.1282
11.1091
11.4203
10.525
7.39502
3.29351
2.36912
2.36191
2.52218
2.7549
3.13713
2.97722
3.52895
3.32912
4.01831
3.76227
4.70377
4.32593
5.89167
5.19833
7.37853
6.25141
10.8893
9.0666
12.3113
10.9763
14.5933
13.1673
17.4994
16.0869
21.299
20.5597
23.0302
22.0868
24.9346
24.8787
24.5745
24.7688
25.8713
25.4731
25.1734
24.9975
26.4834
26.0563
25.8824
25.9008
26.9404
26.1273
25.6051
25.4986
27.1655
25.8597
25.0501
31.4491
28.0504
25.0317
24.4877
25.4098
34.6053
37.618
35.2697
31.429
38.6185
44.3629
44.873
43.1648
40.2115
42.2749
44.7657
35.1239
44.87
44.1043
39.7508
32.6539
34.6099
46.0647
108.958
91.549
3.11212
3.93213
4.44553
4.6504
4.63232
4.54408
4.40656
4.25968
4.11799
3.98801
3.85751
3.73716
3.65523
3.63135
3.89365
6.20299
9.8159
10.145
11.0975
11.5356
10.8996
8.28468
3.73959
2.35515
2.22491
2.33746
2.51973
2.86817
2.68564
3.16186
2.98799
3.55289
3.34174
4.02692
3.77754
4.63233
4.30919
5.54332
5.02486
6.69737
5.93109
9.30994
7.78191
11.6789
10.1186
17.7663
15.2152
21.2641
20.4749
20.113
24.2343
23.7048
28.706
27.6292
28.8398
29.4744
29.9822
29.8645
26.1624
26.6632
27.322
28.0868
25.5987
26.1836
27.0611
28.22
24.8206
24.8725
25.4356
26.4116
24.3636
24.211
24.468
28.2171
25.9493
24.2455
25.0446
25.1955
32.4606
36.5892
34.2737
29.7979
38.4711
46.4287
47.5436
44.6124
40.8117
43.7861
47.1138
37.5494
47.8411
46.9043
42.3591
34.2566
36.1714
49.4821
55.8453
84.2281
4.24889
4.78645
4.86934
4.85029
4.72956
4.58909
4.43855
4.30372
4.19058
4.08614
3.97749
3.87247
3.80935
3.98946
5.69341
9.64298
10.1773
11.0527
11.6211
11.214
9.07002
4.51543
2.41764
2.12805
2.18355
2.32437
2.52031
2.84973
2.70993
3.1758
3.00961
3.57381
3.3685
4.04545
3.80399
4.60532
4.30923
5.38555
4.94706
6.50097
5.83444
8.6104
7.38781
12.8371
10.6593
24.4155
22.5238
21.1488
26.1928
24.4654
26.078
28.0831
29.9273
29.4773
34.47
33.1604
34.8681
35.7139
36.2546
36.1606
29.5626
31.005
32.4268
33.7345
27.7691
29.4128
31.2159
33.0684
25.3517
26.5997
28.2892
30.2609
24.3693
25.1872
26.566
27.8201
26.9988
25.5453
28.2263
27.0019
32.0714
36.5191
34.6684
30.4839
39.1686
49.404
50.8968
47.3146
42.6985
47.3678
50.7588
39.8509
50.9399
49.6556
44.8128
36.1766
38.4865
46.9393
37.5364
62.7192
5.02103
5.08249
4.98437
4.87531
4.71335
4.56931
4.43527
4.32964
4.24789
4.1686
4.06727
3.96636
4.06846
5.32379
9.17487
10.1798
10.9846
11.685
11.4722
9.77501
5.6266
2.59734
2.07746
2.06426
2.16317
2.31363
2.61082
2.45407
2.86625
2.71688
3.20025
3.02186
3.60666
3.39165
4.0814
3.83735
4.6012
4.33437
5.33436
4.92276
6.54696
5.85218
8.88295
7.52267
17.6
14.0231
27.1923
25.3197
25.5338
23.5533
31.5978
29.9081
29.0453
30.9537
36.1095
35.4591
38.6561
36.9119
40.5813
41.3126
41.5358
41.5622
34.8973
36.6224
38.1732
39.5076
32.3219
34.3736
36.4046
38.3296
28.5213
30.9212
33.2908
35.5071
26.963
29.0637
31.7569
29.9476
30.5671
30.4189
35.4085
32.9178
33.6606
37.9357
37.4934
33.5138
42.0829
53.5269
54.559
52.0273
47.8628
53.743
56.1679
42.1149
54.152
52.1696
47.1282
38.4499
40.345
41.5941
54.5905
56.2046
5.23539
5.11445
4.95305
4.78791
4.62629
4.4954
4.40046
4.33737
4.29519
4.22602
4.11291
4.13651
5.04932
8.57694
10.1522
10.9052
11.7241
11.6764
10.3619
6.92694
2.93799
2.07647
1.97854
2.03536
2.14453
2.31008
2.59213
2.4687
2.87791
2.73089
3.22284
3.04364
3.64375
3.42523
4.1256
3.88196
4.63162
4.37601
5.33762
4.92645
7.07159
6.10228
11.0744
8.71528
22.407
20.335
18.6229
28.6638
26.983
26.0501
24.6481
34.9581
32.9498
30.535
32.5868
41.0655
40.0678
42.0674
39.7792
45.6911
46.275
46.2515
46.4124
40.1635
41.8605
43.3792
44.6813
37.5984
39.6513
41.6635
43.5625
34.3838
36.8421
39.172
41.4726
33.2591
36.0255
38.6853
35.1356
37.4026
38.2369
42.8429
39.9753
38.0095
41.9729
42.9317
39.8484
49.1588
58.1555
58.5122
59.319
55.8997
63.0606
62.1438
44.184
56.9307
53.9643
49.0423
40.7043
40.2372
41.8094
63.1688
65.7051
5.22944
4.99575
4.79768
4.626
4.49719
4.40749
4.35813
4.34228
4.32324
4.2412
4.20865
4.84175
7.92549
10.1152
10.8171
11.7278
11.8292
10.844
8.12062
3.55696
2.13801
1.92363
1.93711
2.0128
2.12606
2.30934
2.59824
2.47005
2.89309
2.73729
3.24944
3.06144
3.68302
3.45542
4.17429
3.92689
4.67926
4.42062
5.45527
4.99613
7.96809
6.51377
14.6187
10.8238
23.3251
21.8502
19.1428
21.1697
29.1282
27.4978
26.205
24.9441
37.2913
34.8611
31.0447
33.2749
45.4057
43.9973
45.1327
42.145
50.6871
51.1722
50.8372
51.2576
45.3505
46.9945
48.4625
49.7184
43.6011
45.6823
47.6608
49.5038
41.2228
43.8257
46.3714
48.7951
40.913
43.7731
46.7522
42.306
45.5176
46.0298
53.3185
49.1251
44.8347
51.1237
54.1439
48.0829
58.7012
63.126
61.6506
66.6021
67.3776
71.4049
68.2007
45.9177
58.6834
55.5655
50.5774
42.8553
41.2416
46.6269
27.7764
64.4564
5.05067
4.78186
4.59077
4.46609
4.38932
4.34792
4.34134
4.34569
4.31881
4.27602
4.69383
7.27229
10.0415
10.7182
11.7057
11.938
11.2375
9.12569
4.71364
2.30646
1.90396
1.86186
1.90985
1.98762
2.11023
2.37879
2.46986
2.23387
2.60306
2.90716
2.7488
3.27529
3.08261
3.7249
3.49079
4.22443
3.97573
4.74952
4.4721
5.67086
5.11592
9.06605
7.04096
17.0102
12.9721
23.7354
22.4811
19.8876
21.3503
29.0863
27.5554
26.0477
24.9482
38.9322
35.9639
30.9651
33.2489
49.6383
47.7372
48.0408
44.1724
56.0159
56.3027
55.5122
56.2591
51.2111
52.7504
54.0996
55.2187
50.9696
53.052
54.9555
56.6574
49.8675
52.9489
55.7809
58.3416
49.6127
53.7249
58.1588
52.2285
57.2371
58.2376
68.6778
62.6066
58.2094
62.191
66.703
63.4406
72.3152
66.7243
63.8404
73.803
76.6261
80.2156
72.5303
47.5879
61.151
58.7246
52.6725
45.2229
44.0514
50.7313
18.8352
52.5812
4.79369
4.52492
4.37062
4.31028
4.30521
4.31837
4.33852
4.33181
4.2991
4.58969
6.67005
9.84242
10.6109
11.6334
12.002
11.5507
9.93307
6.25012
2.64749
1.92328
1.80923
1.82741
1.87866
1.96629
2.09313
2.47013
2.35442
2.24273
2.60493
2.91907
2.7549
3.30014
3.09942
3.76482
3.52245
4.27615
4.02173
4.85674
4.53529
5.98468
5.31041
9.95681
7.60645
18.5755
16.3794
13.6553
23.8188
22.6304
20.0356
21.3618
28.472
27.1931
25.4814
24.5761
39.9753
36.3204
30.1917
32.4964
53.9191
51.4916
51.2182
46.2499
61.9575
62.0603
60.5751
61.6852
58.1837
59.5107
60.6224
61.4893
60.5537
62.5453
64.2446
65.6189
62.2865
65.882
68.9763
71.5892
63.7799
69.8896
75.8907
69.2403
75.8668
75.6851
95.2286
84.0333
72.3718
78.1277
85.5733
79.6435
82.9409
70.2107
68.5029
79.641
88.5321
89.6908
78.3947
50.3163
66.1671
62.6115
56.0145
47.0744
47.9579
50.1552
6.8229
38.6853
4.56006
4.31711
4.20833
4.18946
4.24674
4.30797
4.32177
4.29441
4.50793
6.16246
9.51407
10.4763
11.5129
12.0202
11.7897
10.5668
7.68752
3.28749
2.0036
1.78347
1.76221
1.79071
1.84931
1.95097
2.07861
2.47221
2.35068
2.23336
2.60683
2.93013
2.76223
3.32269
3.11606
3.80534
3.55378
4.33701
4.07202
5.0109
4.62363
6.37238
5.57106
10.3665
8.1091
18.3067
16.6574
12.4429
14.8626
23.613
22.5472
19.7352
20.9829
27.3631
26.3984
24.5879
23.871
40.676
36.0956
28.822
31.0959
58.4825
55.584
54.98
49.15
68.7992
68.5949
66.2319
67.6379
66.761
67.6877
68.3679
68.6979
73.7491
75.4864
76.7845
77.5077
81.1932
85.3102
88.734
91.1221
83.8357
92.5731
103.737
90.5255
106.861
110.318
155.765
126.469
95.663
91.5681
104.573
112.704
100.259
79.6032
76.0272
90.1791
104.672
109.709
95.7993
51.9445
70.5563
65.0358
57.8826
50.1868
49.0315
52.7938
6.35052
36.7418
4.37015
4.18649
4.11745
4.12823
4.22262
4.28791
4.27395
4.4397
5.7744
9.08921
10.3122
11.3565
12.0131
11.9591
11.0583
8.86658
4.51096
2.19326
1.7864
1.71505
1.72047
1.75173
1.8294
1.93265
2.0515
2.22297
2.46873
2.34334
2.60733
2.93956
2.76592
3.34273
3.13024
3.84409
3.58177
4.40815
4.12383
5.20245
4.73557
6.81249
5.88087
12.7382
11.3288
9.80538
8.67091
17.9021
16.5015
14.2783
23.0561
22.084
19.1467
20.3149
25.9569
25.2683
23.4434
22.9204
41.7745
35.7071
27.1916
30.1311
63.5159
60.2665
59.5376
53.1294
76.8125
76.0177
72.6304
74.2229
77.7886
77.9046
77.8714
77.3872
93.1716
94.3001
94.9067
94.9075
110.703
116.961
119.635
122.374
127.547
154.532
189.65
145.595
186.413
190.646
208.613
189.842
125.933
118.646
153.18
158.189
129.262
87.8832
80.6738
119.89
152.93
161.02
102.893
55.2941
74.2454
71.0974
61.9817
51.7614
51.4981
52.5482
10.4978
45.0846
4.26945
4.11829
4.07895
4.10728
4.20022
4.23018
4.37303
5.47899
8.62737
10.088
11.1697
11.9741
12.063
11.4345
9.7859
6.13363
2.56489
1.82674
1.68795
1.66614
1.67302
1.72345
1.80872
1.9054
2.09167
2.21269
2.19846
1.97632
2.46457
2.33248
2.60573
2.94562
2.76734
3.36299
3.14322
3.8855
3.61136
4.49002
4.18161
5.41694
4.86206
7.31175
6.24862
12.565
11.1603
10.3034
9.35898
17.0806
15.7723
13.9959
22.2798
21.3774
18.2987
19.542
24.6346
23.8706
22.5064
21.9467
44.1841
36.3977
26.3368
30.0308
69.1063
65.7056
65.1216
58.4351
86.1955
84.9674
79.9233
81.7417
93.0824
91.3289
90.1447
88.5283
123.801
124.974
125.681
124.035
186.848
196.311
196.114
196.606
192.4
203.973
426.361
194.734
431.099
433.067
414.105
436.786
193.406
163.952
203.041
204.035
202.169
94.6852
87.6301
126.643
200.003
143.196
118.251
57.162
85.7445
75.3389
64.6748
54.6316
51.7093
55.9443
7.796
54.0589
4.22807
4.08822
4.06542
4.0893
4.13539
4.28567
5.24422
8.1716
9.83726
10.958
11.8788
12.1089
11.7128
10.4864
7.62218
3.24373
1.92973
1.68176
1.62727
1.61231
1.63536
1.69886
1.78044
1.88034
2.18551
2.05267
2.32254
1.97685
2.45492
2.59943
2.94809
2.76682
3.37944
3.15125
3.93146
3.64058
4.58351
4.2482
5.67302
5.00426
7.92374
6.70852
12.5318
11.445
10.5437
10.9855
10.8717
9.54754
16.5652
15.2745
13.9242
21.4457
20.643
17.9472
19.3318
24.1863
23.1313
22.4353
21.7232
48.0942
38.6784
26.412
31.6843
75.3816
72.0129
71.9611
65.4724
98.9118
96.4009
88.5188
91.0938
119.23
111.386
106.402
104.716
194.822
189.694
186.947
180.099
432.412
424.108
430.241
430.188
441.898
406.157
841.337
429.154
859.58
860.908
828.044
869.121
449.097
224.368
437.463
426.012
476.491
110.171
112.956
166.908
479.283
270.961
477.024
161.902
61.4631
92.7119
86.6325
71.2425
55.6648
53.3079
69.9578
187.543
107.916
4.20638
4.07649
4.04839
4.04424
4.17775
5.03073
7.76103
9.61116
10.7341
11.7435
12.1112
11.9099
11.0137
8.83943
4.48477
2.14025
1.70023
1.60349
1.56743
1.56541
1.60566
1.66757
1.75459
1.85218
2.30736
2.17199
2.03899
2.44558
1.95515
2.59043
2.94837
2.76112
3.3959
3.15763
3.98219
3.67153
4.69452
4.32395
6.02121
5.18034
8.7511
7.30586
13.0381
12.2523
12.0786
11.9046
10.6104
16.6197
15.2019
14.3938
21.1514
20.4324
18.2973
19.8591
24.7649
23.2246
23.6538
22.4925
54.1676
43.2059
28.0657
35.9849
82.6428
79.3246
80.097
74.3784
119.709
113.732
99.8718
103.869
174.237
158.89
132.881
131.909
432.874
431.61
434.36
436.97
852.504
824.936
835.143
829.728
881.076
801.64
2476.04
843.252
2515.08
2508.81
2444.5
2536.91
871.225
477.35
850.717
835.248
876.42
165.614
120.608
235.568
883.799
496.721
881.171
222.203
63.2978
114.811
92.6469
74.6438
57.2772