/*--------------------------------*- C++ -*----------------------------------*\
  =========                 |
  \\      /  F ield         | OpenFOAM: The Open Source CFD Toolbox
   \\    /   O peration     | Website:  https://openfoam.org
    \\  /    A nd           | Version:  dev
     \\/     M anipulation  |
\*---------------------------------------------------------------------------*/
FoamFile
{
    version     2.0;
    format      ascii;
    class       volScalarField;
    location    "2500";
    object      p_rgh;
}
// * * * * * * * * * * * * * * * * * * * * * * * * * * * * * * * * * * * * * //

dimensions      [1 -1 -2 0 0 0 0];

internalField   nonuniform List<scalar> 
9840
(
0.00442667
0.0055674
0.0048692
0.0053919
0.00885986
0.00420847
0.00492292
0.0105066
0.0087978
0.00374341
0.00429783
0.0104239
0.0121061
0.00802108
0.00313778
0.0045164
0.0100374
0.0140653
0.0115348
0.00652855
0.00239131
0.00383225
0.00854359
0.0145554
0.0145067
0.0103928
0.00590216
0.00209039
0.00396122
0.00807081
0.0142902
0.0163085
0.0140077
0.00903732
0.00512711
0.0017028
0.00359238
0.00818694
0.0138578
0.0173668
0.0165793
0.0121887
0.00815454
0.004578
0.00121121
0.00318606
0.00775826
0.0128774
0.0174948
0.0183253
0.0156239
0.0111741
0.00741867
0.00413629
0.00101183
0.0029186
0.00740366
0.0121547
0.0167101
0.0193259
0.0183468
0.0142276
0.0101062
0.00675221
0.00360892
0.000733894
0.00278892
0.00695573
0.0112488
0.0163562
0.0198854
0.0201918
0.0172364
0.0128663
0.0092082
0.00618366
0.00320681
0.000483816
0.00264716
0.00611531
0.0109126
0.0159287
0.0197698
0.0213684
0.0199858
0.0159033
0.0120802
0.00878348
0.00586973
0.0030532
0.000240595
0.0025296
0.00602972
0.00995909
0.0150157
0.0195258
0.0219017
0.0216488
0.0186745
0.0146906
0.0112162
0.00828595
0.00545905
0.00282232
6.68479e-05
0.00231691
0.00563866
0.00965055
0.0143809
0.0185408
0.02199
0.0230079
0.0211571
0.0174894
0.0140072
0.0108008
0.00791351
0.00519151
0.00261174
-0.000110696
0.0020288
0.00511504
0.00886117
0.0132022
0.0185107
0.0222359
0.0238067
0.0229651
0.0200631
0.0165885
0.0133129
0.0103998
0.00759394
0.00500518
0.00240833
-0.000243051
0.00182343
0.00494735
0.00866807
0.0131573
0.018007
0.0216628
0.0241401
0.0245643
0.0225071
0.0191061
0.0158657
0.0128389
0.0100562
0.00725674
0.00481771
0.00222631
-0.000372834
0.00156515
0.00484983
0.00829695
0.01255
0.0169789
0.0213055
0.0243562
0.0257629
0.0245503
0.021719
0.0183575
0.0152824
0.0123537
0.00979057
0.00714887
0.00458008
0.00213156
-0.000532066
0.00148132
0.00462997
0.0080594
0.0118485
0.0162992
0.0208215
0.0241172
0.0263549
0.0260297
0.0240239
0.020802
0.0175906
0.0148494
0.0119675
0.00953029
0.00703923
0.00451964
0.00195231
-0.000638008
0.00129049
0.00417526
0.00741104
0.0114934
0.0156637
0.0199314
0.0239984
0.0266621
0.0272615
0.0258995
0.0231352
0.0201333
0.0172115
0.0143964
0.0118487
0.00929026
0.00680362
0.00443156
0.00195025
-0.000615433
0.00105711
0.00399617
0.00699637
0.0111233
0.0149271
0.0193478
0.0237199
0.0266574
0.0280246
0.0275078
0.0253677
0.0225878
0.0195836
0.0169238
0.0141841
0.0116514
0.00906632
0.00665852
0.00428232
0.00177508
-0.000669001
0.00073028
0.00379148
0.00692955
0.0105119
0.0147106
0.0189817
0.0232448
0.026611
0.0285173
0.0287947
0.0273939
0.0247576
0.021889
0.0192623
0.0164546
0.0138944
0.0113971
0.00897255
0.00655016
0.00406232
0.00172939
-0.000716684
0.000540934
0.00359645
0.00657412
0.0100942
0.0143311
0.0183226
0.0226164
0.0264184
0.0288497
0.0297422
0.0289739
0.026851
0.0242908
0.0215709
0.0189481
0.0162418
0.0138501
0.0113291
0.00881607
0.00642208
0.00393355
0.00162591
-0.00076462
0.000345356
0.00326153
0.00638473
0.00990282
0.0138401
0.0179496
0.022162
0.0260862
0.0289867
0.0304129
0.0302603
0.0287119
0.026463
0.0237775
0.0212575
0.0187471
0.0161774
0.0135153
0.0110962
0.00866663
0.00624819
0.0038503
0.00152583
-0.000838397
5.34976e-05
0.00290608
0.00603944
0.00958552
0.0134416
0.0175787
0.0216876
0.0256941
0.0288821
0.0308661
0.0313715
0.0304156
0.0283804
0.0260659
0.0235536
0.020978
0.0185406
0.0159976
0.0133943
0.0109105
0.0084449
0.00601954
0.00370669
0.00139557
-0.000900369
-9.10226e-05
0.00261403
0.0056796
0.00922046
0.0128989
0.0170274
0.0211149
0.0252211
0.0287346
0.0311218
0.0321922
0.0319045
0.0303739
0.0280592
0.0258088
0.0233301
0.0208227
0.018381
0.0157469
0.0131668
0.0106768
0.00816074
0.00577944
0.00351496
0.00126609
-0.000979999
-0.000338006
0.00236798
0.00535994
0.00883403
0.0125224
0.0165237
0.0205172
0.0246648
0.0284029
0.0311564
0.0327777
0.0330485
0.0319481
0.0301815
0.0279522
0.0257128
0.023279
0.0208154
0.0181212
0.015621
0.0129873
0.0104178
0.00794834
0.00553535
0.00327199
0.00109076
-0.00104345
-0.000520873
0.00200324
0.00501548
0.00849175
0.0121236
0.0159584
0.0199892
0.0240723
0.0279893
0.0310361
0.0330716
0.0338732
0.0334408
0.0318497
0.0300501
0.0278954
0.025642
0.0231151
0.0206549
0.0179921
0.0153383
0.0126915
0.010054
0.00761561
0.00521405
0.00296539
0.000872303
-0.00113524
-0.000758361
0.0017273
0.00465596
0.00804559
0.0116454
0.0154312
0.0194157
0.0235023
0.0274019
0.0307771
0.0332069
0.0345497
0.0346702
0.0336226
0.0318287
0.0300736
0.0278231
0.0255355
0.0231718
0.0205357
0.0178441
0.0150668
0.0123147
0.00969487
0.00717047
0.00483326
0.00267421
0.00057083
-0.00125728
-0.000911873
0.00147471
0.00431164
0.00757242
0.0111405
0.0148999
0.0188364
0.0229037
0.0267863
0.0304115
0.033114
0.0349244
0.0355885
0.0350983
0.0337043
0.0320673
0.0301759
0.0279863
0.0257108
0.0230995
0.0203296
0.0175101
0.014618
0.0118229
0.00914289
0.00665647
0.00434569
0.00229425
0.000371308
-0.0014308
-0.00111336
0.00117326
0.00399414
0.00713981
0.0106931
0.0143663
0.018218
0.0222067
0.0260881
0.0298072
0.0328995
0.0350921
0.0362341
0.0363121
0.0353666
0.0339071
0.032139
0.0303937
0.0281976
0.0257247
0.0229586
0.0200872
0.0171052
0.0141302
0.0112484
0.00853914
0.00605444
0.00384878
0.00185597
7.06088e-05
-0.00158782
-0.00120262
0.000940929
0.00358198
0.00668164
0.0100759
0.0137338
0.0174745
0.0215718
0.0254922
0.0292361
0.0325261
0.0350607
0.036683
0.0372414
0.0368987
0.0357116
0.0342024
0.0325827
0.0305233
0.028315
0.0256589
0.0227373
0.0197113
0.0165882
0.0134893
0.0105273
0.00780714
0.00538513
0.00327595
0.00144382
-0.000216403
-0.00172419
-0.0013105
0.000693064
0.00324416
0.00621682
0.00954467
0.0131229
0.0168099
0.0207162
0.0246965
0.028485
0.0319884
0.0348398
0.0368334
0.0378679
0.0379425
0.0373067
0.03613
0.0346824
0.032872
0.0306399
0.0283492
0.0255348
0.0224348
0.019191
0.0158895
0.0126605
0.00965192
0.00696179
0.00464438
0.00268948
0.000999967
-0.000489106
-0.00185309
-0.00137261
0.000407413
0.00293605
0.00579283
0.00900912
0.0124493
0.0160607
0.0198468
0.0238361
0.0277201
0.0313062
0.0343817
0.0367938
0.0383109
0.0388228
0.03861
0.0377769
0.0365685
0.0351252
0.0333258
0.030689
0.0283576
0.0252963
0.0219704
0.0184707
0.0149778
0.0116454
0.00862973
0.00602611
0.0038526
0.00205905
0.000516343
-0.00078731
-0.00261695
-0.00217045
-0.00140055
0.000290684
0.00253161
0.00530511
0.00842882
0.0117045
0.015264
0.018963
0.0228715
0.0268983
0.0304964
0.0337617
0.0365301
0.0384387
0.0395594
0.0396896
0.0392806
0.0383189
0.0371224
0.0356075
0.033762
0.0309151
0.0282512
0.0249053
0.0212788
0.0175119
0.0138402
0.0104454
0.00747581
0.00500017
0.00299789
0.00135293
-0.000355609
-0.00161951
-0.00114761
-0.00264122
-0.00223069
-0.0014124
8.16345e-05
0.00217652
0.00482412
0.00775693
0.010996
0.0144269
0.0180502
0.0219531
0.0259329
0.029572
0.0329836
0.0360189
0.0383066
0.0398572
0.0404129
0.040396
0.0398848
0.0389582
0.0378198
0.036279
0.0341038
0.0312233
0.0280564
0.0243281
0.0203225
0.0162807
0.0124605
0.00905172
0.00618772
0.00388268
0.00203631
0.000568571
0.000837043
-0.000711172
-0.000474505
-0.000430931
-0.00175694
-0.00130576
-0.00260578
-0.00223142
-0.00154703
-4.37804e-05
0.00189406
0.00429747
0.00705604
0.0101795
0.0134959
0.0170495
0.0208686
0.0247346
0.028501
0.0320791
0.03534
0.0379388
0.039857
0.0410136
0.0414084
0.0413658
0.0408035
0.0397852
0.0385771
0.0369094
0.0343648
0.0313407
0.0276519
0.0234463
0.0190509
0.0147349
0.0108056
0.0074639
0.00475878
0.00262432
0.00112084
0.00126559
-7.34609e-05
-0.000931225
-0.000197379
-0.000638825
-0.00179865
-0.0013948
-0.00252091
-0.00218663
-0.0014981
-0.000397011
0.00151834
0.00374257
0.00638916
0.00929318
0.0125099
0.0159105
0.0196461
0.023488
0.0273411
0.0310479
0.0344014
0.0372983
0.0395983
0.0411437
0.0419853
0.0423578
0.042443
0.0421059
0.0408474
0.0393524
0.0374173
0.0346252
0.0312312
0.0270099
0.0222747
0.017465
0.0128889
0.00893134
0.00569943
0.00317596
0.00149418
0.00159941
0.000273975
0.000518818
-1.70606e-05
-0.00107229
-0.00042466
-0.000831984
-0.00179508
-0.00143682
-0.00238842
-0.00209231
-0.00138304
-0.00051088
0.00133275
0.00324392
0.00569725
0.00839307
0.011434
0.0147581
0.0183886
0.0222141
0.0260495
0.0298298
0.0333291
0.036482
0.0391008
0.0410924
0.042355
0.0430789
0.0434988
0.0436038
0.0433758
0.0421137
0.0402099
0.0380237
0.0349876
0.0311297
0.0264851
0.021297
0.0160454
0.0112259
0.00708603
0.0038554
0.0018118
0.00193487
0.000711719
0.000853744
0.000123552
0.000221454
-0.000283267
-0.00116664
-0.0006695
-0.000979081
-0.00174384
-0.00143138
-0.00219776
-0.00194309
-0.00125975
-0.000496197
0.00117452
0.00289375
0.0049564
0.00745341
0.0103477
0.0135645
0.0170452
0.0208326
0.0246741
0.0284762
0.0321108
0.0354547
0.0383424
0.0407496
0.0424264
0.0435385
0.0443169
0.0445867
0.0448989
0.0446914
0.0433763
0.0413112
0.0390545
0.0363897
0.0331622
0.0293058
0.0240956
0.0180056
0.0117776
0.00594482
0.0022247
0.00257629
0.000997991
0.0011514
0.000296668
0.000362528
-0.000197011
-0.000158648
-0.000578333
-0.00120768
-0.000866529
-0.00107108
-0.00163432
-0.00136431
-0.0019468
-0.0017348
-0.00113254
-0.000272613
0.000973793
0.0024487
0.00426886
0.00650409
0.00920247
0.0122642
0.0156722
0.0193458
0.0231774
0.0269988
0.0307205
0.0342264
0.0373862
0.040081
0.0421911
0.0437053
0.0447507
0.0455585
0.0458785
0.0462293
0.0459552
0.044644
0.043373
0.0436121
0.0458954
0.0488175
0.0497931
0.0448045
0.034032
0.0207742
0.00379701
0.00749635
0.00143709
0.00215224
0.000451979
0.000640822
-0.000140704
-0.000109094
-0.000543627
-0.000550732
-0.000828999
-0.00119037
-0.00101407
-0.00111266
-0.00146299
-0.00123963
-0.0016427
-0.00147172
-0.00085988
-0.000252992
0.000539632
0.00197365
0.00356182
0.00557776
0.00803916
0.0109242
0.0142014
0.0177799
0.0215561
0.0253877
0.0291677
0.0328004
0.0361744
0.0391521
0.0416587
0.0435624
0.0449732
0.0461918
0.0468623
0.0474315
0.0479076
0.047682
0.0476632
0.0517278
0.0642519
0.0860185
0.105072
0.11253
0.101587
0.0748497
0.0202875
0.055965
0.00451598
0.0129987
0.00119429
0.0029826
1.48666e-05
0.000473142
-0.000559334
-0.000480707
-0.000847562
-0.00088078
-0.00103177
-0.00112264
-0.00111388
-0.00110253
-0.001237
-0.00106245
-0.00128426
-0.00114976
-0.000720072
-0.000537128
0.000390845
0.0014874
0.0028444
0.00463449
0.00686575
0.00954671
0.0126557
0.0161215
0.0198244
0.0236398
0.0274563
0.0311847
0.0347287
0.0379718
0.0408233
0.043114
0.0449016
0.046292
0.0475438
0.0481532
0.0489516
0.0497151
0.0512261
0.058996
0.0823412
0.120487
0.163993
0.192403
0.204636
0.18634
0.099383
0.156749
0.0378759
0.0839639
0.00913074
0.0276362
0.00198631
0.00697687
-5.57808e-05
0.00142586
-0.000829477
-0.000380394
-0.00108181
-0.0010321
-0.00116066
-0.00100156
-0.00113417
-0.00101206
-0.000954118
-0.000829259
-0.000873276
-0.000771369
-0.00066819
-0.00054586
0.000111073
0.000957232
0.00216141
0.00369612
0.00568256
0.00814142
0.0110563
0.0143749
0.0179855
0.0217598
0.0255899
0.0293867
0.0330695
0.0365179
0.0397089
0.0423609
0.0445211
0.046222
0.0478475
0.0488973
0.0497707
0.0509835
0.0539083
0.0651605
0.0960604
0.149192
0.200718
0.237085
0.265101
0.2796
0.205536
0.262986
0.135558
0.190474
0.0685351
0.118529
0.0220811
0.0582281
0.00616887
0.0202343
0.00131035
0.00666952
-0.000477787
0.00173312
-0.00109388
-0.000340829
-0.0010268
-0.000807547
-0.000869376
-0.000658431
-0.000616357
-0.000535054
-0.000415221
-0.000344375
-0.00056307
-0.000505861
-0.000156664
0.000634732
0.00148789
0.00278927
0.00451833
0.00672531
0.00942096
0.012559
0.0160455
0.0197532
0.0235712
0.0274131
0.0311994
0.0348576
0.0382743
0.041303
0.0438376
0.0459046
0.047676
0.0492348
0.050181
0.0514886
0.054898
0.068131
0.105843
0.164499
0.206025
0.24018
0.273431
0.30487
0.299938
0.325707
0.245829
0.294866
0.173242
0.230047
0.106898
0.16086
0.0542023
0.102407
0.0219124
0.0573146
0.00868842
0.0272474
0.00276568
0.0125106
1.41038e-05
0.00438466
0.000456209
-0.000410757
0.000846463
0.00102457
-0.000234721
-0.0001239
7.74493e-05
0.000115726
-0.000457232
-0.000482174
-0.000269281
0.000267935
0.00092006
0.00193506
0.00339461
0.00533152
0.00777199
0.0106955
0.0140196
0.0176272
0.0214048
0.0252665
0.0291305
0.0329267
0.036574
0.0399518
0.0428453
0.0452787
0.0472482
0.0491771
0.0505486
0.0518614
0.0551786
0.068466
0.108273
0.164759
0.195529
0.22387
0.257046
0.294198
0.338186
0.329838
0.34784
0.284246
0.329242
0.21794
0.27462
0.156499
0.213681
0.106532
0.161959
0.0682575
0.121049
0.0371346
0.0872243
0.0182284
0.0521561
0.0063762
0.0252658
0.00809887
0.000989869
0.00909393
0.00877706
0.000199728
0.000862744
0.000576962
0.000578093
-0.000364857
-0.000457266
-0.000371636
-7.69723e-05
0.000442346
0.00116994
0.00234153
0.00398654
0.0061429
0.00880963
0.0119282
0.0153946
0.0190973
0.0229484
0.0268678
0.0307682
0.0346044
0.0382888
0.041553
0.044355
0.0466722
0.0487664
0.0504789
0.0519981
0.0550041
0.067685
0.106471
0.160569
0.18207
0.192252
0.207165
0.256393
0.307305
0.367377
0.353521
0.35785
0.36814
0.325487
0.364577
0.271339
0.325236
0.220236
0.278593
0.17909
0.23946
0.146838
0.209586
0.113982
0.182992
0.0713226
0.147233
0.0324669
0.0919756
0.0379247
0.0071855
0.0402319
0.0378872
0.000843416
0.00486212
0.00102899
0.00103543
-0.000281698
-0.000423418
-0.000445295
-0.000277457
3.83342e-05
0.000511672
0.00138735
0.00272179
0.00456653
0.0069361
0.0097989
0.0130743
0.0166581
0.0204619
0.0244071
0.0284014
0.0323679
0.0363062
0.0399425
0.0431196
0.0458149
0.0480084
0.0500872
0.0517818
0.0544609
0.0655483
0.102661
0.155049
0.172177
0.16744
0.146127
0.192704
0.264536
0.333345
0.311644
0.387455
0.370772
0.386151
0.391262
0.370466
0.402246
0.333858
0.382173
0.299146
0.355157
0.27289
0.334485
0.25339
0.321232
0.228627
0.308105
0.185288
0.280813
0.110475
0.223901
0.123332
0.0308766
0.126752
0.118703
0.00273396
0.0206529
0.0013363
0.00166216
-0.000202936
-0.00037171
-0.00046983
-0.000417191
-0.000332732
-4.29431e-05
0.00055998
0.00157123
0.00307679
0.00511372
0.00766859
0.010693
0.0141029
0.0178131
0.0217447
0.0258157
0.0298673
0.0340146
0.0379973
0.0415747
0.0446579
0.0471577
0.0494468
0.0512717
0.0537001
0.0627455
0.0962267
0.149072
0.165068
0.153686
0.111454
0.123284
0.21113
0.305603
0.299649
0.349732
0.339149
0.411038
0.391691
0.416807
0.417781
0.419754
0.443032
0.404704
0.444962
0.391284
0.441061
0.385112
0.443179
0.38301
0.450474
0.371986
0.454925
0.336394
0.440588
0.257994
0.389407
0.283151
0.0998729
0.293016
0.280181
0.0100483
0.0693314
0.00132095
0.00339466
-0.000127609
-0.000289634
-0.0004351
-0.000497479
-0.000587148
-0.000472349
-0.00011984
0.000572505
0.00171641
0.00338126
0.00558106
0.0082895
0.0114577
0.0150146
0.0188823
0.0229814
0.0271814
0.0314139
0.0356924
0.0396611
0.0431556
0.0460667
0.0484862
0.0506019
0.0528214
0.0599722
0.0886521
0.141879
0.159319
0.147489
0.100212
0.0823089
0.12638
0.29675
0.338591
0.349264
0.376255
0.372037
0.437846
0.41993
0.450583
0.448762
0.473216
0.487305
0.482005
0.512188
0.492709
0.532836
0.509949
0.559529
0.528306
0.589653
0.533924
0.61544
0.509316
0.614959
0.434379
0.570707
0.465438
0.24196
0.478526
0.467907
0.035241
0.177152
0.000953235
0.00980986
-0.000169537
-0.000331276
-0.000481089
-0.000687225
-0.000730588
-0.000620083
-0.00024048
0.000532366
0.00179139
0.0035816
0.00591156
0.00875931
0.0120872
0.0158257
0.0198933
0.024228
0.0286018
0.0330461
0.0373925
0.041325
0.0446713
0.047345
0.0497732
0.0518507
0.0574656
0.0813421
0.133406
0.154423
0.144033
0.0975856
0.0687261
0.0776602
0.164259
0.371771
0.321212
0.375389
0.377242
0.410143
0.408809
0.469533
0.454961
0.488834
0.484034
0.530051
0.53492
0.562776
0.581444
0.597666
0.625191
0.639463
0.674764
0.678635
0.720769
0.702844
0.754618
0.692225
0.776977
0.621235
0.754796
0.65459
0.429411
0.669491
0.657934
0.101753
0.349129
-0.000400244
0.0287786
-0.000158434
-0.000364759
-0.000631087
-0.0008068
-0.000922221
-0.000832416
-0.000429513
0.000401701
0.00173431
0.00361175
0.00605687
0.00906211
0.0125881
0.0165602
0.0209018
0.0254619
0.0301034
0.0347546
0.0390977
0.0429362
0.0460906
0.0487224
0.0508697
0.055295
0.0747153
0.123666
0.149908
0.143121
0.100533
0.0655671
0.0607655
0.081289
0.239094
0.13964
0.387893
0.319132
0.413288
0.411432
0.448998
0.44875
0.506801
0.494957
0.532184
0.52266
0.588254
0.586067
0.64221
0.64864
0.6966
0.707921
0.739311
0.746663
0.771149
0.771728
0.802906
0.799852
0.831095
0.836174
0.805185
0.87722
0.831425
0.615478
0.845956
0.841157
0.737342
0.226949
0.533967
-0.00648481
0.0648937
-0.00016088
-0.000449409
-0.000739268
-0.0010147
-0.00118086
-0.00112562
-0.000727788
0.000110363
0.00146729
0.00341105
0.00598846
0.00919547
0.0129845
0.0172684
0.0219279
0.026791
0.0316766
0.0365152
0.0408783
0.0445368
0.047364
0.0498169
0.0534306
0.0690494
0.11354
0.145419
0.142978
0.107263
0.0667323
0.0556784
0.0598757
0.0792525
0.214164
0.133337
0.391347
0.298124
0.447318
0.432129
0.490045
0.484005
0.548005
0.536287
0.578835
0.563224
0.646236
0.638807
0.709849
0.704895
0.748487
0.744713
0.767449
0.761433
0.784986
0.766548
0.815445
0.775535
0.868777
0.820854
0.913231
0.890173
0.9061
0.900465
0.940707
0.823974
0.684652
0.80975
0.909165
0.962472
0.947105
0.911135
0.26959
0.437734
0.776179
0.742867
0.592748
-0.0220895
0.352515
0.0646663
0.221455
-0.000173192
-0.000532214
-0.00091008
-0.00128029
-0.00152585
-0.00154004
-0.00121145
-0.000431819
0.000914953
0.00293642
0.00569335
0.00917779
0.0133082
0.0179626
0.0230102
0.0282475
0.0334759
0.038366
0.0426134
0.0459132
0.0486801
0.0517683
0.0643154
0.103772
0.140619
0.142159
0.112585
0.0716469
0.0538241
0.0536128
0.0595025
0.0842296
0.0650141
0.195469
0.120442
0.366372
0.260203
0.468689
0.436752
0.522077
0.501928
0.582346
0.55879
0.623039
0.603758
0.694344
0.675504
0.738493
0.727486
0.756073
0.749762
0.746976
0.733476
0.720461
0.679683
0.777393
0.728384
0.687341
0.645687
0.857784
0.800622
0.711572
0.668365
0.741276
0.898836
0.939185
0.915147
0.86094
0.953874
0.902952
0.885791
0.966533
0.982634
0.968339
0.968573
0.533666
0.861092
0.831157
0.695062
0.103898
0.107725
0.45915
0.35455
-0.000184498
-0.000637293
-0.00112629
-0.00162181
-0.00199232
-0.00215568
-0.00198311
-0.00131739
1.58144e-05
0.00216216
0.0051877
0.00903025
0.0135834
0.0187099
0.024243
0.0298811
0.0353702
0.040244
0.0441762
0.0471793
0.0501932
0.0602703
0.0947556
0.134951
0.140412
0.116543
0.0768527
0.0539233
0.0501265
0.0535249
0.0578909
0.0740106
0.0634636
0.162963
0.102203
0.316403
0.21008
0.471401
0.412196
0.533337
0.500043
0.59422
0.562461
0.651323
0.623523
0.709831
0.686213
0.740357
0.72587
0.725753
0.720071
0.659453
0.655554
0.617574
0.593627
0.581497
0.574656
0.651193
0.601752
0.562998
0.799111
0.724946
0.607561
0.567619
0.64593
0.867325
0.931847
0.878465
0.798355
0.946772
0.965177
0.954752
0.994583
0.963148
0.980881
1.00416
0.646302
0.93704
0.91535
0.797818
0.605737
0.24162
0.222126
0.60964
0.596627
0.558589
-0.00019988
-0.000784012
-0.00140141
-0.00207265
-0.00265894
-0.00308354
-0.00315209
-0.00262039
-0.00124199
0.00113884
0.00453213
0.00885491
0.0139543
0.0196755
0.0257316
0.0317693
0.0373241
0.0419927
0.0453527
0.0485971
0.0565928
0.0865534
0.128568
0.137809
0.119145
0.0817767
0.0546281
0.0479054
0.0494681
0.0530131
0.0583803
0.0557183
0.0688989
0.0618054
0.129025
0.0862691
0.25375
0.159575
0.443728
0.358393
0.522205
0.465261
0.584866
0.537851
0.657151
0.623647
0.704134
0.674643
0.711015
0.694085
0.658321
0.659094
0.574535
0.577923
0.583161
0.588821
0.536913
0.520483
0.51493
0.514744
0.550956
0.505418
0.474699
0.715322
0.623959
0.499471
0.45225
0.532713
0.803118
0.89193
0.813416
0.711234
0.908998
1.00906
1.00875
0.998967
0.929722
0.954267
1.01641
0.765287
1.00127
0.987529
0.892235
0.736617
0.786665
0.158255
0.635332
0.743876
-0.000230195
-0.000962227
-0.00176028
-0.00269952
-0.00363879
-0.00443677
-0.00477612
-0.00428026
-0.00271162
6.45549e-05
0.00401293
0.00894752
0.0147201
0.021059
0.027591
0.0338685
0.0392561
0.043272
0.0468669
0.0531825
0.0789565
0.121484
0.134363
0.120463
0.0861604
0.0559153
0.0463913
0.046214
0.04898
0.0521358
0.0575011
0.0548577
0.0651571
0.0604696
0.10159
0.0755042
0.189623
0.119405
0.386237
0.28797
0.478143
0.40235
0.542625
0.481047
0.637758
0.594058
0.666762
0.629001
0.649992
0.626308
0.592882
0.594417
0.59335
0.586701
0.520336
0.526908
0.534012
0.538792
0.458425
0.45294
0.454215
0.460215
0.446404
0.412092
0.396368
0.608261
0.504001
0.390415
0.340219
0.411101
0.714961
0.828863
0.727059
0.601999
0.849753
1.03141
1.04134
0.982434
0.876371
0.909112
1.01109
0.871033
1.04603
1.04316
0.969304
0.858643
0.855755
0.848545
0.0394808
0.490159
-0.000266362
-0.00118345
-0.00224854
-0.00360745
-0.00503582
-0.00622243
-0.00666622
-0.00596682
-0.00388811
-0.000379187
0.00426975
0.00986057
0.0162308
0.0231123
0.0298763
0.035911
0.0406941
0.0445747
0.0499524
0.0717808
0.113693
0.130177
0.120517
0.0896632
0.0576144
0.0454625
0.0437502
0.0453769
0.0480796
0.0519593
0.0500237
0.056569
0.0541062
0.0627245
0.0592515
0.0837316
0.0689768
0.139193
0.0937106
0.311419
0.216356
0.407573
0.323923
0.467613
0.398731
0.582046
0.528407
0.588579
0.539426
0.543028
0.499922
0.540539
0.539493
0.535254
0.529753
0.467303
0.473443
0.476191
0.475853
0.391314
0.392651
0.398259
0.403931
0.353079
0.337229
0.331758
0.486253
0.381046
0.299113
0.251815
0.299366
0.607693
0.746758
0.624641
0.48189
0.77425
1.03724
1.05763
0.947302
0.809348
0.852385
0.988587
0.951086
1.07155
1.07971
1.03156
0.938294
0.929773
0.849026
0.00523497
0.512343
-0.000301698
-0.00146923
-0.00294818
-0.00487993
-0.00680582
-0.0081292
-0.00821142
-0.0067462
-0.00384551
0.00052306
0.00574261
0.0118272
0.0188021
0.0258322
0.032331
0.0375149
0.0418667
0.0469134
0.0647126
0.105284
0.125359
0.119519
0.0920223
0.0599296
0.0450095
0.0418141
0.0424375
0.0443086
0.0466136
0.0510678
0.0488434
0.0555687
0.0532168
0.0607591
0.0580564
0.0730384
0.0646552
0.10459
0.0767394
0.23675
0.158702
0.323177
0.245523
0.362109
0.297011
0.48317
0.424123
0.447299
0.390129
0.411932
0.389391
0.339363
0.365408
0.471558
0.463328
0.450644
0.433518
0.406584
0.406118
0.401971
0.393346
0.331676
0.33501
0.33657
0.335342
0.282022
0.275299
0.272016
0.364974
0.271254
0.231099
0.186644
0.213089
0.492646
0.651995
0.517513
0.364995
0.689635
1.02927
1.06322
0.902544
0.736761
0.793158
0.957151
1.01532
1.08662
1.1022
1.0802
0.999428
0.980341
0.890118
0.138881
0.715676
-0.000342619
-0.0018272
-0.00395727
-0.00641904
-0.00848559
-0.00927231
-0.00859492
-0.00643587
-0.00285826
0.00210244
0.00779617
0.0145681
0.021762
0.0288909
0.0339833
0.0386829
0.0436958
0.0576099
0.0962178
0.119983
0.117557
0.0935869
0.0628487
0.0451008
0.0402223
0.0399383
0.0411069
0.0428045
0.0459206
0.0440649
0.0500045
0.0478691
0.0543982
0.052166
0.0590791
0.0567432
0.065961
0.0617006
0.0785033
0.0661631
0.172077
0.112376
0.230833
0.16555
0.22675
0.175712
0.333192
0.278601
0.312801
0.284399
0.218838
0.30706
0.287214
0.252699
0.269208
0.381248
0.365907
0.347433
0.327669
0.331011
0.322646
0.311252
0.297608
0.271278
0.268797
0.264434
0.257274
0.221838
0.216052
0.211462
0.258373
0.184647
0.174005
0.136808
0.151415
0.382812
0.556061
0.41904
0.263238
0.607232
1.01152
1.05966
0.85706
0.669462
0.741502
0.925674
1.06972
1.0953
1.11795
1.11146
1.0492
1.03028
0.981352
0.38271
0.866418
-0.000382505
-0.0023783
-0.00515235
-0.00777923
-0.00937562
-0.00950259
-0.00814446
-0.00539907
-0.0012623
0.00413942
0.0103826
0.0174498
0.0250104
0.0306986
0.0350576
0.0398792
0.05085
0.0863877
0.113942
0.114646
0.0943077
0.0659823
0.0456261
0.0389111
0.0377717
0.0382941
0.0394466
0.0408342
0.044707
0.0428543
0.0488662
0.0467045
0.0531193
0.0510156
0.0574753
0.0553026
0.0618616
0.0595444
0.0646531
0.0610406
0.109102
0.0762465
0.12777
0.090268
0.12454
0.0983399
0.182308
0.156193
0.238095
0.226994
0.199781
0.187074
0.243686
0.23722
0.225082
0.231283
0.283405
0.269913
0.258912
0.250589
0.248968
0.24082
0.234792
0.231946
0.207076
0.202487
0.198999
0.19808
0.166971
0.162324
0.159622
0.173369
0.130373
0.130647
0.107915
0.11374
0.291805
0.472064
0.343056
0.188986
0.539562
0.99308
1.05316
0.820599
0.618935
0.707377
0.902536
1.10935
1.09865
1.12914
1.13166
1.09128
1.07013
1.03669
0.22244
0.881675
-0.000373114
-0.00319963
-0.00620866
-0.00862775
-0.00958182
-0.0090107
-0.00702124
-0.00372692
0.000987598
0.00645738
0.0131133
0.0206276
0.026972
0.0316295
0.0354988
0.0447006
0.0755665
0.106964
0.110772
0.0940836
0.0686776
0.0465209
0.0378361
0.0358325
0.035806
0.0364554
0.0373971
0.0397394
0.0380953
0.0433613
0.0413947
0.0475408
0.0454047
0.0517868
0.0496938
0.0558956
0.0538769
0.0593253
0.0577285
0.0592686
0.0583674
0.0695948
0.0615208
0.0766981
0.0645998
0.12361
0.0995444
0.172223
0.159854
0.153115
0.21842
0.210432
0.268064
0.255194
0.257424
0.267841
0.279377
0.275474
0.232311
0.23546
0.240415
0.248698
0.200016
0.207928
0.21999
0.236405
0.161371
0.167476
0.178184
0.193938
0.127943
0.133604
0.143981
0.131329
0.109539
0.11083
0.104228
0.102253
0.233947
0.412755
0.300925
0.15754
0.497633
0.980603
1.04816
0.801578
0.594406
0.698437
0.894272
1.13553
1.10199
1.13895
1.1462
1.12346
1.09953
1.06937
0.0869934
0.774104
-0.000536529
-0.00401995
-0.0069485
-0.00883915
-0.00909667
-0.0079435
-0.00544407
-0.00168401
0.00319268
0.00891003
0.0158155
0.0225719
0.0280188
0.0310258
0.0389199
0.0644094
0.0986897
0.105943
0.0928702
0.070371
0.0482768
0.0370695
0.0340257
0.0335587
0.0337653
0.0343049
0.0350084
0.0382671
0.0366759
0.0420624
0.0401188
0.0461376
0.0440975
0.0503778
0.0482185
0.0544155
0.0524467
0.0574303
0.0561211
0.0568224
0.0563709
0.0591264
0.0573129
0.0791462
0.067275
0.244403
0.215558
0.198098
0.237422
0.214568
0.274715
0.30878
0.280188
0.276295
0.407917
0.390065
0.366876
0.390769
0.419558
0.408993
0.258204
0.283408
0.311071
0.339623
0.21593
0.244673
0.279263
0.318367
0.160438
0.182779
0.211987
0.248637
0.1218
0.138457
0.1622
0.122629
0.108361
0.115227
0.116921
0.104458
0.216197
0.38787
0.296806
0.157771
0.488318
0.978264
1.04909
0.803086
0.59782
0.713668
0.901326
1.15339
1.1064
1.14846
1.15807
1.14851
1.12805
1.06135
0.116086
0.751386
-0.000912782
-0.00464565
-0.00718236
-0.00849827
-0.00817964
-0.00660434
-0.00377856
0.000156535
0.00487093
0.01092
0.0177092
0.0237697
0.027127
0.0331236
0.0533961
0.0889634
0.100127
0.0906589
0.0711549
0.0508193
0.0367454
0.0322938
0.0314019
0.0313587
0.0314964
0.0318637
0.0335816
0.0321305
0.0368675
0.0350552
0.0406247
0.0387025
0.0446078
0.0426119
0.0489691
0.0467263
0.0528363
0.0510315
0.0556344
0.0543929
0.0554525
0.0547234
0.0600727
0.0567474
0.144014
0.101863
0.340735
0.29689
0.337601
0.289295
0.365979
0.338289
0.382699
0.423066
0.422039
0.41892
0.555291
0.529135
0.523258
0.552142
0.581388
0.57259
0.360673
0.404363
0.447359
0.487503
0.29118
0.337935
0.388207
0.439703
0.195458
0.239231
0.290148
0.343928
0.137628
0.170889
0.217054
0.130672
0.122217
0.144028
0.161167
0.131
0.223592
0.393946
0.317181
0.180959
0.507682
0.986998
1.05783
0.827622
0.635738
0.768426
0.929035
1.16809
1.11548
1.15833
1.1692
1.16808
1.14861
1.03431
0.279741
0.832888
-0.00128937
-0.00500657
-0.00700429
-0.00785821
-0.00722711
-0.00537058
-0.00245894
0.00130253
0.00649211
0.012752
0.0190213
0.0231797
0.0270813
0.0430839
0.0778051
0.0932558
0.0874671
0.0709871
0.0528323
0.0371187
0.0305693
0.0292227
0.0290446
0.0290224
0.0290167
0.0291288
0.0318625
0.0305486
0.0352951
0.033565
0.0389812
0.0371116
0.0429873
0.0409069
0.0473076
0.045232
0.0510688
0.0492589
0.0537857
0.0526208
0.055585
0.0536183
0.0743114
0.0608754
0.250772
0.205608
0.164302
0.422469
0.379682
0.373044
0.33241
0.497131
0.461458
0.46576
0.509147
0.581517
0.573112
0.66833
0.633032
0.668728
0.696015
0.7165
0.712983
0.491803
0.542558
0.590043
0.632972
0.396705
0.450113
0.505392
0.559602
0.273113
0.334522
0.395602
0.455072
0.187472
0.24427
0.311107
0.166063
0.169971
0.211874
0.248418
0.197559
0.264005
0.433513
0.379866
0.244182
0.573264
1.01015
1.07412
0.882749
0.718528
0.840704
0.970614
1.18171
1.12646
1.16838
1.18033
1.18363
1.14138
1.00131
0.073254
0.6264
-0.0016111
-0.00506594
-0.00675549
-0.00743023
-0.00656481
-0.0045625
-0.00155781
0.00261601
0.00796742
0.0139997
0.0187357
0.0214046
0.0339497
0.0657495
0.0853244
0.0832659
0.0698634
0.0540123
0.0384478
0.0288367
0.0269183
0.0267009
0.0266745
0.0265336
0.0263363
0.0260442
0.0302547
0.0287577
0.0335281
0.0318546
0.0371542
0.0352766
0.0413743
0.0391881
0.0454649
0.0434552
0.0492698
0.0474137
0.0523039
0.0509234
0.0572121
0.0529553
0.101592
0.0696741
0.291055
0.247056
0.174758
0.224345
0.452259
0.412461
0.37605
0.339891
0.594094
0.552412
0.493747
0.537698
0.711912
0.695634
0.736215
0.689358
0.77837
0.801995
0.812931
0.813031
0.612178
0.661816
0.70673
0.746119
0.510393
0.56563
0.620515
0.672472
0.379719
0.447901
0.512705
0.573289
0.278452
0.350519
0.427086
0.240264
0.257326
0.313973
0.357614
0.296058
0.348415
0.523025
0.489721
0.335597
0.674996
1.03703
1.09123
0.934251
0.804833
0.904246
1.00498
1.19447
1.14051
1.17824
1.19138
1.19159
1.13034
0.950022
0.00370854
0.301331
-0.00188025
-0.00506753
-0.00686669
-0.00721793
-0.00614017
-0.00387112
-0.000668493
0.0036035
0.00900518
0.0139246
0.0163727
0.0261658
0.0534605
0.0764995
0.0780538
0.0677327
0.0543025
0.0399529
0.0275566
0.0244617
0.0242193
0.0243072
0.0242227
0.0239123
0.0234306
0.0238775
0.0269506
0.0228086
0.0284307
0.0316209
0.029975
0.0353798
0.0334351
0.0394781
0.0374327
0.0435805
0.0415275
0.0475276
0.0455836
0.0509875
0.0492761
0.0580202
0.0522861
0.122931
0.0752371
0.302163
0.262847
0.181072
0.220781
0.447519
0.41142
0.354675
0.325196
0.637477
0.585683
0.486273
0.529409
0.801023
0.774582
0.766724
0.703882
0.863586
0.879523
0.877091
0.882673
0.721433
0.76629
0.805554
0.838353