/*--------------------------------*- C++ -*----------------------------------*\
  =========                 |
  \\      /  F ield         | OpenFOAM: The Open Source CFD Toolbox
   \\    /   O peration     | Website:  https://openfoam.org
    \\  /    A nd           | Version:  dev
     \\/     M anipulation  |
\*---------------------------------------------------------------------------*/
FoamFile
{
    version     2.0;
    format      ascii;
    class       surfaceScalarField;
    location    "2500";
    object      phi;
}
// * * * * * * * * * * * * * * * * * * * * * * * * * * * * * * * * * * * * * //

dimensions      [1 0 -1 0 0 0 0];

internalField   nonuniform List<scalar> 
19511
(
1.52767e-07
1.09239e-07
1.29338e-07
2.70578e-07
4.33056e-07
9.99415e-08
1.04176e-07
3.70847e-07
4.2566e-07
2.77981e-07
6.31413e-07
8.46491e-08
8.49755e-08
4.45675e-07
3.87209e-07
4.09313e-07
6.53246e-07
2.56167e-07
7.92645e-07
7.1608e-08
7.06267e-08
5.04596e-07
3.31107e-07
5.01809e-07
6.56994e-07
4.05573e-07
8.25375e-07
2.23538e-07
9.30813e-07
6.28989e-08
5.96036e-08
5.57885e-07
2.71636e-07
5.64124e-07
6.33041e-07
5.25769e-07
8.58462e-07
3.72525e-07
9.59752e-07
1.94625e-07
1.0566e-06
5.58017e-08
5.09973e-08
6.1066e-07
2.20648e-07
6.08904e-07
5.84386e-07
6.12775e-07
8.7545e-07
5.08771e-07
1.00456e-06
3.27735e-07
1.08012e-06
1.71146e-07
1.17154e-06
4.98685e-08
4.50453e-08
6.60667e-07
1.86923e-07
6.44416e-07
5.21344e-07
6.71944e-07
8.65826e-07
6.22385e-07
1.05046e-06
4.6286e-07
1.11841e-06
2.89486e-07
1.19071e-06
1.52004e-07
1.27576e-06
4.45103e-08
4.08973e-08
7.08149e-07
1.66381e-07
6.81246e-07
4.54344e-07
7.11447e-07
8.29291e-07
7.08495e-07
1.08167e-06
5.91204e-07
1.17111e-06
4.1015e-07
1.22383e-06
2.56401e-07
1.29254e-06
1.35257e-07
1.36927e-06
3.97831e-08
3.80702e-08
7.54567e-07
1.52445e-07
7.22121e-07
3.93516e-07
7.42101e-07
7.71538e-07
7.69232e-07
1.08842e-06
7.01719e-07
1.22859e-06
5.33724e-07
1.2706e-06
3.63394e-07
1.32097e-06
2.27998e-07
1.38461e-06
1.19941e-07
1.45436e-06
3.54848e-08
3.64352e-08
8.00304e-07
1.42898e-07
7.64172e-07
3.45932e-07
7.69732e-07
7.03645e-07
8.10039e-07
1.06861e-06
7.8908e-07
1.2759e-06
6.54395e-07
1.33107e-06
4.73252e-07
1.36122e-06
3.23197e-07
1.40965e-06
2.02992e-07
1.46759e-06
1.06722e-07
1.53102e-06
3.1524e-08
3.57496e-08
8.4707e-07
1.34635e-07
8.08603e-07
3.12705e-07
7.97485e-07
6.35952e-07
8.37427e-07
1.02519e-06
8.53433e-07
1.30219e-06
7.62766e-07
1.39866e-06
5.86774e-07
1.41454e-06
4.19919e-07
1.44575e-06
2.87111e-07
1.49118e-06
1.79426e-07
1.5438e-06
9.39681e-08
1.60002e-06
2.75975e-08
3.54493e-08
8.94935e-07
1.28514e-07
8.53268e-07
2.90523e-07
8.30792e-07
5.73516e-07
8.59853e-07
9.66232e-07
8.96376e-07
1.30228e-06
8.53362e-07
1.4608e-06
7.00636e-07
1.48136e-06
5.19904e-07
1.49298e-06
3.72735e-07
1.5242e-06
2.5415e-07
1.56558e-06
1.57687e-07
1.61192e-06
8.20961e-08
1.66122e-06
2.39577e-08
3.53589e-08
9.4291e-07
1.25122e-07
8.98351e-07
2.75118e-07
8.68703e-07
5.21577e-07
8.82612e-07
9.00503e-07
9.25556e-07
1.27743e-06
9.21221e-07
1.50639e-06
8.07757e-07
1.55728e-06
6.2476e-07
1.55274e-06
4.60194e-07
1.56735e-06
3.29569e-07
1.59625e-06
2.23477e-07
1.63218e-06
1.3748e-07
1.67232e-06
7.10209e-08
1.71543e-06
2.0445e-08
3.50738e-08
9.92201e-07
1.22273e-07
9.45806e-07
2.62905e-07
9.10557e-07
4.81998e-07
9.08182e-07
8.35475e-07
9.47753e-07
1.23482e-06
9.68171e-07
1.52945e-06
8.98159e-07
1.63296e-06
7.3214e-07
1.62608e-06
5.51381e-07
1.62159e-06
4.05987e-07
1.6363e-06
2.89577e-07
1.66143e-06
1.94259e-07
1.69168e-06
1.18164e-07
1.72604e-06
6.04451e-08
1.76255e-06
1.7292e-08
3.46588e-08
1.04264e-06
1.20273e-07
9.94289e-07
2.5286e-07
9.5573e-07
4.5448e-07
9.3796e-07
7.76246e-07
9.67367e-07
1.18122e-06
1.00135e-06
1.52835e-06
9.69284e-07
1.69857e-06
8.32506e-07
1.7098e-06
6.48386e-07
1.68742e-06
4.85531e-07
1.68611e-06
3.56191e-07
1.69926e-06
2.51757e-07
1.71917e-06
1.66814e-07
1.74383e-06
1.00416e-07
1.77239e-06
5.06442e-08
1.80375e-06
1.42623e-08
3.4421e-08
1.09333e-06
1.18973e-07
1.04391e-06
2.44797e-07
1.00232e-06
4.36174e-07
9.74103e-07
7.25359e-07
9.88921e-07
1.12262e-06
1.02596e-06
1.50652e-06
1.02316e-06
1.74682e-06
9.21027e-07
1.79791e-06
7.44321e-07
1.7666e-06
5.69197e-07
1.74674e-06
4.249e-07
1.74596e-06
3.09506e-07
1.75493e-06
2.16003e-07
1.76967e-06
1.41007e-07
1.78942e-06
8.34245e-08
1.8126e-06
4.18404e-08
1.8389e-06
1.16244e-08
3.46844e-08
1.14432e-06
1.17989e-07
1.09438e-06
2.38393e-07
1.05037e-06
4.22504e-07
1.01595e-06
6.85655e-07
1.01386e-06
1.06493e-06
1.04663e-06
1.47012e-06
1.06233e-06
1.77357e-06
9.9639e-07
1.88186e-06
8.37113e-07
1.85791e-06
6.5303e-07
1.81899e-06
4.96937e-07
1.80211e-06
3.68756e-07
1.79923e-06
2.65213e-07
1.80344e-06
1.82268e-07
1.81375e-06
1.16716e-07
1.82826e-06
6.77901e-08
1.847e-06
3.37707e-08
1.86864e-06
9.42105e-09
3.48046e-08
1.19685e-06
1.16946e-07
1.14539e-06
2.33529e-07
1.09923e-06
4.12759e-07
1.06011e-06
6.58147e-07
1.04344e-06
1.01169e-06
1.06709e-06
1.4256e-06
1.09108e-06
1.77907e-06
1.05687e-06
1.95385e-06
9.24383e-07
1.95655e-06
7.38441e-07
1.90382e-06
5.68124e-07
1.86903e-06
4.30007e-07
1.85246e-06
3.1556e-07
1.84543e-06
2.23234e-07
1.84579e-06
1.50263e-07
1.85091e-06
9.41186e-08
1.86126e-06
5.35728e-08
1.87565e-06
2.67814e-08
1.89388e-06
7.29037e-09
3.43497e-08
1.2499e-06
1.1569e-07
1.19816e-06
2.29342e-07
1.14951e-06
4.04017e-07
1.10792e-06
6.38615e-07
1.07946e-06
9.66008e-07
1.08907e-06
1.37904e-06
1.11361e-06
1.76714e-06
1.10306e-06
2.00872e-06
1.002e-06
2.05638e-06
8.2452e-07
2.00166e-06
6.40613e-07
1.94788e-06
4.89232e-07
1.91548e-06
3.66985e-07
1.89668e-06
2.64367e-07
1.88593e-06
1.83128e-07
1.88096e-06
1.20262e-07
1.88197e-06
7.34157e-08
1.88848e-06
4.07878e-08
1.90016e-06
2.05325e-08
1.91498e-06
5.46115e-09
3.37066e-08
1.30208e-06
1.14234e-07
1.25137e-06
2.2666e-07
1.20088e-06
3.95471e-07
1.15807e-06
6.26817e-07
1.11951e-06
9.31805e-07
1.11371e-06
1.33401e-06
1.13407e-06
1.74315e-06
1.13759e-06
2.0445e-06
1.06726e-06
2.15045e-06
9.07931e-07
2.1093e-06
7.1687e-07
2.03886e-06
5.49646e-07
1.98942e-06
4.15295e-07
1.95722e-06
3.06411e-07
1.93431e-06
2.16005e-07
1.91856e-06
1.45553e-07
1.90937e-06
9.29237e-08
1.90725e-06
5.47155e-08
1.91094e-06
3.00531e-08
1.92065e-06
1.49097e-08
1.934e-06
3.89214e-09
3.28978e-08
1.35374e-06
1.12642e-07
1.30367e-06
2.24682e-07
1.25332e-06
3.89864e-07
1.2064e-06
6.20825e-07
1.16396e-06
9.08209e-07
1.14318e-06
1.29271e-06
1.15494e-06
1.71315e-06
1.16405e-06
2.06226e-06
1.1198e-06
2.23277e-06
9.84895e-07
2.22264e-06
7.94588e-07
2.14249e-06
6.1325e-07
2.07469e-06
4.64379e-07
2.02739e-06
3.45127e-07
1.9916e-06
2.49126e-07
1.96422e-06
1.70394e-07
1.94444e-06
1.10535e-07
1.93228e-06
6.78892e-08
1.92681e-06
3.8911e-08
1.92904e-06
2.17094e-08
1.93795e-06
1.09904e-08
1.94965e-06
3.01759e-09
3.19024e-08
1.40458e-06
1.10752e-07
1.35564e-06
2.21676e-07
1.30668e-06
3.87305e-07
1.25584e-06
6.15334e-07
1.21176e-06
8.93425e-07
1.17865e-06
1.25748e-06
1.17832e-06
1.68114e-06
1.18689e-06
2.06522e-06
1.16105e-06
2.29935e-06
1.05323e-06
2.33573e-06
8.71803e-07
2.25781e-06
6.7913e-07
2.17202e-06
5.15861e-07
2.108e-06
3.83747e-07
2.05911e-06
2.77617e-07
2.0194e-06
1.93972e-07
1.98786e-06
1.27007e-07
1.96378e-06
7.91084e-08
1.94851e-06
4.62424e-08
1.94188e-06
2.61212e-08
1.94348e-06
1.62265e-08
1.95249e-06
8.18634e-09
1.96459e-06
2.85847e-09
3.04629e-08
1.45431e-06
1.08595e-07
1.40675e-06
2.18047e-07
1.35923e-06
3.86225e-07
1.30756e-06
6.10888e-07
1.26013e-06
8.86416e-07
1.21866e-06
1.23077e-06
1.20525e-06
1.65034e-06
1.20907e-06
2.05788e-06
1.19419e-06
2.34921e-06
1.11115e-06
2.44308e-06
9.45849e-07
2.38221e-06
7.47452e-07
2.28211e-06
5.69009e-07
2.20021e-06
4.23615e-07
2.13676e-06
3.06092e-07
2.08395e-06
2.12993e-07
2.03958e-06
1.42278e-07
2.00319e-06
8.76795e-08
1.97665e-06
5.10249e-08
1.95976e-06
2.8421e-08
1.95244e-06
1.72229e-08
1.95566e-06
1.30777e-08
1.9651e-06
7.71292e-09
1.97949e-06
3.2985e-09
2.88058e-08
1.50205e-06
1.06013e-07
1.45694e-06
2.13454e-07
1.41124e-06
3.84034e-07
1.3613e-06
6.07869e-07
1.31051e-06
8.83044e-07
1.26332e-06
1.21218e-06
1.23712e-06
1.62259e-06
1.23292e-06
2.04484e-06
1.22204e-06
2.38346e-06
1.15991e-06
2.53943e-06
1.01477e-06
2.51124e-06
8.16771e-07
2.40484e-06
6.24691e-07
2.30457e-06
4.64644e-07
2.22535e-06
3.35005e-07
2.15838e-06
2.317e-07
2.10094e-06
1.51651e-07
2.0516e-06
9.38688e-08
2.01163e-06
5.27477e-08
1.9832e-06
2.7652e-08
1.96606e-06
1.48633e-08
1.96076e-06
1.21984e-08
1.9663e-06
1.19257e-08
1.97823e-06
8.99806e-09
2.00295e-06
4.55158e-09
2.71953e-08
1.54633e-06
1.03439e-07
1.5046e-06
2.08878e-07
1.46145e-06
3.80564e-07
1.41463e-06
6.06904e-07
1.3621e-06
8.81966e-07
1.31143e-06
1.20116e-06
1.27421e-06
1.59937e-06
1.26019e-06
2.02967e-06
1.24804e-06
2.40473e-06
1.20074e-06
2.6223e-06
1.077e-06
2.6402e-06
8.85804e-07
2.53865e-06
6.82925e-07
2.42183e-06
5.074e-07
2.32571e-06
3.64262e-07
2.24396e-06
2.49401e-07
2.17285e-06
1.59776e-07
2.10989e-06
9.33803e-08
2.05506e-06
5.04791e-08
2.01359e-06
2.24e-08
1.98472e-06
9.06576e-09
1.96944e-06
6.25898e-09
1.96813e-06
1.04298e-08
1.97678e-06
1.34049e-08
1.99997e-06
1.2029e-08
2.02217e-06
6.66002e-09
2.55399e-08
1.58697e-06
9.98517e-08
1.54986e-06
2.03432e-07
1.50992e-06
3.76762e-07
1.46507e-06
6.08414e-07
1.41294e-06
8.83301e-07
1.3606e-06
1.19691e-06
1.31553e-06
1.58225e-06
1.29122e-06
2.01554e-06
1.2743e-06
2.41681e-06
1.23591e-06
2.69041e-06
1.13262e-06
2.76365e-06
9.53498e-07
2.68089e-06
7.43522e-07
2.55241e-06
5.52309e-07
2.43874e-06
3.94336e-07
2.34196e-06
2.66254e-07
2.25606e-06
1.66202e-07
2.17826e-06
9.14051e-08
2.10885e-06
3.96429e-08
2.05223e-06
1.18858e-08
2.00888e-06
-1.7021e-09
1.98176e-06
-3.17961e-09
1.97094e-06
3.50998e-09
1.97477e-06
1.25063e-08
1.9952e-06
1.82201e-08
2.01801e-06
1.62346e-08
2.04496e-06
9.44423e-09
2.35045e-08
1.62362e-06
9.44283e-08
1.59232e-06
1.97053e-07
1.55611e-06
3.73284e-07
1.51321e-06
6.10092e-07
1.46312e-06
8.86609e-07
1.40939e-06
1.19817e-06
1.35911e-06
1.57167e-06
1.32595e-06
2.00354e-06
1.30316e-06
2.42306e-06
1.268e-06
2.74465e-06
1.18162e-06
2.878e-06
1.01824e-06
2.82757e-06
8.06784e-07
2.69497e-06
6.00908e-07
2.56451e-06
4.26487e-07
2.45218e-06
2.84085e-07
2.3509e-06
1.71389e-07
2.25807e-06
8.63894e-08
2.17343e-06
2.68266e-08
2.09982e-06
-7.91557e-09
2.04019e-06
-1.93653e-08
1.9983e-06
-1.81804e-08
1.97556e-06
-7.72804e-09
1.97184e-06
6.52377e-09
1.98831e-06
1.94603e-08
2.01113e-06
2.51442e-08
2.03992e-06
2.12958e-08
2.07038e-06
1.22787e-08
2.12281e-08
1.6545e-06
8.81927e-08
1.62977e-06
1.90503e-07
1.59871e-06
3.70052e-07
1.55913e-06
6.12002e-07
1.51105e-06
8.92215e-07
1.45733e-06
1.20378e-06
1.40358e-06
1.56759e-06
1.36308e-06
1.99546e-06
1.33394e-06
2.42734e-06
1.2988e-06
2.78745e-06
1.22514e-06
2.9804e-06
1.07917e-06
2.97442e-06
8.71351e-07
2.84848e-06
6.53257e-07
2.70347e-06
4.6183e-07
2.57549e-06
3.03129e-07
2.45931e-06
1.7564e-07
2.3513e-06
7.81483e-08
2.25025e-06
9.56394e-09
2.1586e-06
-3.19275e-08
2.08081e-06
-4.84931e-08
2.02097e-06
-4.19703e-08
1.98322e-06
-2.57572e-08
1.9687e-06
-4.51647e-09
1.97869e-06
1.62118e-08
2.0009e-06
2.97435e-08
2.03129e-06
3.38095e-08
2.06565e-06
2.6034e-08
2.10123e-06
1.31675e-08
1.84845e-08
1.67916e-06
8.04598e-08
1.66212e-06
1.82698e-07
1.63741e-06
3.66654e-07
1.60187e-06
6.14385e-07
1.55645e-06
8.99115e-07
1.5039e-06
1.21211e-06
1.44873e-06
1.56908e-06
1.40193e-06
1.99154e-06
1.36689e-06
2.43134e-06
1.32986e-06
2.82137e-06
1.26481e-06
3.0699e-06
1.13562e-06
3.1169e-06
9.3664e-07
3.01002e-06
7.09745e-07
2.85563e-06
5.0108e-07
2.71238e-06
3.24884e-07
2.58169e-06
1.80713e-07
2.45862e-06
6.82762e-08
2.34104e-06
-1.26615e-08
2.23043e-06
-6.22634e-08
2.13228e-06
-8.33725e-08
2.05217e-06
-7.96273e-08
1.99542e-06
-5.40955e-08
1.96619e-06
-2.31674e-08
1.96658e-06
7.67381e-09
1.98606e-06
3.11181e-08
2.01812e-06
4.29597e-08
2.0575e-06
4.19985e-08
2.09723e-06
3.00311e-08
2.13606e-06
1.28525e-08
1.65458e-08
1.69715e-06
7.25639e-08
1.68693e-06
1.74769e-07
1.66982e-06
3.64684e-07
1.63911e-06
6.17884e-07
1.59807e-06
9.06215e-07
1.54909e-06
1.22151e-06
1.49423e-06
1.57441e-06
1.44313e-06
1.99111e-06
1.40218e-06
2.43583e-06
1.36227e-06
2.84879e-06
1.30239e-06
3.14676e-06
1.18784e-06
3.25122e-06
1.00125e-06
3.17576e-06
7.70834e-07
3.01969e-06
5.45606e-07
2.86233e-06
3.51106e-07
2.71779e-06
1.88703e-07
2.58076e-06
5.85643e-08
2.44722e-06
-3.7924e-08
2.31734e-06
-9.95751e-08
2.19725e-06
-1.27213e-07
2.09375e-06
-1.24916e-07
2.0142e-06
-9.8339e-08
1.96514e-06
-5.29688e-08
1.95161e-06
-8.11619e-09
1.96604e-06
2.7782e-08
1.9985e-06
5.08104e-08
2.04338e-06
5.7115e-08
2.09053e-06
4.87195e-08
2.13432e-06
3.174e-08
2.17058e-06
1.04135e-08
1.40613e-08
1.70692e-06
6.51292e-08
1.70442e-06
1.67476e-07
1.69397e-06
3.64094e-07
1.67008e-06
6.22867e-07
1.63378e-06
9.1522e-07
1.58878e-06
1.23294e-06
1.53738e-06
1.58299e-06
1.48539e-06
1.99418e-06
1.43993e-06
2.4412e-06
1.39663e-06
2.87133e-06
1.33966e-06
3.21181e-06
1.23729e-06
3.37451e-06
1.06446e-06
3.34163e-06
8.35316e-07
3.19349e-06
5.96989e-07
3.02525e-06
3.82537e-07
2.86808e-06
2.00708e-07
2.71835e-06
5.10773e-08
2.5697e-06
-6.39982e-08
2.42142e-06
-1.42005e-07
2.27833e-06
-1.80639e-07
2.14902e-06
-1.82445e-07
2.0426e-06
-1.53254e-07
1.96871e-06
-1.01824e-07
1.9347e-06
-3.59696e-08
1.93951e-06
1.84986e-08
1.97044e-06
5.59225e-08
2.02089e-06
7.33677e-08
2.07846e-06
6.92281e-08
2.13155e-06
5.14978e-08
2.17548e-06
2.68363e-08
2.20462e-06
5.55812e-09
1.12272e-08
1.70646e-06
5.78729e-08
1.71398e-06
1.61735e-07
1.70989e-06
3.64859e-07
1.69287e-06
6.2953e-07
1.66307e-06
9.25069e-07
1.6236e-06
1.24572e-06
1.57567e-06
1.59502e-06
1.52507e-06
2.00061e-06
1.47868e-06
2.44885e-06
1.43216e-06
2.89104e-06
1.37688e-06
3.26673e-06
1.28467e-06
3.48518e-06
1.12659e-06
3.50299e-06
9.02993e-07
3.37408e-06
6.54614e-07
3.20025e-06
4.21961e-07
3.03155e-06
2.19101e-07
2.87084e-06
4.80316e-08
2.70924e-06
-8.84832e-08
2.54426e-06
-1.86861e-07
2.37887e-06
-2.42517e-07
2.22192e-06
-2.53496e-07
2.08483e-06
-2.24602e-07
1.97984e-06
-1.6431e-07
1.91834e-06
-8.53768e-08
1.9069e-06
-3.26925e-09
1.93133e-06
5.76934e-08
1.98684e-06
9.00561e-08
2.05694e-06
9.49396e-08
2.12515e-06
7.56576e-08
2.18156e-06
4.54073e-08
2.21807e-06
1.33462e-08
2.2308e-06
1.80511e-09
-7.38366e-10
7.72214e-09
1.69529e-06
5.20682e-08
1.71208e-06
1.58233e-07
1.71718e-06
3.68343e-07
1.70602e-06
6.37919e-07
1.68409e-06
9.35313e-07
1.65246e-06
1.25823e-06
1.61074e-06
1.60786e-06
1.5625e-06
2.00999e-06
1.51542e-06
2.45961e-06
1.4678e-06
2.91085e-06
1.4122e-06
3.31402e-06
1.3295e-06
3.58263e-06
1.18713e-06
3.6568e-06
9.7276e-07
3.55801e-06
7.19075e-07
3.38552e-06
4.69267e-07
3.20783e-06
2.45615e-07
3.03785e-06
5.21078e-08
2.86596e-06
-1.08758e-07
2.68689e-06
-2.31167e-07
2.50146e-06
-3.09427e-07
2.31654e-06
-3.37107e-07
2.14546e-06
-3.1408e-07
2.00311e-06
-2.47789e-07
1.90595e-06
-1.51826e-07
1.86916e-06
-4.75361e-08
1.88106e-06
4.71006e-08
1.93719e-06
1.07427e-07
2.02039e-06
1.26674e-07
2.10829e-06
1.11845e-07
2.18422e-06
7.30086e-08
2.23985e-06
2.36023e-08
2.25441e-06
-2.28861e-09
-8.03145e-09
1.11731e-06
4.05972e-10
1.12042e-06
-3.86438e-09
3.47214e-09
1.67337e-06
4.7628e-08
1.6995e-06
1.56279e-07
1.71368e-06
3.75338e-07
1.70979e-06
6.47631e-07
1.69587e-06
9.46635e-07
1.67239e-06
1.271e-06
1.63924e-06
1.62127e-06
1.59697e-06
2.02039e-06
1.55181e-06
2.47032e-06
1.5045e-06
2.92915e-06
1.44935e-06
3.35446e-06
1.37162e-06
3.66953e-06
1.24252e-06
3.80054e-06
1.0433e-06
3.74149e-06
7.89159e-07
3.57934e-06
5.25166e-07
3.39578e-06
2.81193e-07
3.21825e-06
6.5031e-08
3.03921e-06
-1.21192e-07
2.84983e-06
-2.7171e-07
2.64804e-06
-3.77832e-07
2.43756e-06
-4.30334e-07
2.23058e-06
-4.2217e-07
2.04567e-06
-3.56543e-07
1.9045e-06
-2.4624e-07
1.82986e-06
-1.12418e-07
1.81785e-06
1.5776e-08
1.87054e-06
1.13834e-07
1.9639e-06
1.63996e-07
2.07532e-06
1.59698e-07
2.17741e-06
1.18681e-07
2.2556e-06
2.6399e-08
3.08546e-08
1.13564e-06
-1.92935e-09
1.14549e-06
-1.2078e-09
1.12708e-06
-8.96828e-09
1.13364e-06
-1.46124e-08
1.11813e-06
5.96709e-10
1.12207e-06
-7.81866e-09
-1.08178e-09
1.64016e-06
4.42326e-08
1.67645e-06
1.57271e-07
1.69813e-06
3.85138e-07
1.70344e-06
6.57637e-07
1.69934e-06
9.57454e-07
1.68463e-06
1.28321e-06
1.65977e-06
1.63478e-06
1.62538e-06
2.0318e-06
1.58528e-06
2.48162e-06
1.54025e-06
2.9469e-06
1.48658e-06
3.38908e-06
1.41457e-06
3.74343e-06
1.29762e-06
3.92979e-06
1.11317e-06
3.92144e-06
8.63293e-07
3.77829e-06
5.90114e-07
3.59382e-06
3.27075e-07
3.41166e-06
8.76571e-08
3.22817e-06
-1.2407e-07
3.03234e-06
-3.03777e-07
2.81908e-06
-4.42756e-07
2.58784e-06
-5.28217e-07
2.34686e-06
-5.46512e-07
2.11597e-06
-4.92389e-07
1.92133e-06
-3.73266e-07
1.79404e-06
-2.10304e-07
1.74542e-06
-3.98754e-08
1.78045e-06
1.05964e-07
1.884e-06
1.93816e-07
2.02089e-06
2.1849e-07
2.15645e-06
1.80703e-07
2.26459e-06
5.32287e-08
5.6491e-08
1.14564e-06
1.63842e-08
1.15124e-06
2.52466e-08
1.14689e-06
-1.52027e-08
1.15793e-06
3.92705e-09
1.1585e-06
-1.28342e-08
1.12967e-06
-1.65934e-08
1.14003e-06
-2.49947e-08
1.11875e-06
1.99066e-09
1.1222e-06
-1.12859e-08
-4.97765e-09
1.59559e-06
4.14913e-08
1.64261e-06
1.62278e-07
1.67107e-06
3.95983e-07
1.6868e-06
6.67312e-07
1.69332e-06
9.66791e-07
1.68956e-06
1.29312e-06
1.67433e-06
1.64584e-06
1.64834e-06
2.04227e-06
1.61466e-06
2.49181e-06
1.5748e-06
2.96244e-06
1.5245e-06
3.41891e-06
1.45658e-06
3.80852e-06
1.3494e-06
4.04564e-06
1.18173e-06
4.09131e-06
9.43228e-07
3.97772e-06
6.63743e-07
3.79976e-06
3.84014e-07
3.61551e-06
1.2315e-07
3.431e-06
-1.15354e-07
3.23374e-06
-3.25646e-07
3.01479e-06
-4.9958e-07
2.7688e-06
-6.23715e-07
2.49977e-06
-6.81143e-07
2.22244e-06
-6.52895e-07
1.96755e-06
-5.38489e-07
1.77262e-06
-3.51714e-07
1.66603e-06
-1.30783e-07
1.6658e-06
7.48904e-08
1.76602e-06
2.24025e-07
1.92513e-06
2.89634e-07
2.11336e-06
2.61623e-07
2.26394e-06
8.63449e-08
9.50306e-08
1.16312e-06
4.13439e-08
1.16588e-06
5.37416e-08
1.17034e-06
1.28263e-08
1.15389e-06
-2.90901e-08
1.17366e-06
-1.12468e-08
1.17017e-06
-2.91272e-08
1.13132e-06
-2.57431e-08
1.14405e-06
-3.77514e-08
1.11544e-06
1.35215e-09
1.11976e-06
-1.56259e-08
-7.36314e-09
1.5393e-06
3.96291e-08
1.59714e-06
1.71169e-07
1.63329e-06
4.07608e-07
1.659e-06
6.77022e-07
1.67667e-06
9.74207e-07
1.68546e-06
1.30017e-06
1.68211e-06
1.65378e-06
1.66598e-06
2.04981e-06
1.64044e-06
2.49914e-06
1.60699e-06
2.97465e-06
1.56237e-06
3.44232e-06
1.50092e-06
3.86083e-06
1.40413e-06
4.14748e-06
1.24745e-06
4.2504e-06
1.02251e-06
4.17565e-06
7.45178e-07
4.00973e-06
4.53606e-07
3.82546e-06
1.74015e-07
3.64373e-06
-8.95429e-08
3.44958e-06
-3.31423e-07
3.23262e-06
-5.4358e-07
2.9811e-06
-7.11995e-07
2.69405e-06
-8.17995e-07
2.3762e-06
-8.34808e-07
2.05688e-06
-7.42106e-07
1.78069e-06
-5.46406e-07
1.59399e-06
-2.79529e-07
1.53509e-06
4.4048e-11
1.61413e-06
2.26868e-07
1.77973e-06
3.69477e-07
2.00907e-06
3.9396e-07
2.2361e-06
1.37522e-07
1.51969e-07
1.17808e-06
7.41458e-08
1.17659e-06
9.65301e-08
1.18309e-06
2.85964e-08
1.19482e-06
4.20102e-08
1.18971e-06
-3.22821e-09
1.16063e-06
-4.5695e-08
1.18849e-06
-2.95846e-08
1.18065e-06
-4.9169e-08
1.1299e-06
-3.59189e-08
1.14499e-06
-5.28717e-08
1.1097e-06
-1.94287e-09
1.11409e-06
-2.00479e-08
-7.89003e-09
1.47048e-06
4.11505e-08
1.53744e-06
1.84388e-07
1.5834e-06
4.20406e-07
1.62001e-06
6.85587e-07
1.64996e-06
9.78955e-07
1.6714e-06
1.30365e-06
1.6815e-06
1.65803e-06
1.67742e-06
2.05386e-06
1.66154e-06
2.50314e-06
1.63607e-06
2.98302e-06
1.59833e-06
3.4599e-06
1.54458e-06
3.90131e-06
1.4603e-06
4.2331e-06
1.31839e-06
4.39058e-06
1.10717e-06
4.36608e-06
8.31951e-07
4.22454e-06
5.30233e-07
4.04325e-06
2.35694e-07
3.86372e-06
-4.62936e-08
3.67436e-06
-3.14225e-07
3.46452e-06
-5.63604e-07
3.21748e-06
-7.80087e-07
2.92713e-06
-9.45157e-07
2.58547e-06
-1.0272e-06
2.21397e-06
-9.91694e-07
1.85186e-06
-8.13014e-07
1.58013e-06
-5.32278e-07
1.44767e-06
-1.91958e-07
1.47508e-06
1.39109e-07
1.6407e-06
3.65834e-07
1.87769e-06
5.00784e-07
2.18399e-06
2.13072e-07
2.32964e-07
1.18631e-06
1.27807e-07
1.17614e-06
1.6214e-07
1.20646e-06
6.24983e-08
1.2156e-06
8.73925e-08
1.20639e-06
1.19084e-08
1.22261e-06
2.57787e-08
1.20848e-06
-2.32321e-08
1.16492e-06
-6.56538e-08
1.20256e-06
-5.15089e-08
1.18975e-06
-7.40184e-08
1.12494e-06
-4.67966e-08
1.14216e-06
-7.01294e-08
1.09516e-06
-5.79546e-09
1.10317e-06
-2.80879e-08
-6.52134e-09
1.38943e-06
4.65097e-08
1.46489e-06
1.99741e-07
1.52153e-06
4.32935e-07
1.57038e-06
6.91477e-07
1.61365e-06
9.80516e-07
1.64794e-06
1.3029e-06
1.67179e-06
1.65779e-06
1.68134e-06
2.05357e-06
1.6773e-06
2.50304e-06
1.66125e-06
2.98701e-06
1.63175e-06
3.47189e-06
1.5861e-06
3.93212e-06
1.51358e-06
4.30306e-06
1.39019e-06
4.51278e-06
1.19607e-06
4.54105e-06
9.32068e-07
4.43126e-06
6.2507e-07
4.26298e-06
3.10329e-07
4.09213e-06
7.37251e-09
3.90958e-06
-2.81659e-07
3.70865e-06
-5.58254e-07
3.469e-06
-8.15246e-07
3.18608e-06
-1.03925e-06
2.84329e-06
-1.20294e-06
2.45332e-06
-1.26618e-06
2.0468e-06
-1.18587e-06
1.7085e-06
-9.40468e-07
1.52317e-06
-6.07179e-07
1.49027e-06
-2.07348e-07
1.60914e-06
1.69796e-07
1.83869e-06
4.03811e-07
2.16005e-06
2.67581e-07
2.56531e-07
1.17824e-06
2.10959e-07
1.16481e-06
2.4634e-07
1.22403e-06
1.19369e-07
1.22606e-06
1.6009e-07
1.2388e-06
4.63049e-08
1.25404e-06
7.21415e-08
1.22992e-06
-9.53884e-09
1.25148e-06
4.20871e-09
1.22746e-06
-4.81533e-08
1.16514e-06
-8.86624e-08
1.21552e-06
-7.73003e-08
1.19303e-06
-1.01935e-07
1.11561e-06
-5.9266e-08
1.13538e-06
-8.99419e-08
1.07693e-06
-1.00324e-08
1.0884e-06
-3.95894e-08
-2.54332e-09
1.29754e-06
5.41019e-08
1.38141e-06
2.16211e-07
1.44772e-06
4.43729e-07
1.51027e-06
6.94742e-07
1.56668e-06
9.78792e-07
1.6149e-06
1.29786e-06
1.65256e-06
1.65181e-06
1.67734e-06
2.04785e-06
1.68663e-06
2.49763e-06
1.6823e-06
2.98524e-06
1.66267e-06
3.47792e-06
1.62543e-06
3.9539e-06
1.5641e-06
4.35816e-06
1.45832e-06
4.6188e-06
1.28403e-06
4.70061e-06
1.03638e-06
4.62891e-06
7.34253e-07
4.47763e-06
4.10227e-07
4.31412e-06
8.81457e-08
4.14629e-06
-2.29666e-07
3.96505e-06
-5.38184e-07
3.73659e-06
-8.25816e-07
3.46639e-06
-1.09566e-06
3.13802e-06
-1.33397e-06
2.7606e-06
-1.50942e-06
2.37701e-06
-1.59429e-06
2.08152e-06
-1.55536e-06
1.93996e-06
-1.35406e-06
1.92266e-06
-1.03857e-06
1.96781e-06
-5.68687e-07
2.08076e-06
-7.74961e-08
2.29166e-06
2.09336e-07
5.7482e-08
1.17298e-06
2.59234e-07
1.19445e-06
2.34395e-07
1.2282e-06
2.08774e-07
1.2368e-06
2.37602e-07
1.26734e-06
1.0606e-07
1.27607e-06
1.51312e-07
1.27395e-06
2.38297e-08
1.29534e-06
5.07305e-08
1.25479e-06
-3.68768e-08
1.28278e-06
-2.37887e-08
1.24576e-06
-7.84113e-08
1.16147e-06
-1.14779e-07
1.22477e-06
-1.09065e-07
1.19343e-06
-1.33926e-07
1.10206e-06
-7.29681e-08
1.12366e-06
-1.11576e-07
1.05237e-06
-1.34015e-08
1.06381e-06
-5.10689e-08
2.65749e-09
1.19958e-06
6.21896e-08
1.28904e-06
2.33776e-07
1.36348e-06
4.51797e-07
1.43925e-06
6.95322e-07
1.50927e-06
9.73465e-07
1.57163e-06
1.28826e-06
1.6241e-06
1.64031e-06
1.66365e-06
2.03637e-06
1.68839e-06
2.48619e-06
1.69765e-06
2.97683e-06
1.69034e-06
3.47669e-06
1.66359e-06
3.96569e-06
1.61341e-06
4.39809e-06
1.52399e-06
4.70582e-06
1.37116e-06
4.8433e-06
1.14119e-06
4.81698e-06
8.48138e-07
4.68898e-06
5.22699e-07
4.5335e-06
1.90592e-07
4.37636e-06
-1.41902e-07
4.21173e-06
-4.76632e-07
4.01407e-06
-8.15715e-07
3.76826e-06
-1.12758e-06
3.46627e-06
-1.42382e-06
3.11892e-06
-1.69105e-06
2.81106e-06
-1.93913e-06
2.6555e-06
-2.15999e-06
2.70144e-06
-2.30701e-06
2.81798e-06
-2.24408e-06
2.84309e-06
-1.91593e-06
2.84098e-06
-1.34116e-06
2.93406e-06
-2.23143e-07
-5.1373e-07
1.2689e-06
1.328e-07
1.4297e-06
-1.08328e-07
1.26386e-06
2.31674e-07
1.3349e-06
1.61616e-07
1.29133e-06
1.93382e-07
1.32565e-06
2.02888e-07
1.31339e-06
8.79691e-08
1.33388e-06
1.30707e-07
1.31151e-06
-4.92449e-09
1.33821e-06
2.39899e-08
1.28042e-06
-7.15459e-08
1.31451e-06
-5.79082e-08
1.26088e-06
-1.14542e-07
1.15318e-06
-1.44333e-07
1.23117e-06
-1.46824e-07
1.18995e-06
-1.70721e-07
1.08122e-06
-9.04083e-08
1.10586e-06
-1.36258e-07
1.02302e-06
-1.63508e-08
1.03509e-06
-6.31798e-08
7.3127e-09
1.09927e-06
7.18405e-08
1.18964e-06
2.49471e-07
1.27294e-06
4.55844e-07
1.35896e-06
6.92818e-07
1.4414e-06
9.64639e-07
1.51774e-06
1.27432e-06
1.58519e-06
1.62328e-06
1.64073e-06
2.01816e-06
1.68144e-06
2.46795e-06
1.7062e-06
2.96105e-06
1.71303e-06
3.46728e-06
1.69941e-06
3.96776e-06
1.66124e-06
4.4237e-06
1.58759e-06
4.77291e-06
1.45672e-06
4.96547e-06
1.24883e-06
4.99085e-06
9.67161e-07
4.8954e-06
6.41518e-07
4.75268e-06
3.03282e-07
4.60469e-06
-3.78552e-08
4.45336e-06
-3.83791e-07
4.28226e-06
-7.451e-07
4.07162e-06
-1.1189e-06
3.81788e-06
-1.47886e-06
3.51432e-06
-1.81739e-06
3.30615e-06
-2.17971e-06
3.34008e-06
-2.61022e-06
3.58628e-06
-3.02876e-06
3.73245e-06
-3.21236e-06
3.71065e-06
-3.1101e-06
3.66275e-06
-2.74597e-06
3.72989e-06
-9.51741e-07
-1.20873e-06
1.62512e-06
-4.24601e-07
1.86836e-06
-7.64032e-07
1.49396e-06
-3.09794e-08
1.70735e-06
-3.28061e-07
1.40101e-06
1.54964e-07
1.56217e-06
-3.38924e-09
1.37576e-06
1.51172e-07
1.46109e-06
1.16439e-07
1.36587e-06
6.02007e-08
1.41458e-06
8.16842e-08
1.34905e-06
-3.94958e-08
1.38528e-06
-1.23585e-08
1.30198e-06
-1.12666e-07
1.34371e-06
-9.96817e-08
1.27413e-06
-1.57533e-07
1.13926e-06
-1.77764e-07
1.23404e-06
-1.90941e-07
1.18098e-06
-2.12472e-07
1.05504e-06
-1.10396e-07
1.08199e-06
-1.63245e-07
9.89108e-07
-1.95616e-08
1.00173e-06
-7.58414e-08
1.15841e-08
9.96581e-07
8.40515e-08
1.08677e-06
2.60408e-07
1.17817e-06
4.57507e-07
1.27098e-06
6.87757e-07
1.36373e-06
9.53092e-07
1.45263e-06
1.25642e-06
1.53529e-06
1.60098e-06
1.6071e-06
1.99371e-06
1.66477e-06
2.44253e-06
1.70643e-06
2.93703e-06
1.72981e-06
3.44853e-06
1.73141e-06
3.95927e-06
1.70761e-06
4.43474e-06
1.64996e-06
4.81953e-06
1.54078e-06
5.06465e-06
1.35738e-06
5.1468e-06
1.0927e-06
5.09119e-06
7.71165e-07
4.96795e-06
4.26004e-07
4.83202e-06
7.56179e-08
4.69403e-06
-2.78745e-07
4.54447e-06
-6.46314e-07
4.36645e-06
-1.03997e-06
4.15124e-06
-1.45178e-06
3.91811e-06
-1.88029e-06
3.81809e-06
-2.32081e-06
4.05594e-06
-2.87835e-06
4.4628e-06
-3.4676e-06
4.47473e-06
-3.75881e-06
4.20531e-06
-3.70077e-06
4.06499e-06
-3.51019e-06
4.18207e-06
-1.56542e-06
-1.64319e-06
2.0124e-06
-1.103e-06
2.19046e-06
-1.39293e-06
1.92491e-06
-6.49633e-07
2.11965e-06
-9.66835e-07
1.78856e-06
-2.6375e-07
2.01254e-06
-5.59649e-07
1.62944e-06
-1.6489e-08
1.8659e-06
-2.45995e-07
1.51441e-06
5.03309e-08
1.69759e-06
-6.95022e-08
1.44416e-06
9.97936e-10
1.56063e-06
-3.58129e-08
1.38922e-06
-8.51179e-08
1.46161e-06
-8.51013e-08
1.32134e-06
-1.59915e-07
1.37601e-06
-1.54475e-07
1.28305e-06
-2.06592e-07
1.11827e-06
-2.14078e-07
1.23115e-06
-2.41155e-07
1.16312e-06
-2.57363e-07
1.02298e-06
-1.31689e-07
1.05102e-06
-1.91317e-07
9.49099e-07
-2.23318e-08
9.59605e-07
-8.63889e-08
1.57122e-08
8.94167e-07
9.60626e-08
9.84212e-07
2.68069e-07
1.07862e-06
4.58435e-07
1.17707e-06
6.8095e-07
1.27752e-06
9.39374e-07
1.37718e-06
1.23534e-06
1.47339e-06
1.57407e-06
1.56185e-06
1.96278e-06
1.63763e-06
2.40945e-06
1.69743e-06
2.90405e-06
1.739e-06
3.41946e-06
1.7585e-06
3.93913e-06
1.75123e-06
4.43072e-06
1.71137e-06
4.84614e-06
1.62314e-06
5.14018e-06
1.46506e-06
5.28015e-06
1.22385e-06
5.27225e-06
9.11429e-07
5.17676e-06
5.62103e-07
5.0551e-06
2.02615e-07
4.93055e-06
-1.6081e-07
4.79966e-06
-5.34231e-07
4.64966e-06
-9.29887e-07
4.46991e-06
-1.35831e-06
4.29064e-06
-1.82186e-06
4.29236e-06
-2.34459e-06
4.74103e-06
-2.98413e-06
5.28529e-06
-3.68092e-06
5.14424e-06
-4.12651e-06
4.58849e-06
-4.13105e-06
4.16716e-06
-3.79419e-06
4.20148e-06
-3.52279e-06
2.22863e-06
-1.60765e-06
2.26993e-06
-1.68522e-06
2.26984e-06
-1.26098e-06
2.37205e-06
-1.50116e-06
2.21422e-06
-8.59848e-07
2.37645e-06
-1.13782e-06
2.10745e-06
-5.12851e-07
2.32421e-06
-7.84996e-07
1.94726e-06
-2.71912e-07
2.20478e-06
-5.10867e-07
1.76711e-06
-1.58798e-07
2.03439e-06
-3.4223e-07
1.60327e-06
-1.41745e-07
1.83725e-06
-2.72514e-07
1.46397e-06
-1.73472e-07
1.63515e-06
-2.57453e-07
1.34394e-06
-2.20927e-07
1.44826e-06
-2.59214e-07
1.29414e-06
-2.69696e-07
1.08757e-06
-2.5066e-07
1.22641e-06
-3.0455e-07
1.14265e-06
-3.12524e-07
9.80478e-07
-1.52603e-07
1.008e-06
-2.18878e-07
9.0442e-07
-2.38993e-08
9.1238e-07
-9.43926e-08
1.90695e-08
7.94816e-07
1.0608e-07
8.83829e-07
2.73927e-07
9.78056e-07
4.58406e-07
1.07852e-06
6.7374e-07
1.18409e-06
9.24785e-07
1.29188e-06
1.21242e-06
1.39983e-06
1.54317e-06
1.50396e-06
1.92618e-06
1.59807e-06
2.36892e-06
1.67773e-06
2.86162e-06
1.73943e-06
3.37938e-06
1.77867e-06
3.90658e-06
1.7907e-06
4.41108e-06
1.77058e-06
4.85263e-06
1.70464e-06
5.19022e-06
1.57293e-06
5.38655e-06
1.35847e-06
5.43363e-06
1.06226e-06
5.37481e-06
7.13121e-07
5.27225e-06
3.4465e-07
5.16157e-06
-2.87385e-08
5.04529e-06
-4.06703e-07
4.91701e-06
-8.01926e-07
4.77203e-06
-1.23196e-06
4.63609e-06
-1.70146e-06
4.70619e-06
-2.22566e-06
5.3163e-06
-2.89592e-06
5.99829e-06
-3.6839e-06
5.79757e-06
-4.3277e-06
5.00467e-06
-4.53255e-06
4.11197e-06
-4.06143e-06
3.94301e-06
-3.51865e-06
-2.355e-06
4.3491e-06
-1.64587e-06
-1.58833e-06
2.389e-06
-1.62734e-06
-1.65071e-06
2.48467e-06
-1.37695e-06
2.53472e-06
-1.55636e-06
2.50125e-06
-1.04602e-06
2.62413e-06
-1.26939e-06
2.44069e-06
-7.57198e-07
2.63561e-06
-9.88987e-07
2.30722e-06
-5.51777e-07
2.5607e-06
-7.72506e-07
2.12567e-06
-4.52472e-07
2.41467e-06
-6.37877e-07
1.90083e-06
-4.10514e-07
2.21353e-06
-5.90181e-07
1.6513e-06
-3.77782e-07
1.94924e-06
-5.58576e-07
1.40931e-06
-3.3653e-07
1.64043e-06
-4.91636e-07
1.34596e-06
-3.89633e-07
1.05032e-06
-2.93024e-07
1.25568e-06
-4.17883e-07
1.14522e-06
-4.07622e-07
9.29775e-07
-1.70037e-07
9.56339e-07
-2.45473e-07
8.56997e-07
-2.29195e-08
8.59298e-07
-9.67393e-08
2.04217e-08
6.9965e-07
1.12715e-07
7.87941e-07
2.78441e-07
8.79131e-07
4.59153e-07
9.77162e-07
6.67568e-07
1.08456e-06
9.11087e-07
1.19761e-06
1.18933e-06
1.31474e-06
1.5101e-06
1.43261e-06
1.88492e-06
1.54485e-06
2.32122e-06
1.64537e-06
2.80977e-06
1.72915e-06
3.32769e-06
1.79071e-06
3.85983e-06
1.82506e-06
4.37424e-06
1.82722e-06
4.83815e-06
1.78479e-06
5.21342e-06
1.68122e-06
5.46312e-06
1.49617e-06
5.57003e-06
1.22185e-06
5.55673e-06
8.8007e-07
5.4809e-06
5.04174e-07
5.38705e-06
1.18772e-07
5.28383e-06
-2.67259e-07
5.17039e-06
-6.60399e-07
5.05254e-06
-1.08251e-06
4.9547e-06
-1.54873e-06
5.06572e-06
-2.05123e-06
5.7866e-06
-2.67208e-06