/*--------------------------------*- C++ -*----------------------------------*\
  =========                 |
  \\      /  F ield         | OpenFOAM: The Open Source CFD Toolbox
   \\    /   O peration     | Website:  https://openfoam.org
    \\  /    A nd           | Version:  dev
     \\/     M anipulation  |
\*---------------------------------------------------------------------------*/
FoamFile
{
    version     2.0;
    format      ascii;
    class       volScalarField;
    location    "2500";
    object      qr;
}
// * * * * * * * * * * * * * * * * * * * * * * * * * * * * * * * * * * * * * //

dimensions      [1 0 -3 0 0 0 0];

internalField   uniform 0;

boundaryField
{
    lowerOutlet
    {
        type            calculated;
        value           nonuniform List<scalar> 
144
(
1079.51
1083.1
1087.07
1091.42
1096.15
1101.28
1106.81
1112.75
1119.13
1125.96
1133.25
1141.04
1149.34
1158.19
1167.61
1177.66
1188.36
1199.78
1211.97
1224.99
1238.92
1253.84
1269.84
1287.05
1305.61
1325.7
1347.47
1371.11
1396.88
1425.07
1456.09
1490.35
1528.44
1560.81
1607.68
1661.28
1723.21
1795.73
1882.34
1988.19
2121.65
2295.27
2525.61
2797.22
3622.21
4694.32
6116.28
7042.56
-8797.86
3500.24
2892.79
2532.21
2285.1
2083.28
1948.46
1842.18
1755.81
1684.49
1624.36
1572.79
1527.94
1488.47
1453.48
1414.39
1386.91
1361.91
1339.03
1318.02
1298.64
1280.67
1263.96
1248.4
1233.87
1220.28
1207.51
1195.51
1184.19
1173.53
1163.45
1153.94
1144.94
1136.43
1128.39
1120.78
1113.59
1106.79
1100.37
1094.32
1088.62
1083.27
1078.24
1073.54
1069.16
1065.09
1061.32
1057.86
1932.44
2050.75
2202.56
2402.13
2668.76
3437.35
4116.32
5655.01
6847.17
6068.37
3740.31
3011.62
2608.8
2339.43
2164.14
2011.56
1892.42
1796.85
1718.53
1653.21
1757.96
1837
3793.16
5149.4
6423.44
7229.37
4315.54
3307.99
2787.68
2462.39
2234.88
1597.63
1549.62
3037.57
3859.17
5417.88
6642
7397.4
4020.89
3148.15
2693.51
2398.35
1583.49
1633.55
1691.09
1507.59
1470.46
1437.43
)
;
    }
    top
    {
        type            calculated;
        value           nonuniform List<scalar> 
100
(
984.71
983.959
985.271
986.589
988.262
989.77
990.885
991.976
992.737
993.156
993.457
993.36
991.372
984.291
969.312
947.781
924.151
903.731
894.697
893.809
896.814
905.193
917.24
929.921
942.765
955.53
968.525
981.852
991.867
993.261
979.341
954.213
931.666
917.229
911.821
916.657
933.716
964.384
1010.04
1051.73
1065.65
1068.73
1070.15
1071.16
1071.97
1072.62
1073.14
1073.54
1073.84
1073.91
1073.88
1073.78
1073.58
1073.28
1072.89
1072.42
1071.86
1071.22
1070.49
1069.69
1068.78
1067.78
1066.65
1065.41
1064.04
1062.54
1060.88
1059.08
1057.15
1055.12
1052.96
1050.73
1048.47
1046.41
1044.6
1043.42
1055.1
1052.47
1049.79
1047.06
1044.29
1041.48
1038.64
1035.77
1032.87
1029.94
1027
1024.05
1021.08
1018.1
1015.11
1012.12
1009.12
1003.04
998.814
994.78
991.384
988.703
986.939
986.369
)
;
    }
    sides
    {
        type            calculated;
        value           nonuniform List<scalar> 
100
(
1079.51
1082.39
1084.9
1087.05
1088.85
1090.29
1091.4
1092.17
1092.62
1092.76
1092.6
1092.15
1091.42
1090.44
1089.21
1087.75
1086.08
1084.2
1082.14
1079.91
1077.53
1075
1072.34
1069.56
1066.67
1063.7
1060.64
1057.5
1054.3
1051.05
1047.75
1044.4
1041.02
1037.61
1034.19
1030.76
1027.31
1023.87
1020.44
1017.01
1013.61
1010.23
1006.87
1003.56
1000.28
997.056
993.879
990.758
987.694
984.727
1057.87
1060.75
1063.33
1065.63
1067.63
1069.36
1070.8
1071.97
1072.87
1073.51
1073.89
1074.03
1073.94
1073.62
1073.08
1072.34
1071.4
1070.27
1068.97
1067.51
1065.9
1064.14
1062.25
1060.23
1058.1
1055.87
1053.54
1051.13
1048.64
1046.07
1043.44
1040.75
1038.01
1035.23
1032.41
1029.55
1026.67
1023.77
1020.84
1017.9
1014.95
1011.99
1009.03
1006.06
1003.09
1000.12
997.15
994.185
991.223
988.303
)
;
    }
    front
    {
        type            empty;
    }
    back
    {
        type            empty;
    }
    roller
    {
        type            calculated;
        value           nonuniform List<scalar> 
144
(
5757.79
4469.36
3122
1665.61
1375.21
1291.09
1247.34
1205.59
1220.02
8726.96
8746.35
6480.43
7233.17
3323.3
2858.51
2217.18
2122.25
1700.94
1508.58
1307.55
1256.64
1293.44
1220.91
1232.94
6022.16
6405.25
5161.63
2620.65
2472.13
2015.3
2425.94
2326.11
1642.14
1445.98
1364.15
1202.49
8403.36
7055.1
4899.75
5628.6
6819.74
4177.34
4090.04
3828.82
3561.38
2882.27
2263.32
1816.88
1769.31
1738.72
1536
1416.2
1388.25
1349.96
1338.89
1217.14
1212.61
1229.31
7697.74
9114.64
8146.33
2184.84
2117.39
1564.34
1489.71
1429.04
1411.57
1480.79
1197.37
1198
1206.03
9685.71
9651.88
3777.19
2581.58
2015.95
1961.68
1584.75
1920.96
1799.07
1507.13
1759.81
1649.15
1442.88
1615.16
1572.39
1386.07
1361.56
1303.25
1265.96
1257.33
1208.3
1216.81
1224.72
1198.41
1197.1
1203.45
8053.53
7625.7
4620.34
1885.03
2072.91
1544.49
1473.15
1329.16
1319.84
1277.75
1284.02
1240.56
1245.47
1238.33
1196.79
1199.38
1208.89
1212.88
9438.97
9608.46
9499.43
9234.58
5268.6
3453.72
3161.72
2332.65
2720.52
1944.68
1612.79
1879.93
1839.08
1525.36
1721.59
1684.63
1457.55
1396.87
1342.07
1323.55
1311.42
1266.57
1274.87
1234.52
1226.77
1251.09
1199.93
1196.69
1201.21
)
;
    }
    burner
    {
        type            calculated;
        value           nonuniform List<scalar> 
16
(
-124697
-118919
-115911
-117000
-120191
-116342
-116206
-123540
-123326
-117856
-115721
-118311
-121685
-116994
-115804
-120346
)
;
    }
}


// ************************************************************************* //
