/*--------------------------------*- C++ -*----------------------------------*\
  =========                 |
  \\      /  F ield         | OpenFOAM: The Open Source CFD Toolbox
   \\    /   O peration     | Website:  https://openfoam.org
    \\  /    A nd           | Version:  dev
     \\/     M anipulation  |
\*---------------------------------------------------------------------------*/
FoamFile
{
    version     2.0;
    format      ascii;
    class       volScalarField;
    location    "2500";
    object      rAU;
}
// * * * * * * * * * * * * * * * * * * * * * * * * * * * * * * * * * * * * * //

dimensions      [-1 3 1 0 0 0 0];

internalField   nonuniform List<scalar> 
9840
(
0.00821898
0.00828586
0.00824106
0.00827342
0.00839402
0.00817955
0.00824289
0.00838793
0.00839782
0.00812714
0.00822141
0.00838383
0.00838159
0.00841103
0.00807845
0.00820694
0.00839099
0.00837409
0.00839182
0.00842118
0.00803403
0.00819224
0.00840311
0.00837485
0.00837658
0.00840764
0.00842655
0.00799377
0.00817652
0.00841537
0.00838089
0.00836783
0.00839129
0.00841891
0.00842922
0.0079574
0.00815865
0.00842456
0.00839228
0.00836403
0.00837638
0.00840758
0.00842489
0.00843104
0.00792466
0.00814048
0.0084281
0.00840507
0.00836604
0.00836526
0.00839386
0.00841879
0.00842827
0.00843233
0.00789504
0.00812414
0.00842973
0.00841484
0.00837285
0.00835872
0.00837864
0.00841026
0.00842463
0.00843051
0.00843314
0.00786838
0.00810873
0.00843182
0.00842229
0.00838531
0.0083562
0.00836599
0.00839787
0.00842022
0.00842796
0.00843214
0.00843369
0.00784453
0.00809154
0.00843402
0.0084274
0.00839964
0.00835895
0.00835696
0.0083835
0.00841336
0.00842568
0.00843047
0.00843354
0.00843414
0.00782339
0.00807447
0.00843466
0.00843011
0.00841051
0.00836682
0.00835153
0.008369
0.00840287
0.00842229
0.00842875
0.0084323
0.00843453
0.00843437
0.00780478
0.00805704
0.00843481
0.00843216
0.00841888
0.00837926
0.00834934
0.00835797
0.00838952
0.00841681
0.00842719
0.00843119
0.00843383
0.00843528
0.00843458
0.00778843
0.00803912
0.00843472
0.00843295
0.00842395
0.00839412
0.00835271
0.00834979
0.00837497
0.00840817
0.00842464
0.00843009
0.00843309
0.00843507
0.0084358
0.0084348
0.0077742
0.00802111
0.00843504
0.00843387
0.00842784
0.0084061
0.00836019
0.00834485
0.00836112
0.0083964
0.00842048
0.00842878
0.00843229
0.00843462
0.00843593
0.00843622
0.00843497
0.00776188
0.00800291
0.00843542
0.00843442
0.0084301
0.00841404
0.00837277
0.00834318
0.0083509
0.00838205
0.00841344
0.00842717
0.00843137
0.00843393
0.00843587
0.00843665
0.00843659
0.0084351
0.00775141
0.00798464
0.00843568
0.00843494
0.00843141
0.00842018
0.00838673
0.00834587
0.00834361
0.00836738
0.0084029
0.0084239
0.00843063
0.00843334
0.00843527
0.00843684
0.0084372
0.00843705
0.00843509
0.00774259
0.00796638
0.00843569
0.00843494
0.00843267
0.008424
0.00839909
0.00835266
0.00833938
0.00835443
0.00838962
0.00841775
0.00842957
0.00843308
0.00843478
0.00843655
0.00843753
0.00843761
0.00843738
0.00843515
0.00773518
0.00794839
0.00843605
0.00843517
0.00843366
0.00842669
0.00840775
0.00836394
0.0083371
0.00834509
0.0083756
0.00840863
0.00842667
0.00843276
0.00843496
0.0084361
0.00843753
0.00843805
0.00843804
0.00843754
0.00843506
0.00772848
0.00793062
0.00843636
0.00843583
0.00843417
0.00842915
0.00841466
0.00837719
0.0083389
0.00833807
0.00836196
0.00839774
0.00842136
0.00843123
0.00843504
0.00843622
0.0084371
0.00843823
0.00843856
0.00843842
0.00843758
0.00843506
0.00772279
0.00791342
0.00843666
0.00843614
0.0084347
0.00843075
0.00841956
0.00839003
0.00834408
0.00833409
0.00834958
0.0083849
0.00841446
0.00842861
0.00843409
0.00843668
0.00843736
0.0084381
0.00843888
0.00843896
0.0084387
0.00843765
0.008435
0.00762238
0.0078968
0.00843678
0.00843664
0.00843538
0.00843176
0.00842314
0.00840034
0.00835304
0.00833122
0.00834057
0.00837157
0.00840513
0.00842487
0.0084324
0.00843603
0.00843803
0.00843843
0.00843869
0.00843927
0.00843934
0.00843885
0.00838914
0.00832319
0.00757418
0.00788079
0.00843687
0.00843692
0.00843581
0.00843261
0.00842583
0.00840771
0.00836483
0.00833135
0.00833361
0.00835835
0.00839441
0.00841938
0.00843047
0.00843483
0.0084374
0.00843905
0.00843925
0.00843932
0.00843964
0.00843959
0.00839027
0.00829235
0.00827261
0.00757996
0.00786613
0.00843706
0.00843718
0.0084362
0.00843323
0.00842763
0.00841341
0.0083775
0.00833446
0.00832903
0.0083465
0.00838199
0.00841231
0.00842757
0.00843362
0.0084364
0.00843849
0.00843993
0.00843988
0.00843975
0.00843992
0.00843974
0.00829342
0.00826435
0.00828565
0.00760037
0.0078527
0.00843732
0.00843752
0.0084366
0.00843405
0.00842914
0.00841778
0.00838911
0.00834059
0.00832548
0.00833694
0.0083693
0.00840295
0.00842368
0.00843202
0.00843561
0.00843756
0.00843946
0.0084406
0.00844054
0.00844014
0.00843985
0.00843988
0.00819395
0.00826365
0.00831718
0.00762388
0.00784088
0.00843742
0.00843786
0.00843707
0.0084348
0.00843034
0.0084211
0.0083982
0.00835002
0.00832344
0.00832966
0.00835648
0.00839236
0.00841789
0.00842984
0.00843449
0.00843683
0.00843828
0.00844013
0.00844129
0.008441
0.00844038
0.008439
0.00836538
0.00814155
0.00843804
0.00835495
0.00765111
0.00783009
0.00843767
0.00843819
0.0084374
0.00843535
0.00843139
0.0084236
0.00840484
0.00836095
0.00832471
0.00832376
0.00834493
0.00838069
0.00841064
0.00842658
0.0084331
0.00843586
0.00843748
0.00843896
0.00844071
0.0084419
0.00844139
0.0084405
0.0084394
0.00830958
0.0083749
0.00843819
0.00839858
0.00766484
0.00781918
0.00843695
0.00843855
0.00843773
0.00843586
0.00843236
0.00842563
0.00840996
0.00837237
0.00832808
0.00832027
0.00833448
0.00836881
0.00840184
0.00842238
0.00843112
0.00843486
0.00843671
0.00843804
0.00843936
0.00844113
0.0084423
0.00844156
0.00844052
0.00843834
0.0083758
0.00843885
0.00843831
0.00842747
0.00764836
0.00780645
0.00843326
0.00843895
0.00843815
0.00843652
0.00843335
0.00842732
0.00841404
0.00838273
0.00833409
0.00831728
0.00832679
0.00835708
0.00839193
0.00841684
0.00842858
0.00843318
0.00843571
0.00843703
0.00843822
0.00843956
0.00844145
0.0084426
0.00844168
0.0084406
0.00844035
0.00843969
0.00843876
0.00843846
0.00842396
0.00759767
0.00778617
0.00842548
0.00843638
0.00843852
0.00843693
0.00843419
0.00842862
0.00841747
0.00839147
0.00834242
0.00831616
0.00832062
0.00834555
0.00838145
0.00841005
0.00842545
0.00843144
0.00843426
0.00843568
0.00843696
0.00843814
0.00843958
0.00844159
0.00844275
0.00844179
0.0084405
0.00844004
0.0084394
0.00843866
0.00843877
0.00838124
0.00754163
0.00775775
0.00839867
0.00843264
0.00843612
0.00843749
0.008435
0.00842968
0.00841978
0.00839808
0.00835143
0.00831775
0.00831618
0.00833508
0.00837027
0.0084018
0.00842128
0.00842935
0.00843263
0.00843409
0.00843515
0.00843651
0.00843782
0.00843943
0.00844155
0.00844282
0.00844172
0.00844024
0.00843964
0.00843903
0.00843871
0.00843885
0.00833015
0.0074719
0.0077017
0.00834942
0.00841315
0.00843247
0.00843812
0.00843576
0.00843046
0.00842119
0.0084026
0.00836052
0.0083206
0.00831408
0.00832684
0.00835951
0.0083928
0.00841592
0.00842658
0.00843055
0.0084323
0.00843346
0.00843409
0.0084357
0.00843718
0.00843904
0.00844137
0.00844266
0.00844139
0.00843986
0.00843922
0.00843876
0.00843881
0.0084383
0.00825875
0.00644269
0.00782534
0.00769595
0.00826756
0.00838016
0.00840159
0.00843863
0.00843638
0.00843127
0.00842234
0.00840568
0.00836863
0.00832484
0.00831169
0.00832093
0.00835014
0.008384
0.00840995
0.00842333
0.00842823
0.00843004
0.00843114
0.00843204
0.00843265
0.00843432
0.00843602
0.00843819
0.0084408
0.00844201
0.00844084
0.00843936
0.00843883
0.00843866
0.00843177
0.00845994
0.00804922
0.00792445
0.00654955
0.00797192
0.00770823
0.00825046
0.00837421
0.0083961
0.00843341
0.00843684
0.00843169
0.0084233
0.00840848
0.00837562
0.00833074
0.00831036
0.00831552
0.00834019
0.00837529
0.00840369
0.00842017
0.00842598
0.00842759
0.00842851
0.00842904
0.00842958
0.00843049
0.00843212
0.0084341
0.00843663
0.00843939
0.00844096
0.00843997
0.00843868
0.00843842
0.00843321
0.00823748
0.0081722
0.00805381
0.00830906
0.00818145
0.0081529
0.00815053
0.00666458
0.00813514
0.00772464
0.00824923
0.00838814
0.00842397
0.0084336
0.00843039
0.00843153
0.00842358
0.00841025
0.00838127
0.0083372
0.00831137
0.00831202
0.00833092
0.00836523
0.0083964
0.00841676
0.00842469
0.00842607
0.00842588
0.00842569
0.00842562
0.00842589
0.00842717
0.00842942
0.00843245
0.00843524
0.0084388
0.00844171
0.00844274
0.00844241
0.00843939
0.00817421
0.00818751
0.00814666
0.00814853
0.00814832
0.00814885
0.00815256
0.00814919
0.0066617
0.00813445
0.00774601
0.00824012
0.00839147
0.00843162
0.00843925
0.00843019
0.00840573
0.00842335
0.00841096
0.00838515
0.00834323
0.00831287
0.00831002
0.0083241
0.00835618
0.00838785
0.00841115
0.0084223
0.00842472
0.00842473
0.008423
0.00842163
0.00842156
0.00842283
0.00842437
0.00842754
0.0084138
0.00843301
0.00843973
0.00844557
0.0084506
0.00845447
0.00821025
0.00823605
0.00815435
0.00817505
0.00815216
0.00814699
0.00815403
0.00815598
0.00815295
0.00814937
0.0066609
0.00813528
0.00777271
0.00823677
0.00837898
0.00843948
0.0084391
0.00843619
0.00833468
0.00842314
0.00841137
0.00838764
0.00834837
0.00831481
0.00830806
0.00831825
0.00834826
0.00838078
0.00840543
0.00841905
0.0084223
0.00842224
0.00842117
0.00841916
0.00841803
0.0084191
0.0084199
0.00835238
0.00837366
0.00839097
0.00838513
0.00842991
0.0084456
0.00846553
0.00827248
0.00828523
0.00820846
0.00823831
0.00818
0.00821323
0.00817568
0.00815805
0.0081813
0.00818679
0.00815918
0.00816789
0.00667138
0.00815299
0.00780458
0.00824514
0.00837104
0.00843961
0.00843846
0.00843509
0.0083588
0.00827816
0.00841156
0.0083893
0.00835266
0.00831791
0.00830665
0.00831329
0.00833941
0.00837345
0.00840037
0.00841673
0.00842091
0.00841964
0.00841761
0.00841635
0.00841593
0.00841591
0.00840827
0.00840606
0.0083412
0.00832889
0.0083041
0.00832126
0.00826967
0.00827207
0.00830036
0.00827865
0.0082667
0.00828233
0.00824501
0.00827031
0.00821617
0.00825176
0.00821743
0.00819896
0.00822501
0.00823344
0.00819491
0.00822026
0.00673472
0.00821063
0.00784102
0.00826605
0.00837366
0.00843927
0.00843751
0.00843355
0.00842832
0.00826887
0.00832106
0.0083902
0.00835601
0.00832144
0.00830633
0.00830981
0.00833084
0.00836458
0.0083938
0.00841363
0.00842056
0.00841963
0.00841544
0.00841223
0.00841263
0.00841001
0.0083947
0.00838335
0.00837668
0.00834006
0.00828047
0.00825714
0.00813506
0.00804028
0.00789173
0.00754454
0.00826646
0.008214
0.0082882
0.00828408
0.00827828
0.00829527
0.00825596
0.00828658
0.00825917
0.00825012
0.00826667
0.00827506
0.00825046
0.00827172
0.00679887
0.0082581
0.00788134
0.00828949
0.00838641
0.00843845
0.008436
0.00843174
0.00842675
0.00841169
0.00830941
0.00839039
0.00835834
0.0083247
0.00830711
0.00830778
0.00832376
0.00835574
0.00838607
0.00840817
0.00841875
0.00841953
0.00841548
0.00841073
0.00840921
0.00840163
0.00838111
0.00835802
0.00833799
0.00832414
0.00827511
0.00828865
0.00824861
0.00808905
0.0075474
0.00769234
0.00790617
0.00766327
0.0082497
0.00804469
0.00829541
0.0082645
0.00830425
0.00830473
0.00828959
0.00831189
0.0082943
0.00829128
0.00830139
0.00830919
0.00829343
0.00830984
0.00686167
0.00829258
0.0079234
0.00830392
0.00840198
0.00843696
0.00843385
0.00842962
0.00842486
0.00841869
0.00839763
0.00838978
0.00835959
0.0083274
0.00830836
0.00830702
0.00831853
0.00834751
0.00837839
0.00840214
0.00841524
0.00841764
0.00841447
0.0084093
0.00840712
0.0083954
0.00836965
0.00833503
0.00830206
0.00821699
0.00816961
0.00826703
0.00835439
0.00823392
0.00769534
0.00754811
0.00775513
0.00773487
0.00784897
0.00783877
0.00817586
0.00801422
0.00827336
0.00823165
0.00831454
0.00828075
0.00831397
0.00832039
0.00832078
0.00832377
0.00832678
0.00833407
0.00832459
0.00833885
0.00692475
0.0083184
0.00796655
0.00832135
0.00840802
0.00843437
0.00843114
0.00842708
0.00842253
0.00841643
0.00840616
0.00838801
0.00835981
0.00832941
0.00830974
0.00830668
0.00831485
0.00834015
0.00837081
0.00839629
0.00841162
0.00841546
0.00841272
0.00840637
0.00840333
0.00839267
0.00836558
0.00832041
0.00827268
0.00813651
0.00797896
0.00789583
0.00826308
0.00828556
0.00745326
0.00743214
0.00757255
0.00749017
0.00777748
0.00762257
0.00790947
0.00782498
0.008101
0.00799586
0.00823126
0.00811355
0.00828886
0.00823185
0.00832254
0.00829124
0.00833007
0.00834749
0.00833545
0.00834507
0.0083477
0.00835911
0.0069891
0.00833803
0.00801033
0.00834059
0.00841549
0.0084319
0.00842782
0.00842403
0.00841968
0.00841359
0.00840321
0.00838499
0.00835906
0.00833056
0.00831092
0.00830673
0.00831202
0.00833386
0.0083633
0.00839025
0.00840756
0.00841337
0.00841119
0.00840367
0.00839714
0.00838936
0.00836442
0.00831681
0.00823994
0.00809848
0.00806512
0.00805371
0.00803469
0.00834749
0.00739177
0.0072491
0.00747612
0.00747814
0.00752193
0.00749308
0.0076659
0.00754635
0.00789008
0.00769458
0.00801046
0.00789408
0.00811725
0.00800811
0.00823252
0.00811566
0.00829138
0.00822676
0.00829733
0.00836024
0.0083029
0.00831885
0.00836409
0.00837003
0.00705484
0.00835247
0.00805364
0.00835499
0.00842483
0.0084288
0.00842438
0.00842044
0.00841626
0.00841017
0.00839956
0.00838128
0.00835698
0.00833079
0.00831183
0.00830659
0.00831004
0.00832786
0.00835585
0.00838348
0.00840245
0.00841048
0.00840991
0.00840183
0.00839267
0.008385
0.00836365
0.00831711
0.00818469
0.00805705
0.00809702
0.00819311
0.0082906
0.00823415
0.00794892
0.00746151
0.00729458
0.00749545
0.00750374
0.00750271
0.00750136
0.00756616
0.0075088
0.00770498
0.00757742
0.00787643
0.00769679
0.00798726
0.00784926
0.00811691
0.00797135
0.00821376
0.00811325
0.00820453
0.00834222
0.00820559
0.00822639
0.00837536
0.0083605
0.00711762
0.00836121
0.00809622
0.00836288
0.00842915
0.0084253
0.00842073
0.00841638
0.00841221
0.0084061
0.00839524
0.00837703
0.00835351
0.00833007
0.00831237
0.00830602
0.00830821
0.00832213
0.00834778
0.00837554
0.00839584
0.00840587
0.00840801
0.00840055
0.00838946
0.00838049
0.00836402
0.00831954
0.00816331
0.00797905
0.00806365
0.0082401
0.00793404
0.00819764
0.00809208
0.00701187
0.00724691
0.00747361
0.0071535
0.00751185
0.00752253
0.00750268
0.0075146
0.00751497
0.0075035
0.00757822
0.00751903
0.00767939
0.00757064
0.00781034
0.00765997
0.00796576
0.00778249
0.00809766
0.00795442
0.00809501
0.00824151
0.00808992
0.00809009
0.00837629
0.00829892
0.00716318
0.00836279
0.00814026
0.00837095
0.00842698
0.00842207
0.0084167
0.00841178
0.00840753
0.00840133
0.00839017
0.00837199
0.00834916
0.00832817
0.0083124
0.00830528
0.00830613
0.00831649
0.00833889
0.00836592
0.00838762
0.00839919
0.00840444
0.00839916
0.00838744
0.00837628
0.00836336
0.00832562
0.00809917
0.00789823
0.00802296
0.00820642
0.00769522
0.00767554
0.008316
0.00734438
0.00743635
0.00727804
0.00739747
0.00712218
0.0069577
0.00753064
0.00733097
0.00751728
0.00753763
0.00750923
0.00752465
0.0075208
0.00751078
0.00756427
0.0075243
0.00763622
0.00756574
0.00777183
0.00763304
0.00794616
0.00776577
0.0079422
0.00815036
0.00794564
0.00798959
0.00834742
0.0081823
0.00717244
0.00834442
0.00819481
0.00837967
0.00842537
0.00841872
0.00841186
0.00840654
0.00840219
0.00839583
0.00838431
0.00836605
0.00834405
0.00832476
0.0083116
0.00830437
0.00830359
0.00831069
0.00832892
0.00835408
0.00837668
0.00839061
0.00839881
0.0083967
0.00838607
0.00837327
0.00836169
0.00833077
0.00812512
0.00780647
0.00794724
0.00817081
0.0076363
0.00761325
0.00809729
0.00731831
0.00730017
0.00744754
0.00741409
0.00744943
0.00746007
0.00707273
0.00723004
0.00739584
0.00713757
0.00754921
0.00756339
0.00740336
0.00747825
0.00745431
0.00727323
0.00750905
0.00740458
0.00756847
0.00749042
0.00764713
0.00759628
0.00777131
0.00765516
0.00778679
0.00801865
0.00781118
0.00785391
0.00823879
0.00807696
0.00697997
0.00801518
0.00820573
0.00838644
0.00842471
0.00841543
0.00840658
0.00840062
0.00839614
0.00838957
0.00837758
0.00835913
0.00833787
0.00831995
0.00830901
0.00830235
0.00829969
0.00830371
0.00831745
0.00833913
0.00836147
0.00837793
0.00838952
0.00839137
0.00838343
0.00837141
0.00835974
0.00833519
0.00819159
0.00784925
0.00789995
0.00812765
0.00787654
0.00764211
0.00803934
0.00818153
0.00754821
0.007685
0.00752703
0.00742839
0.00750962
0.00753276
0.00726157
0.00751812
0.00730297
0.00731485
0.0067022
0.00659888
0.0071169
0.00640416
0.00715099
0.00701088
0.00731955
0.00734175
0.00752498
0.00757019
0.00763064
0.00765509
0.00767465
0.00765436
0.00768908
0.00790465
0.0077116
0.00774301
0.00807805
0.00794511
0.00699115
0.00796926
0.00841176
0.00842043
0.00841302
0.0084012
0.00839427
0.00838934
0.00838257
0.00836994
0.00835118
0.00833038
0.00831395
0.00830402
0.00829778
0.00829358
0.00829399
0.00830269
0.00831974
0.00834061
0.00835856
0.0083716
0.00837979
0.00837789
0.00836911
0.00835783
0.00833879
0.00824842
0.00793492
0.00790607
0.00808311
0.008037
0.00771949
0.00819231
0.00835145
0.0075861
0.00733404
0.00747422
0.00770833
0.00733872
0.00727895
0.00757829
0.00761481
0.00759448
0.0075787
0.00733308
0.00765647
0.00640561
0.00737652
0.00671741
0.0064553
0.00731267
0.00725226
0.0074468
0.00758791
0.00762258
0.00766728
0.00770284
0.00775746
0.00768532
0.0077369
0.00770362
0.00777772
0.00771883
0.00751152
0.00797014
0.00782613
0.00689938
0.00798436
0.00841931
0.00841061
0.00839673
0.00838742
0.00838198
0.00837459
0.00836148
0.00834196
0.00832153
0.00830625
0.0082972
0.00829039
0.00828438
0.00828031
0.00828257
0.00829432
0.008313
0.00833178
0.00834503
0.00835633
0.00836555
0.0083642
0.00835546
0.00834135
0.00828105
0.00801117
0.00791963
0.00804176
0.00803124
0.00794471
0.00829605
0.00843936
0.00778629
0.00767705
0.00785491
0.00785071
0.00752467
0.00770773
0.00758892
0.00755518
0.00765432
0.00768904
0.00764895
0.00764214
0.0077033
0.00770647
0.00735974
0.00774078
0.00727987
0.00724154
0.00764876
0.00765962
0.00753595
0.00760968
0.00704552
0.00685323
0.00719802
0.00685412
0.00777768
0.00711082
0.00753165
0.00749068
0.00749999
0.0053684
0.00559403
0.00780208
0.0075158
0.00634898
0.00786303
0.00839758
0.00839301
0.00838073
0.00837347
0.00836618
0.0083517
0.00833167
0.00831086
0.00829651
0.00828808
0.00828053
0.00827257
0.00826344
0.0082601
0.00826642
0.00828177
0.00830102
0.00831631
0.00832716
0.00834113
0.00835333
0.00835108
0.00834216
0.00829488
0.008062
0.00793744
0.0080063
0.00799829
0.00799381
0.00825848
0.00843065
0.00820527
0.00789681
0.0078329
0.00781057
0.00781862
0.00765838
0.00780991
0.00772881
0.00775531
0.00771026
0.00772506
0.00770048
0.00769888
0.00775131
0.00774605
0.0076031
0.00777249
0.00777962
0.00775948
0.00774258
0.00772197
0.00748262
0.00765088
0.00701541
0.00731069
0.00696283
0.00727899
0.00752311
0.00489138
0.00524836
0.00538552
0.00511949
0.00552224
0.00557905
0.00537029
0.00537781
0.00539088
0.00549994
0.00533505
0.00642639
0.00577824
0.0054509
0.00539383
0.00548631
0.00533117
0.0062579
0.00682569
0.00694752
0.0083585
0.00837419
0.00836537
0.00835613
0.00834158
0.00831952
0.00829853
0.0082841
0.00827608
0.00826813
0.00825903
0.00824805
0.00824269
0.00824552
0.00825666
0.00827456
0.00829157
0.00830264
0.00831255
0.0083316
0.00834262
0.00833933
0.00830161
0.00809316
0.00795585
0.00797795
0.00794885
0.00794644
0.00808545
0.00841865
0.00844123
0.00790649
0.00782311
0.00790095
0.00798179
0.00776913
0.00782235
0.00776789
0.00776835
0.00773019
0.00772852
0.0077167
0.00770294
0.0077334
0.00772624
0.00776695
0.00774401
0.0077436
0.00773528
0.00769496
0.00766472
0.00761895
0.00759153
0.00732484
0.00732789
0.00502034
0.00469374
0.00490383
0.00493459
0.00508401
0.00502393
0.00518218
0.00508207
0.00501607
0.0053272
0.00530149
0.00523016
0.00504103
0.00527852
0.00531491
0.00528736
0.00535752
0.00533707
0.00531185
0.00537294
0.00566379
0.00525711
0.00526652
0.00540951
0.00592314
0.00673278
0.00619331
0.00667697
0.00831657
0.00835663
0.0083472
0.00832969
0.00830688
0.00828368
0.00826946
0.00826089
0.00825395
0.00824555
0.00823832
0.00823412
0.00823553
0.00824344
0.00825757
0.0082739
0.00828551
0.00829107
0.00830151
0.00832524
0.00833241
0.00830589
0.00812045
0.00797461
0.00795658
0.00790521
0.00790571
0.00799756
0.00828989
0.00844103
0.00824243
0.0080746
0.00800207
0.00792176
0.00800794
0.00776021
0.00786165
0.00772468
0.00772207
0.00769215
0.00768347
0.00767042
0.00765453
0.00771887
0.00769471
0.00771507
0.00768323
0.00764467
0.00763489
0.00756495
0.00754642
0.007389
0.00745507
0.00495222
0.00511539
0.00517353
0.00529997
0.00489734
0.00497958
0.00506832
0.00497418
0.0049865
0.00507627
0.00521184
0.00508641
0.00508703
0.00519686
0.00512052
0.00503449
0.00523121
0.00535656
0.00533137
0.00538381
0.00527478
0.00532587
0.00539858
0.00578964
0.00531315
0.00533817
0.00549673
0.00637077
0.00643339
0.00230641
0.0050262
0.00624101
0.00656132
0.00827401
0.00833668
0.00831939
0.00829223
0.00826808
0.00825195
0.00824438
0.00823834
0.00823349
0.00823088
0.00822879
0.00822998
0.00823662
0.00824769
0.00826151
0.00827228
0.0082757
0.00827652
0.00829519
0.00832045
0.00830615
0.00813561
0.00799733
0.00794179
0.00786723
0.00789033
0.00794636
0.00822222
0.00843349
0.0084474
0.00798819
0.00789662
0.00809719
0.00812773
0.00796557
0.0080447
0.00781191
0.00792875
0.00768201
0.00771622
0.00764879
0.00764981
0.00761709
0.00761977
0.00765286
0.00762869
0.00761424
0.00758797
0.00754338
0.00754837
0.00750539
0.00753815
0.00534026
0.00543107
0.00544718
0.0055066
0.00514221
0.00526133
0.00533039
0.00541608
0.00517628
0.0052909
0.00538118
0.00510175
0.00523661
0.00535415
0.00553826
0.00539256
0.00512272
0.0051564
0.00518883
0.00521479
0.00519966
0.00540299
0.00539853
0.00538499
0.00523872
0.00530597
0.00541498
0.00580822
0.00540809
0.00542754
0.00550526
0.00612887
0.00582659
0.00331409
0.00554011
0.00608631
0.00822849
0.0083062
0.00827872
0.0082493
0.00823305
0.00822498
0.00822214
0.00821981
0.00821761
0.00821629
0.00821811
0.00822538
0.00823666
0.00824907
0.00825949
0.00826197
0.00825782
0.00826245
0.00829542
0.00830072
0.00815319
0.00795513
0.00793256
0.00783441
0.00786152
0.00792949
0.008016
0.00842155
0.00844442
0.00826023
0.00815027
0.00806562
0.00811017
0.00813327
0.00801928
0.00807678
0.00790109
0.00800167
0.00768919
0.00778067
0.00763568
0.0076792
0.00759078
0.00763106
0.00757211
0.00757078
0.00753855
0.00752329
0.00768866
0.00768825
0.00550637
0.00553929
0.00552378
0.0059071
0.00545223
0.00550876
0.00552385
0.00556095
0.00546406
0.0055348
0.00560202
0.00564283
0.00548977
0.00559858
0.00567837
0.00537351
0.00555185
0.0056882
0.00587832
0.00572069
0.00532665
0.00522477
0.005377
0.00548826
0.00524638
0.00545003
0.00548047
0.00536759
0.00524749
0.00529902
0.00543046
0.00567546
0.00551606
0.00552973
0.00547518
0.00573779
0.00533458
0.00590783
0.00313993
0.00550087
0.00817421
0.00825813
0.00823044
0.00820861
0.00820254
0.00819993
0.00819853
0.00819366
0.00819155
0.00819481
0.00820367
0.0082171
0.00823119
0.00824316
0.0082483
0.00824206
0.00823647
0.0082586
0.00828719
0.00818982
0.00793845
0.00787607
0.00780809
0.00781102
0.00793133
0.00795182
0.00809939
0.00843847
0.00844771
0.00799255
0.00791004
0.00815391
0.00815915
0.00811776
0.00813874
0.00806281
0.00809506
0.0079893
0.0080523
0.00776823
0.00788557
0.00768647
0.00777088
0.00762033
0.00769621
0.00751923
0.00755591
0.00765517
0.00759365
0.00776264
0.00769869
0.00527162
0.00490906
0.00516375
0.00599636
0.00568497
0.0057131
0.0057463
0.00561246
0.00573754
0.00579366
0.00583721
0.00586867
0.00580378
0.0058987
0.00595917
0.00566824
0.00586624
0.00602091
0.00622828
0.006058
0.00557642
0.0053867
0.00558668
0.00576291
0.00536524
0.00549456
0.00556673
0.00535393
0.00532532
0.0053089
0.00544215
0.00552975
0.00561899
0.00567201
0.00555933
0.00485894
0.00527827
0.00593282
0.00254865
0.00525573
0.00810634
0.00820124
0.00818352
0.00813489
0.00817099
0.00816412
0.00815855
0.00815667
0.00816227
0.00817335
0.00806102
0.0082047
0.00822047
0.00823023
0.00822805
0.00821681
0.00822451
0.00826586
0.00822121
0.00798496
0.00784505
0.00778734
0.007767
0.0078919
0.00800358
0.00795503
0.00843046
0.00844293
0.00826381
0.00815914
0.00808488
0.00815582
0.00815866
0.00812383
0.00814423
0.00808227
0.00810201
0.00804032
0.00806936
0.00785756
0.00795621
0.00777995
0.00775761
0.00768797
0.00777183
0.00754337
0.00759837
0.00764308
0.00769533
0.00605432
0.00605085
0.00598205
0.00602709
0.00545863
0.00564342
0.00588686
0.00592708
0.00589876
0.00592418
0.00594728
0.00596652
0.00600022
0.00604192
0.00606816
0.00608574
0.00612277
0.00619985
0.00623601
0.00596751
0.00619366
0.00635595
0.0065755
0.00640853
0.00580221
0.00555913
0.00576565
0.00602896
0.00548008
0.00554435
0.00564418
0.00535745
0.00539514
0.00532973
0.00546493
0.00512522
0.00571676
0.00580677
0.00573585
0.00546185
0.00552987
0.00585898
0.00264644
0.0053539
0.00803507
0.00814847
0.00814305
0.00805814
0.00804146
0.00811105
0.00811534
0.00812457
0.00813881
0.00760325
0.00767445
0.0081899
0.00820383
0.00820971
0.00820005
0.00819531
0.00823432
0.00822387
0.00803238
0.00785655
0.00776724
0.00772595
0.00786856
0.00804236
0.00807328
0.00842013
0.00843689
0.00844391
0.00798095
0.00790592
0.00816314
0.00816195
0.00815767
0.00816118
0.00813159
0.00814907
0.0080877
0.00810869
0.00805377
0.00807559
0.00783537
0.00801385
0.00783955
0.00792005
0.00771633
0.00781112
0.00760772
0.00764205
0.00565717
0.00594781
0.00768671
0.00604871
0.0060481
0.00597213
0.00602244
0.00600091
0.00603177
0.00605653
0.0060709
0.00610094
0.00610993
0.00610937
0.0061125
0.00625639
0.00627477
0.00627251
0.00625497
0.00643422
0.00648238
0.00647916
0.00627131
0.00652436
0.00665801
0.00685204
0.00673914
0.0060038
0.00567491
0.00588869
0.00627667
0.00554035
0.00559535
0.00571057
0.0053825
0.00541658
0.00534458
0.00550375
0.00580059
0.00581463
0.00591897
0.00588969
0.00569354
0.00589297
0.00600218
0.00168499
0.00467427
0.00797504
0.00804495
0.00809845
0.00800571
0.00798232
0.00807091
0.00808906
0.00810731
0.00760409
0.00726764
0.00815686
0.00817296
0.0081845
0.00818228
0.00817189
0.00819518
0.00821007
0.00806036
0.00787085
0.00774665
0.00768376
0.00781322
0.00804192
0.00817638
0.00836585
0.00842966
0.00843889
0.00825766
0.0081558
0.00808604
0.00816712
0.00816254
0.00816238
0.00816679
0.00814142
0.00815463
0.00809811
0.00812169
0.00807098
0.00809731
0.00800084
0.00804238
0.00792577
0.00800272
0.00781732
0.00790558
0.00756849
0.0077588
0.00588309
0.00622632
0.00603254
0.00607213
0.00604844
0.00602808
0.00596163
0.00600399
0.0061252
0.00611618
0.00610339
0.00608798
0.00622544
0.00618213
0.00613111
0.006096
0.0064558
0.00641853
0.00634106
0.00625798
0.00668865
0.00667896
0.00659963
0.00655095
0.00679141
0.00686094
0.00677691
0.00692383
0.0061461
0.00572232
0.00592759
0.00643229
0.00552936
0.00565142
0.0057806
0.00543179
0.00539536
0.0053826
0.00556528
0.00594567
0.00590445
0.00601988
0.00601587
0.00596736
0.00521404
0.00677731
0.00258914
0.00529982
0.00787217
0.00801268
0.00804055
0.00799432
0.00803496
0.00806339
0.00808717
0.00801151
0.00763486
0.00813069
0.00814405
0.00815806
0.0081624
0.00815427
0.00816283
0.00818698
0.00808367
0.00788957
0.00773042
0.00764291
0.00774166
0.00799124
0.0081493
0.00833489
0.00842165
0.00843278
0.0084389
0.00795801
0.00788997
0.00815645
0.00815015
0.00816937
0.00816289
0.00817168
0.00817319
0.00815464
0.00816506
0.00812193
0.00814097
0.00812351
0.00814428
0.00805666
0.00809455
0.00800996
0.00807893
0.00781933
0.00787034
0.00613537
0.00656794
0.00784114
0.00590492
0.00591379
0.00602065
0.00605287
0.00592257
0.00592108
0.00593013
0.005933
0.00607025
0.00602245
0.00598575
0.00595899
0.00616163
0.00605975
0.00598938
0.00597879
0.00647743
0.00635286
0.00620791
0.00614208
0.00680439
0.00655984
0.00629841
0.00668089
0.00665678
0.00650564
0.00619739
0.00642489
0.00616618
0.0056748
0.00584392
0.00639439
0.00546504
0.00572499
0.00585643
0.00550466
0.0053819
0.00547098
0.00566033
0.00606487
0.00599506
0.00612623
0.00612462
0.00531714
0.00596759
0.00660311
0.00291498
0.00592121
0.0078486
0.00799596
0.00799993
0.00802034
0.00805245
0.0080827
0.00810335
0.00804873
0.0081182
0.00812347
0.00813358
0.00814224
0.00814039
0.00814003
0.00816285
0.0081
0.00791222
0.00772093
0.00760608
0.00767016
0.00793031
0.00812052
0.00831094
0.0084115
0.00842549
0.0084335
0.00825046
0.00814616
0.00808005
0.00815997
0.00815351
0.00817161
0.0081657
0.00818172
0.00817781
0.00817251
0.00817966
0.00815697
0.00816499
0.00818406
0.00819148
0.00812566
0.00816091
0.00788271
0.00812479
0.0062466
0.00665242
0.00768627
0.00610894
0.00654213
0.00626035
0.00619143
0.00593055
0.00597098
0.00592576
0.00594865
0.00590851
0.00588714
0.00586737
0.00587571
0.00598796
0.00596767
0.00595171
0.00594189
0.00611627
0.00608441
0.00604594
0.00602115
0.00609542
0.00612271
0.00617872
0.00619215
0.00626597
0.00604984
0.00592021
0.00626181
0.00609342
0.00598596
0.00575096
0.00592029
0.00590758
0.00555502
0.00550694
0.00579908
0.00542154
0.00580889
0.00595498
0.00561668
0.00547454
0.00560376
0.00577523
0.00618051
0.00610022
0.00624032
0.00622526
0.00580361
0.00651047
0.006774
0.00369006
0.00612117
0.00784562
0.00797301
0.00801099
0.00805451
0.00809494
0.00811997
0.0081279
0.0081246
0.00811794
0.00811751
0.00812343
0.00812693
0.0081262
0.0081402
0.00809751
0.00793172
0.00771618
0.00757178
0.007601
0.00787891
0.00810083
0.00828549
0.00839761
0.00841681
0.00842635
0.00843492
0.00793826
0.0078724
0.00814958
0.00814102
0.00816502
0.00815766
0.0081768
0.00817134
0.00819021
0.00818293
0.00819333
0.00819468
0.00819072
0.00819066
0.00821666
0.00822048
0.00816889
0.00819996
0.00776607
0.00815825
0.00609493
0.00651869
0.00622207
0.00597254
0.00600982
0.00609435
0.00610078
0.00601275
0.00586682
0.00589546
0.00579336
0.00581343
0.00585635
0.00581687
0.00577208
0.00578492
0.00600098
0.00596017
0.00592497
0.00590074
0.00616054
0.00611847
0.00606692
0.00597853
0.00588114
0.00598508
0.00608217
0.00619014
0.00585617
0.00576172
0.00572709
0.00573388
0.00560529
0.00560481
0.00533385
0.00545145
0.00535872
0.00527084
0.00506761
0.0052901
0.00528478
0.00593018
0.00608428
0.00574452
0.0053065
0.00532767
0.00581346
0.00627985
0.00623468
0.00634894
0.00631925
0.00584244
0.00663946
0.00593914
0.00283107
0.00650152
0.00782269
0.00800752
0.00806744
0.00812097
0.00815129
0.00815964
0.00815022
0.00813273
0.00811861
0.00811311
0.00811458
0.00811583
0.00812124
0.00809149
0.00793492