/*--------------------------------*- C++ -*----------------------------------*\
  =========                 |
  \\      /  F ield         | OpenFOAM: The Open Source CFD Toolbox
   \\    /   O peration     | Website:  https://openfoam.org
    \\  /    A nd           | Version:  dev
     \\/     M anipulation  |
\*---------------------------------------------------------------------------*/
FoamFile
{
    version     2.0;
    format      ascii;
    class       volScalarField;
    location    "2500";
    object      rDeltaT;
}
// * * * * * * * * * * * * * * * * * * * * * * * * * * * * * * * * * * * * * //

dimensions      [0 0 -1 0 0 0 0];

internalField   nonuniform List<scalar> 
9840
(
100
100
100
100
100
100
100
100
100
100
100
100
100
100
100
100
100
100
100
100
100
100
100
100
100
100
100
100
100
100
100
100
100
100
100
100
100
100
100
100
100
100
100
100
100
100
100
100
100
100
100
100
100
100
100
100
100
100
100
100
100
100
100
100
100
100
100
100
100
100
100
100
100
100
100
100
100
100
100
100
100
100
100
100
100
100
100
100
100
100
100
100
100
100
100
100
100
100
100
100
100
100
100
100
100
100
100
100
100
100
100
100
100
100
100
100
100
100
100
100
100
100
100
100
100
100
100
100
100
100
100
100
100
100
100
100
100
100
100
100
100
100
100
100
100
100
100
100
100
100
100
100
100
100
100
100
100
100
100
100
100
100
100
100
100
100
100
100
100
100
100
100
100
100
100
100
100
100
100
100
100
100
100
100
100
100
100
100
100
100
100
100
100
100
100
100
100
100
100
100
100
100
100
100
100
100
100
100
100
100
100
100
100
100
100
100
100
100
100
100
100
100
100
100
100
100
100
100
100
100
100
100
100
100
100
100
100
100
100
100
100
100
100
100
100
100
100
100
100
100
100
100
100
100
100
100
100
100
100
100
100
100
100
100
100
100
100
100
100
100
100
100
100
100
100
100
100
100
100
100
100
100
100
100
100
100
100
100
100
100
100
100
100
100
100
100
100
100
100
100
100
100
100
100
100
100
100
100
100
100
100
100
100
100
100
100
100
100
100
100
100
100
100
100
100
100
100
100
100
100
100
100
100
100
100
100
100
100
100
100
100
100
100
100
100
100
100
100
100
100
100
100
100
100
100
100
100
100
100
100
100
100
100
100
100
100
100
100
100
100
100
100
100
100
100
100
100
100
100
100
100
100
100
100
100
100
100
100
100
100
100
100
100
100
100
100
100
100
100
100
100
100
100
100
100
100
100
100
100
100
100
100
100
100
100
100
100
100
100
100
100
100
100
100
100
100
100
100
100
100
100
100
100
100
100
100
100
100
100
100
100
100
100
100
100
100
100
100
100
100
100
100
100
100
100
100
100
100
100
100
100
100
100
100
100
100
100
100
100
100
100
100
100
100
100
100
100
100
100
100
100
100
100
100
100
100
100
100
100
100
100
100
100
100
100
100
100
100
100
100
100
100
100
100
100
100
100
100
100
100
100
100
100
100
100
100
100
100
100
100
100
100
100
100
100
100
100
100
100
100
100
100
100
100
100
100
100
100
100
100
100
100
100
100
100
100
100
100
100
100
100
100
100
100
100
100
100
100
100
100
100
100
100
100
100
100
100
100
100
100
100
100
100
100
100
100
100
100
100
100
100
100
100
100
100
100
100
100
100
100
100
100
100
100
100
100
100
100
100
100
100
100
100
100
100
100
100
100
100
100
100
100
100
100
100
100
100
100
100
100
100
100
100
100
100
100
100
100
100
100
100
100
100
100
100
100
100
100
100
100
100
100
100
100
100
100
100
100
100
100
100
100
100
100
100
100
100
100
100
100
100
100
100
100
100
100
100
100
100
100
100
100
100
100
100
100
100
100
100
100
100
100
100
100
100
100
100
100
100
100
100
100
100
100
100
100
100
100
100
100
100
100
100
100
100
100
100
100
100
100
100
100
100
100
100
100
100
100
100
100
100
100
100
100
100
100
100
100
100
100
100
100
100
100
100
100
100
100
100
100
100
100
100
100
100
100
100
100
100
100
100
100
100
100
100
100
100
100
100
100
100
100
100
100
100
100
100
100
100
100
100
100
100
100
100
100
100
100
100
100
100
100
100
100
100
100
100
100
100
100
100
100
100
100
100
100
100
100
100
100
100
100
100
100
100
100
100
100
100
100
100
100
100
100
100
100
100
100
100
100
100
100
100
100
100
100
100
100
100
100
100
100
100
100
100
100
100
100
100
100
100
100
100
100
100
100
100
100
100
100
100
100
100
100
100
100
100
100
100
100
100
100
100
100
100
100
100
100
100
100
100
100
100
100
100
100
100
100
100
100
100
100
100
100
100
100
100
100
100
100
100
100
100
100
100
100
100
100
100
100
100
100
100
100
100
100
100
100
100
100
100
100
100
100
100
100
100
100
100
100
100
100
100
100
100
100
100
100
100
100
100
100
100
100
100
100
100
100
100
100
100
100
100
100
100
100
100
100
100
100
100
100
100
100
100
100
100
100
100
100
100
100
100
100
100
100
100
100
100
100
100
100
100
100
100
100
100
100
100
100
100
100
100
100
100
100
100
100
100
100
100
100
100
100
100
100
100
100
100
100
100
100
100
100
100
100
100
100
100
100
100
100
100
100
100
100
100
100
100
100
100
100
100
100
100
100
100
100
100
100
100
100
100
100
100
100
100
100
100
100
100
100
100
100
100
100
100
100
100
100
100
100
100
100
100
100
100
100
100
100
100
100
100
100
100
100
100
100
100
100
100
100
100
100
100
100
100
100
100
100
100
100
100
100
100
100
100
100
100
100
100
100
100
100
100
100
100
100
100
100
100
100
100
100
100
100
100
100
100
100
100
100
100
100
100
100
100
100
100
100
100
100
100
100
100
100
100
100
100
100
100
100
100
100
100
100
100
100
100
100
100
100
100
100
100
100
100
100
100
100
100
100
100
100
100
100
100
100
100
100
100
100
100
100
100
100
100
100
100
100
100
100
100
100
100
100
100
100
100
100
100
100
100
100
100
100
100
100
100
100
100
100
100
100
100
100
100
100
100
100
100
100
100
100
100
100
100
100
100
100
100
100
100
100
100
100
100
100
100
100
100
100
100
100
100
100
100
100
100
100
100
100
100
100
100
100
100
100
100
100
100
100
100
100
100
100
100
100
100
100
100
100
100
100
100
100
100
100
100
100
100
100
100
100
100
100
100
100
100
100
100
100
100
100
100
100
100
100
100
100
100
100
100
100
100
100
100
100
100
100
100
100
100
100
100
100
100
100
100
100
100
100
100
100
100
100
100
100
100
100
100
100
100
100
100
100
100
100
100
100
100
100
100
100
100
100
100
100
100
100
100
100
100
100
100
100
100
100
100
100
100
100
100
100
100
100
100
100
100
100
100
100
100
100
100
100
100
100
100
100
100
100
100
100
100
100
100
100
100
100
100
100
100
100
100
100
100
100
100
100
100
100
100
100
100
100
100
100
100
100
100
100
100
100
100
100
100
100
100
100
100
100
100
100
100
100
100
100
100
100
100
100
100
100
100
100
100
100
100
100
100
100
100
100
100
100
100
100
100
100
100
100
100
100
100
100
100
100
100
100
100
100
100
100
100
100
100
100
100
100
100
100
100
100
100
100
100
100
100
100
100
100
100
100
100
100
100
100
100
100
100
100
100
100
100
100
100
100
100
100
100
100
100
100
100
100
100
100
100
100
100
100
100
100
100
100
100
100
100
100
100
100
100
100
100
100
100
100
100
100
100
100
100
100
100
100
100
100
100
100
100
100
100
100
100
100
100
100
100
100
100
100
100
100
100
100
100
100
100
100
100
100
100
100
100
100
100
100
100
100
100
100
100
100
100
100
100
100
100
100
100
100
100
100
100
100
100
100
100
100
100
100
100
100
100
100
100
100
100
100
100
100
100
100
100
100
100
100
100
100
100
100
100
100
100
100
100
100
100
100
100
100
100
100
100
100
100
100
100
100
100
100
100
100
100
100
100
100
100
100
100
100
100
100
100
100
100
100
100
100
100
100
100
100
100
100
100
100
100
100
100
100
100
100
100
100
100
100
100
100
100
100
100
100
100
100
100
100
100
100
100
100
100
100
100
100
100
100
100
100
100
100
100
100
100
100
100
100
100
100
100
100
100
100
100
100
100
100
100
100
100
100
100
100
100
100
100
100
100
100
100
100
100
100
100
100
100
100
100
100
100
100
100
100
100
100
100
100
100
100
100
100
100
100
100
100
100
100
100
100
100
100
100
100
100
100
100
100
100
100
100
100
100
100
100
100
100
100
100
100
100
100
100
100
100
100
100
100
100
100
100
100
100
100
100
100
100
100
100
100
100
100
100
100
100
100
100
100
100
100
100
100
100
100
100
100
100
100
100
100
100
100
100
100
100
100
100
100
100
100
100
100
100
100
100
100
100
100
100
100
100
100
100
100
100
100
100
100
195.576
100
100
100
100
100
100
100
100
100
100
100
100
100
100
100
100
100
100
100
100
100
100
100
100
100
100
100
100
100
100
100
100
100
100
100
100
100
100
100
100
100
100
100
100
100
100
100
100
100
100
100
100
100
100
100
100
100
100
100
100
100
100
100
100
100
100
100
100
100
100
100
100
100
100
100
100
100
100
100
100
100
100
100
100
100
100
100
100
100
100
100
100
100
100
100
100
100
100
100
100
100
100
100
100
100
100
100
100
100
100
100
100
100
100
100
100
100
100
100
100
100
100
100
100
100
100
100
100
100
100
100
100
100
100
100
100
100
100
100
100
100
100
100
100
100
100
100
100
100
100
100
100
100
100
100
100
100
100
100
100
100
100
100
100
100
100
100
100
100
100
100
100
100
100
100
100
100
100
100
100
100
100
100
100
100
100
100
100
100
100
100
100
100
100
100
100
100
100
100
100
100
100
100
100
100
100
100
100
100
100
100
100
100
100
100
100
100
100
100
100
100
100
100
100
100
100
100
100
100
100
100
100
100
100
100
100
100
100
100
100
100
100
100
100
100
100
100
100
100
100
100
100
100
100
100
100
100
100
100
100
100
100
100
100
100
100
100
100
100
100
100
100
100
100
100
100
100
100
100
100
100
100
100
100
100
100
100
100
100
100
100
100
100
100
100
100
100
100
100
100
100
100
100
100
100
100
100
100
100
100
100
100
100
100
100
100
100
100
100
100
100
100
100
100
100
100
100
100
100
100
100
100
100
100
100
100
100
100
100
100
100
100
100
100
100
100
100
100
100
100
100
100
100
100
100
100
100
100
100
100
100
100
100
184.241
114.271
100
100
100
100
100
100
100
100
100
100
100
100
100
100
100
100
100
100
100
100
100
100
100
100
100
100
100
100
100
100
100
100
100
100
100
100
100
100
100
100
100
100
100
100
100
100
100
100
100
100
100
100
100
100
100
100
100
100
100
100
100
100
100
100
100
100
100
100
100
100
100
100
100
100
100
100
100
100
100
100
100
100
100
100
100
100
100
100
100
100
100
100
100
305.856
144.474
100
100
100
100
100
100
100
100
100
100
100
100
100
100
100
100
100
100
100
100
100
100
100
100
100
100
100
100
100
100
100
100
100
100
100
100
100
100
100
100
100
100
100
100
100
100
100
100
100
100
100
100
100
100
100
100
100
100
100
100
100
100
100
100
100
100
100
100
100
100
100
100
100
100
102.71
100
100
100
100
100
100
100
100
100
100
100
100
100
100
100
100
100
100
100
192.905
112.36
100
100
100
100
100
100
100
100
100
100
100
100
100
100
100
100
100
100
100
100
100
100
100
100
100
100
100
100
100
100
100
100
100
100
100
100
100
100
100
100
100
100
100
100
100
100
100
100
100
100
100
100
100
100
100
100
100
100
100
100
100
100
100
100
100
100
100
100
100
100
100
102.223
103.991
100
103.532
106.612
112.569
108.748
100
100
100
100.36
100
100
100
100
100
100
100
100
100
100
100
100
100
100
100
100
100
100
100
100
100
100
100
100
100
100
100
100
100
100
100
100
100
100
100
100
100
100
100
100
100
100
100
100
100
100
100
100
100
100
100
100
100
100
100
100
100
100
100
100
100
100
100
100
100
100
100
100
100
100
100
100
100
100
100
100
100
100
100
100
100
100
100
100
105.04
103.355
101.051
100
108.999
110.143
110.541
107.375
113.397
115.434
120.775
117.749
103.316
100
105.177
111.269
100
100
100
100
100
100
100
100
100
100
100
100
100
100
100
100
100
100
100
100
100
100
100
100
100
100
100
100
100
100
100
100
100
100
100
100
100
100
100
100
100
100
100
100
100
100
100
100
100
100
100
100
100
100
100
100
100
100
100
100
100
100
100
100
100
100
100
100
100
100
100
100
100
100
100
100
100
100
100
100
100
100
100
100
100
100.945
110.235
107.404
104.147
100.445
115.942
116.118
115.769
117.195
122.449
122.885
129.082
126.62
114.395
106.91
117.26
121.662
107.445
100
100
100.35
109.649
113.007
103.456
100
100
100
100
100
100
100
174.671
100
100
100
100
100
100
100
100
100
100
100
100
100
100
100
100
100
100
100
100
100
100
100
100
100
100
100
100
100
100
100
100
100
100
100
100
100
100
100
100
100
100
100
100
100
100
100
100
100
100
100
100
100
100
100
100
100
100
100
100
100
100
100
100
101.63
101.663
101.734
100.562
100.45
102.53
104.512
106.561
114.461
110.962
107.195
103.29
122.618
122.472
121.529
127.406
132.427
130.668
139.08
136.664
126.062
118.128
128.866
133.608
120.815
105.156
103.275
116.168
126.249
130.422
118.991
100
100
100
100
100
100
100
100.351
100
100
100
100
100
100
100
100
100
100
100
100
100
100
100
100
100
100
100
100
100
100
100
100
100
100
100
100
100
100
100
100
100
100
100
100
100
100
100
100
100
100
100
100
100
100
100
100
100
100
100
100
100
100
100
100
100
100
100
100
100
109.005
107.726
102.662
105.785
108.416
108.919
109.42
109.579
105.247
108.052
110.749
113.502
119.257
115.65
112.002
108.177
130.671
130.844
129.294
139.665
144.713
140.616
151.912
148.833
137.834
131.727
143.627
145.751
139.364
117.118
112.177
133.947
146.737
150.098
132.113
100
104.965
100
100
100
100
100
100
100
100
100
100
100
100
100
100
100
100
100
100
100
100
100
100
100
100
100
100
100
100
100
100
100
100
100
100
100
100
100
100
100
100
100
100
100
100
100
100
100
100
100
100
100
100
100
100
100
100
100
100
100
100
100
100
100
100
100
100
100
100
120.406
119.877
115.995
118.598
116.312
117.593
118.712
120.248
111.48
115.062
118.52
121.95
126.414
122.921
119.525
115.952
141.525
142.509
140.632
152.58
158.549
154.4
169.011
163.893
155.192
153.069
168.41
166.266
163.514
127.155
118.475
148.608
168.496
166.512
143.655
100
109.795
100
100
100
100
100
100
100
100
100
100
100
100
100
100
100
100
100
100
100
100
100
100
100
100
100
100
100
100
100
100
100
100
100
100
100
100
100
100
100
100
100
100
100
100
100
100
100
100
100
100
100
100
100
100
100
100
100
100
100
100
100
100
100
100
100
110.881
104.585
113.04
101.929
132.898
133.47
130.827
132.978
125.498
127.997
129.597
131.84
119.925
124.239
128.474
132.64
137.496
134.147
130.979
127.824
157.136
159.633
158.437
177.563
187.564
173.919
207.229
197.24
185.204
181.426
200.701
203.167
187.787
134.27
124.981
162.425
187.134
184.119
153.353
100
115.507
103.446
100
100
100
100
100
100
100
100
100
100
100
100
100
100
100
100
100
100
100
100
100
100
100
100
100
100
100
100
100
100
100
100
100
100
100
100
100
100
100
100
100
100
100
100
100
100
100
100
100
100
100
100
100
100
100
100
100
100
100
100
100
100
100
100
100
126.539
121.095
130.324
118.775
147.182
148.837
147.419
149.262
136.916
140.638
142.601
145.138
131.738
136.692
141.809
146.854
155.118
151.315
148.302
145.554
180.226
187.501
187.275
220.224
230.506
216.635
243.893
238.31
221.827
209.035
230.167
243.427
209.424
143.8
133.464
176.513
208.904
202.395
166.995
100
121.022
105.848
100
100
100
100
100
100
100
100
100
100
100
100
100
100
100
100
100
100
100
100
100
100
100
100
100
100
100
100
100
100
100
100
100
100
100
100
100
100
100
100
100
100
100
100
100
100
100
100
100
100
100
100
100
100
100
100
100
100
100
100
100
100
106.532
100
100
100
144.172
139.316
148.89
137.47
163.482
166.102
166.323
167.397
151.697
155.965
158.368
160.892
148.716
154.023
160.04
166.278
181.76
176.585
173.561
171.226
225.736
233.405
224.763
259.647
254.203
245.442
280.114
269.688
250.302
232.768
251.282
266.54
231.616
154.127
140.101
192.763
229.465
221.383
177.018
100
125.11
112.32
100
100
100
100
100
100
100
100
100
100
100
100
100
100
100
100
100
100
100
100
100
100
100
100
100
100
100
100
100
100
100
100
100
100
100
100
100
100
100
100
100
100
100
100
100
100
100
100
100
100
100
100
100
100
100
100
100
100
100
100
100
100
100
100
123.599
108.746
102.069
110.82
163.817
158.983
170.193
158.954
182.304
185.531
187.374
187.081
171.573
175.111
177.98
179.801
172.951
177.508
184.313
192.54
218.815
209.094
205.774
202.068
259.749
273.581
260.368
269.52
282.572
277.767
170.81
312.055
263.801
248.248
252.926
280.543
239.288
161.624
147.617
202.547
227.542
222.632
186.376
100
134.902
117.202
100
100
100
100
150.832
116.27
100
100
100
100
100
100
100
100
100
100
100
100
100
100
100
100
100
100
100
100
100
100
100
100
100
100
100
100
100
100
100
100
100
100
100
100
100
100
100
100
100
100
100
100
100
100
100
100
100
100
100
100
100
100
100
108.14
103.137
107.95
102.168
142.203
124.691
114.309
124.947
185.317
180.393
193.972
182.027
204.402
207.945
210.903
209.416
199.748
200.226
201.443
201.811
202.255
204.556
210.342
218.65
262.81
246.998
247.438
245.091
308.188
171.137
299.538
163.493
324.902
318.559
194.903
356.393
308.371
259.939
159.17
173.18
289.095
174.508
161.387
212.743
153.689
234.592
282.963
204.17
100
142.646
126.496
102.046
100
100
100
385.561
146.48
100
100
100
100
100
100
100
100
100
100
100
100
100
100
100
100
100
100
100
100
100
100
100
100
100
100
100
100
100
100
100
100
100
100
100
100
100
100
100
100
100
100
100
100
100
100
100
100
100
100
100
100
100
100
119.268
113.709
117.467
111.403
162.128
142.083
126.143
139.844
208.602
203.354
221.055
207.912
231.359
234.212
236.837
235.941
228.181
229.25
227.061
225.418
246.952
248.252
254.24
259.881
300.155
284.349
284.639
282.37
353.43
195.916
346.06
187.654
376.754
367.331
222.14
406.423
354.005
171.113
185.095
200.313
339.79
192.65
172.023
221.169
181.064
157.122
333.868
205.827
100
154.608
134.219
107.696
100
100
100
200.928
100
100
100
100
100
100
100
100
100
100
100
100
100
100
100
100
100
100
100
100
100
100
100
100
100
100
100
100
100
100
100
100
100
100
100
100
100
100
100
100
100
100
100
100
100
100
100
100
100
100
100
105.663
100
100
100.677
129.704
123.31
126.755
119.717
186.007
162.535
138.454
157.364
233.856
229.235
249.551
236.626
250.621
262.719
263.896
265.693
283.943
276.042
262.267
247.938
283.183
285.799
291.674
298.17
344.526
329.108
328.394
325.085
401.275
222.617
387.638
217.12
422.046
411.655
244.931
449.527
404.569
199.403
215.038
231.054
395.678
195.652
183.415
148.664
211.65
188.997
393.827
143.55
100
164.848
147.654
118.085
100
100
100
100
100
100
100
100
100
100
100
100
100
100
100
100
100
100
100
100
100
100
100
100
100
100
100
100
100
100
100
100
100
100
100
100
100
100
100
100
100
100
100
100
100
100
100
100
100
100
100
100
100
100
100
100
100
112.977
106.946
100
106.81
140.101
132.911
136.047
127.729
214.489
186.847
152.053
179.879
259.928
256.541
279.984
268.036
296.967
293.712
288.905
289.188
318.67
173.028
302.159
292.259
324.638
327.914
333.887
340.718
383.638
368.006
367.318
362.879
441.802
244.147
243.102
452.272
230.272
243.629
258.897
451.547
203.085
257.739
190.118
179.405
242.177
224.701
454.581
173.596
100.445
178.58
159.473
126.946
100
100
100
100
100
100
100
100
100
100
100
100
100
100
100
100
100
100
100
100
100
100
100
100
100
100
100
100
100
100
100
100
100
100
100
100
100
100
100
100
100
100
100
100
100
100
100
100
100
100
100
100
100
100
100
100
100
119.762
113.213
105.5
111.943
151.836
143.091
145.029
136.26
247.135
216.199
169.875
209.057
287.66
285.773
308.907
299.806
181.285
328.409
317.309
330.889
355.09
196.518
344.195
332.912
362.069
365.585
372.174
380.678
260.44
141.346
313.815
202.644
250.755
214.69
259.703
207.551
107.596
187.823
169.024
133.976
100
100
100
100
100
100
100
100
100
100
100
100
100
100
100
100
100
100
100
100
100
100
100
100
100
100
100
100
100
100
100
100
100
100
100
100
100
100
100
100
100
100
100
100
100
100
100
100
100
100
100
100
100
100
100
100
100
103.092
100
100
127.203
118.901
110.254
116.884
167.016
153.772
153.631
144.881
281.786
249.745
196.626
244.788
309.066
310.378
326.362
330.767
202.911
363.888
188.233
366.735
389.314
219.734
387.535
373.041
173.77
378.748
142.241
308.941
248.822
241.046
112.619
198.868
250.486
169.097
140.862
100
100
100
100
114.449
100
100
100
100
100
100
100
100
100
100
100
100
100
100
100
100
100
100
100
100
100
100
100
100
100
100
100
100
100
100
100
100
100
100
100
100
100
100
100
100
100
100
100
100
100
100
100
100
100
100
100
100
107.635
100
100
135.326
125.297
115.227
123.462
188.964
165.378
163.542
153.566
315.783
286.625
233.551
284.344
343.297
334.443
348.85
341.411
224.519
400.033
209.689
403.459
239.827
428.074
408.595
210.156
442.186
175.013
375.19
113.82
146.031
309.004
168.604
236.311
141.744
100
100
100
100
140.997
100
100
100
100
100
100
100
100
100
100
100
100
100
100
100
100
100
100
100
100
100
100
100
100
100
100
100
100
100
100
100
100
100
100
100
100
100
100
100
100
100
100
100
100
100
100
100
100
100
100
100
100
100
100
111.678
104.331
101.53
144.224
133.666
120.16
130.806
221.494
182.292
177.664
162.456
344.607
321.087
275.927
319.464
377.714
193.53
193.086
382.934
245.35
232.35
438.232
244.98
211.552
437.643
114.373
176.318
374.448
173.091
222.986
285.75
142.52
100
100
106.848
100
158.004
100
100
100
100
100
100
100
100
100
100
100
100
100
100
100
100
100
100
100
100
100
100
100
100
100
100
100
100
100
100
100
100
100
100
100
100
100
100
100
100
100
100
100
100
100
100
100
100
100
100
100
100
100
100
100
100
117.754
109.977
105.313
152.259
142.308
127.025
138.449
263.311
210.735
202.528
175.054
350.983
345.459
311.483
344.583
414.21
214.358
197.807
212.841
421.691
252.917
245.801
117.681
209.886
435.795
192.055
229.293
274.618
340.989
150.672
100
100
131.05
100
168.201
100
100
100
100
100
100
100
100
100
100
100
100
100
100
100
100
100
100
100
100
100
100
100
100
100
100
100
100
100
100
100
100
100
100
100
100
100
100
100
100
100
100
100
100
100
100
100
100
100
100
100
100
101.091
100
100
100
123.793
114.563
109.901
160.44
150.174
134.979
146.375
300.203
251.799
239.268
195.198
350.284
335.575
348.389
446.069
236.829
216.897
195.384
236.5
452.858
124.696
240.474
217.366
243.058
280.756
334.184
391.92
165.411
101.677
108.567
153.699
100
173.523
100
100
100
100
100
100
100
100
100
100
100
100
100
100
100
100
100
100
100
100
100
100
100
100
100
100
100
100
100
100
100
100
100
100
100
100
100
100
100
100
100
100
100
100
100
100
100
100
100
100
100
100
100
100
104.636
100
100
100
129.199
119.356
114.386
169.504
156.95
142.532
155.172
325.443
288.112
272.446
224.578
339.264
194.82
255.949
239.292
213.839
254.842
133.244
146.325
298.891
340.539
389.6
172.325
109.212
125.146
176.105
100
173.34
100
100
100
100
100
100
100
100
100
100
100
100
100
100
100
100
100
100
100
100
100
100
100
100
100
100
100
100
100
100
100
100
100
100
100
100
100
100
100
100
100
100
100
100
100
100
100
100
100
100
100
100
100
107.742
102.214
100
100
135.482
124.778
118.593
185.016
166.548
150.024
162.998
322.775
312.566
297.326
255.816
192.65
213.8
257.8
237.172
132.888
175.164
234.398
360.218
394.974
172.006
120.936
144.313
192.656
100
170.515
100
100
100
100
100
100
100
100
100
100
100
100
100
100
100
100
100
100
100
100
100
100
100
100
100
100
100
100
100
100
100
100
100
100
100
100
100
100
100
100
100
100
100
100
100
100
100
100
100
100
100
100
100
100
100
111.63
105.723
100
100
142.174
130.21
122.261
209.493
178.013
158.466
172.097
183.557
317.095
312.334
281.908
211.862
237.719
257.187
135.507
208.536
282.909
238.328
416.503
169.201
134.994
162.131
204.686
100
167.141
100
100
100
100
100
100
100
100
100
100
100
100
100
100
100
100
100
100
100
100
100
100
100
100
100
100
100
100
100
100
100
100
100
100
100
100
100
100
100
100
100
100
100
100
100
100
100
100
100
100
100
100
100
100
100
100
116.491
107.455
100
148.081
134.479
128.185
236.789
193.769
166.682
182.237
203.807
339.516
335.328
309.086
296.462
235.523
258.392
146.708
238.149
338.886
284.018
231.687
179.367
148.387
178.429
208.38
100
160.705
100
100
100
100
100
100
100
100
100
100
100
100
100
100
100
100
100
100
100
100
100
100
100
100
100
100
100
100
100
100
100
100
100
100
100
100
100
100
100
100
100
100
100
100
100
104.901
104.005
101.473
100
104.327
102.765
100
100
100
100
100
100
100
100
119.303
109.322
155.387
141.158
132.455
259.745
212.723
174.593
192.358
227.148
380.695
196.753
180.536
288.284
256.071
157.839
389.412
338.45
276.886
234.561
189.308
160.621
186.901
202.954
100
152.537
100
100
100
100
100
100
100
100
100
100
100
100
100
100
100
100
100
100
100
100
100
100
100
100
100
100
100
100
100
100
100
100
100
100
100
100
100
100
100
100
100
100
100
100
109.903
109.812
108.327
104.607
108.697
111.933
100
100
100
100
100
100
100
100
100
106.169
121.962
164.001
147.243
136.143
272.324
229.516
184.674
203.582
248.284
424.365
218.783
309.09
200.229
302.064
168.56
387.265
331.146
278.788
240.175
196.685
167.62
190.159
184.374
140.576
165.295
100
100
100
100
100
100
100
100
100
100
100
100
100
100
100
100
100
100
100
100
100
100
100
100
100
100
100
100
100
100
100
100
100
100
100
100
100
100
100
100
100
100
100
100
100
115.025
115.699
115.193
112.558
116.216
125.289
100
100
100
100
100
100
100
100
100
106.739
106.102
115.213
170.705
152.048
140.3
278.144
242.936
193.562
216.472
464.61
241.818
345.891
335.356
221.833
307.305
173.894
378.492
332.356
286.539
246.466
198.751
168.88
176.909
176.652
330.392
201.739
100
100
100
100
100
100
100
100
100
100
100
100
100
100
100
100
100
100
100
100
100
100
100
100
100
100
100
100
100
100
100
100
100
100
100
100
100
100
100
100
100
100
100
100
100
120.163
121.652
122.106
120.558
128.876
100
100
100
100
100
100
100
100
103.678
100
116.987
117.686
124.344
177.282
157.199
144.121
281.637
257.769
201.868
227.806
262.479
386.517
370.237
182.051
243.254
171.193
378.828
341.476
292.92
155.517
243.804
189.071
160.312
157.823
179.3
794.509
289.388
100
100
100
100
100
100
100
100
100
100
100
100
100
100
100
100
100
100
100
100
100
100
100
100
100
100
100
100
100
100
100
100
100
100
100
100
100
100
100
100
100
100
100
100
100
130.497
127.628
129.037
128.607
100
100
100
100
100
100
100
100
100
100
116.619
113.304
127.399
129.557
133.544
183.622
161.762
147.03
283.899
268.742
210.278
238.862
425.706
408.345
202.317
303.543
163.591
388.334
346.107
184.067
274.174
222.368
177.133
147.23
140.393
140.537
171.387
102.74
100
100
100
100
100
100
100
100
100
100
100
100
100
100
100
100
100
100
100
100
100
100
100
100
100
100
100
100
100
100
100
100
100
100
100
100
100
100
100
100
100
100
100
100
100
135.383
136.039
136.696
100
100
100
100
100
100
100
100
100
100
107.482
100
130.098
128.463
137.913
141.592
142.796
190.257
166.49
149.678
301.141
276.457
218.153
248.406
449.126
221.774
336.77
340.47
156.579
391.784
215.159
325.371
249.92
204.455
170.231
133.615
107.209
100
101.027
100
100
100
100
100
100
100
100
100
100
100
100
100
100
100
100
100
100
100
100
100
100
100
100
100
100
100
100
100
100
100
100
100
100
100
100
100
100
100
100
100
100
100
100
100
100
143.323
144.887
100
100
100
100
100
100
100
100
100
100
100
100
124.133
116.631
143.888
144.19
148.5
153.738
152.154
194.064
170.369
154.66
312.474
280.963
220.612
248.975
242.203
372.001
369.621
185.062
149.337
241.001
379.681
299.233
249.08
197.921
166.214
116.049
100
100
100
100
100
100
100
100
100
100
100
100
100
100
100
100
100
100
100
100
100
100
100
100
100
100
100
100
100
100
100
100
100
100
100
100
100
100
100
100
100
100
100
100
100
100
100
100
100
153.266
100
100
100
100
100
100
100
100
100
100
100
104.357
100
141.977
136.395
157.851
160.237
159.205
165.994
161.783
196.213
173.463
162.177
273.117
220.153
243.748
409.985
399.682
203.524
297.827
139.186
424.513
354.316
295.788
242.309
193.3
159.236
100.031
100
100
100
100
100
100
100
100
100
100
100
100
100
100
100
100
100
100
100
100
100
100
100
100
100
100
100
100
100
100
100
100
100
100
100
100
100
100
100
100
100
100
100
100
100
100
100
100
100
100
100
100
100
100
100
100
100
100
100
100
100
124.695
110.084
160.475
157.522
171.903
176.449
170.257
178.575
172.159
195.757
175.722
268.436
217.914
239.721
435.36
220.585
324.016
298.637
128.628
400.2
347.891
290.341
151.782
195.07
149.372
100
100
100
100
100
100
100
100
100
100
100
100
100
100
100
100
100
100
100
100
100
100
100
100
100
100
100
100
100
100
100
100
100
100
100
100
100
100
100
100
100
100
100
100
100
100
100
100
100
100
100
100
100
100
100
100
100
100
100
100
100
100
100
100
147.881
133.923
179.229
179.186
186.254
192.889
182.136
191.876
183.819
197.8
263.489
216.029
236.037
239.052
352.568
322.802
293.542
122.108
392.514
344.466
180.01
218.285
265.018
185.284
139.535
100
100
100
100
100
100
100
100
100
100
100
100
100
100
100
100
100
100
100
100
100
100
100
100
100
100
100
100
100
100
100
100
100
100
100
100
100
100
100
100
100
100
100
100
100
100
100
100
100
100
100
100
100
100
100
100
100
100
100
100
100
100
100
117.402
101.903
172.461
160.95
198.105
200.997
201.083
209.539
195.009
205.776
208.922
257.913
223.603
238.513
384.457
348.99
317.588
291.498
119.58
390.744
211.228
318.578
210.249
150.549
169.103
132.979
100
100
100
100
100
100
100
100
100
100
100
100
100
100
100
100
100
100
100
100
100
100
100
100
100
100
100
100
100
100
100
100
100
100
100
100
100
100
100
100
100
100
100
100
100
100
100
100
100
100
107.517
100
100
100.2
100
100
100
100
100
100
100
100
100
100
100
145.11
126.152
197.876
189.74
216.898
222.633
215.977
225.776
219.85
256.947
233.639
247.763
379.186
342.368
313.545
290.382
120.16
239
378.994
180.844
200.301
219.23
262.149
156.147
131.951
100
100
100
100
100
100
100
100
100
100
100
100
100
100
100
100
100
100
100
100
100
100
100
100
100
100
100
100
100
100
100
100
100
100
100
100
100
100
100
100
100
100
100
100
100
100
100
100
100
100
100
134.358
100
101.422
100
102.397
102.518
101.399
100
100.523
101.249
100.991
102.98
100
100
100
114.997
176.625
157.966
223.851
219.561
234.979
243.462
230.116
240.35
264.475
243.03
254.912
370.307
336.424
312.023
296.447
114.617
434.888
214.059
317.847
189.671
211.705
152.308
147.038
137.205
100
100
100
100
100
100
100
100
100
100
100
100
100
100
100
100
100
100
100
100
100
100
100
100
100
100
100
100
100
100
100
100
100
100
100
100
100
100
100
100
100
100
100
100
100
100
100
100
100
100
100
100
100
171.335
100.648
102.796
100
100
103.314
105.725
105.189
104.48
104.805
105.265
106.92
102.686
104.894
106.074
146.133
210.077
194.039
249.227
249.23
250.894
261.633
252.743
268.976
263.877
362.732
333.799
316.328
297.819
100
245.281
379.842
182.532
175.077
206.384
227.524
270.209
147.41
132.585
100
100
100
100
100
100
100
100
100
100
100
100
100
100
100
100
100
100
100
100
100
100
100
100
100
100
100
100
100
100
100
100
100
100
100
100
100
100
100
100
100
100
100
100
100
100
100
100
100
100
100
100
100
100
214.246
105.378
104.94
100
105.477
105.908
104.835
108.363
108.515
107.755
107.929
109.889
111.243
107.482
117.452
126.928
189.415
244.393
232.599
271.124
276.372
263.784
276.592
277.453
274.012
358.381
335.702
318.102
305.604