/*--------------------------------*- C++ -*----------------------------------*\
  =========                 |
  \\      /  F ield         | OpenFOAM: The Open Source CFD Toolbox
   \\    /   O peration     | Website:  https://openfoam.org
    \\  /    A nd           | Version:  dev
     \\/     M anipulation  |
\*---------------------------------------------------------------------------*/
FoamFile
{
    version     2.0;
    format      ascii;
    class       volScalarField;
    location    "2500";
    object      rho;
}
// * * * * * * * * * * * * * * * * * * * * * * * * * * * * * * * * * * * * * //

dimensions      [1 -3 0 0 0 0 0];

internalField   nonuniform List<scalar> 
9840
(
1.17173
1.17161
1.17168
1.17161
1.17126
1.17173
1.17165
1.17107
1.17125
1.17176
1.17171
1.17106
1.1709
1.17132
1.17179
1.17167
1.17109
1.17067
1.17095
1.17146
1.17185
1.17173
1.17124
1.1706
1.17063
1.17107
1.17151
1.17185
1.1717
1.17128
1.17061
1.17042
1.17068
1.1712
1.17158
1.17187
1.17173
1.17125
1.17065
1.17028
1.17039
1.17088
1.17129
1.17162
1.1719
1.17177
1.17129
1.17074
1.17025
1.17019
1.17051
1.17099
1.17135
1.17165
1.1719
1.17179
1.17132
1.17081
1.17033
1.17006
1.1702
1.17067
1.1711
1.17141
1.17168
1.17191
1.17179
1.17136
1.17091
1.17035
1.16998
1.16999
1.17034
1.17082
1.17119
1.17146
1.17171
1.17191
1.17179
1.17145
1.17093
1.17039
1.16998
1.16984
1.17003
1.1705
1.17091
1.17123
1.17149
1.17171
1.17192
1.17179
1.17145
1.17104
1.17049
1.17
1.16976
1.16984
1.1702
1.17065
1.17101
1.17128
1.17152
1.17172
1.17192
1.1718
1.17148
1.17107
1.17055
1.1701
1.16974
1.16967
1.16992
1.17036
1.17074
1.17106
1.17132
1.17154
1.17173
1.17193
1.17182
1.17154
1.17116
1.17069
1.17009
1.16969
1.16956
1.16971
1.17008
1.17048
1.17083
1.1711
1.17135
1.17155
1.17174
1.17193
1.17183
1.17154
1.17116
1.17068
1.17014
1.16975
1.16951
1.16952
1.16981
1.17022
1.17058
1.17089
1.17114
1.17138
1.17156
1.17175
1.17193
1.17184
1.17153
1.1712
1.17074
1.17026
1.16978
1.16947
1.16936
1.16957
1.16994
1.17034
1.17067
1.17095
1.17117
1.17139
1.17158
1.17175
1.17194
1.17183
1.17154
1.17121
1.17082
1.17033
1.16983
1.16949
1.16928
1.16939
1.16968
1.17009
1.17045
1.17073
1.171
1.1712
1.17139
1.17158
1.17176
1.17194
1.17183
1.17158
1.17128
1.17084
1.1704
1.16993
1.16948
1.16923
1.16924
1.16947
1.16984
1.1702
1.17052
1.1708
1.17102
1.17123
1.17141
1.17158
1.17175
1.17193
1.17183
1.17158
1.17131
1.17087
1.17048
1.16999
1.1695
1.16921
1.16913
1.16928
1.1696
1.16996
1.1703
1.17058
1.17083
1.17105
1.17125
1.17142
1.17158
1.17176
1.17193
1.17185
1.17158
1.17129
1.17093
1.17048
1.17001
1.16954
1.1692
1.16906
1.16912
1.16936
1.16973
1.17009
1.17037
1.17065
1.17088
1.17107
1.17125
1.17142
1.17159
1.17175
1.17193
1.17185
1.17157
1.17131
1.17096
1.1705
1.17008
1.16961
1.1692
1.16899
1.16899
1.16918
1.16951
1.16985
1.17017
1.17044
1.17069
1.17088
1.17108
1.17126
1.17142
1.17159
1.17175
1.17193
1.17184
1.17158
1.17129
1.17094
1.17053
1.17009
1.16964
1.16922
1.16895
1.16889
1.16902
1.1693
1.16963
1.16997
1.17024
1.17049
1.17071
1.17092
1.17109
1.17126
1.17142
1.17158
1.17175
1.17193
1.17186
1.1716
1.1713
1.17094
1.17054
1.1701
1.16966
1.16924
1.16894
1.16881
1.16887
1.1691
1.16943
1.16975
1.17005
1.17031
1.17053
1.17074
1.17093
1.1711
1.17126
1.17142
1.17157
1.17174
1.17192
1.17184
1.1716
1.1713
1.17094
1.17057
1.17013
1.1697
1.16927
1.16892
1.16875
1.16875
1.16892
1.16921
1.16956
1.16985
1.17012
1.17036
1.17056
1.17077
1.17094
1.1711
1.17126
1.17141
1.17156
1.17173
1.17192
1.17184
1.17159
1.17129
1.17094
1.17056
1.17014
1.16973
1.1693
1.16892
1.16871
1.16865
1.16876
1.16903
1.16934
1.16965
1.16992
1.17017
1.17039
1.1706
1.17077
1.17094
1.1711
1.17125
1.1714
1.17156
1.17172
1.17192
1.17183
1.1716
1.17128
1.17091
1.17054
1.17015
1.16974
1.16932
1.16893
1.16868
1.16858
1.16864
1.16885
1.16917
1.16945
1.16974
1.16999
1.17023
1.17042
1.17061
1.17078
1.17094
1.1711
1.17124
1.17139
1.17155
1.17172
1.17191
1.17184
1.17158
1.17127
1.1709
1.17053
1.17015
1.16974
1.16933
1.16895
1.16866
1.16851
1.16852
1.16868
1.16896
1.16929
1.16955
1.16982
1.17005
1.17025
1.17044
1.17062
1.17078
1.17094
1.17108
1.17123
1.17137
1.17153
1.17172
1.17191
1.17183
1.17156
1.17125
1.17089
1.17051
1.17013
1.16973
1.16933
1.16896
1.16864
1.16847
1.16843
1.16854
1.16878
1.16909
1.16937
1.16963
1.16987
1.17007
1.17028
1.17046
1.17063
1.17078
1.17093
1.17107
1.17121
1.17136
1.17152
1.1717
1.17191
1.17183
1.17155
1.17121
1.17086
1.17046
1.17009
1.16971
1.16933
1.16897
1.16864
1.16843
1.16835
1.16842
1.16862
1.1689
1.1692
1.16948
1.16969
1.16991
1.17011
1.1703
1.17047
1.17063
1.17077
1.17091
1.17105
1.17119
1.17134
1.17151
1.17169
1.1719
1.17181
1.17153
1.17119
1.17082
1.17044
1.17006
1.1697
1.16929
1.16894
1.16862
1.16839
1.16828
1.16831
1.16847
1.16871
1.16902
1.1693
1.16953
1.16976
1.16995
1.17014
1.17032
1.17047
1.17062
1.17076
1.17089
1.17103
1.17117
1.17132
1.17148
1.17168
1.1719
1.1718
1.1715
1.17115
1.17077
1.17039
1.17001
1.16965
1.16929
1.16893
1.16861
1.16836
1.16822
1.16822
1.16834
1.16857
1.16884
1.16912
1.16937
1.1696
1.16982
1.16999
1.17016
1.17032
1.17047
1.1706
1.17074
1.17087
1.171
1.17114
1.17129
1.17146
1.17166
1.1719
1.17178
1.17149
1.17109
1.1707
1.17032
1.16995
1.1696
1.16926
1.1689
1.16858
1.16833
1.16818
1.16813
1.16822
1.16842
1.16868
1.16896
1.16922
1.16945
1.16965
1.16989
1.17002
1.17018
1.17032
1.17046
1.17058
1.17071
1.17084
1.17097
1.17111
1.17126
1.17144
1.17165
1.17201
1.17188
1.17177
1.17143
1.17105
1.17064
1.17024
1.16989
1.16954
1.16921
1.16888
1.16854
1.1683
1.16813
1.16805
1.16811
1.16826
1.16852
1.16879
1.16907
1.16931
1.16951
1.16969
1.16992
1.17004
1.17018
1.17031
1.17044
1.17056
1.17068
1.1708
1.17093
1.17107
1.17124
1.17146
1.17175
1.17162
1.17201
1.17188
1.17176
1.1714
1.171
1.17057
1.17017
1.1698
1.16946
1.16915
1.16881
1.16849
1.16826
1.16809
1.16799
1.16801
1.16814
1.16838
1.16864
1.16891
1.16917
1.16937
1.16955
1.16973
1.16991
1.17004
1.17017
1.17029
1.1704
1.17052
1.17064
1.17076
1.17089
1.17104
1.17128
1.17118
1.17149
1.17134
1.17137
1.17175
1.17161
1.17201
1.17188
1.1718
1.17135
1.17093
1.1705
1.1701
1.16972
1.16939
1.16908
1.16876
1.16847
1.16823
1.16804
1.16792
1.16792
1.16803
1.16822
1.16848
1.16873
1.16899
1.16924
1.16943
1.16959
1.16978
1.16991
1.17004
1.17015
1.17025
1.17036
1.17047
1.17059
1.17072
1.17086
1.17108
1.17099
1.17122
1.17148
1.17126
1.17135
1.17174
1.1716
1.17201
1.17187
1.17179
1.17139
1.17088
1.17043
1.17001
1.16965
1.16931
1.16902
1.16871
1.16843
1.16818
1.16798
1.16787
1.16785
1.16793
1.1681
1.16834
1.16859
1.16881
1.16902
1.16929
1.16949
1.16965
1.1698
1.1699
1.17
1.17009
1.17019
1.17029
1.1704
1.17054
1.17068
1.17089
1.1708
1.1711
1.17099
1.17115
1.17146
1.17124
1.17134
1.17173
1.17158
1.17201
1.17186
1.17176
1.17135
1.17077
1.17035
1.16992
1.16957
1.16924
1.16894
1.16864
1.16836
1.16812
1.16793
1.16781
1.16777
1.16783
1.16797
1.16819
1.16845
1.16868
1.16888
1.16906
1.16931
1.16954
1.16967
1.16977
1.16983
1.16987
1.16993
1.17002
1.17015
1.1703
1.17048
1.17071
1.17062
1.17089
1.17079
1.17105
1.17095
1.17112
1.17144
1.17121
1.17131
1.17171
1.17156
1.172
1.17185
1.17174
1.17127
1.17064
1.17021
1.16984
1.16948
1.16915
1.16884
1.16857
1.16829
1.16805
1.16786
1.16774
1.16769
1.16773
1.16784
1.16805
1.1683
1.16854
1.16878
1.16894
1.1691
1.16933
1.16954
1.16961
1.16955
1.16937
1.16919
1.16915
1.16934
1.16967
1.17009
1.1705
1.17037
1.17069
1.17059
1.17085
1.17075
1.17102
1.17091
1.1711
1.17142
1.17118
1.17128
1.17169
1.17154
1.17199
1.17184
1.17172
1.1711
1.17053
1.1701
1.16974
1.1694
1.16907
1.16876
1.16847
1.16821
1.16798
1.1678
1.16767
1.16761
1.16763
1.16774
1.16791
1.16815
1.16841
1.16863
1.16886
1.16901
1.16916
1.16935
1.16938
1.16899
1.16807
1.16691
1.16601
1.16596
1.16681
1.16809
1.17014
1.16958
1.17046
1.17028
1.17065
1.17053
1.17081
1.17071
1.17099
1.17088
1.17106
1.17139
1.17115
1.17124
1.17167
1.17151
1.17199
1.17182
1.17162
1.17102
1.17055
1.17002
1.16965
1.16931
1.16898
1.16867
1.16838
1.16812
1.1679
1.16772
1.1676
1.16754
1.16755
1.16763
1.16778
1.16801
1.16826
1.16848
1.16872
1.16891
1.16902
1.16914
1.16909
1.16824
1.16592
1.1621
1.15878
1.15713
1.15805
1.16113
1.16789
1.16332
1.16989
1.16873
1.17036
1.17004
1.17059
1.17043
1.17077
1.17065
1.17095
1.17083
1.17102
1.17135
1.17111
1.1712
1.17164
1.17147
1.17198
1.1718
1.1716
1.17113
1.17045
1.16996
1.16958
1.16922
1.16889
1.16859
1.1683
1.16803
1.16781
1.16764
1.16752
1.16746
1.16746
1.16753
1.16766
1.16787
1.16811
1.16836
1.16857
1.16882
1.16896
1.16901
1.16883
1.16751
1.16365
1.15752
1.15078
1.14645
1.14443
1.14659
1.15774
1.15035
1.16553
1.15965
1.16918
1.16678
1.17013
1.16942
1.17049
1.17019
1.17071
1.17053
1.1709
1.17076
1.17097
1.17131
1.17105
1.17114
1.17161
1.17143
1.17197
1.17177
1.17163
1.17109
1.17044
1.16994
1.16951
1.16915
1.16881
1.1685
1.16821
1.16794
1.16772
1.16755
1.16743
1.16738
1.16737
1.16743
1.16754
1.16773
1.16797
1.16822
1.16842
1.16867
1.16887
1.16893
1.16861
1.16681
1.16182
1.15348
1.14567
1.14036
1.13637
1.13425
1.14396
1.13648
1.15302
1.14592
1.16158
1.15519
1.16746
1.16289
1.16951
1.16769
1.17021
1.16946
1.17057
1.17018
1.17082
1.17059
1.17089
1.17125
1.17096
1.17106
1.17157
1.17138
1.17195
1.17174
1.17162
1.17104
1.17045
1.16985
1.16947
1.16909
1.16874
1.16842
1.16812
1.16785
1.16763
1.16746
1.16734
1.16729
1.16729
1.16733
1.16744
1.1676
1.16782
1.16807
1.16831
1.16852
1.16877
1.16889
1.16856
1.16649
1.16036
1.15114
1.1449
1.14004
1.1354
1.13104
1.13158
1.12824
1.13872
1.13231
1.14815
1.14081
1.1567
1.14979
1.16342
1.15734
1.16751
1.1631
1.16924
1.1669
1.17009
1.16882
1.17061
1.16996
1.17065
1.17117
1.17071
1.17082
1.17153
1.17131
1.17194
1.1717
1.17161
1.171
1.17041
1.16982
1.16941
1.16904
1.16868
1.16835
1.16804
1.16776
1.16753
1.16736
1.16725
1.1672
1.16719
1.16724
1.16733
1.16747
1.16768
1.16793
1.16819
1.16838
1.16862
1.1688
1.16855
1.16649
1.15988
1.15086
1.14631
1.14242
1.1379
1.1327
1.12675
1.12772
1.1254
1.13376
1.12787
1.14245
1.13511
1.15045
1.14312
1.15693
1.14992
1.16185
1.1553
1.16579
1.1597
1.16822
1.16413
1.16981
1.1675
1.16972
1.17098
1.16974
1.16993
1.17147
1.17117
1.17192
1.17166
1.17159
1.17099
1.17039
1.16984
1.16936
1.169
1.16863
1.16828
1.16796
1.16767
1.16744
1.16726
1.16715
1.1671
1.1671
1.16715
1.16723
1.16736
1.16755
1.16778
1.16804
1.16826
1.16848
1.16867
1.16853
1.16659
1.15997
1.15109
1.148
1.14698
1.14539
1.1382
1.13116
1.12296
1.12491
1.12413
1.12281
1.12848
1.12336
1.13568
1.12867
1.14247
1.13495
1.14799
1.1403
1.15236
1.1445
1.1567
1.14827
1.16204
1.15303
1.16681
1.15987
1.16635
1.17027
1.16627
1.16672
1.17138
1.17071
1.1719
1.1716
1.17157
1.17098
1.1704
1.16982
1.16933
1.16896
1.16859
1.16822
1.16788
1.16758
1.16734
1.16716
1.16705
1.167
1.167
1.16704
1.16714
1.16725
1.16741
1.16764
1.16789
1.16815
1.16835
1.16855
1.16851
1.16686
1.16035
1.15143
1.14899
1.15034
1.15453
1.14779
1.1373
1.12774
1.13074
1.1204
1.12269
1.12051
1.11986
1.12276
1.11856
1.12778
1.12145
1.13261
1.12534
1.13645
1.12851
1.13951
1.1309
1.14318
1.13334
1.14892
1.13747
1.15801
1.14488
1.15685
1.16768
1.15677
1.15794
1.17115
1.16898
1.17188
1.17151
1.17153
1.17097
1.17042
1.16982
1.16937
1.16896
1.16855
1.16817
1.16781
1.1675
1.16725
1.16706
1.16695
1.16689
1.16689
1.16694
1.16704
1.16714
1.16729
1.16749
1.16774
1.16801
1.16822
1.16844
1.16848
1.1672
1.16122
1.15179
1.14941
1.15186
1.15952
1.15844
1.14524
1.13147
1.13223
1.12557
1.12693
1.11735
1.11995
1.11661
1.11647
1.11649
1.11335
1.11883
1.11349
1.12111
1.11454
1.12264
1.11503
1.12386
1.11513
1.12628
1.11581
1.13156
1.11888
1.14148
1.12612
1.13917
1.16026
1.13859
1.14048
1.17033
1.16378
1.17186
1.17128
1.17147
1.17092
1.17043
1.16985
1.16945
1.16898
1.16854
1.16814
1.16776
1.16742
1.16715
1.16696
1.16684
1.16679
1.16679
1.16683
1.16692
1.16704
1.16717
1.16736
1.16759
1.16786
1.16812
1.16832
1.16842
1.16749
1.16229
1.15234
1.14957
1.15207
1.16069
1.1646
1.15827
1.13261
1.1268
1.1251
1.12198
1.12238
1.11386
1.1162
1.11229
1.11247
1.10966
1.10769
1.10906
1.10493
1.10843
1.10299
1.10726
1.10057
1.1063
1.09812
1.10718
1.09664
1.11171
1.0986
1.12176
1.10563
1.11905
1.14504
1.11837
1.12023
1.16763
1.15233
1.17181
1.17051
1.17082
1.1704
1.16989
1.16951
1.169
1.16854
1.16811
1.16771
1.16735
1.16706
1.16686
1.16674
1.16668
1.16668
1.16672
1.16678
1.16692
1.16706
1.16723
1.16745
1.16771
1.168
1.16819
1.16835
1.1677
1.16331
1.1532
1.14958
1.15181
1.1604
1.16623
1.16571
1.15288
1.12182
1.12927
1.12169
1.12123
1.11738
1.11734
1.10968
1.11151
1.10737
1.10787
1.1024
1.10157
1.09881
1.0961
1.09527
1.09129
1.09126
1.08619
1.08811
1.08203
1.08726
1.07997
1.09078
1.07979
1.10095
1.0849
1.09827
1.12501
1.09763
1.09979
1.16059
1.13411
1.17175
1.16835
1.17033
1.16989
1.16954
1.16901
1.16856
1.1681
1.16767
1.16728
1.16698
1.16676
1.16663
1.16658
1.16657
1.16661
1.16668
1.16678
1.16693
1.1671
1.16731
1.16756
1.16784
1.16807
1.16825
1.16784
1.16422
1.1544
1.14956
1.15113
1.15915
1.16614
1.16791
1.16558
1.1417
1.15706
1.11976
1.12997
1.11647
1.11649
1.11211
1.11189
1.10473
1.10613
1.10172
1.10279
1.09493
1.09493
1.0887
1.08749
1.0828
1.08078
1.07883
1.07709
1.07678
1.07556
1.07542
1.07436
1.07495
1.07291
1.08057
1.07123
1.07894
1.10517
1.07853
1.07985
1.09145
1.14738
1.11454
1.17165
1.16424
1.16986
1.16953
1.16905
1.16857
1.1681
1.16764
1.16723
1.1669
1.16667
1.16653
1.16647
1.16646
1.1665
1.16657
1.16666
1.16679
1.16697
1.16716
1.16739
1.16767
1.16796
1.16815
1.16792
1.16497
1.15577
1.14956
1.15031
1.15725
1.1653
1.16812
1.16843
1.1663
1.14592
1.15828
1.11961
1.13354
1.11183
1.11379
1.10655
1.10712
1.09923
1.10056
1.09561
1.09744
1.08743
1.08804
1.08004
1.08025
1.07617
1.07606
1.07508
1.075
1.07478
1.07582
1.07378
1.07699
1.07076
1.07476
1.06876
1.06958
1.06847
1.07171
1.06674
1.08222
1.09794
1.08423
1.07199
1.06563
1.06671
1.07233
1.14286
1.12506
1.08826
1.09222
1.1084
1.17089
1.13408
1.16338
1.14754
1.16952
1.16911
1.16861
1.16811
1.16762
1.16718
1.16683
1.16658
1.16643
1.16636
1.16635
1.16638
1.16645
1.16653
1.16665
1.1668
1.16699
1.16722
1.16749
1.16781
1.16802
1.16796
1.16559
1.15716
1.14964
1.14961
1.15558
1.16377
1.16781
1.16876
1.16879
1.16593
1.16863
1.14911
1.16054
1.12373
1.13962
1.10905
1.11346
1.10226
1.10484
1.09467
1.09763
1.0898
1.09207
1.08119
1.08327
1.07636
1.07735
1.07503
1.07533
1.07726
1.07822
1.0822
1.08606
1.07853
1.08352
1.08767
1.09193
1.07258
1.07832
1.0864
1.09211
1.08443
1.06948
1.06637
1.06838
1.07305
1.06539
1.07375
1.07611
1.06579
1.06348
1.06444
1.06615
1.11486
1.07921
1.08279
1.09755
1.1492
1.15791
1.12268
1.13313
1.16915
1.16865
1.16814
1.16762
1.16715
1.16677
1.1665
1.16633
1.16625
1.16622
1.16624
1.1663
1.16639
1.16649
1.16663
1.16681
1.16702
1.16729
1.16761
1.16792
1.16795
1.16611
1.15849
1.14991
1.14908
1.15411
1.1622
1.16722
1.16869
1.16901
1.16918
1.16765
1.16892
1.15436
1.16355
1.13154
1.14749
1.10897
1.11743
1.1009
1.10537
1.09318
1.09728
1.08611
1.08951
1.07923
1.08193
1.07612
1.0776
1.0787
1.07906
1.08778
1.08779
1.0947
1.09704
1.09808
1.09855
1.09265
1.09779
1.10176
1.07937
1.08714
1.09849
1.10392
1.09553
1.07311
1.06726
1.07261
1.08026
1.06625
1.06708
1.06873
1.06278
1.06505
1.0637
1.06233
1.10283
1.07109
1.07376
1.08657
1.10368
1.14212
1.12218
1.09943
1.10791
1.11103
1.16868
1.16818
1.16763
1.16712
1.16671
1.16641
1.16622
1.1661
1.16603
1.16603
1.16607
1.16616
1.16628
1.16642
1.16659
1.1668
1.16708
1.1674
1.1678
1.16791
1.16657
1.15973
1.15035
1.14869
1.15286
1.1607
1.16658
1.16848
1.16896
1.16918
1.16932
1.16936
1.16847
1.16919
1.15974
1.16611
1.14116
1.1553
1.11328
1.12566
1.10266
1.11057
1.09457
1.10083
1.08542
1.08958
1.08005
1.08355
1.07994
1.08184
1.08718
1.08693
1.09831
1.09767
1.09689
1.09608
1.10434
1.10586
1.10615
1.10588
1.10445
1.10921
1.11229
1.08905
1.09886
1.1112
1.11742
1.10872
1.08048
1.07178
1.08
1.09028
1.07048
1.06238
1.06294
1.06231
1.06874
1.0666
1.06101
1.09004
1.06419
1.06594
1.07637
1.09167
1.08523
1.15159
1.10237
1.09193
1.16823
1.16765
1.1671
1.16665
1.16633
1.16608
1.16588
1.16572
1.16564
1.16564
1.16573
1.16588
1.16607
1.16628
1.16652
1.16679
1.16715
1.16759
1.1678
1.16697
1.16093
1.15094
1.14842
1.15181
1.1593
1.16587
1.16823
1.16887
1.16909
1.1693
1.16943
1.16944
1.16903
1.16937
1.16401
1.16777
1.15089
1.16142
1.12188
1.13626
1.10904
1.11976
1.10044
1.10883
1.0881
1.09366
1.08509
1.08974
1.08795
1.09084
1.09553
1.09531
1.09547
1.09638
1.10497
1.10401
1.10304
1.1024
1.11375
1.11401
1.11353
1.11255
1.11681
1.12029
1.12164
1.1014
1.11274
1.12402
1.13047
1.12285
1.09053
1.07886
1.08974
1.10277
1.07704
1.05996
1.0594
1.06408
1.07458
1.07148
1.06154
1.07852
1.05931
1.05985
1.06796
1.07937
1.07907
1.08025
1.16487
1.11852
1.1677
1.1671
1.16661
1.16623
1.1659
1.16554
1.16518
1.16489
1.16474
1.16478
1.16501
1.16533
1.16569
1.16601
1.16639
1.16683
1.16733
1.1677
1.16726
1.1621
1.15172
1.14827
1.15091
1.15801
1.16507
1.16794
1.16873
1.16902
1.1692
1.16943
1.16937
1.1695
1.16949
1.16932
1.16948
1.1667
1.1687
1.15844
1.16523
1.13291
1.14692
1.11911
1.1311
1.11082
1.12035
1.09567
1.10265
1.09554
1.10179
1.10197
1.10754
1.10217
1.10232
1.10288
1.10357
1.11151
1.11065
1.11027
1.11032
1.1218
1.12127
1.1203
1.1194
1.12782
1.12915
1.12931
1.1154
1.12691
1.13468
1.14067
1.13575
1.10268
1.088
1.1012
1.11642
1.08535
1.05927
1.05757
1.06783
1.08187
1.07758
1.0639
1.06971
1.05644
1.05579
1.06113
1.07075
1.07179
1.08106
1.16386
1.11351
1.16712
1.16657
1.16613
1.16566
1.16507
1.16431
1.16357
1.16302
1.16295
1.16328
1.16386
1.16449
1.16506
1.16563
1.16625
1.16697
1.1675
1.16737
1.16325
1.1527
1.14821
1.15012
1.15682
1.16412
1.16759
1.16858
1.16891
1.16912
1.1693
1.16949
1.16946
1.16956
1.16954
1.16951
1.16956
1.16821
1.16923
1.16351
1.16765
1.14382
1.1554
1.13108
1.14234
1.12539
1.13456
1.10907
1.11691
1.11435
1.1218
1.11893
1.12199
1.12869
1.12518
1.1109
1.11203
1.11375
1.11603
1.11895
1.11895
1.11948
1.12063
1.1289
1.12816
1.12771
1.12769
1.13613
1.1364
1.13632
1.12923
1.13944
1.14251
1.14804
1.14556
1.1156
1.09848
1.11308
1.12959
1.09459
1.06004
1.05685
1.0726
1.0897
1.0839
1.06719
1.06273
1.05469
1.05327
1.05582
1.06444
1.06689
1.07565
1.12671
1.08406
1.16656
1.16602
1.16539
1.16441
1.16309
1.16163
1.1606
1.16029
1.16072
1.16162
1.16267
1.16362
1.16447
1.16521
1.16638
1.16717
1.16734
1.16439
1.15394
1.14821
1.14942
1.15566
1.16299
1.16715
1.1684
1.16879
1.16902
1.16922
1.16944
1.16938
1.16955
1.1695
1.16962
1.16959
1.16962
1.16963
1.16913
1.16953
1.16723
1.16905
1.15318
1.16212
1.14412
1.15374
1.14406
1.15146
1.12935
1.13677
1.13222
1.13605
1.14474
1.1325
1.13526
1.14008
1.13777
1.12227
1.12438
1.12691
1.12964
1.12813
1.12916
1.13065
1.1325
1.136
1.13598
1.13628
1.13701
1.14305
1.14322
1.1433
1.14125
1.14915
1.14895
1.15347
1.15237
1.12781
1.10898
1.12387
1.14091
1.10349
1.06183
1.0571
1.0774
1.09689
1.08936
1.07046
1.05699
1.05365
1.05154
1.05246
1.05932
1.06115
1.06336
1.0858
1.06306
1.16592
1.16507
1.16366
1.16157
1.15934
1.15762
1.15694
1.15731
1.15853
1.16011
1.16165
1.16293
1.16389
1.16528
1.16665
1.16724
1.16533
1.15545
1.1483
1.1488
1.15451
1.16169
1.16659
1.16819
1.16867
1.16892
1.16912
1.16931
1.16951
1.16944
1.16959
1.16956
1.16968
1.16963
1.1697
1.1697
1.16955
1.16967
1.16907
1.16959
1.16222
1.16726
1.15861
1.16439
1.15802
1.16207
1.14968
1.15339
1.14213
1.14368
1.14722
1.14889
1.14065
1.14174
1.14372
1.14273
1.13449
1.13644
1.13812
1.13947
1.13799
1.13905
1.13993
1.14049
1.14342
1.14367
1.14388
1.14388
1.14921
1.14922
1.14906
1.15063
1.15496
1.1536
1.15632
1.15625
1.13776
1.11805
1.13202
1.14894
1.11069
1.06368
1.05769
1.0812
1.10219
1.09287
1.07282
1.05284
1.05324
1.05036
1.05033
1.05471
1.05593
1.05591
1.11838
1.06823
1.16474
1.16283
1.15999
1.15686
1.15438
1.15309
1.15324
1.1546
1.15674
1.15901
1.16093
1.16231
1.1639
1.16564
1.16701
1.1659
1.15726
1.14854
1.14825
1.15337
1.16028
1.16582
1.16793
1.16853
1.16881
1.16902
1.16921
1.16944
1.16937
1.16957
1.16953
1.16965
1.16961
1.16972
1.16968
1.16976
1.16975
1.16972
1.16976
1.16962
1.16976
1.16774
1.16916
1.16559
1.16778
1.15767
1.16142
1.15088
1.15253
1.1534
1.14472
1.14583
1.13798
1.13957
1.13878
1.1377
1.13653
1.13691
1.14071
1.14062
1.14032
1.13959
1.14364
1.14276
1.14144
1.13962
1.14845
1.14742
1.14593
1.14393
1.15333
1.15209
1.15036
1.15494
1.15679
1.15535
1.1561
1.15699
1.14383
1.12427
1.13627
1.15195
1.11499
1.06492
1.05818
1.08308
1.1046
1.0936
1.07357
1.05001
1.05291
1.04939
1.04881
1.05094
1.05248
1.05429
1.15719
1.0879
1.16203
1.15849
1.15446
1.15109
1.14907
1.14873
1.15005
1.15258
1.15559
1.15837
1.16048
1.16233
1.16426
1.16647
1.1661
1.15912
1.14904
1.14778
1.15225
1.15886
1.1647
1.16755
1.16836
1.16867
1.16891
1.16911
1.16929
1.16952
1.16943
1.16961
1.16956
1.1697
1.16965
1.16977
1.16974
1.1698
1.16979
1.16979
1.1698
1.16973
1.16983
1.16896
1.1695
1.1648
1.16702
1.14021
1.1443
1.14681
1.14186
1.14489
1.13599
1.13145
1.13649
1.13698
1.11901
1.12111
1.12449
1.1216
1.11797
1.11934
1.13716
1.13428
1.13108
1.12773
1.14123
1.13777
1.13363
1.12895
1.14799
1.145
1.14125
1.13667
1.15341
1.15086
1.14754
1.15532
1.15625
1.15412
1.15383
1.156
1.14526
1.1266
1.13618
1.15127
1.11563
1.06511
1.05811
1.08273
1.10388
1.09169
1.07273
1.04806
1.05254
1.04852
1.04763
1.04832
1.05022
1.05824
1.1571
1.09148
1.15705
1.15234
1.14803
1.14522
1.14423
1.14521
1.14785
1.15151
1.1553
1.15829
1.16057
1.16271
1.16531
1.16605
1.16083
1.14991
1.14739
1.15114
1.1574
1.16321
1.167
1.16816
1.16853
1.16877
1.169
1.16919
1.16942
1.16934
1.16955
1.16951
1.16965
1.16961
1.16976
1.1697
1.1698
1.16979
1.16985
1.16982
1.16985
1.16986
1.16971
1.16987
1.16851
1.16933
1.15501
1.16164
1.12626
1.13242
1.12634
1.13339
1.12408
1.1276
1.12051
1.11514
1.11757
1.11781
1.09885
1.10188
1.10403
1.10037
1.09643
1.0977
1.12388
1.1186
1.11338
1.10846
1.13143
1.1257
1.11955
1.11325
1.14312
1.13749
1.13106
1.12436
1.1508
1.14625
1.14021
1.15366
1.15387
1.14991
1.14778
1.1521
1.14376
1.12541
1.13325
1.14788
1.11303
1.06419
1.05728
1.07993
1.09935
1.08547
1.06972
1.0467
1.05172
1.04773
1.0467
1.04684
1.04952
1.0622
1.12207
1.07892
1.15037
1.14553
1.1418
1.14019
1.14067
1.14305
1.14702
1.15161
1.15553
1.15853
1.16101
1.1638
1.16583
1.16223
1.15117
1.14713
1.15003
1.15586
1.16159
1.16608
1.16789
1.16838
1.16863
1.16886
1.16909
1.16927
1.1695
1.16939
1.1696
1.16954
1.16971
1.16965
1.16981
1.16977
1.16985
1.16982
1.16992
1.1699
1.16994
1.16994
1.16952
1.16987
1.16616
1.16852
1.13915
1.14593
1.15224
1.11425
1.12027
1.12082
1.12685
1.10574
1.11019
1.10832
1.10255
1.09618
1.09692
1.08312
1.08721
1.08482
1.08126
1.07824
1.07893
1.10686
1.10061
1.09472
1.08935
1.11781
1.11118
1.10433
1.09761
1.13301
1.12522
1.11749
1.11001
1.14408
1.13668
1.1281
1.14878
1.1475
1.14102
1.13661
1.14343
1.13843
1.1204
1.12545
1.13981
1.10525
1.06178
1.05566
1.07386
1.08987
1.07737
1.06525
1.04576
1.0508
1.04703
1.04596
1.04612
1.05128
1.0655
1.15357
1.10319
1.14332
1.13924
1.13704
1.13706
1.13889
1.1426
1.14747
1.15225
1.15617
1.15917
1.16217
1.16523
1.16312
1.1527
1.14705
1.14894
1.15426
1.15982
1.16461
1.16749
1.16821
1.16849
1.16872
1.16895
1.16916
1.16935
1.16954
1.16947
1.16966
1.1696
1.16978
1.16972
1.16984
1.16982
1.16993
1.16988
1.17
1.16997
1.16999
1.17001
1.16916
1.16984
1.16196
1.16709
1.13305
1.13967
1.15072
1.14314
1.10936
1.11505
1.11986
1.12537
1.09185
1.097
1.10361
1.09773
1.07846
1.08009
1.07328
1.07879
1.07008
1.06692
1.06497
1.06529
1.09108
1.08488
1.07924
1.07425
1.10307
1.09612
1.08923
1.08271
1.11934
1.11064
1.10237
1.09466
1.13239
1.1231
1.11325
1.13931
1.13638
1.128
1.12267
1.13088
1.12797
1.10973
1.11225
1.12834
1.09344
1.05896
1.05402
1.06819
1.08002
1.07018
1.06151
1.04511
1.04958
1.04644
1.04536
1.04618
1.05305
1.07205
1.16997
1.14038
1.13735
1.13523
1.13477
1.13591
1.13884
1.14341
1.14872
1.15352
1.1572
1.16048
1.16414
1.16339
1.15435
1.14711
1.14792
1.15262
1.15793
1.1628
1.16683
1.168
1.16834
1.16857
1.16879
1.16902
1.16924
1.16949
1.16953
1.1694
1.16959
1.16972
1.16966
1.16981
1.16977
1.16989
1.16984
1.16999
1.16994
1.17007
1.17004
1.17003
1.17008
1.16899
1.16984
1.15873
1.16622
1.13116
1.1372
1.14969
1.14354
1.10925
1.11455
1.12238
1.12708
1.08506
1.09153
1.10376
1.0979
1.06604
1.06891
1.06835
1.07591
1.05834
1.05613
1.05578
1.05546
1.07655
1.07089
1.06589
1.06167
1.08775
1.08094
1.07442
1.06843
1.10368
1.09457
1.08625
1.07875
1.11792
1.10728
1.09648
1.12682
1.12207
1.11261
1.104
1.11429
1.11273
1.09509
1.09537
1.11123
1.08111
1.05652
1.0528
1.06355
1.07138
1.06598
1.05886
1.0448
1.04916
1.04614
1.04502
1.04654
1.0555
1.08751
1.17104
1.15348
1.13445
1.13376
1.13423
1.13626
1.14014
1.1453
1.15068
1.15506
1.15874
1.1628
1.16331
1.15602
1.14736
1.147
1.15098
1.15593
1.16076
1.16558
1.16771
1.16819
1.16843
1.16865
1.16887
1.1691
1.1693
1.16958
1.16955
1.16945
1.16964
1.16975
1.1697
1.16984
1.16979
1.16995
1.16989
1.17006
1.17
1.17014
1.17011
1.17008
1.17013
1.16911
1.16989
1.15609
1.16207
1.16662
1.13219
1.1377
1.15106
1.14595
1.11353
1.11795
1.1283
1.13205
1.08394
1.09136
1.10873
1.10291
1.05794
1.06224
1.0658
1.07583
1.04813
1.04713
1.04854
1.04708
1.06293
1.05805
1.05388
1.05056
1.0722
1.06589
1.06005
1.05488
1.08651
1.07751
1.06967
1.06284
1.10121
1.08934
1.078
1.10608
1.09821
1.09224
1.07917
1.08905
1.09407
1.08143
1.08118
1.09001
1.07221
1.05569
1.05242
1.0612
1.06711
1.06322
1.058
1.0447
1.04896
1.04612
1.04488
1.04716
1.06015
1.10306
1.17182
1.16606
1.13361
1.13363
1.13509
1.13807
1.14257
1.14789
1.15282
1.15695
1.1613
1.16306
1.15756
1.14796
1.14621
1.14936
1.15388
1.15855
1.16367
1.16725
1.16802
1.1683
1.16851
1.16872
1.16894
1.16916
1.16937
1.16961
1.16957
1.16951
1.16967
1.16977
1.16972
1.16989
1.16983
1.17
1.16995
1.17012
1.17006
1.17018
1.17016
1.17011
1.17017
1.16961
1.17003
1.15884
1.16263
1.16871
1.16691
1.13626
1.14094
1.15465
1.15037
1.12155
1.12491
1.13639
1.13918
1.08636
1.09566
1.11754
1.11178
1.052
1.05775
1.06372
1.07626
1.03957
1.0393
1.04233
1.03979
1.05029
1.04639
1.04319
1.04083
1.05699
1.05153
1.04662
1.0425
1.06843
1.06053
1.05398
1.04854
1.08033
1.06906
1.05948
1.08408
1.07809
1.07019
1.06903
1.07315
1.07937
1.07321
1.07329
1.07701
1.06856
1.05497
1.05228
1.06093
1.06563
1.06274
1.05795
1.04475
1.04883
1.04665
1.04488
1.04836
1.06737
1.12267
1.17193
1.16809
1.13373
1.13487
1.1373
1.14084
1.14561
1.15058
1.15514
1.15974
1.16246
1.15865
1.14875
1.14561
1.14783
1.15181
1.15622
1.16135
1.16645
1.1678
1.16815
1.16838
1.16858
1.16879
1.16901
1.16921
1.16945
1.16953
1.16964
1.1696
1.16969
1.16982
1.16975
1.16994
1.16988
1.17006
1.17
1.17016
1.17011
1.17022
1.17019
1.17019
1.17021
1.16895
1.1698
1.1701
1.1702
1.16184
1.16464
1.1681
1.14247
1.14625
1.15875
1.15559
1.13159
1.134
1.14544
1.14733
1.09061
1.10301
1.12816
1.122
1.04689
1.05387
1.06142
1.07583
1.03266
1.03274
1.03712
1.03405
1.03905
1.03636
1.03423
1.03303
1.04399
1.04014
1.03697
1.03443
1.05321
1.04786
1.04408
1.0408
1.06333
1.05729
1.05477
1.07409
1.07337
1.06709
1.07062
1.0722
1.07377
1.07003
1.07176
1.07377
1.06838
1.05503
1.05218
1.0612
1.06662
1.06411
1.05774
1.04503
1.04874
1.04716
1.04496
1.05032
1.07494
1.12928
1.17204
1.17068
1.13522
1.13726
1.14022
1.14406
1.14868
1.15332
1.15817
1.16163
1.15912
1.14969
1.14521
1.1464
1.14977
1.15382
1.15882
1.16493
1.16748
1.16799
1.16824
1.16845
1.16865
1.16885
1.16906
1.16924
1.16957
1.16956
1.16959
1.16947
1.16966
1.16963
1.16973
1.16986
1.1698
1.16999
1.16993
1.17011
1.17005
1.1702
1.17016
1.17027
1.17024
1.17027
1.17029
1.16955
1.16999
1.17011
1.17023
1.16484
1.16669
1.169
1.1497
1.1525
1.16279
1.16069
1.14202
1.14388
1.15422
1.15532
1.09279
1.10986
1.13837
1.13062
1.04251
1.05029
1.0587
1.07458
1.029
1.02924
1.03359
1.03069
1.03229
1.0306
1.02964
1.02917
1.0383
1.03601
1.03408
1.03237
1.04994
1.04712
1.04423
1.04171
1.06388
1.06047
1.0714
1.07432
1.08187
1.07694
1.07739
1.07963
1.07314
1.06988
1.07133
1.07362
1.06863
1.05552
1.05293
1.06094
1.066
1.0623
1.05859
1.04536
1.05078
1.04766
1.04522
1.05283
1.08135
1.14568
1.17234
1.17132
1.13766
1.14018
1.14339
1.14729
1.15174
1.15661
1.16065
1.15915
1.15062
1.14501
1.14511
1.14779
1.15142
1.15615
1.16259
1.16697
1.16782
1.16809
1.16831
1.16852
1.16871
1.16892
1.16911
1.16931
1.16962
1.16957
1.16966
1.16951
1.1697
1.16977
1.16991
1.16984
1.17003
1.16997
1.17014
1.17009
1.17024
1.17019
1.17031
1.17028
1.1703
1.17033
1.16977
1.17
1.17015
1.17006
1.17003
1.17019
1.16711
1.16819
1.16942
1.15684
1.15865
1.16596
1.16483
1.15094
1.15307
1.16101
1.16197
1.09394
1.11428
1.14632
1.13602
1.0388
1.04698
1.05515
1.07183
1.02802
1.02825
1.03184
1.02941
1.0308
1.02924
1.02849
1.02822
1.03949
1.03705
1.03545
1.03419
1.0686
1.06705
1.06594
1.06494
1.07494
1.07017
1.09167
1.08309
1.09756
1.09411
1.09484
1.09637
1.08499
1.07026
1.08574
1.0825
1.08685
1.05582
1.05401
1.06174
1.08717
1.06744
1.08785
1.05986
1.04634
1.05127
1.04868
1.04587
1.05553
1.08867
1.1495
0.914894
1.16575
1.14037
1.14319
1.14654
1.15052
1.15523
1.15964
1.15904
1.15148
1.14498
1.14399
1.14591
1.14905
1.15343
1.15975
1.16609
1.16759
1.16795
1.16816
1.16837
1.16858
1.16877
1.16897
1.16913
1.16939
1.16969
1.16965
1.1696
1.16973
1.16953
1.16981
1.16994
1.16988
1.17007
1.17
1.17018
1.17012
1.17029
1.17023
1.17036
1.17034
1.17024
1.17034
1.16977
1.16981
1.16971
1.16957
1.16995
1.16818
1.16892
1.16941
1.16278
1.16376
1.16741
1.16666
1.15681
1.15946
1.16324
1.16431
1.09313
1.1161
1.15057
1.138
1.0361
1.04369
1.05057
1.06688
1.02829
1.02849
1.03113
1.02915
1.03325
1.03171
1.02884
1.02876
1.06459
1.06395
1.06374
1.06344
1.0912
1.09033
1.0902
1.09004
1.09333
1.09089
1.12264
1.09916
1.12533
1.12341
1.12359
1.1246
1.10261
1.08551
1.10378
1.09903
1.10634
1.05816
1.05423
1.06244
1.10698
1.08741
1.10774
1.06046
1.04696
1.052
1.0491
1.04629
1.05797
1.09252
1.14104
0.51049
1.11616
1.14318
1.14625
1.14977
1.15411
1.15858
1.15877
1.15227
1.145
1.14301
1.14416
1.14676
1.15073
1.15682
1.16452
1.16728
1.1678
1.16802
1.16822
1.16843
1.16864
1.16883
1.16901
1.16917
1.16942
1.16955
1.16975
1.16972
1.16967
1.16962
1.16983
1.16997
1.1699
1.17009
1.17003
1.17022
1.17016
1.17034
1.17028
1.17037
1.17038
1.16986
1.17025
1.1694
1.16916
1.16887
1.16865
1.16943
1.16816
1.16892
1.16882
1.16516
1.16595
1.1674
1.16665
1.15841
1.16153
1.16313
1.16424
1.08904
1.11545
1.15151
1.13729
1.03402
1.04061
1.04504
1.05957
1.03065
1.03071
1.03123
1.02974
1.06314
1.03744
1.0314
1.03223
1.09021