/*--------------------------------*- C++ -*----------------------------------*\
  =========                 |
  \\      /  F ield         | OpenFOAM: The Open Source CFD Toolbox
   \\    /   O peration     | Website:  https://openfoam.org
    \\  /    A nd           | Version:  dev
     \\/     M anipulation  |
\*---------------------------------------------------------------------------*/
FoamFile
{
    version     2.0;
    format      ascii;
    class       volScalarField;
    location    "2500";
    object      T;
}
// * * * * * * * * * * * * * * * * * * * * * * * * * * * * * * * * * * * * * //

dimensions      [0 0 0 1 0 0 0];

internalField   nonuniform List<scalar> 
9840
(
300.094
300.126
300.109
300.124
300.216
300.096
300.114
300.263
300.217
300.089
300.099
300.264
300.307
300.199
300.079
300.108
300.256
300.364
300.293
300.163
300.065
300.09
300.216
300.382
300.376
300.264
300.15
300.063
300.097
300.206
300.378
300.429
300.362
300.229
300.134
300.059
300.089
300.212
300.369
300.463
300.435
300.312
300.207
300.124
300.052
300.079
300.202
300.343
300.47
300.487
300.406
300.284
300.19
300.116
300.052
300.073
300.195
300.325
300.45
300.519
300.484
300.365
300.255
300.175
300.106
300.05
300.072
300.183
300.3
300.443
300.539
300.539
300.448
300.325
300.231
300.162
300.099
300.049
300.071
300.159
300.292
300.433
300.538
300.576
300.527
300.406
300.302
300.221
300.156
300.099
300.047
300.071
300.159
300.264
300.408
300.534
300.594
300.576
300.482
300.368
300.277
300.208
300.147
300.096
300.046
300.068
300.15
300.257
300.391
300.506
300.6
300.619
300.554
300.442
300.346
300.265
300.199
300.143
300.094
300.045
300.062
300.135
300.233
300.354
300.509
300.611
300.645
300.607
300.513
300.411
300.323
300.253
300.191
300.14
300.091
300.045
300.06
300.133
300.231
300.357
300.496
300.595
300.658
300.657
300.583
300.477
300.385
300.307
300.243
300.183
300.137
300.089
300.044
300.055
300.135
300.222
300.34
300.464
300.587
300.668
300.696
300.643
300.548
300.447
300.363
300.291
300.235
300.181
300.132
300.089
300.042
300.058
300.132
300.219
300.319
300.445
300.575
300.663
300.716
300.688
300.614
300.511
300.418
300.347
300.278
300.228
300.18
300.133
300.087
300.041
300.058
300.121
300.199
300.312
300.427
300.548
300.663
300.729
300.728
300.669
300.573
300.481
300.4
300.33
300.274
300.222
300.175
300.133
300.089
300.044
300.055
300.121
300.19
300.304
300.406
300.532
300.658
300.732
300.754
300.717
300.636
300.544
300.456
300.386
300.321
300.267
300.216
300.173
300.132
300.087
300.044
300.049
300.121
300.196
300.288
300.405
300.525
300.646
300.735
300.773
300.758
300.695
300.601
300.511
300.438
300.367
300.31
300.26
300.216
300.173
300.129
300.089
300.045
300.05
300.122
300.19
300.28
300.399
300.508
300.63
300.734
300.788
300.79
300.742
300.658
300.571
300.49
300.421
300.357
300.308
300.259
300.214
300.173
300.129
300.089
300.045
300.05
300.118
300.193
300.284
300.39
300.503
300.621
300.729
300.798
300.815
300.782
300.71
300.627
300.541
300.47
300.409
300.352
300.298
300.255
300.214
300.173
300.132
300.091
300.045
300.046
300.113
300.191
300.283
300.387
300.501
300.613
300.723
300.801
300.835
300.82
300.761
300.677
300.596
300.521
300.452
300.397
300.345
300.296
300.254
300.213
300.173
300.134
300.092
300.045
300.05
300.113
300.189
300.283
300.379
300.493
300.603
300.716
300.805
300.85
300.85
300.808
300.733
300.645
300.571
300.501
300.44
300.389
300.338
300.293
300.253
300.213
300.175
300.136
300.094
300.046
300.048
300.115
300.191
300.283
300.381
300.489
300.595
300.707
300.803
300.86
300.875
300.846
300.778
300.7
300.62
300.552
300.489
300.434
300.379
300.337
300.294
300.254
300.217
300.178
300.138
300.096
300.048
300.05
300.112
300.193
300.288
300.384
300.485
300.592
300.7
300.802
300.867
300.893
300.877
300.825
300.744
300.67
300.598
300.535
300.474
300.424
300.376
300.333
300.294
300.255
300.219
300.181
300.14
300.098
300.049
300.048
300.114
300.195
300.29
300.387
300.486
300.59
300.697
300.796
300.872
300.909
300.907
300.867
300.795
300.712
300.646
300.576
300.518
300.468
300.419
300.375
300.334
300.295
300.259
300.222
300.185
300.145
300.098
300.05
300.051
300.119
300.201
300.293
300.391
300.49
300.592
300.697
300.792
300.876
300.92
300.93
300.902
300.841
300.762
300.691
300.626
300.564
300.512
300.461
300.414
300.373
300.333
300.297
300.261
300.226
300.188
300.148
300.103
300.05
300.049
300.121
300.21
300.301
300.402
300.499
300.597
300.697
300.789
300.874
300.93
300.95
300.932
300.883
300.81
300.734
300.664
300.61
300.555
300.504
300.455
300.412
300.373
300.336
300.301
300.266
300.23
300.193
300.152
300.105
300.051
300.054
300.127
300.214
300.31
300.407
300.506
300.599
300.704
300.796
300.879
300.939
300.967
300.961
300.92
300.858
300.781
300.709
300.65
300.592
300.544
300.496
300.451
300.412
300.375
300.34
300.305
300.271
300.236
300.199
300.157
300.109
300.051
300.056
300.133
300.225
300.321
300.421
300.519
300.611
300.706
300.799
300.88
300.946
300.982
300.984
300.952
300.895
300.826
300.755
300.691
300.632
300.575
300.534
300.49
300.449
300.413
300.379
300.345
300.311
300.278
300.243
300.206
300.163
300.112
300.052
300.059
300.135
300.239
300.338
300.438
300.533
300.623
300.712
300.804
300.887
300.953
300.994
301.005
300.984
300.932
300.867
300.796
300.728
300.671
300.62
300.559
300.527
300.486
300.45
300.416
300.384
300.351
300.319
300.286
300.252
300.213
300.168
300.115
300.023
300.056
300.062
300.149
300.247
300.353
300.457
300.548
300.639
300.723
300.81
300.898
300.96
301.004
301.025
301.011
300.973
300.908
300.839
300.767
300.706
300.654
300.61
300.552
300.521
300.485
300.452
300.421
300.391
300.36
300.329
300.296
300.261
300.22
300.162
300.09
300.123
300.023
300.056
300.065
300.156
300.259
300.372
300.473
300.57
300.657
300.74
300.826
300.909
300.969
301.015
301.041
301.035
301.004
300.943
300.875
300.807
300.741
300.689
300.644
300.598
300.552
300.52
300.488
300.458
300.429
300.401
300.371
300.339
300.306
300.269
300.21
300.235
300.156
300.193
300.186
300.09
300.125
300.023
300.057
300.053
300.168
300.278
300.389
300.49
300.589
300.675
300.757
300.839
300.915
300.978
301.027
301.058
301.057
301.031
300.983
300.917
300.852
300.786
300.722
300.674
300.633
300.587
300.553
300.522
300.493
300.467
300.441
300.413
300.383
300.351
300.315
300.261
300.283
300.224
300.158
300.214
300.19
300.093
300.128
300.024
300.059
300.056
300.157
300.289
300.405
300.513
300.607
300.695
300.771
300.852
300.925
300.99
301.041
301.07
301.076
301.057
301.013
300.952
300.888
300.832
300.779
300.71
300.659
300.62
300.581
300.555
300.53
300.507
300.484
300.458
300.43
300.397
300.36
300.307
300.329
300.254
300.281
300.24
300.162
300.22
300.195
300.096
300.132
300.025
300.062
300.062
300.166
300.318
300.426
300.536
300.628
300.713
300.791
300.868
300.941
301.003
301.055
301.085
301.096
301.082
301.046
300.989
300.924
300.866
300.813
300.768
300.706
300.647
300.613
300.587
300.574
300.563
300.55
300.527
300.495
300.455
300.411
300.353
300.377
300.307
300.332
300.267
300.292
300.248
300.167
300.226
300.201
300.099
300.137
300.026
300.064
300.067
300.186
300.349
300.461
300.557
300.648
300.735
300.815
300.886
300.959
301.02
301.069
301.102
301.115
301.106
301.078
301.025
300.962
300.901
300.838
300.798
300.758
300.7
300.646
300.628
300.645
300.69
300.735
300.745
300.698
300.615
300.51
300.405
300.438
300.357
300.384
300.317
300.343
300.275
300.302
300.255
300.174
300.233
300.209
300.104
300.144
300.028
300.068
300.071
300.23
300.376
300.487
300.582
300.669
300.756
300.835
300.91
300.978
301.039
301.087
301.119
301.135
301.13
301.105
301.059
300.999
300.934
300.877
300.818
300.781
300.743
300.694
300.686
300.786
301.017
301.311
301.539
301.553
301.338
301.015
300.498
300.639
300.416
300.463
300.369
300.399
300.328
300.354
300.284
300.311
300.264
300.182
300.243
300.219
300.11
300.151
300.03
300.072
300.095
300.25
300.372
300.508
300.604
300.693
300.777
300.857
300.932
301
301.059
301.106
301.138
301.154
301.153
301.131
301.093
301.036
300.971
300.916
300.854
300.807
300.778
300.747
300.759
300.974
301.562
302.532
303.383
303.806
303.571
302.782
301.066
302.224
300.561
300.852
300.442
300.524
300.384
300.425
300.339
300.369
300.293
300.323
300.274
300.192
300.254
300.23
300.117
300.161
300.032
300.078
300.101
300.222
300.397
300.524
300.622
300.714
300.799
300.879
300.954
301.023
301.081
301.126
301.157
301.174
301.174
301.157
301.124
301.071
301.009
300.944
300.892
300.828
300.792
300.779
300.826
301.159
302.138
303.706
305.449
306.58
307.109
306.542
303.65
305.561
301.662
303.162
300.74
301.345
300.499
300.679
300.41
300.483
300.355
300.398
300.306
300.34
300.288
300.203
300.267
300.244
300.125
300.172
300.035
300.084
300.091
300.23
300.399
300.526
300.639
300.732
300.819
300.9
300.976
301.045
301.104
301.148
301.178
301.194
301.196
301.18
301.154
301.105
301.045
300.979
300.929
300.867
300.816
300.801
300.882
301.336
302.603
304.747
306.784
308.183
309.244
309.808
307.232
309.213
304.868
306.718
302.667
304.309
301.174
302.335
300.656
301.116
300.479
300.67
300.389
300.487
300.325
300.383
300.309
300.217
300.29
300.266
300.135
300.185
300.038
300.092
300.093
300.244
300.394
300.55
300.648
300.747
300.836
300.92
300.998
301.068
301.127
301.171
301.201
301.216
301.218
301.206
301.18
301.138
301.082
301.017
300.957
300.905
300.84
300.81
300.893
301.417
302.977
305.356
306.984
308.268
309.503
310.669
310.524
311.424
308.618
310.329
306.134
308.064
303.918
305.707
302.199
303.754
301.162
302.281
300.725
301.314
300.509
300.83
300.378
300.542
300.369
300.237
300.353
300.326
300.147
300.203
300.043
300.102
300.097
300.252
300.406
300.556
300.661
300.759
300.852
300.938
301.019
301.091
301.151
301.196
301.225
301.239
301.24
301.229
301.206
301.17
301.117
301.055
300.988
300.939
300.879
300.833
300.896
301.417
303.1
305.427
306.615
307.639
308.835
310.225
311.828
311.565
312.193
309.939
311.522
307.631
309.578
305.535
307.454
303.858
305.673
302.598
304.28
301.596
303.148
300.982
302.019
300.58
301.163
300.602
300.286
300.598
300.552
300.162
300.237
300.048
300.113
300.1
300.255
300.409
300.55
300.674
300.769
300.865
300.955
301.039
301.113
301.175
301.22
301.249
301.264
301.264
301.253
301.231
301.2
301.152
301.092
301.026
300.97
300.914
300.864
300.9
301.39
303.076
305.367
306.173
306.441
306.859
308.756
310.637
312.856
312.325
312.539
312.898
311.357
312.746
309.426
311.304
307.624
309.619
306.176
308.198
305.04
307.089
303.919
306.103
302.55
304.866
301.339
303.105
301.455
300.466
301.475
301.361
300.184
300.354
300.053
300.127
300.105
300.256
300.406
300.556
300.682
300.777
300.875
300.97
301.057
301.135
301.198
301.245
301.275
301.289
301.29
301.278
301.255
301.228
301.185
301.128
301.064
300.996
300.947
300.894
300.904
301.321
302.979
305.278
305.914
305.563
304.479
306.229
308.995
311.56
310.75
313.556
312.928
313.524
313.703
312.91
314.059
311.546
313.264
310.244
312.206
309.217
311.345
308.406
310.703
307.437
310.047
305.933
308.945
303.581
306.989
303.88
301.118
303.901
303.599
300.243
300.789
300.058
300.15
300.113
300.257
300.4
300.556
300.67
300.778
300.882
300.981
301.074
301.156
301.222
301.27
301.301
301.315
301.316
301.306
301.28
301.254
301.217
301.164
301.102
301.032
300.979
300.923
300.914
301.236
302.756
305.185
305.803
305.167
303.195
303.472
306.896
310.553
310.347
312.145
311.776
314.39
313.676
314.595
314.634
314.628
315.494
313.98
315.454
313.357
315.161
312.937
315.025
312.604
314.997
311.949
314.808
310.525
313.964
307.885
311.99
308.496
303.005
308.648
308.148
300.449
302.107
300.063
300.21
300.128
300.27
300.396
300.545
300.651
300.772
300.885
300.99
301.089
301.176
301.246
301.296
301.327
301.342
301.343
301.333
301.311
301.278
301.246
301.198
301.138
301.07
301.006
300.954
300.928
301.163
302.482
305.04
305.761
305.113
302.895
301.897
303.513
310.245
311.81
312.271
313.12
313.011
315.354
314.706
315.787
315.739
316.517
317.07
316.683
317.839
316.858
318.386
317.182
319.066
317.451
319.759
317.204
320.178
315.94
319.619
313.176
317.638
313.915
306.946
314.103
313.591
301.131
305.046
300.074
300.403
300.295
300.403
300.536
300.634
300.765
300.884
300.995
301.101
301.194
301.268
301.321
301.353
301.368
301.37
301.36
301.344
301.311
301.274
301.231
301.175
301.109
301.036
300.987
300.946
301.109
302.222
304.817
305.757
305.179
302.969
301.483
301.616
304.904
313.165
311.142
313.2
313.325
314.381
314.391
316.512
316.004
317.16
317.02
318.554
318.79
319.567
320.34
320.575
321.715
321.72
323.186
322.628
324.395
322.87
324.996
321.856
325.047
318.955
323.553
319.711
312.288
319.894
319.28
302.92
309.839
300.089
300.947
300.421
300.535
300.625
300.761
300.88
300.998
301.11
301.21
301.289
301.345
301.379
301.395
301.397
301.388
301.371
301.344
301.307
301.265
301.21
301.146
301.076
301.017
300.97
301.074
301.991
304.506
305.763
305.356
303.287
301.506
301.058
301.647
307.826
303.824
313.728
310.954
314.631
314.626
315.837
315.898
317.897
317.505
318.745
318.444
320.676
320.675
322.463
322.814
324.172
324.765
325.335
325.846
325.933
326.295
326.335
326.648
326.47
327.075
324.816
327.574
325.294
317.763
325.413
325.026
321.659
306.331
315.154
300.114
301.988
300.543
300.626
300.75
300.874
300.997
301.116
301.223
301.308
301.368
301.405
301.422
301.424
301.415
301.399
301.376
301.343
301.296
301.249
301.189
301.119
301.043
300.996
301.053
301.798
304.152
305.761
305.569
303.774
301.719
301.006
300.926
301.466
306.715
303.509
313.767
309.995
315.915
315.372
317.388
317.229
319.45
319.073
320.482
319.96
322.832
322.655
324.983
324.925
326.12
326.155
326.439
326.465
326.524
326.217
326.817
325.868
327.714
326.525
328.309
328.063
328.396
327.431
328.914
324.332
319.803
323.745
327.345
329.247
328.922
327.245
307.517
312.273
322.576
321.437
316.857
300.306
309.846
302.206
306.289
300.629
300.734
300.864
300.993
301.12
301.234
301.326
301.39
301.429
301.448
301.452
301.445
301.429
301.407
301.379
301.34
301.292
301.232
301.164
301.083
301.028
301.044
301.641
303.794
305.74
305.749
304.205
302.106
301.082
300.842
300.836
301.559
300.876
305.882
302.931
312.642
308.374
316.69
315.462
318.594
317.869
320.751
319.908
322.148
321.497
324.648
324.043
326.067
325.778
326.456
326.369
325.794
325.513
324.341
323.221
325.411
323.952
322.746
321.522
327.167
325.469
323.113
321.466
323.683
328.09
329.023
328.418
327.027
329.316
326.822
326.125
329.196
329.891
329.603
329.088
315.064
325.21
324.164
319.912
305.855
303.604
312.92
310.1
300.725
300.855
300.986
301.12
301.243
301.342
301.411
301.455
301.478
301.485
301.481
301.466
301.445
301.417
301.384
301.337
301.283
301.214
301.133
301.054
301.044
301.51
303.453
305.669
305.887
304.582
302.506
301.232
300.862
300.78
300.737
301.124
300.803
304.519
302.163
310.531
306.306
316.711
314.367
318.979
317.72
321.179
320.009
323.217
322.235
325.226
324.435
326.14
325.704
325.377
325.272
322.724
322.725
320.731
320.063
319.768
319.638
321.313
319.847
318.723
325.16
322.895
319.645
318.111
320.484
327.006
328.752
327.153
324.898
329.055
328.808
328.314
330.103
329.414
329.822
330.237
318.419
327.61
326.82
323.066
318.184
307.711
313.053
319.382
316.995
316.125
300.845
300.975
301.117
301.249
301.356
301.433
301.483
301.516
301.532
301.535
301.523
301.501
301.471
301.437
301.393
301.338
301.269
301.187
301.085
301.056
301.393
303.134
305.556
305.989
304.904
302.888
301.393
300.914
300.791
300.737
300.7
300.691
300.915
300.733
303.135
301.514
307.969
304.277
315.512
312.119
318.482
316.266
320.783
319.002
323.42
322.216
324.986
323.964
325.018
324.464
322.906
322.981
319.709
319.892
320.115
320.348
317.999
317.575
317.495
317.574
317.964
316.635
315.78
322.34
319.535
316.078
314.36
316.764
324.832
327.4
324.97
321.986
327.786
330.223
330.052
330.24
328.303
328.946
330.635
322.063
329.677
329.15
326.046
321.596
323.462
305.23
318.548
321.52
300.962
301.11
301.252
301.369
301.455
301.519
301.57
301.611
301.633
301.632
301.61
301.572
301.525
301.472
301.411
301.341
301.25
301.137
301.083
301.293
302.827
305.4
306.057
305.178
303.246
301.573
300.976
300.815
300.758
300.705
300.673
300.67
300.775
300.688
302.047
301.093
305.42
302.706
313.149
309.271
316.694
313.73
319.112
316.754
322.645
321.043
323.518
322.172
322.687
321.854
320.506
320.571
320.526
320.266
317.829
318.101
318.375
318.557
315.379
315.309
315.444
315.716
314.531
313.58
313.213
318.815
315.646
312.56
310.816
312.874
321.911
325.305
322.138
318.427
325.836
330.954
331.122
329.701
326.563
327.483
330.468
325.414
331.151
330.986
328.546
325.167
325.256
324.912
301.823
314.053
301.096
301.253
301.38
301.479
301.563
301.655
301.747
301.823
301.861
301.851
301.792
301.711
301.621
301.538
301.444
301.331
301.203
301.109
301.22
302.529
305.199
306.097
305.411
303.578
301.775
301.05
300.85
300.776
300.731
300.671
300.687
300.654
300.657
300.7
300.659
301.364
300.858
303.471
301.736
310.165
306.456
313.908
310.653
316.2
313.568
320.469
318.488
320.506
318.732
318.682
317.115
318.622
318.582
318.422
318.229
316.006
316.245
316.353
316.339
313.171
313.316
313.582
313.829
311.535
311.178
311.135
314.91
311.774
309.692
308.101
309.406
318.452
322.637
318.868
314.628
323.404
331.158
331.678
328.57
324.418
325.675
329.751
328.022
332.02
332.22
330.601
327.714
327.407
324.674
302.079
315.433
301.247
301.389
301.504
301.623
301.774
301.969
302.156
302.297
302.316
302.23
302.083
301.923
301.78
301.634
301.477
301.293
301.159
301.191
302.234
304.944
306.111
305.615
303.883
302.017
301.139
300.888
300.804
300.749
300.704
300.657
300.663
300.639
300.645
300.653
300.64
300.981
300.722
302.175
301.124
307.269
304.253
310.658
307.66
312.196
309.726
316.687
314.515
315.221
313.172
313.958
313.121
311.303
312.252
316.176
315.863
315.387
314.756
313.954
313.953
313.809
313.494
311.247
311.448
311.569
311.575
309.309
309.236
309.259
311.146
308.425
307.617
306.168
306.814
314.853
319.637
315.547
311.047
320.743
330.922
331.893
327.146
322.144
323.82
328.757
330.117
332.553
332.99
332.213
329.604
328.87
326.265
311.818
323.795
301.393
301.531
301.691
301.942
302.277
302.651
302.914
302.993
302.883
302.655
302.387
302.146
301.93
301.741
301.443
301.242
301.199
301.946
304.623
306.11
305.796
304.182
302.304
301.249
300.932
300.833
300.774
300.725
300.669
300.683
300.643
300.653
300.624
300.632
300.625
300.623
300.75
300.648
301.229
300.77
304.827
302.529
307.193
304.682
307.208
305.274
311.125
309.136
310.352
309.33
307.029
310.278
309.539
308.257
308.87
313.045
312.472
311.783
311.046
311.455
311.176
310.774
310.277
309.344
309.349
309.27
309.073
307.476
307.431
307.411
307.944
305.877
305.932
304.756
305.04
311.525
316.684
312.59
308.032
318.218
330.374
331.812
325.722
320.083
322.238
327.776
331.856
332.868
333.518
333.24
331.149
330.596
329.932
323.282
330.025
301.556
301.774
302.133
302.666
303.236
303.676
303.851
303.757
303.444
303.041
302.648
302.32
302.077
301.722
301.375
301.225
301.707
304.23
306.087
305.959
304.478
302.635
301.391
300.984
300.864
300.8
300.749
300.701
300.652
300.668
300.631
300.639
300.61
300.621
300.605
300.605
300.642
300.611
300.763
300.632
302.504
301.223
303.426
301.951
303.577
302.54
305.736
304.773
307.717
307.307
306.376
305.941
308.107
307.819
307.297
307.558
309.745
309.224
308.778
308.418
308.813
308.532
308.297
308.148
307.378
307.312
307.257
307.256
305.861
305.858
305.9
305.489
304.37
304.721
304.02
304.037
308.863
314.178
310.392
305.929
316.205
329.808
331.626
324.606
318.582
321.227
327.074
333.125
332.989
333.876
333.892
332.553
332.181
332.189
314.079
328.463
301.856
302.341
303.067
303.871
304.511
304.847
304.808
304.455
303.904
303.322
302.832
302.48
302.075
301.631
301.283
301.562
303.765
306.023
306.1
304.771
302.994
301.585
301.052
300.9
300.829
300.774
300.726
300.668
300.685
300.635
300.646
300.616
300.624
300.597
300.607
300.589
300.591
300.598
300.59
300.625
300.59
301.102
300.74
301.644
301.091
303.667
302.707
305.424
304.995
304.769
307.033
306.741
308.812
308.389
308.6
308.887
309.196
309.097
308.09
308.113
308.193
308.386
307.319
307.548
307.897
308.377
306.059
306.328
306.716
307.242
304.792
305.112
305.561
304.374
303.899
304.27
304.075
303.848
307.261
312.478
309.258
305.145
315.016
329.433
331.471
324.056
317.905
321.018
326.846
333.99
333.085
334.17
334.356
333.705
333.234
332.684
303.781
322.669
302.546
303.452
304.489
305.362
305.889
305.978
305.636
304.98
304.201
303.487
302.946
302.473
301.981
301.42
301.511
303.287
305.891
306.223
305.06
303.357
301.869
301.146
300.941
300.862
300.802
300.751
300.705
300.649
300.671
300.625
300.637
300.603
300.615
300.586
300.592
300.579
300.58
300.581
300.579
300.597
300.572
300.792
300.654
301.844
301.282
308.219
307.142
306.484
307.785
306.987
309.34
310.557
309.208
309.077
313.934
313.36
312.435
313.224
314.217
313.843
309.029
309.796
310.655
311.557
307.951
308.866
309.969
311.226
306.176
306.959
307.944
309.158
304.769
305.429
306.294
304.276
304.035
304.586
304.659
304.101
306.886
311.849
309.282
305.322
314.838
329.368
331.485
324.155
318.104
321.565
327.091
334.588
333.189
334.433
334.715
334.508
333.924
331.475
303.805
321.636
303.819
305.036
306.159
306.896
307.156
306.901
306.21
305.258
304.275
303.506
302.922
302.376
301.712
301.523
302.85
305.667
306.323
305.349
303.732
302.247
301.286
300.992
300.898
300.837
300.778
300.73
300.674
300.694
300.639
300.65
300.614
300.626
300.589
300.602
300.579
300.58
300.566
300.573
300.565
300.563
300.601
300.561
300.905
300.698
304.351
302.65
311.957
310.296
311.935
310.037
312.549
311.593
313.524
315.002
314.327
314.263
319.565
318.707
318.095
319.129
320.252
319.89
312.601
314.042
315.483
316.851
310.559
312.104
313.781
315.516
307.451
308.939
310.657
312.467
305.444
306.63
308.219
304.704
304.648
305.674
306.229
305.107
307.279
312.167
310.06
306.203
315.555
329.639
331.729
324.969
319.381
323.355
327.979
335.006
333.43
334.671
334.999
334.965
334.139
330.27
313.074
325.291
305.548
306.814
307.796
308.223
308.097
307.467
306.426
305.231
304.216
303.446
302.809
302.097
301.579
302.494
305.338
306.392
305.637
304.127
302.66
301.518
301.059
300.937
300.873
300.814
300.757
300.71
300.652
300.679
300.627
300.641
300.599
300.613
300.575
300.584
300.564
300.572
300.546
300.554
300.543
300.543
300.649
300.56
301.5
300.903
308.5
306.714
305.068
315.249
313.59
313.441
311.799
317.619
316.376
316.9
318.521
320.324
320.112
324.101
322.912
323.596
324.637
325.527
325.323
317.297
319.058
320.734
322.279
314.255
316.088
318.005
319.906
310.132
312.233
314.341
316.41
307.199
309.154
311.45
305.967
306.302
308.003
309.168
307.366
308.683
313.531
312.158
308.318
317.719
330.353
332.21
326.747
322.083
325.709
329.301
335.29
333.706
334.877
335.219
335.182
333.595
329.27
304.715
318.304
307.393
308.471
309.057
309.053
308.568
307.588
306.309
305.065
304.051
303.28
302.514
301.732
302.266
304.94
306.412
305.918
304.54
303.111
301.891
301.16
300.98
300.909
300.851
300.792
300.737
300.689
300.643
300.658
300.611
300.627
300.582
300.595
300.567
300.572
300.544
300.557
300.526
300.533
300.53
300.524
300.738
300.567
302.566
301.264
310.129
308.363
305.463
307.446
316.608
315.028
313.702
312.199
321.571
320.097
318.22
319.888
325.464
324.987
327
325.374
327.943
328.892
329.482
329.386
321.777
323.571
325.222
326.7
318.357
320.326
322.304
324.198
313.832
316.233
318.548
320.738
310.296
312.803
315.504
308.448
309.225
311.472
312.91
310.693
311.477
316.471
315.771
311.379
321.058
331.195
332.698
328.414
324.925
327.811
330.413
335.487
334.071
335.053
335.4
335.162
333.049
327.312
300.536
308.161
308.973
309.54
309.663
309.36
308.581
307.374
305.983
304.735
303.787
302.945
302.01
302.198
304.513
306.396
306.184
304.964
303.597
302.351
301.329
301.032
300.945
300.887
300.831
300.772
300.718
300.653
300.644
300.678
300.628
300.596
300.612
300.574
300.584
300.554
300.565
300.528
300.541
300.51
300.517
300.519
300.507
300.783
300.567
303.392
301.482
310.635
309.02
305.731
307.342
316.64
315.167
313.015
311.736
323.537
321.664
318.179
319.841
329.162
328.303
328.473
326.224
331.485
332.165
332.273
332.369
326.009
327.693
329.191
330.469
322.726
324.709
326.631
328.417
318.173
320.757
323.153
325.344
314.213
317.158
320.205
311.79
313.08
315.673
318.081
315.215
315.641
320.588
320.51
316.059
324.604
331.921
333.058
329.783
327.448
329.038
331.192
335.581
334.188
335.136
335.499
335.047
332.296
322.776
300.267
304.739
309.747
309.934
309.808
309.268
308.237
306.877
305.471
304.338
303.39
302.351
302.217
304.082
306.329
306.425
305.39
304.11
302.871
301.644
301.106
300.983
300.922
300.868
300.811
300.754
300.702
300.631
300.639
300.664
300.616
300.589
300.601
300.566
300.578
300.539
300.553
300.512
300.525
300.492
300.499
300.507
300.494
300.752
300.555
304.073
302.539
301.382
310.358
308.888
305.375
306.71
315.448
314.229
311.406
310.397
323.864
321.714
316.785
318.42
331.617
330.313
329.236
326.244
334.621
334.935
334.505
334.954
330.074
331.56
332.839
333.867
327.281
329.168
330.936
332.519
323.069
325.698
328.022
330.074
318.859
322.243
325.544
317.493
319.707
321.417
325.171
322.315
320.878
324.507
324.573
322.035
327.194
332.159
333.16
330.467
328.689
329.842
331.441
335.606
334.241
335.138
335.536
334.852
330.878
318.337
300.072
301.521
309.97
309.968
309.579
308.787
307.595
306.199
304.916
303.851
302.734
302.281
303.686
306.172
306.63
305.809
304.639
303.437
302.129
301.222
301.027
300.956
300.902
300.849
300.793
300.737
300.685
300.623
300.632
300.649
300.607
300.583
300.595
300.554
300.568
300.525
300.539
300.497
300.511
300.48
300.485
300.499
300.484
300.626
300.518
303.365
302.394
300.853
301.309
309.27
308.028
304.445
305.554
313.239
312.323
309.235
308.494
323.158
320.478
314.34
315.934
333.437
331.676
329.862
326.114
337.295
337.382
336.437
337.229
333.935
335.146
336.151
336.893
331.853
333.53
335.054
336.342
328.379
330.757
332.754
334.434
324.864
328.188
331.063
323.733
325.458
327.806
328.095
326.892
325.082
326.878
326.843
325.752
328.236
332.361
333.195
330.529
329.1
329.973
331.432
335.589
334.273
334.957
335.533
334.477
328.697
312.906
300.043
301.011
309.939
309.636
308.989
308.051
306.797
305.498
304.316
303.133
302.435
303.406
305.965
306.788
306.209
305.174
304.037
302.72
301.423
301.083
300.993
300.936
300.884
300.831
300.776
300.724
300.664
300.644
300.616
300.626
300.603
300.571
300.588
300.54
300.556
300.511
300.525
300.485
300.497
300.471
300.477
300.479
300.472
300.791
300.576
300.502
300.476
302.597
301.883
301.007
307.624
306.63
303.387
304.202
310.521
309.874
306.843
306.347
321.925
318.389
311.444
313.117
335.015
332.861
330.554
326.239
339.473
339.449
338.068
339.036
337.432
338.287
338.966
339.35
335.85
337.058
338.063
338.873
332.971
334.617
335.792
336.823
329.84
331.653
332.417
326.58
326.784
328.669
327.599
327.125
326.686
327.785
327.261
326.672
328.262
332.33
333.212
330.422
328.775
329.52
331.479
335.497
334.291
334.781
335.501
333.871
326.439
311.117
300.017
300.357
309.543
308.999
308.216
307.204
305.992
304.785
303.535
302.645
303.285
305.719
306.892
306.582
305.704
304.654
303.367
301.809
301.164
301.033
300.972
300.918
300.867
300.814
300.761
300.716
300.633
300.635
300.627
300.658
300.61
300.619
300.593
300.559
300.576
300.527
300.543
300.499
300.513
300.476
300.486
300.457
300.466
300.459
300.454
300.639
300.53
300.497
300.467
301.832
301.363
300.778
305.73
305.002
302.355
302.892
307.743
307.251
304.556
304.271
321.296
316.467
308.709
310.783
336.379
333.957
331.374
326.605
340.63
340.556
339.179
340.098
339.559
340.106
340.419
340.572
337.612
338.341
338.956
339.509
333.894
334.773
335.674
336.472
329.63
330.661
327.131
326.491
324.07
325.518
325.407
324.741
326.825
327.802
327.358
326.682
328.16
332.161
332.959
330.488
328.938
330.075
331.204
335.389
333.622
334.612
335.412
333.091
324.553
306.763
299.94
300.196
308.891
308.225
307.379
306.355
305.195
303.934
302.895
303.279
305.478
306.943
306.918
306.219
305.277
304.053
302.405
301.293
301.078
301.008
300.954
300.9
300.85
300.799
300.75
300.699
300.62
300.634
300.611
300.649
300.6
300.582
300.548
300.565
300.517
300.532
300.488
300.502
300.465
300.477
300.446
300.454
300.451
300.443
300.584
300.527
300.489
300.511
300.518
300.477
301.257
300.983
300.674
303.88
303.413
301.548
301.834
305.405
304.853
302.809
302.564
320.965
315.238
306.611
309.336
337.536
334.978
332.451
327.418
340.933
340.863
339.726
340.494
340.016
340.529
340.775
340.863
337.175
337.959
338.469
338.874
327.965
328.435
328.761
329.063
326.105
327.539
320.997
323.712
319.345
320.324
320.128
319.687
323.142
327.667
322.912
323.901
322.567
332.053
332.599
330.22
322.472
328.448
322.252
330.781
335.074
333.458
334.273
335.194
332.261
322.424
305.765
382.597
301.603
308.172
307.431
306.55
305.511
304.292
303.155
303.306
305.253
306.951
307.213
306.709
305.892
304.754
303.13
301.514
301.134
301.045
300.99
300.937
300.884
300.835
300.785
300.744
300.679
300.602
300.613
300.625
300.592
300.643
300.573
300.539
300.555
300.508
300.523
300.48
300.494
300.452
300.466
300.435
300.44
300.465
300.44
300.585
300.575
300.598
300.633
300.537
300.986
300.799
300.675
302.356
302.108
301.181
301.37
303.885
303.206
302.24
301.968
321.196
314.734
305.502
308.808
338.376
335.993
333.852
328.891
340.828
340.768
339.943
340.568
339.179
339.681
340.64
340.667
329.161
329.353
329.414
329.503
321.128
321.375
321.405
321.447
320.538
321.244
312.104
318.89
311.403
311.911
311.872
311.599
317.896
322.986
317.56
318.936
316.822
331.294
332.521
329.984
316.639
322.372
316.417
330.583
334.878
333.212
334.13
335.057
331.511
321.312
307.978
674.014
314.735
307.432
306.627
305.708
304.579
303.426
303.375
305.048
306.944
307.47
307.168
306.489
305.455
303.882
301.913
301.214
301.082
301.026
300.975
300.922
300.868
300.82
300.774
300.733
300.672
300.639
300.586
300.594
300.606
300.619
300.568
300.533
300.55
300.501
300.517
300.469
300.485
300.439
300.454
300.432
300.429
300.561
300.463
300.678
300.739
300.811
300.866
300.668
300.992
300.799
300.823
301.75
301.55
301.185
301.372
303.474
302.675
302.267
301.986
322.37
314.913
305.259
309.001
339.023
336.948
335.558
331.09
340.037
340.021
339.886
340.357
329.597
337.788