/*--------------------------------*- C++ -*----------------------------------*\
  =========                 |
  \\      /  F ield         | OpenFOAM: The Open Source CFD Toolbox
   \\    /   O peration     | Website:  https://openfoam.org
    \\  /    A nd           | Version:  dev
     \\/     M anipulation  |
\*---------------------------------------------------------------------------*/
FoamFile
{
    version     2.0;
    format      ascii;
    class       volVectorField;
    location    "2500";
    object      U;
}
// * * * * * * * * * * * * * * * * * * * * * * * * * * * * * * * * * * * * * //

dimensions      [0 1 -1 0 0 0 0];

internalField   nonuniform List<vector> 
9840
(
(0.00444398 0.00679811 0)
(0.0105678 0.00600596 1.15196e-29)
(0.00450365 0.0181715 0)
(0.0147655 0.00484301 0)
(0.0119074 0.0183948 -1.93779e-29)
(0.00390126 0.026411 0)
(0.0182087 0.00402389 0)
(0.0167716 0.0176204 0)
(0.0115315 0.0274045 0)
(0.00324831 0.0334114 -7.21117e-29)
(0.0209263 0.00329744 6.25495e-28)
(0.02001 0.0154035 7.7888e-28)
(0.0176716 0.0282189 -4.55307e-28)
(0.0101386 0.0344029 -4.50411e-28)
(0.00283208 0.039507 -2.27846e-28)
(0.02334 0.00273183 6.4276e-28)
(0.0223756 0.0127722 7.98181e-28)
(0.0222229 0.027824 -6.97746e-28)
(0.0167668 0.0360495 -4.49045e-30)
(0.00872827 0.0402573 0)
(0.00251441 0.0449619 -3.09434e-28)
(0.0256942 0.00231335 0)
(0.0244651 0.0103825 0)
(0.0252853 0.0261984 0)
(0.0224325 0.0373102 7.28246e-30)
(0.0148589 0.041911 -2.94829e-29)
(0.0076769 0.0455558 0)
(0.00224304 0.049933 -1.53406e-28)
(0.0279378 0.00202255 0)
(0.0264982 0.00859952 0)
(0.0272838 0.0237293 0)
(0.026792 0.0375506 0)
(0.0208864 0.0440191 -4.59475e-30)
(0.0130064 0.046937 0)
(0.00681435 0.0504063 0)
(0.00200543 0.0544215 0)
(0.0300395 0.00183475 0)
(0.0284662 0.00744929 3.21536e-28)
(0.0286745 0.0208669 -3.25217e-28)
(0.0298305 0.0365331 5.89608e-29)
(0.0262533 0.0458536 1.89067e-28)
(0.0185365 0.0489398 -6.7862e-28)
(0.0115267 0.0515976 -1.51486e-27)
(0.00606567 0.0548189 -2.24146e-27)
(0.00179188 0.0584503 2.82018e-27)
(0.0320776 0.00170269 0)
(0.030405 0.00676541 -1.88394e-28)
(0.0300329 0.0180679 -1.34452e-28)
(0.0317762 0.0344271 8.81815e-29)
(0.0305492 0.0467704 4.55718e-28)
(0.0241155 0.0514145 -3.31363e-28)
(0.0163591 0.0533169 -1.1895e-27)
(0.0102592 0.05588 -1.941e-27)
(0.00539145 0.0587851 2.60351e-27)
(0.0015998 0.0621163 0)
(0.0340781 0.00161164 0)
(0.0323326 0.00629795 0)
(0.0315773 0.0157084 -1.6965e-28)
(0.0330382 0.0316807 4.99825e-29)
(0.0336947 0.0464886 0)
(0.0292661 0.0538124 0)
(0.0213883 0.0556458 0)
(0.0145411 0.0573701 0)
(0.00912844 0.0597668 0)
(0.00478821 0.0623843 3.15358e-27)
(0.00142265 0.0654111 3.40383e-27)
(0.0361129 0.00155595 0)
(0.0342577 0.00594422 0)
(0.0331855 0.0139786 0)
(0.0340142 0.0287017 5.01192e-29)
(0.0357896 0.0450747 4.25673e-29)
(0.0335613 0.0555039 1.61992e-28)
(0.0265352 0.0584767 0)
(0.0189253 0.059372 0)
(0.0129494 0.0611061 -1.66433e-29)
(0.00810593 0.0632938 2.88157e-33)
(0.00424066 0.0656394 3.44459e-27)
(0.00125305 0.0683719 3.42345e-27)
(0.0381725 0.00154598 3.51971e-28)
(0.0362127 0.00566783 0)
(0.0349163 0.012843 2.26655e-28)
(0.0350543 0.0258598 0)
(0.0371298 0.0428132 3.08063e-28)
(0.0368437 0.0561239 -1.75444e-28)
(0.0314618 0.0614032 4.82687e-28)
(0.0234992 0.0619641 0)
(0.0168179 0.0628802 -1.90519e-27)
(0.0114959 0.0645389 -2.53179e-27)
(0.00715337 0.0665196 0)
(0.00372078 0.0685642 7.02932e-27)
(0.00108924 0.0710019 -2.09535e-28)
(0.0402299 0.00153952 7.39625e-28)
(0.0382079 0.00544687 2.91411e-28)
(0.0367289 0.0120935 0)
(0.0363204 0.023367 2.0833e-28)
(0.0380713 0.0401019 -3.75273e-28)
(0.0391874 0.0555763 2.75637e-28)
(0.0357799 0.0638463 3.48587e-28)
(0.0282475 0.0651038 2.2079e-28)
(0.020791 0.0651736 -1.70054e-27)
(0.0149191 0.0661635 8.98154e-30)
(0.0101441 0.0676974 -2.87402e-27)
(0.00625491 0.0694111 3.30864e-27)
(0.00322927 0.0711566 1.73191e-28)
(0.000934218 0.07333 1.86647e-28)
(0.0423259 0.00153255 7.82429e-28)
(0.0402173 0.00530857 0)
(0.0386244 0.0115472 2.78983e-28)
(0.0377548 0.0214045 0)
(0.0388684 0.0372334 -3.82581e-28)
(0.0407692 0.054062 5.94955e-28)
(0.0392639 0.0653864 -4.5851e-28)
(0.0329306 0.0684728 -3.62516e-28)
(0.02495 0.068052 7.12363e-28)
(0.0184009 0.0682592 -2.61034e-29)
(0.0131586 0.0691929 -2.73055e-27)
(0.0088709 0.0705336 0)
(0.00541484 0.0719749 -3.56995e-27)
(0.00276521 0.0734468 1.5893e-28)
(0.000789686 0.0753637 4.37383e-27)
(0.0444726 0.00151765 8.23394e-28)
(0.0422821 0.00522502 0)
(0.0406007 0.0110888 3.03576e-28)
(0.0393381 0.019994 3.97715e-28)
(0.0397622 0.0345251 0)
(0.0418182 0.0519289 0)
(0.0418655 0.0658707 3.93947e-28)
(0.0372265 0.0716364 -4.57779e-28)
(0.0292986 0.0714738 -1.17213e-28)
(0.0219826 0.0708504 1.96828e-28)
(0.0162079 0.0711253 0)
(0.0115104 0.0719419 0)
(0.00766725 0.0730491 -3.49465e-27)
(0.00462558 0.0742363 1.14216e-28)
(0.00233384 0.0754395 8.3998e-27)
(0.000654843 0.0771338 0)
(0.046646 0.00150312 8.08927e-28)
(0.0444144 0.00515456 0)
(0.0426275 0.010696 3.26696e-28)
(0.0411326 0.0190534 1.43487e-27)
(0.0408809 0.0321149 2.49982e-28)
(0.0425867 0.0494838 0)
(0.0436999 0.0653424 -3.78226e-35)
(0.040845 0.0741652 5.52464e-28)
(0.0336687 0.0752686 3.68981e-28)
(0.0257477 0.0739765 -1.07877e-28)
(0.0193137 0.0735144 5.5967e-28)
(0.0141596 0.0737557 -4.478e-29)
(0.00994372 0.0743796 0)
(0.00653484 0.075261 0)
(0.00388436 0.0761967 8.17846e-27)
(0.00193627 0.0771709 4.08736e-28)
(0.000529661 0.0786556 4.59343e-27)
(0.0488415 0.0015056 4.57572e-28)
(0.0465754 0.00509256 1.21803e-27)
(0.0447205 0.0103629 4.49321e-28)
(0.0430808 0.0183914 1.54022e-27)
(0.0422609 0.0301494 5.58323e-28)
(0.0433294 0.0469474 8.59472e-28)
(0.0449676 0.0640238 2.95653e-28)
(0.0436833 0.075805 8.0739e-29)
(0.0378108 0.0790633 5.37731e-28)
(0.029662 0.0776792 3.13122e-28)
(0.0225309 0.0763795 4.21111e-28)
(0.0168421 0.0759907 3.48257e-28)
(0.0122208 0.0760926 -7.84082e-29)
(0.00846271 0.0765074 -3.7483e-27)
(0.0054665 0.0771874 3.97154e-27)
(0.00319306 0.0778856 1.03006e-36)
(0.00157163 0.0786519 4.82503e-27)
(0.000425145 0.0799428 -3.89859e-27)
(0.0510774 0.00151796 8.94772e-28)
(0.0487549 0.00505214 1.0056e-27)
(0.0468399 0.0100971 1.22545e-27)
(0.0450866 0.0179088 8.23967e-28)
(0.0438459 0.0287132 7.90771e-28)
(0.0442067 0.0445202 1.39432e-27)
(0.0458885 0.0622234 2.24621e-28)
(0.0458035 0.0764903 -3.63792e-28)
(0.041485 0.0825065 1.64785e-28)
(0.0336523 0.0818254 -5.20599e-28)
(0.025866 0.079767 -5.13585e-28)
(0.0195892 0.0786538 5.32797e-28)
(0.014519 0.0782151 -3.17727e-28)
(0.010385 0.0781209 -3.74985e-27)
(0.00706112 0.0783679 -2.13056e-29)
(0.00446513 0.078825 0)
(0.0025569 0.0793178 -5.25871e-32)
(0.00124586 0.079895 -4.30905e-27)
(0.00032401 0.081025 4.21819e-27)
(0.0533177 0.0015116 0)
(0.0509976 0.00500818 1.91439e-27)
(0.0489928 0.00991913 3.88001e-28)
(0.0471477 0.0175289 9.00308e-28)
(0.0455939 0.0277677 8.54575e-28)
(0.0453047 0.0423691 4.83738e-28)
(0.0466551 0.0602224 7.53061e-28)
(0.0473512 0.0763043 1.78733e-28)
(0.044539 0.0852782 0)
(0.037544 0.0861859 0)
(0.0293322 0.0837141 -5.01876e-28)
(0.0223988 0.0817922 -2.41267e-27)
(0.0168407 0.0807341 -2.0195e-28)
(0.0122996 0.0801501 1.84453e-27)
(0.0086399 0.0798924 0)
(0.00574102 0.0799216 0)
(0.00354322 0.0802034 -4.27719e-27)
(0.00198002 0.0804958 4.3696e-27)
(0.000987444 0.0810013 3.97706e-27)
(0.000237053 0.0819383 -1.7037e-28)
(0.0555371 0.00148794 5.3278e-28)
(0.0532546 0.00494412 1.01563e-27)
(0.0512335 0.00980822 8.07975e-28)
(0.0492611 0.0171519 1.36524e-27)
(0.0475095 0.0271447 0)
(0.0466462 0.0406267 0)
(0.0474145 0.0582329 2.77772e-28)
(0.0484813 0.0754772 4.42135e-37)
(0.0469492 0.0872372 5.45727e-28)
(0.0411651 0.0904204 0)
(0.0328958 0.088175 -1.56335e-28)
(0.0252954 0.0854506 -4.80907e-28)
(0.0191806 0.0836877 -8.93639e-28)
(0.0142191 0.0825739 2.05511e-27)
(0.01018 0.0818191 2.19679e-28)
(0.00698313 0.0813437 0)
(0.00451929 0.08121 -8.88865e-27)
(0.0027069 0.0813272 4.47562e-27)
(0.0014708 0.0814652 3.08985e-28)
(0.000734713 0.0819399 0)
(0.000157021 0.0827618 1.5988e-28)
(0.0577356 0.00145843 9.87135e-28)
(0.0554823 0.00487427 0)
(0.0535115 0.00971502 1.07267e-27)
(0.0513862 0.0168344 -4.00589e-28)
(0.0495672 0.0267515 1.41788e-27)
(0.048195 0.0393737 6.33134e-28)
(0.0482958 0.0563497 -1.21949e-27)
(0.0493626 0.0742618 2.77111e-28)
(0.0487777 0.0883773 -6.83607e-29)
(0.0443502 0.0942791 -1.47333e-28)
(0.0364666 0.0929869 -3.77399e-28)
(0.0283117 0.0896446 6.48652e-28)
(0.0215625 0.0871153 1.513e-27)
(0.0161321 0.0854007 4.18896e-28)
(0.011708 0.0841265 1.31532e-28)
(0.00817261 0.0831653 0)
(0.00543268 0.0825138 -4.53424e-27)
(0.00340383 0.0822481 -2.35279e-28)
(0.00196128 0.0822264 1.69829e-28)
(0.00106261 0.0822642 3.70755e-28)
(0.000510545 0.0827432 -3.8731e-27)
(0.000103886 0.0834586 1.59045e-28)
(0.0598973 0.00142102 0)
(0.0576959 0.00480037 8.8001e-28)
(0.0557568 0.00960087 1.15883e-27)
(0.0535755 0.0166711 4.15158e-28)
(0.051625 0.0264899 -1.60144e-27)
(0.0499517 0.0385763 1.83149e-27)
(0.0493932 0.0546842 1.31858e-27)
(0.0501702 0.0729007 -1.26984e-27)
(0.0501686 0.0887865 1.26119e-27)
(0.0470113 0.0975078 1.2145e-29)
(0.0399152 0.0979255 4.48269e-28)
(0.0314246 0.0943759 -1.71117e-27)
(0.024027 0.0910468 2.56412e-27)
(0.0180483 0.0886515 8.63629e-28)
(0.0132132 0.0868263 3.16441e-28)
(0.0093212 0.0853634 5.99986e-28)
(0.0062767 0.0842215 2.33883e-27)
(0.0040145 0.0834151 0)
(0.00240973 0.0830383 -3.44714e-28)
(0.00134028 0.0829264 4.27887e-27)
(0.000782393 0.0829555 -7.80439e-27)
(0.000361147 0.0833964 -3.54086e-27)
(7.72977e-05 0.0841226 0)
(0.062002 0.00136963 -5.87304e-28)
(0.0598786 0.00471979 -3.03062e-28)
(0.0579729 0.00944738 4.33922e-28)
(0.0558288 0.0166057 1.2812e-27)
(0.0536976 0.0262848 4.10799e-28)
(0.0518535 0.0381543 -7.05121e-28)
(0.0507483 0.053332 6.00776e-29)
(0.0510248 0.0715316 2.78393e-30)
(0.0512844 0.088645 -1.37538e-28)
(0.0491507 0.100026 -9.31284e-28)
(0.0431199 0.10272 0)
(0.0346196 0.0995693 -3.73966e-28)
(0.0265744 0.0955149 1.31709e-27)
(0.0200071 0.0923693 0)
(0.0146893 0.0899451 -3.85608e-35)
(0.0104184 0.0879447 -4.84124e-28)
(0.00705289 0.0863002 2.49938e-27)
(0.00452257 0.0849618 0)
(0.00274651 0.0840439 0)
(0.0015627 0.083613 4.3446e-27)
(0.000892453 0.0834413 -4.12844e-27)
(0.000590194 0.0835325 -1.11755e-32)
(0.000287467 0.0839863 0)
(7.79943e-05 0.0847836 2.32066e-27)
(0.0640274 0.00130121 -5.95603e-28)
(0.0620181 0.00462612 -3.50656e-28)
(0.0601641 0.009255 4.36755e-28)
(0.0580995 0.0165319 9.97644e-29)
(0.0558853 0.0261325 0)
(0.0538556 0.0379438 1.96729e-27)
(0.0523465 0.0523559 0)
(0.0520118 0.070258 -6.13715e-28)
(0.0522615 0.0881572 -2.04602e-27)
(0.0508697 0.101814 -3.47474e-28)
(0.0459575 0.107149 -2.34921e-27)
(0.0378036 0.105074 -6.10087e-28)
(0.0292412 0.10053 -1.17238e-27)
(0.0220161 0.0965981 3.4581e-28)
(0.0161686 0.0935206 -5.24275e-28)
(0.0114586 0.0909421 -2.69818e-27)
(0.00774656 0.0887514 -2.83906e-27)
(0.00492666 0.0868836 0)
(0.00293633 0.0854152 2.46662e-28)
(0.00165082 0.0844346 2.43633e-28)
(0.000892189 0.0839914 0)
(0.000603946 0.0838839 8.43304e-27)
(0.00048803 0.0840413 0)
(0.000310847 0.0845811 2.49259e-27)
(0.000101971 0.0854948 0)
(0.065919 0.00123154 -1.77041e-28)
(0.0640687 0.00451374 -4.36378e-28)
(0.0623136 0.00904881 -5.45361e-28)
(0.0603398 0.0164054 0)
(0.0581501 0.0260551 -1.99371e-27)
(0.0559753 0.0378349 5.96681e-28)
(0.0541434 0.0517249 0)
(0.0532144 0.0691391 -5.44664e-28)
(0.0532299 0.0875194 7.89452e-28)
(0.052283 0.102981 -2.23919e-27)
(0.0484097 0.111025 1.35968e-28)
(0.0408996 0.110676 -3.14101e-27)
(0.0320185 0.10607 -1.97304e-27)
(0.0241128 0.101367 -1.54201e-27)
(0.0176664 0.0975919 3.31608e-28)
(0.0124617 0.0943894 -2.83865e-27)
(0.0083507 0.0916171 -3.19726e-27)
(0.00521019 0.089193 4.2944e-28)
(0.0029793 0.0871492 -6.17508e-28)
(0.00154508 0.0855956 3.55917e-27)
(0.000752252 0.0846108 -4.92702e-36)
(0.000426566 0.0842513 4.74681e-27)
(0.000454675 0.0842701 8.81672e-28)
(0.000493488 0.0845455 0)
(0.000399802 0.0852567 0)
(0.000139845 0.0863048 1.10917e-27)
(0.0676507 0.00116353 -1.86511e-28)
(0.0659771 0.00437569 -4.49905e-28)
(0.0643751 0.00884607 -3.41774e-27)
(0.0624854 0.0162426 1.74618e-27)
(0.0603966 0.0260577 -1.6892e-27)
(0.058146 0.0378286 -4.13204e-28)
(0.0560813 0.0513917 -3.3284e-27)
(0.0546784 0.0682438 1.57878e-27)
(0.0542796 0.0868726 -5.40545e-28)
(0.0535269 0.103652 0)
(0.0504885 0.114277 -7.09501e-28)
(0.0438229 0.116155 -1.50262e-28)
(0.0348763 0.112038 -7.6433e-28)
(0.0263257 0.106697 -1.37685e-27)
(0.0192232 0.102181 0)
(0.013452 0.0983374 3.13021e-28)
(0.00887253 0.094947 0)
(0.00536328 0.0919193 -4.34267e-28)
(0.00284748 0.089256 -3.49257e-28)
(0.00123876 0.0871205 1.42006e-27)
(0.000386685 0.0855265 6.98505e-28)
(9.59959e-05 0.0846241 -4.73694e-28)
(0.000186888 0.0844523 5.42969e-28)
(0.000455308 0.0846416 0)
(0.000619596 0.0851039 0)
(0.000534379 0.0860649 0)
(0.000185453 0.0872495 8.9788e-29)
(0.0691989 0.0010862 0)
(0.067732 0.0041922 -4.97828e-28)
(0.0663275 0.00862053 -3.03401e-28)
(0.0645337 0.0160803 -2.19201e-27)
(0.0625487 0.0261153 3.08933e-28)
(0.0602948 0.0379395 -6.07571e-28)
(0.0580705 0.0513353 -3.16561e-27)
(0.0563444 0.0676323 -3.04176e-28)
(0.0554716 0.0862818 1.17656e-27)
(0.0547037 0.104005 0)
(0.0522612 0.116897 2.75471e-27)
(0.0465145 0.121303 0)
(0.0377874 0.118295 0)
(0.0286845 0.112582 -2.57535e-30)
(0.0208681 0.107318 -2.74527e-27)
(0.0144775 0.10281 0)
(0.00934687 0.0987876 -2.68258e-27)
(0.00539409 0.0951119 0)
(0.00253179 0.0917924 2.33974e-28)
(0.000701295 0.0890027 -2.28726e-28)
(-0.000239104 0.0867701 -1.6708e-27)
(-0.000484988 0.0852379 0)
(-0.000254641 0.0845436 0)
(0.000188341 0.0846118 -3.58118e-27)
(0.000634398 0.0850576 0)
(0.000864974 0.0857914 -8.21429e-29)
(0.000694175 0.087029 -6.25033e-28)
(0.00023502 0.0883499 1.54385e-27)
(0.0705045 0.00100247 -7.29002e-28)
(0.0693109 0.00395709 1.86999e-27)
(0.0681498 0.00834754 -8.11689e-28)
(0.0665003 0.0159347 2.29607e-27)
(0.0645902 0.0262023 0)
(0.06239 0.0381456 -1.66621e-27)
(0.0600683 0.0514947 -5.06842e-27)
(0.058112 0.0673148 -1.716e-31)
(0.0568089 0.0858343 0)
(0.0559041 0.104195 2.97599e-32)
(0.0538182 0.118958 8.6572e-28)
(0.0489379 0.12599 1.11303e-42)
(0.0406918 0.124652 0)
(0.0312025 0.118963 -4.59208e-28)
(0.0226646 0.113012 -1.99218e-27)
(0.0155722 0.107843 -1.91889e-27)
(0.00982262 0.103162 -3.40902e-27)
(0.00533499 0.0988371 0)
(0.0020464 0.0948332 -2.54992e-28)
(-8.53291e-05 0.0912913 -2.16427e-29)
(-0.00116804 0.0883377 -4.25496e-27)
(-0.0013834 0.086137 -3.81093e-28)
(-0.000991918 0.0847905 2.65425e-27)
(-0.000279397 0.0844271 -3.49726e-27)
(0.000451237 0.0848245 0)
(0.000992659 0.0856118 -1.0593e-28)
(0.00118972 0.0866735 0)
(0.000857412 0.0881633 4.31564e-28)
(0.000272838 0.0896099 6.96747e-27)
(0.0715369 0.000911401 3.36027e-28)
(0.0706478 0.00367628 1.16774e-27)
(0.0697752 0.00802842 0)
(0.0683315 0.0158111 3.95523e-27)
(0.0665227 0.0263203 3.39051e-27)
(0.0643889 0.0384291 -7.47489e-27)
(0.0620565 0.0518041 -2.1349e-27)
(0.0599147 0.0672613 -3.58166e-27)
(0.0582719 0.0855649 5.06302e-27)
(0.0571589 0.104354 0)
(0.0552687 0.120571 -2.8765e-27)
(0.0511024 0.130117 0)
(0.0435132 0.130917 -1.63658e-27)
(0.0338822 0.125767 -1.1559e-27)
(0.0246272 0.119273 -1.29448e-27)
(0.0167999 0.113434 -8.40777e-28)
(0.0103424 0.108124 -9.34774e-28)
(0.00522777 0.103147 -3.7554e-27)
(0.00141024 0.0984447 -4.24109e-28)
(-0.00111878 0.0940899 -2.57446e-28)
(-0.00243088 0.0903164 -3.28307e-27)
(-0.00267627 0.0873254 -4.30318e-28)
(-0.00211577 0.0852625 2.67864e-27)
(-0.00109015 0.0842859 0)
(3.64648e-05 0.0843323 9.73651e-28)
(0.000964466 0.0851897 0)
(0.00149815 0.0863997 0)
(0.00153869 0.0877834 2.98632e-28)
(0.000986758 0.089508 2.00394e-27)
(0.000281025 0.0909896 3.67919e-27)
(0.0722533 0.000813189 -9.68856e-27)
(0.0717137 0.00335946 3.38664e-28)
(0.0711447 0.00769935 0)
(0.0699518 0.0157335 0)
(0.0682975 0.0264756 -2.79832e-27)
(0.0662767 0.0387664 -4.86921e-27)
(0.0639909 0.0522125 4.25166e-27)
(0.0617307 0.0674326 3.55466e-27)
(0.0598551 0.085477 3.89852e-27)
(0.0584665 0.104538 1.76395e-27)
(0.0566802 0.121861 1.45569e-27)
(0.0530412 0.133687 -4.67496e-27)
(0.0462152 0.136901 0)
(0.0366827 0.132853 -4.39892e-28)
(0.0268159 0.126077 -9.87737e-28)
(0.0181936 0.119608 -1.73267e-27)
(0.0109864 0.113676 0)
(0.00514242 0.108084 -3.00515e-27)
(0.000676525 0.102681 -3.48273e-27)
(-0.00238225 0.0975019 -4.1169e-27)
(-0.00403755 0.0928187 -3.94956e-27)
(-0.00441319 0.0888824 5.3897e-27)
(-0.00373412 0.0859668 -1.83702e-27)
(-0.00234533 0.0842708 -3.75418e-28)
(-0.000730796 0.0837913 2.31909e-27)
(0.000714874 0.0844139 0)
(0.00169641 0.0858401 0)
(0.00207339 0.0874807 3.11305e-29)
(0.00183047 0.0891603 8.77631e-27)
(0.00102629 0.0910178 1.29638e-26)
(0.000241264 0.0924311 0)
(0.0725911 0.000711148 -7.66912e-27)
(0.072455 0.00303208 -1.35525e-26)
(0.0722168 0.00743072 0)
(0.0712996 0.0157068 -1.30095e-26)
(0.069839 0.0266711 -5.21451e-27)
(0.0680128 0.0391327 1.91039e-26)
(0.0658418 0.0526881 9.46143e-27)
(0.0635509 0.0677792 -7.14332e-27)
(0.0615215 0.0855566 0)
(0.0598541 0.10477 -7.23976e-27)
(0.05808 0.122933 3.55769e-27)
(0.0548354 0.136727 -5.186e-27)
(0.0487567 0.142473 3.77847e-27)
(0.0395534 0.14002 3.80317e-27)
(0.0292704 0.133366 -1.20444e-27)
(0.019825 0.126328 0)
(0.0118155 0.119839 0)
(0.00516777 0.11366 -2.86599e-27)
(-6.72702e-05 0.107594 -6.95479e-27)
(-0.00381513 0.101612 -3.42444e-27)
(-0.00597091 0.095964 -4.3798e-27)
(-0.00660755 0.0909661 8.06179e-27)
(-0.00590083 0.086998 5.34223e-27)
(-0.00420333 0.0843634 -5.97534e-27)
(-0.0019892 0.0831965 2.85169e-27)
(0.000139508 0.0834048 -2.50391e-28)
(0.00174578 0.0848003 0)
(0.00260853 0.0868636 5.17311e-27)
(0.00264145 0.0889403 3.65614e-28)
(0.00198513 0.0908143 2.93886e-26)
(0.000893481 0.0926195 0)
(0.000139819 0.0938137 -2.25619e-26)
(0.0725295 0.000600895 1.29075e-27)
(0.0728158 0.00272849 -1.22072e-26)
(0.0729385 0.00717622 5.99155e-28)
(0.0723084 0.0157146 -7.53713e-27)
(0.0711052 0.0269359 8.95519e-27)
(0.0695242 0.0395405 1.31162e-26)
(0.0675543 0.0532115 6.79225e-27)
(0.0653342 0.0682375 0)
(0.0632314 0.0857744 2.99136e-27)
(0.0613438 0.105078 -7.35371e-27)
(0.05951 0.123871 -7.58595e-27)
(0.0565404 0.139311 0)
(0.0511412 0.147535 -3.97269e-27)
(0.0424539 0.1471 3.89391e-27)
(0.0319595 0.141016 3.33948e-27)
(0.021777 0.133583 0)
(0.012898 0.126584 -4.92768e-27)
(0.00537317 0.119893 -5.2866e-27)
(-0.000730236 0.113226 -3.36943e-27)
(-0.00530171 0.106493 0)
(-0.00818007 0.0998626 3.79864e-28)
(-0.0092616 0.0937207 4.73236e-27)
(-0.00869274 0.0885044 4.07417e-27)
(-0.00674603 0.0846884 1.92722e-31)
(-0.00394364 0.0825934 0)
(-0.000934357 0.0822086 -3.22905e-28)
(0.00155558 0.0833403 -1.31284e-26)
(0.00307973 0.0856471 6.14623e-27)
(0.00355694 0.0883781 5.80349e-27)
(0.00304635 0.090824 -6.93986e-27)
(0.0018465 0.0927031 1.02612e-26)
(0.000525034 0.0941891 -2.3773e-26)
(7.93435e-06 0.0949684 0)
(0.0720455 0.000466595 4.69284e-28)
(0.0727942 0.00243588 8.91529e-27)
(0.0732693 0.00694604 -4.17647e-27)
(0.0729341 0.0158194 3.02476e-27)
(0.0720353 0.0272661 9.52227e-27)
(0.070745 0.0399873 6.02106e-27)
(0.0690464 0.0537676 0)
(0.0670022 0.0687685 0)
(0.064921 0.0861074 2.30178e-26)
(0.0629272 0.105467 0)
(0.0609869 0.124717 -7.69103e-27)
(0.0582136 0.141498 0)
(0.0533892 0.152042 0)
(0.0453479 0.153932 0)
(0.0348489 0.148887 -9.2544e-27)
(0.0240611 0.141352 0)
(0.0143111 0.133885 -1.43351e-27)
(0.00587595 0.126767 -5.42929e-27)
(-0.0012047 0.119587 0)
(-0.00674221 0.112188 0)
(-0.0105387 0.104644 0)
(-0.0123432 0.09732 0)
(-0.0121145 0.0907194 0)
(-0.0100915 0.0854417 5.76025e-27)
(-0.00674821 0.0820438 4.25769e-27)
(-0.00281555 0.0807688 -4.13418e-28)
(0.000839719 0.0815062 0)
(0.00346039 0.0838335 -1.58174e-26)
(0.00460864 0.0871623 -3.2887e-32)
(0.00437916 0.0904506 -6.1264e-28)
(0.0030723 0.0931127 2.15381e-26)
(0.00123038 0.0947204 5.92926e-30)
(-0.000176324 0.0955472 -5.98942e-26)
(-5.31007e-05 0.0951426 0)
(-0.000366626 0.0956642 0)
(0.0711015 0.000267268 -7.95672e-29)
(0.0723522 0.00216504 1.65613e-27)
(0.0731752 0.00678602 1.11904e-27)
(0.0731526 0.0160314 6.06229e-31)
(0.0725845 0.0276471 -1.24912e-31)
(0.0716427 0.0404622 -2.28314e-26)
(0.0702701 0.0543419 1.24706e-26)
(0.0684777 0.0693549 2.5604e-26)
(0.0665168 0.0865329 3.84e-26)
(0.0645453 0.10591 0)
(0.0625115 0.125492 -3.83478e-26)
(0.0599033 0.143357 -1.62604e-26)
(0.0555235 0.155987 0)
(0.0482066 0.16036 4.518e-27)
(0.0379205 0.156842 -3.42853e-27)
(0.0266745 0.149512 -8.09716e-27)
(0.0161099 0.141711 7.63179e-27)
(0.00674546 0.134225 7.478e-27)
(-0.00135146 0.126666 0)
(-0.00800079 0.118752 0)
(-0.0128978 0.11043 -4.52695e-27)
(-0.0157264 0.101931 -6.18893e-27)
(-0.0161798 0.0938333 -5.58354e-27)
(-0.0143303 0.086844 0)
(-0.0105805 0.0817758 5.09665e-27)
(-0.00566291 0.0791831 -5.21715e-28)
(-0.000637052 0.0791795 0)
(0.00332988 0.0814375 0)
(0.00576173 0.0851166 0)
(0.00608791 0.0894532 -8.37217e-27)
(0.00491152 0.0931859 -9.37288e-27)
(0.00257527 0.0956821 1.60948e-26)
(0.000128825 0.0965604 -4.43419e-26)
(-0.000465277 0.0959692 -8.926e-28)
(-0.00119121 0.0964632 -1.04197e-27)
(-0.000247491 0.0951644 0)
(-0.000706539 0.0958806 3.24372e-28)
(0.0696887 6.96261e-05 2.64591e-27)
(0.071444 0.00199056 0)
(0.0726104 0.00675177 -2.91018e-27)
(0.0729261 0.0163469 -8.32886e-27)
(0.0727292 0.0280523 1.47474e-26)
(0.0721911 0.0409254 -2.53664e-26)
(0.0711861 0.0548858 0)
(0.069719 0.0699477 4.07527e-26)
(0.0679681 0.0870208 -4.17426e-30)
(0.0661213 0.106373 4.22988e-26)
(0.0640787 0.126238 -4.14119e-26)
(0.0616125 0.144934 -3.27085e-26)
(0.0576054 0.159389 3.07593e-30)
(0.0509955 0.166228 -1.66157e-26)
(0.0411533 0.164696 2.43095e-26)
(0.0296346 0.157959 1.72902e-26)
(0.0183414 0.150001 -2.91295e-27)
(0.00805364 0.142239 1.32015e-26)
(-0.00107064 0.134433 1.86478e-26)
(-0.00888618 0.126155 -6.37939e-27)
(-0.0150858 0.117231 -4.32003e-27)
(-0.0192257 0.107742 -5.22439e-27)
(-0.0207998 0.0981453 -6.98799e-27)
(-0.0195095 0.0892557 -6.2159e-27)
(-0.0156124 0.0820871 -1.19847e-26)
(-0.00982553 0.0776 -5.62215e-27)
(-0.00323843 0.076363 -9.72143e-28)
(0.00261028 0.0782209 5.79142e-28)
(0.00648146 0.0823592 0)
(0.00819405 0.0874819 0)
(0.00730972 0.0926163 0)
(0.00475261 0.0964981 -1.40396e-26)
(0.00155477 0.0971743 6.47647e-28)
(0.00209388 0.0980155 0)
(-0.000926938 0.0972381 0)
(0.000856381 0.0981747 2.29517e-26)
(-0.00108538 0.0984216 7.81522e-27)
(-0.0012472 0.0961663 5.60761e-28)
(-0.00186667 0.0968176 -5.69887e-28)
(-0.000388932 0.095068 -8.92723e-27)
(-0.00112622 0.0958831 -9.37667e-27)
(0.0678211 -0.000119422 0)
(0.0700473 0.00185191 2.42308e-27)
(0.0715689 0.00688081 9.69044e-27)
(0.0722077 0.0167655 -8.43666e-27)
(0.0724473 0.0284668 1.07168e-26)
(0.0723538 0.0413443 0)
(0.0717771 0.0553555 1.34456e-27)
(0.070691 0.0704704 0)
(0.0692393 0.0874944 -2.38557e-26)
(0.0676014 0.106822 4.4852e-26)
(0.0656604 0.126933 4.43879e-26)
(0.0633334 0.146294 1.07999e-26)
(0.0596756 0.162319 -1.729e-26)
(0.0536922 0.17146 -6.61061e-30)
(0.0445077 0.172209 -3.13478e-26)
(0.0329242 0.166551 1.81918e-26)
(0.0210148 0.158663 2.02334e-27)
(0.00986544 0.150739 0)
(-0.000268515 0.142802 1.40365e-26)
(-0.00927103 0.134357 0)
(-0.0168685 0.125071 -3.78048e-26)
(-0.0225584 0.114828 4.92765e-27)
(-0.0256986 0.103886 2.73468e-27)
(-0.0255622 0.0930192 -6.59709e-27)
(-0.0220434 0.0834351 -1.56216e-26)
(-0.0156046 0.0764846 0)
(-0.00740561 0.073138 -1.14753e-26)
(0.000733839 0.0740785 1.65437e-27)
(0.00696669 0.0783716 0)
(0.0101142 0.0847473 2.34802e-26)
(0.0101092 0.0912676 -2.24739e-26)
(0.00780586 0.0967118 0)
(0.00366058 0.0986925 -6.7908e-27)
(0.00458819 0.0995554 0)
(0.00141467 0.0993322 5.68415e-27)
(-0.00212539 0.097886 0)
(-0.000623505 0.0995929 7.03199e-27)
(-0.00227515 0.0992323 8.11661e-27)
(-0.00199548 0.0962238 0)
(-0.00282699 0.0970321 -1.10767e-27)
(-0.000553145 0.0947022 1.22367e-27)
(-0.00163259 0.0956157 1.99921e-28)
(0.0654905 -0.000261107 -4.17143e-29)
(0.0681606 0.0017628 0)
(0.0700651 0.00716678 2.79216e-27)
(0.0710169 0.0172567 -2.09264e-30)
(0.0717165 0.0288807 4.84336e-27)
(0.0720998 0.0416936 -9.05012e-27)
(0.0720163 0.0557179 0)
(0.071373 0.0708859 -1.57514e-26)
(0.0702975 0.0878815 3.20314e-27)
(0.0689436 0.107194 6.99434e-27)
(0.067208 0.127534 5.47363e-26)
(0.0650374 0.147413 3.05407e-26)
(0.061755 0.164812 -2.80606e-26)
(0.056316 0.176095 0)
(0.0478614 0.179228 -1.87489e-26)
(0.0365345 0.1751 3.77743e-26)
(0.0241597 0.167575 0)
(0.0122242 0.159622 -1.81468e-26)
(0.00112425 0.151698 0)
(-0.00904752 0.143269 0)
(-0.018058 0.133864 -8.03259e-26)
(-0.0254386 0.123201 0)
(-0.0304713 0.111245 4.54698e-27)
(-0.0321789 0.0985207 2.95932e-26)
(-0.0296589 0.0862796 2.27652e-27)
(-0.0231884 0.0762149 -1.0756e-26)
(-0.0135184 0.0700177 -3.17907e-27)
(-0.00260039 0.0686791 -1.2333e-26)
(0.00650601 0.072671 -1.16247e-27)
(0.0128716 0.0796688 3.59526e-27)
(0.0142876 0.0888615 2.37277e-26)
(0.0117463 0.0965101 -2.16085e-26)
(0.00675488 0.100138 -4.27006e-27)
(0.00818315 0.10072 0)
(0.00261022 0.100493 -1.43099e-26)
(0.00385224 0.101627 0)
(7.71266e-05 0.10095 7.92946e-27)
(-0.00343654 0.0983356 3.15884e-27)
(-0.00201252 0.100739 -6.17657e-27)
(-0.00376736 0.0999268 -8.24302e-27)
(-0.00287073 0.0960397 0)
(-0.00402785 0.097005 -1.04475e-27)
(-0.00073817 0.0940001 2.27492e-26)
(-0.00221504 0.0950235 3.63971e-26)
(0.0626341 -0.000328233 -2.11044e-27)
(0.0657585 0.00175287 0)
(0.0680507 0.00758764 9.11372e-28)
(0.0693705 0.0177775 -2.70126e-27)
(0.0705415 0.0292552 1.25939e-26)
(0.0714203 0.041948 -9.81496e-27)
(0.0718883 0.0559285 4.16325e-27)
(0.0717445 0.0711514 -1.52909e-26)
(0.0711121 0.0881426 0)
(0.0701158 0.107443 3.34478e-27)
(0.0686681 0.12799 -1.7632e-26)
(0.0667008 0.148298 2.48563e-26)
(0.0638135 0.16682 -3.17768e-26)
(0.0589263 0.18013 -1.81823e-26)
(0.0511652 0.185639 3.81044e-26)
(0.0403426 0.183427 3.88277e-26)
(0.0277732 0.176625 3.86972e-26)
(0.0151421 0.168772 3.82158e-26)
(0.00317475 0.160973 -2.94891e-27)
(-0.00809186 0.152737 0)
(-0.0184982 0.14348 -2.0928e-26)
(-0.0276071 0.132757 1.55103e-26)
(-0.034741 0.120301 1.26048e-26)
(-0.0388259 0.106166 -2.73373e-26)
(-0.0385211 0.0913531 -4.93427e-29)
(-0.0329606 0.0775993 -2.01388e-26)
(-0.0227016 0.0673201 -3.86928e-27)
(-0.00931764 0.0631991 0)
(0.00361258 0.0656164 -1.17729e-26)
(0.0133056 0.0727844 2.31721e-28)
(0.0188159 0.0827052 3.89426e-27)
(0.0176751 0.094361 -1.3192e-26)
(0.011173 0.101024 0)
(0.0131806 0.101178 1.10217e-26)
(0.00581375 0.102657 -3.24586e-27)
(0.00776936 0.103566 1.15815e-31)
(0.00119979 0.102388 1.07734e-27)
(0.00265487 0.103826 1.08402e-27)
(-0.00140427 0.102401 -1.1875e-27)
(-0.00495914 0.0985321 3.10566e-27)
(-0.00373636 0.10174 1.42119e-28)
(-0.00559944 0.100424 3.1261e-27)
(-0.00388024 0.0955264 1.17801e-26)
(-0.0054331 0.0966482 1.51225e-27)
(-0.000941764 0.0929038 0)
(-0.00287168 0.0940455 2.73662e-26)
(0.0592652 -0.000311366 1.10053e-28)
(0.0628183 0.00187082 4.47799e-28)
(0.0654433 0.00817546 0)
(0.0672479 0.0183037 5.25077e-27)
(0.0689259 0.029549 -3.16419e-27)
(0.0703397 0.0420741 8.2251e-27)
(0.0713385 0.05598 -3.52889e-27)
(0.0717859 0.0712292 0)
(0.0716597 0.0882223 6.83866e-28)
(0.071094 0.107534 1.912e-26)
(0.0700052 0.128263 -1.91298e-26)
(0.0683167 0.148952 1.53372e-30)
(0.0658073 0.16837 -1.77196e-26)
(0.0615202 0.183509 0)
(0.0544823 0.19136 -6.27585e-26)
(0.0442764 0.191321 -4.54392e-27)
(0.0317756 0.185691 1.05847e-29)
(0.0186154 0.178111 -3.96044e-26)
(0.00588349 0.170474 3.58605e-26)
(-0.00633254 0.162554 -3.85553e-26)
(-0.0179994 0.153707 1.31298e-29)
(-0.0288159 0.143296 0)
(-0.0380422 0.130836 1.56711e-26)
(-0.0448954 0.116081 1.1918e-26)
(-0.0478769 0.0995858 0)
(-0.0452519 0.0830624 -2.11183e-26)
(-0.0359168 0.0693561 0)
(-0.0223254 0.0621983 1.17216e-26)
(-0.00708651 0.0614643 -7.75947e-27)
(0.00672618 0.0674256 1.94922e-27)
(0.0167836 0.0781201 0)
(0.0210868 0.0913221 -2.18015e-26)
(0.0173448 0.100817 -1.27802e-26)
(0.020245 0.100028 0)
(0.010498 0.10439 3.15269e-27)
(0.0133707 0.104902 1.01967e-26)
(0.00455653 0.10524 0)
(0.00675523 0.106603 0)
(-0.000371019 0.104188 0)
(0.00107773 0.10606 0)
(-0.00330805 0.103774 1.05124e-26)
(-0.00676891 0.0984413 1.55503e-27)
(-0.00586505 0.102608 1.15322e-26)
(-0.00781384 0.100669 4.22479e-27)
(-0.0050346 0.0946284 2.59405e-26)
(-0.00707359 0.0959398 -1.66789e-27)
(-0.00116961 0.0913732 1.37811e-26)
(-0.00361684 0.0926287 1.46666e-26)
(0.0554556 -0.000189985 4.92685e-27)
(0.0593499 0.00212157 3.94914e-28)
(0.0622819 0.00891263 2.36095e-27)
(0.0646217 0.0188083 3.86461e-27)
(0.0668625 0.0297469 -1.0579e-26)
(0.0688449 0.0420577 3.61093e-27)
(0.0704071 0.0558411 1.57185e-26)
(0.0714713 0.0710905 -3.7993e-27)
(0.0719101 0.0880908 2.15318e-26)
(0.0718474 0.10742 1.95455e-26)
(0.0711957 0.128316 0)
(0.0698666 0.149352 -2.0271e-26)
(0.0677321 0.169495 -1.95469e-26)
(0.0640505 0.186211 2.28082e-26)
(0.0578175 0.196331 -5.67419e-30)
(0.0482968 0.198615 -4.37375e-26)
(0.0360941 0.194536 2.34909e-26)
(0.0226418 0.187493 -4.06198e-26)
(0.00924856 0.180112 -1.90113e-26)
(-0.0037754 0.17262 -1.46008e-27)
(-0.0165287 0.164322 -4.69529e-26)
(-0.0287835 0.154479 3.85746e-26)
(-0.0400727 0.142504 0)
(-0.0497274 0.128004 8.47441e-26)
(-0.0565078 0.111262 7.81369e-26)
(-0.0587107 0.0940836 0)
(-0.0550437 0.07964 0)
(-0.0448438 0.0707817 1.73228e-26)
(-0.031473 0.0690439 1.93251e-26)
(-0.0146813 0.0720048 -4.4686e-27)
(0.00377519 0.0794498 0)
(0.0144333 0.0926974 -1.31e-26)
(0.0223828 0.0997842 3.55934e-34)
(0.0213647 0.100378 0)
(0.0175154 0.104923 -1.2374e-26)
(0.020349 0.105243 0)
(0.00949101 0.107946 5.16771e-27)
(0.0129662 0.108833 1.12211e-26)
(0.00292825 0.107969 0)
(0.00517339 0.10994 0)
(-0.00240493 0.106008 1.94405e-26)
(-0.00107156 0.108399 2.71931e-27)
(-0.00566018 0.105056 0)
(-0.00890001 0.0980238 -4.83349e-27)
(-0.00839289 0.103236 0)
(-0.0103566 0.100582 4.36178e-27)
(-0.00634275 0.0932979 1.43475e-26)
(-0.00895795 0.0948251 1.09035e-26)
(-0.00141609 0.0893896 -7.63734e-27)
(-0.00443338 0.0907354 -8.12513e-27)
(0.0513372 1.80025e-05 5.8049e-27)
(0.0554162 0.00248528 4.65697e-27)
(0.0586558 0.00971013 -3.27509e-27)
(0.0615212 0.0192275 2.01744e-27)