/*--------------------------------*- C++ -*----------------------------------*\
  =========                 |
  \\      /  F ield         | OpenFOAM: The Open Source CFD Toolbox
   \\    /   O peration     | Website:  https://openfoam.org
    \\  /    A nd           | Version:  dev
     \\/     M anipulation  |
\*---------------------------------------------------------------------------*/
FoamFile
{
    version     2.0;
    format      ascii;
    class       volScalarField;
    location    "2500";
    object      a;
}
// * * * * * * * * * * * * * * * * * * * * * * * * * * * * * * * * * * * * * //

dimensions      [0 -1 0 0 0 0 0];

internalField   nonuniform List<scalar> 
9842
(
0.100011
0.100011
0.100011
0.100011
0.100011
0.100011
0.100011
0.100011
0.100011
0.100011
0.10001
0.100011
0.100011
0.100011
0.100011
0.10001
0.10001
0.100011
0.100011
0.100011
0.100011
0.10001
0.10001
0.10001
0.100011
0.100011
0.100011
0.100011
0.10001
0.10001
0.10001
0.10001
0.100011
0.100011
0.100011
0.100011
0.100009
0.10001
0.10001
0.10001
0.10001
0.100011
0.100011
0.100011
0.100011
0.100009
0.100009
0.10001
0.10001
0.10001
0.10001
0.100011
0.100011
0.100011
0.100011
0.100009
0.100009
0.100009
0.10001
0.10001
0.10001
0.10001
0.100011
0.100011
0.100011
0.100011
0.100009
0.100009
0.100009
0.100009
0.10001
0.10001
0.10001
0.10001
0.100011
0.100011
0.100011
0.100011
0.100009
0.100009
0.100009
0.100009
0.100009
0.10001
0.10001
0.10001
0.10001
0.100011
0.100011
0.100011
0.100011
0.100008
0.100009
0.100009
0.100009
0.100009
0.100009
0.10001
0.10001
0.10001
0.10001
0.100011
0.100011
0.100011
0.100011
0.100008
0.100008
0.100009
0.100009
0.100009
0.100009
0.100009
0.10001
0.10001
0.10001
0.10001
0.100011
0.100011
0.100011
0.100011
0.100008
0.100008
0.100008
0.100009
0.100009
0.100009
0.100009
0.100009
0.10001
0.10001
0.10001
0.10001
0.100011
0.100011
0.100011
0.100011
0.100008
0.100008
0.100008
0.100008
0.100009
0.100009
0.100009
0.100009
0.100009
0.10001
0.10001
0.10001
0.10001
0.100011
0.100011
0.100011
0.100011
0.100007
0.100008
0.100008
0.100008
0.100008
0.100009
0.100009
0.100009
0.100009
0.100009
0.10001
0.10001
0.10001
0.10001
0.100011
0.100011
0.100011
0.100011
0.100007
0.100007
0.100008
0.100008
0.100008
0.100008
0.100009
0.100009
0.100009
0.100009
0.100009
0.10001
0.10001
0.10001
0.10001
0.100011
0.100011
0.100011
0.100011
0.100007
0.100007
0.100007
0.100008
0.100008
0.100008
0.100008
0.100008
0.100009
0.100009
0.100009
0.100009
0.10001
0.10001
0.10001
0.10001
0.100011
0.100011
0.100011
0.100011
0.100007
0.100007
0.100007
0.100007
0.100008
0.100008
0.100008
0.100008
0.100008
0.100009
0.100009
0.100009
0.100009
0.10001
0.10001
0.10001
0.10001
0.100011
0.100011
0.100011
0.100011
0.100006
0.100007
0.100007
0.100007
0.100007
0.100008
0.100008
0.100008
0.100008
0.100008
0.100009
0.100009
0.100009
0.100009
0.10001
0.10001
0.10001
0.10001
0.100011
0.100011
0.100011
0.100011
0.100006
0.100006
0.100007
0.100007
0.100007
0.100007
0.100008
0.100008
0.100008
0.100008
0.100008
0.100009
0.100009
0.100009
0.100009
0.10001
0.10001
0.10001
0.10001
0.100011
0.100011
0.100011
0.100011
0.100006
0.100006
0.100006
0.100007
0.100007
0.100007
0.100007
0.100008
0.100008
0.100008
0.100008
0.100008
0.100009
0.100009
0.100009
0.100009
0.10001
0.10001
0.10001
0.10001
0.100011
0.100011
0.100011
0.100011
0.100006
0.100006
0.100006
0.100006
0.100007
0.100007
0.100007
0.100007
0.100008
0.100008
0.100008
0.100008
0.100008
0.100009
0.100009
0.100009
0.100009
0.10001
0.10001
0.10001
0.10001
0.100011
0.100011
0.100011
0.100011
0.100006
0.100006
0.100006
0.100006
0.100006
0.100007
0.100007
0.100007
0.100007
0.100008
0.100008
0.100008
0.100008
0.100008
0.100009
0.100009
0.100009
0.100009
0.10001
0.10001
0.10001
0.10001
0.100011
0.100011
0.100011
0.100011
0.100005
0.100006
0.100006
0.100006
0.100006
0.100006
0.100007
0.100007
0.100007
0.100007
0.100008
0.100008
0.100008
0.100008
0.100008
0.100009
0.100009
0.100009
0.100009
0.10001
0.10001
0.10001
0.10001
0.100011
0.100011
0.100011
0.100011
0.100005
0.100005
0.100006
0.100006
0.100006
0.100006
0.100006
0.100007
0.100007
0.100007
0.100007
0.100008
0.100008
0.100008
0.100008
0.100008
0.100009
0.100009
0.100009
0.100009
0.10001
0.10001
0.10001
0.10001
0.100011
0.100011
0.100011
0.100011
0.100005
0.100005
0.100005
0.100006
0.100006
0.100006
0.100006
0.100006
0.100007
0.100007
0.100007
0.100007
0.100008
0.100008
0.100008
0.100008
0.100008
0.100009
0.100009
0.100009
0.100009
0.10001
0.10001
0.10001
0.10001
0.100011
0.100011
0.100011
0.100011
0.100005
0.100005
0.100005
0.100005
0.100006
0.100006
0.100006
0.100006
0.100006
0.100007
0.100007
0.100007
0.100007
0.100008
0.100008
0.100008
0.100008
0.100008
0.100009
0.100009
0.100009
0.100009
0.10001
0.10001
0.10001
0.10001
0.100011
0.100011
0.100011
0.100011
0.100004
0.100005
0.100005
0.100005
0.100005
0.100006
0.100006
0.100006
0.100006
0.100006
0.100007
0.100007
0.100007
0.100007
0.100008
0.100008
0.100008
0.100008
0.100009
0.100009
0.100009
0.100009
0.100009
0.10001
0.10001
0.10001
0.10001
0.100011
0.100011
0.100011
0.100011
0.100004
0.100004
0.100005
0.100005
0.100005
0.100005
0.100006
0.100006
0.100006
0.100006
0.100006
0.100007
0.100007
0.100007
0.100007
0.100008
0.100008
0.100008
0.100008
0.100009
0.100009
0.100009
0.100009
0.100009
0.10001
0.10001
0.10001
0.10001
0.100011
0.100011
0.100011
0.100011
0.100004
0.100004
0.100004
0.100005
0.100005
0.100005
0.100005
0.100006
0.100006
0.100006
0.100006
0.100006
0.100007
0.100007
0.100007
0.100007
0.100008
0.100009
0.100009
0.10001
0.10001
0.10001
0.10001
0.10001
0.10001
0.10001
0.10001
0.10001
0.10001
0.100011
0.100011
0.100011
0.100011
0.100004
0.100004
0.100004
0.100004
0.100005
0.100005
0.100005
0.100005
0.100006
0.100006
0.100006
0.100006
0.100006
0.100007
0.100007
0.100008
0.100009
0.100013
0.100017
0.100022
0.100025
0.10002
0.100016
0.100013
0.100011
0.10001
0.10001
0.10001
0.10001
0.10001
0.100011
0.100011
0.100011
0.100011
0.100011
0.100004
0.100004
0.100004
0.100004
0.100004
0.100005
0.100005
0.100005
0.100005
0.100006
0.100006
0.100006
0.100006
0.100006
0.100007
0.100009
0.100017
0.100033
0.100058
0.100097
0.100114
0.100099
0.100071
0.100043
0.100025
0.100017
0.100013
0.100011
0.100011
0.10001
0.10001
0.100011
0.100011
0.100011
0.100011
0.100011
0.100011
0.100003
0.100004
0.100004
0.100004
0.100004
0.100004
0.100005
0.100005
0.100005
0.100005
0.100006
0.100006
0.100006
0.100006
0.100007
0.100011
0.100035
0.100101
0.100224
0.100448
0.100648
0.100662
0.100486
0.100279
0.100138
0.100066
0.100034
0.10002
0.100015
0.100012
0.100011
0.100011
0.100011
0.10001
0.100011
0.100011
0.100011
0.100011
0.100011
0.100011
0.100011
0.100003
0.100003
0.100004
0.100004
0.100004
0.100004
0.100004
0.100005
0.100005
0.100005
0.100005
0.100006
0.100006
0.100006
0.100007
0.100014
0.100067
0.100225
0.100718
0.101749
0.103054
0.103731
0.103105
0.101881
0.100925
0.100408
0.100173
0.100078
0.100039
0.100023
0.100015
0.100012
0.10001
0.10001
0.10001
0.100011
0.100011
0.100011
0.100011
0.100011
0.100011
0.100011
0.100003
0.100003
0.100003
0.100004
0.100004
0.100004
0.100004
0.100004
0.100005
0.100005
0.100005
0.100005
0.100006
0.100006
0.100007
0.100016
0.1001
0.100408
0.101662
0.104808
0.109812
0.11433
0.114415
0.110326
0.105657
0.102523
0.101023
0.100413
0.100176
0.100081
0.100041
0.100021
0.10001
0.100011
0.10001
0.10001
0.10001
0.100011
0.100011
0.100011
0.100011
0.100011
0.100011
0.100011
0.100003
0.100003
0.100003
0.100003
0.100004
0.100004
0.100004
0.100004
0.100004
0.100005
0.100005
0.100005
0.100005
0.100006
0.100006
0.100016
0.100125
0.10059
0.102845
0.109162
0.120363
0.132709
0.139422
0.136065
0.124722
0.112868
0.105641
0.102205
0.100873
0.100368
0.100162
0.100073
0.100012
0.100015
0.10001
0.100011
0.10001
0.10001
0.100011
0.100011
0.100011
0.100011
0.100011
0.100011
0.100011
0.100011
0.100002
0.100003
0.100003
0.100003
0.100003
0.100004
0.100004
0.100004
0.100004
0.100004
0.100005
0.100005
0.100005
0.100005
0.100006
0.100015
0.10013
0.100707
0.103895
0.113753
0.131989
0.15241
0.166328
0.168888
0.15992
0.141715
0.12161
0.109485
0.103802
0.101543
0.10066
0.100298
0.100023
0.100045
0.100012
0.100015
0.100011
0.100012
0.100011
0.100011
0.100011
0.100011
0.100011
0.100011
0.100011
0.100011
0.100011
0.100011
0.100002
0.100002
0.100003
0.100003
0.100003
0.100003
0.100004
0.100004
0.100004
0.100004
0.100004
0.100005
0.100005
0.100005
0.100006
0.100011
0.100119
0.100726
0.104451
0.117288
0.142242
0.170646
0.191104
0.200091
0.197083
0.182167
0.157372
0.130005
0.113252
0.105545
0.102357
0.101077
0.100103
0.100237
0.100024
0.100046
0.100016
0.100028
0.100014
0.100023
0.100012
0.100017
0.100013
0.100011
0.100013
0.100014
0.100011
0.100011
0.100011
0.100011
0.100002
0.100002
0.100002
0.100003
0.100003
0.100003
0.100003
0.100004
0.100004
0.100004
0.100004
0.100004
0.100005
0.100005
0.100005
0.100008
0.100085
0.10067
0.104502
0.118983
0.14924
0.185124
0.211375
0.225864
0.230257
0.223888
0.203474
0.170929
0.13652
0.116452
0.107309
0.103442
0.100568
0.10122
0.100107
0.100268
0.10006
0.100145
0.100053
0.100145
0.10004
0.100125
0.100023
0.100075
0.100031
0.100013
0.100037
0.100039
0.100011
0.100012
0.100011
0.100011
0.100002
0.100002
0.100002
0.100002
0.100003
0.100003
0.100003
0.100003
0.100004
0.100004
0.100004
0.100004
0.100004
0.100005
0.100005
0.100006
0.10005
0.100511
0.104084
0.119053
0.152327
0.194017
0.224023
0.240779
0.251095
0.255188
0.248166
0.223092
0.18231
0.141351
0.119521
0.110045
0.102667
0.105613
0.100672
0.10163
0.100355
0.100888
0.1004
0.101038
0.100409
0.101204
0.10029
0.10103
0.100132
0.100587
0.100199
0.100034
0.100251
0.100264
0.100012
0.100026
0.100011
0.100011
0.100001
0.100002
0.100002
0.100002
0.100002
0.100003
0.100003
0.100003
0.100003
0.100004
0.100004
0.100004
0.100004
0.100004
0.100005
0.100005
0.100024
0.100341
0.103176
0.117917
0.152689
0.197479
0.225147
0.242412
0.255665
0.266618
0.27412
0.268452
0.239407
0.191093
0.146636
0.125658
0.11154
0.120728
0.103863
0.109435
0.102207
0.105266
0.102562
0.105901
0.103177
0.107509
0.103138
0.108253
0.102227
0.106838
0.101023
0.104065
0.101483
0.100222
0.101827
0.101893
0.100018
0.100146
0.100011
0.100013
0.100001
0.100001
0.100002
0.100002
0.100002
0.100002
0.100003
0.100003
0.100003
0.100003
0.100004
0.100004
0.100004
0.100004
0.100004
0.100005
0.100012
0.1002
0.101947
0.114372
0.150198
0.194325
0.219465
0.236003
0.249764
0.26422
0.278256
0.289748
0.286027
0.253147
0.200691
0.160562
0.136116
0.148104
0.118566
0.134643
0.112048
0.124147
0.112857
0.124487
0.116377
0.130642
0.118931
0.137342
0.117717
0.139511
0.112841
0.132318
0.10639
0.120553
0.108577
0.101628
0.110065
0.110283
0.100076
0.101121
0.100012
0.100032
0.100001
0.100001
0.100001
0.100002
0.100002
0.100002
0.100002
0.100003
0.100003
0.100003
0.100003
0.100004
0.100004
0.100004
0.100004
0.100004
0.100007
0.100091
0.101075
0.109901
0.14271
0.187583
0.208005
0.220615
0.229738
0.246732
0.270352
0.290668
0.306186
0.304136
0.269435
0.221227
0.200389
0.149635
0.179166
0.139417
0.159548
0.139353
0.157254
0.148251
0.167784
0.160598
0.185391
0.169804
0.202379
0.169058
0.21134
0.152459
0.203683
0.128899
0.173369
0.13584
0.109081
0.139983
0.140126
0.100594
0.106798
0.100016
0.100218
0.100001
0.100001
0.100001
0.100001
0.100002
0.100002
0.100002
0.100002
0.100003
0.100003
0.100003
0.100003
0.100004
0.100004
0.100004
0.100004
0.100005
0.100034
0.100594
0.105976
0.132473
0.178648
0.197978
0.203032
0.196502
0.205775
0.236934
0.276668
0.305907
0.326009
0.326694
0.295712
0.266418
0.235523
0.271648
0.181389
0.209438
0.177601
0.201163
0.188519
0.210483
0.2103
0.234511
0.234937
0.265402
0.254097
0.292547
0.258035
0.310104
0.239688
0.30583
0.192747
0.270588
0.206587
0.136124
0.212937
0.211094
0.104137
0.129158
0.100064
0.101824
0.100001
0.100001
0.100001
0.100001
0.100001
0.100002
0.100002
0.100002
0.100002
0.100003
0.100003
0.100003
0.100003
0.100004
0.100004
0.100004
0.100004
0.100014
0.100261
0.103089
0.122386
0.16779
0.189603
0.189087
0.168777
0.174486
0.199557
0.235821
0.286557
0.325559
0.351356
0.35776
0.339631
0.301628
0.341466
0.286252
0.318984
0.227193
0.255585
0.233621
0.259119
0.257896
0.281311
0.293047
0.317919
0.328669
0.358616
0.354049
0.387945
0.362386
0.399071
0.347042
0.397475
0.296069
0.377147
0.312199
0.201285
0.317201
0.312655
0.120756
0.185863
0.100585
0.112465
0.1
0.100001
0.100001
0.100001
0.100001
0.100001
0.100002
0.100002
0.100002
0.100002
0.100003
0.100003
0.100003
0.100003
0.100004
0.100004
0.100004
0.100007
0.100098
0.101329
0.113498
0.153739
0.182184
0.181367
0.151473
0.152411
0.172917
0.204677
0.247957
0.304729
0.351473
0.383812
0.401807
0.372824
0.403319
0.352561
0.387226
0.344589
0.375321
0.28632
0.314782
0.304844
0.329798
0.340716
0.362599
0.383055
0.403081
0.409659
0.424447
0.418797
0.429516
0.420771
0.429041
0.416912
0.428928
0.39545
0.428363
0.405098
0.298519
0.40758
0.401071
0.168733
0.275306
0.105338
0.151241
0.1
0.1
0.100001
0.100001
0.100001
0.100001
0.100001
0.100002
0.100002
0.100002
0.100002
0.100003
0.100003
0.100003
0.100003
0.100004
0.100004
0.100005
0.100034
0.10068
0.106959
0.13782
0.17484
0.17737
0.144799
0.137829
0.153496
0.189226
0.231169
0.277777
0.333917
0.384126
0.423821
0.460473
0.415656
0.450401
0.406229
0.435076
0.407053
0.433019
0.355408
0.381117
0.38363
0.404564
0.419604
0.433935
0.435829
0.445415
0.435691
0.441644
0.433148
0.433612
0.431443
0.427384
0.434618
0.428465
0.436165
0.437824
0.442346
0.384565
0.446954
0.44845
0.247827
0.35947
0.134466
0.219289
0.1
0.1
0.100001
0.100001
0.100001
0.100001
0.100001
0.100002
0.100002
0.100002
0.100002
0.100003
0.100003
0.100003
0.100003
0.100004
0.100004
0.100013
0.100276
0.103013
0.12331
0.164828
0.174898
0.14511
0.129819
0.138796
0.174357
0.224816
0.269951
0.315994
0.369569
0.423245
0.469242
0.492201
0.498033
0.460909
0.480358
0.457505
0.479524
0.462786
0.481029
0.424737
0.443971
0.447252
0.459962
0.454438
0.463504
0.447454
0.453767
0.433688
0.434057
0.416068
0.40594
0.409848
0.38827
0.422297
0.390442
0.44137
0.417356
0.447093
0.444049
0.454697
0.461786
0.325327
0.425217
0.119776
0.239572
0.1
0.1
0.100001
0.100001
0.100001
0.100001
0.100001
0.100002
0.100002
0.100002
0.100002
0.100003
0.100003
0.100003
0.100003
0.100004
0.100007
0.100088
0.101169
0.112283
0.14949
0.172052
0.148137
0.127238
0.129338
0.153321
0.206611
0.261497
0.308619
0.357884
0.411825
0.460697
0.49715
0.489394
0.510908
0.509176
0.497201
0.507526
0.498227
0.511293
0.497576
0.510012
0.472356
0.484757
0.472977
0.482684
0.461183
0.469802
0.436755
0.443669
0.402811
0.407782
0.379928
0.380927
0.372244
0.368615
0.379951
0.367356
0.416259
0.377367
0.422565
0.466129
0.435183
0.444938
0.461274
0.379983
0.460615
0.122807
0.28617
0.1
0.100001
0.100001
0.100001
0.100001
0.100001
0.100001
0.100002
0.100002
0.100002
0.100002
0.100003
0.100003
0.100003
0.100003
0.100004
0.10003
0.100601
0.105476
0.132084
0.165647
0.155937
0.127611
0.124912
0.136611
0.165649
0.21959
0.281465
0.332853
0.383159
0.43158
0.471373
0.503359
0.491287
0.518223
0.512298
0.518709
0.520318
0.520061
0.525852
0.514732
0.523998
0.492966
0.503823
0.479742
0.490792
0.45468
0.467908
0.419397
0.435205
0.386928
0.399301
0.37034
0.375678
0.365437
0.372902
0.366387
0.376427
0.380577
0.369973
0.371095
0.407963
0.38609
0.453199
0.469265
0.462084
0.424288
0.399682
0.391913
0.432907
0.385591
0.439705
0.468358
0.473274
0.466016
0.149582
0.415325
0.303399
0.395631
0.1
0.100001
0.100001
0.100001
0.100001
0.100001
0.100001
0.100002
0.100002
0.100002
0.100002
0.100003
0.100003
0.100003
0.100004
0.100012
0.100228
0.102149
0.117595
0.153411
0.161241
0.130596
0.12403
0.128014
0.140278
0.168065
0.21629
0.277969
0.338672
0.388454
0.42919
0.465782
0.444316
0.500618
0.484706
0.518127
0.504606
0.526393
0.524435
0.529093
0.529868
0.523663
0.529562
0.502176
0.513777
0.481694
0.495629
0.452123
0.469774
0.416265
0.436125
0.384621
0.39785
0.380457
0.383636
0.383614
0.39425
0.401446
0.40635
0.377243
0.392555
0.41139
0.429738
0.410076
0.373006
0.376939
0.376681
0.382124
0.380573
0.443976
0.45513
0.409859
0.392951
0.386037
0.420876
0.457104
0.465384
0.473613
0.473681
0.282326
0.360759
0.445082
0.437228
0.1
0.100001
0.100001
0.100001
0.100001
0.100001
0.100001
0.100002
0.100002
0.100002
0.100002
0.100003
0.100003
0.100003
0.100006
0.10007
0.100873
0.108177
0.136836
0.161011
0.140707
0.124694
0.125114
0.130687
0.140039
0.160804
0.194822
0.242469
0.297302
0.341669
0.357855
0.440317
0.395483
0.487315
0.465299
0.504369
0.484079
0.527687
0.520248
0.530644
0.527844
0.527471
0.528493
0.509211
0.520352
0.487117
0.502652
0.456942
0.476478
0.416761
0.438455
0.385603
0.393443
0.406744
0.404498
0.398911
0.391802
0.422227
0.429397
0.431228
0.400431
0.423221
0.444527
0.466628
0.446295
0.387036
0.379685
0.391043
0.40799
0.383652
0.433207
0.446183
0.401238
0.388344
0.393872
0.411284
0.470864
0.459075
0.470676
0.477927
0.446024
0.422568
0.101303
0.259306
0.467976
0.467674
0.1
0.100001
0.100001
0.100001
0.100001
0.100001
0.100001
0.100002
0.100002
0.100002
0.100002
0.100003
0.100003
0.100004
0.100023
0.100444
0.103316
0.120967
0.154817
0.151081
0.127934
0.125006
0.128697
0.130715
0.134294
0.142003
0.157568
0.183184
0.206942
0.212012
0.29129
0.217919
0.392623
0.3438
0.459758
0.429863
0.475966
0.44801
0.518679
0.499791
0.524618
0.512938
0.522895
0.517281
0.514898
0.522564
0.493362
0.506618
0.459817
0.478074
0.408885
0.428077
0.385179
0.380401
0.379195
0.380962
0.428878
0.421373
0.410346
0.397506
0.455672
0.460356
0.459489
0.434561
0.462049
0.482078
0.506547
0.486823
0.413847
0.394048
0.417507
0.443699
0.39621
0.423368
0.437147
0.400418
0.398473
0.400964
0.407991
0.479839
0.451727
0.466064
0.479552
0.477939
0.413378
0.119585
0.234579
0.481801
0.100001
0.100001
0.100001
0.100001
0.100001
0.100001
0.100001
0.100002
0.100002
0.100002
0.100002
0.100003
0.100003
0.100009
0.100143
0.10126
0.109986
0.138234
0.152886
0.137883
0.126491
0.12903
0.130427
0.128513
0.124562
0.121562
0.123903
0.130245
0.131784
0.125547
0.206269
0.14757
0.327448
0.270247
0.41504
0.375346
0.431319
0.395182
0.490758
0.463105
0.502147
0.477088
0.504411
0.485558
0.513814
0.512842
0.490971
0.496531
0.446295
0.458323
0.385522
0.392533
0.399774
0.404525
0.384994
0.374749
0.369025
0.367548
0.45261
0.439732
0.4226
0.403364
0.490951
0.492734
0.488122
0.475194
0.504296
0.519896
0.545361
0.528164
0.449846
0.419067
0.452674
0.485138
0.418782
0.417517
0.429884
0.404878
0.417381
0.415685
0.410466
0.485292
0.444902
0.461211
0.478704
0.487494
0.473842
0.381418
0.128086
0.232208
0.100001
0.100001
0.100001
0.100001
0.100001
0.100001
0.100001
0.100002
0.100002
0.100002
0.100002
0.100003
0.100005
0.100043
0.10066
0.104167
0.121947
0.149996
0.146898
0.131803
0.130458
0.13352
0.130717
0.124871
0.116903
0.110369
0.10721
0.106489
0.104764
0.106829
0.101777
0.142264
0.115753
0.249559
0.189276
0.35355
0.305215
0.371825
0.32884
0.445987
0.410698
0.457764
0.42438
0.461962
0.432469
0.494416
0.482756
0.462358
0.460426
0.404668
0.406158
0.369203
0.373715
0.379867
0.386456
0.384581
0.368719
0.356972
0.350828
0.476124
0.457659
0.434288
0.408511
0.524881
0.523536
0.514323
0.518281
0.546179
0.554495
0.580092
0.567028
0.491077
0.452445
0.493084
0.528374
0.4493
0.417723
0.427134
0.415064
0.444002
0.437674
0.416806
0.487785
0.440273
0.457249
0.476925
0.488532
0.463214
0.362789
0.122037
0.214487
0.100001
0.100001
0.100001
0.100001
0.100001
0.100001
0.100001
0.100002
0.100002
0.100002
0.100002
0.100003
0.100015
0.100264
0.101592
0.110511
0.137562
0.148287
0.140559
0.13336
0.137095
0.138072
0.132475
0.122673
0.112746
0.105394
0.101749
0.100759
0.100209
0.101473
0.100362
0.114018
0.104648
0.175992
0.136042
0.28093
0.228351
0.304142
0.259226
0.387033
0.346833
0.397808
0.360924
0.398566
0.365587
0.447908
0.426945
0.402866
0.393287
0.35329
0.352733
0.345021
0.350254
0.349057
0.349351
0.351382
0.353141
0.383218
0.361334
0.344148
0.332174
0.496752
0.472659
0.443239
0.411331
0.5558
0.549951
0.535268
0.560234
0.584812
0.583978
0.608756
0.601394
0.534031
0.491082
0.535218
0.570125
0.485169
0.421638
0.429182
0.431989
0.476157
0.465155
0.42866
0.488573
0.439516
0.455371
0.475565
0.487543
0.453662
0.345119
0.110828
0.182862
0.100001
0.100001
0.100001
0.100001
0.100001
0.100001
0.100001
0.100002
0.100002
0.100002
0.100003
0.100006
0.100075
0.100772
0.104435
0.121258
0.145466
0.145662
0.138752
0.139058
0.143567
0.14285
0.136374
0.124517
0.111014
0.102917
0.100446
0.100066
0.100044
0.100022
0.100352
0.100091
0.104391
0.101299
0.133661
0.11318
0.213133
0.168771
0.244059
0.205172
0.322313
0.2832
0.331644
0.29742
0.320436
0.290961
0.373325
0.349254
0.337498
0.325704
0.291965
0.315039
0.311686
0.301744
0.307526
0.324965
0.32127
0.319074
0.317258
0.380418
0.352512
0.329348
0.311892
0.512396
0.482637
0.447428
0.410051
0.581651
0.570751
0.550456
0.598506
0.618402
0.608936
0.631586
0.629428
0.575432
0.531766
0.57601
0.607992
0.523539
0.429003
0.433753
0.454254
0.511244
0.495945
0.445465
0.489146
0.442502
0.456016
0.475476
0.486587
0.445329
0.322093
0.103737
0.150818
0.100001
0.1
0.100001
0.100001
0.100001
0.100001
0.100001
0.100002
0.100002
0.100002
0.100003
0.100023
0.100367
0.101749
0.110062
0.133627
0.145665
0.143736
0.141558
0.145873
0.149459
0.147295
0.13856
0.125385
0.110257
0.101618
0.10012
0.100012
0.100012
0.100008
0.10008
0.100029
0.101196
0.100315
0.113293
0.104196
0.167633
0.134883
0.197241
0.163533
0.263861
0.230687
0.262092
0.233122
0.222152
0.198568
0.268521
0.247782
0.295745
0.292622
0.208069
0.195593
0.269819
0.262381
0.243757
0.253866
0.299369
0.290321
0.283185
0.27669
0.373763
0.340728
0.312435
0.289799
0.522296
0.487037
0.446542
0.404561
0.601339
0.585385
0.560554
0.631523
0.645997
0.628472
0.649847
0.650784
0.613015
0.571578
0.613279
0.640593
0.561668
0.440475
0.441219
0.480117
0.546751
0.5281
0.46576
0.49018
0.448003
0.459194
0.476065
0.486293
0.437772
0.292688
0.101209
0.129225
0.1
0.1
0.100001
0.100001
0.100001
0.100001
0.100001
0.100002
0.100002
0.100002
0.100009
0.100108
0.100819
0.104223
0.118735
0.14153
0.145059
0.144522
0.146819
0.152072
0.1543
0.149776
0.139214
0.123699
0.106911
0.100654
0.100042
0.100006
0.100008
0.100007
0.100007
0.100024
0.100011
0.100252
0.100064
0.10356
0.100975
0.132227
0.111687
0.145817
0.121529
0.204859
0.17516
0.177281
0.156704
0.138949
0.133776
0.182962
0.169504
0.147393
0.232762
0.221145
0.164169
0.157215
0.223232
0.212407
0.190373
0.201318
0.272112
0.257833
0.245559
0.23427
0.363409
0.325935
0.293501
0.266874
0.527308
0.486941
0.441335
0.39418
0.615816
0.595806
0.567308
0.658658
0.666333
0.641816
0.66233
0.667312
0.645465
0.608186
0.645568
0.667475
0.597282
0.455163
0.450767
0.507665
0.580734
0.559301
0.488024
0.491833
0.454896
0.46488
0.477991
0.486979
0.430914
0.264855
0.100754
0.124458
0.1
0.1
0.100001
0.100001
0.100001
0.100001
0.100001
0.100002
0.100002
0.100004
0.100031
0.100422
0.101698
0.108773
0.128276
0.143659
0.145471
0.147041
0.152183
0.157244
0.157577
0.150612
0.137515
0.118946
0.103355
0.10024
0.100015
0.100006
0.100007
0.100007
0.100007
0.10001
0.100007
0.100046
0.100018
0.100682
0.100173
0.108258
0.102565
0.110495
0.10426
0.137743
0.121764
0.12514
0.118419
0.129973
0.129413
0.132336
0.152049
0.148959
0.131631
0.133179
0.180387
0.171836
0.14191
0.139543
0.18461
0.173399
0.155759
0.163706
0.24528
0.227233
0.211548
0.19744
0.349224
0.30873
0.27389
0.245499
0.530133
0.485144
0.434958
0.383188
0.626623
0.604128
0.573626
0.678477
0.680914
0.650927
0.67075
0.67924
0.672257
0.640172
0.672322
0.687754
0.629009
0.471857
0.462748
0.534988
0.611049
0.587644
0.510292
0.494279
0.463607
0.47283
0.481628
0.488703
0.429265
0.26453
0.103045
0.139034
0.1
0.1
0.100001
0.100001
0.100001
0.100001
0.100001
0.100002
0.100002
0.100011
0.100129
0.100826
0.103684
0.115317
0.13632
0.144858
0.146995
0.15156
0.157358
0.161293
0.158954
0.149665
0.132854
0.112332
0.101223
0.100075
0.100006
0.100011
0.100006
0.100006
0.100007
0.100006
0.100007
0.100007
0.100015
0.100009
0.100127
0.100035
0.101467
0.100457
0.102511
0.101063
0.110923
0.105608
0.125881
0.120485
0.149548
0.146036
0.191676
0.184135
0.137238
0.135493
0.150893
0.1507
0.149675
0.145235
0.143776
0.145025
0.166397
0.158416
0.147627
0.152261
0.222713
0.204119
0.188867
0.176424
0.33469
0.291985
0.256464
0.228587
0.534021
0.485832
0.431481
0.375603
0.634061
0.610061
0.57837
0.692618
0.692694
0.657024
0.67738
0.687501
0.693482
0.66715
0.694053
0.702179
0.65533
0.489544
0.476537
0.559932
0.636623
0.611449
0.532059
0.497716
0.474142
0.481959
0.487217
0.492434
0.435628
0.297583
0.168119
0.248891
0.1
0.1
0.100001
0.100001
0.100001
0.100001
0.100001
0.100002
0.100005
0.100038
0.100439
0.101492
0.107073
0.122479
0.140935
0.146374
0.150321
0.156468
0.161743
0.163879
0.158905
0.145777
0.125743
0.105354
0.100381
0.100022
0.100006
0.100007
0.100006
0.100006
0.100007
0.100006
0.100007
0.100007
0.10001
0.100008
0.100055
0.100019
0.10045
0.100183
0.102893
0.101192
0.112477
0.106573
0.175404
0.169237
0.170171
0.197892
0.196641
0.260354
0.250914
0.146938
0.1496
0.197205
0.194627
0.144785
0.143617
0.166411
0.173688
0.163037
0.158107
0.155463
0.15542
0.207396
0.191443
0.179429
0.170068
0.323804
0.280325
0.245985
0.219593
0.538323
0.489461
0.433872
0.37582
0.638697
0.614385
0.5832
0.70424
0.703272
0.662706
0.68584
0.696983
0.709183
0.688609
0.711423
0.714709
0.676316
0.508071
0.49194
0.582911
0.656737
0.632398
0.553148
0.502504
0.486823
0.493459
0.495272
0.498968
0.453471
0.383023
0.138828
0.32361
0.1
0.1
0.100001
0.100001
0.100001
0.100001
0.100002
0.100002
0.100012
0.100138
0.100796
0.102959
0.111766
0.129137
0.143631
0.148843
0.154307
0.160943
0.165184
0.164782
0.156289
0.139166
0.116452
0.101733
0.100101
0.100008
0.100006
0.100006
0.100006
0.100006
0.100007
0.100006
0.100007
0.100007
0.10001
0.100008
0.100063
0.100019
0.100517
0.100236
0.111389
0.104156
0.147797
0.126058
0.236857
0.217838
0.249231
0.272978
0.26349
0.26412
0.336812
0.328461
0.181374
0.188531
0.260284
0.252286
0.156738
0.161141
0.204058
0.215911
0.169863
0.169775
0.17658
0.171254
0.200365
0.187093
0.178559
0.172772
0.321493
0.276907
0.241445
0.21556
0.544139
0.496398
0.441596
0.383137
0.643611
0.619792
0.590466
0.716159
0.715285
0.671237
0.699578
0.709388
0.723284
0.706861
0.727049
0.728127
0.694525
0.526985
0.50917
0.603247
0.677102
0.653455
0.57339
0.509206
0.503082
0.507412
0.506237
0.50759
0.481038
0.440561
0.110241
0.291525
0.1
0.1
0.100001
0.100001
0.100001
0.100001
0.100002
0.100005
0.100041
0.10042
0.101237
0.10534
0.116927
0.134614
0.145865
0.152032
0.158517
0.16468
0.167393
0.163722
0.150823
0.129747
0.10659
0.100457
0.100025
0.100006
0.100006
0.100007
0.100006
0.100006
0.100006
0.100007
0.100006
0.100007
0.100007
0.100011
0.100008
0.100148
0.100031
0.101308
0.100432
0.138503
0.114316
0.233991
0.180559
0.314531
0.295872
0.31509
0.346503
0.336328
0.338554
0.411156
0.404711
0.228726
0.24094
0.328736
0.315917
0.183237
0.19314
0.252465
0.268823
0.184937
0.190459
0.208942
0.197736
0.198474
0.188735
0.184424
0.18362
0.326584
0.278472
0.240539
0.215042
0.55443
0.510472
0.458863
0.401866
0.652746
0.630915
0.604484
0.730142
0.728774
0.685359
0.712011
0.721949
0.737147
0.724205
0.74069
0.73977
0.716445
0.547417
0.530032
0.626013
0.701777
0.682795
0.597314
0.518015
0.522322
0.52463
0.518546
0.519218
0.504879
0.46313
0.108153
0.291983
0.1
0.1
0.100001
0.100001
0.100001
0.100001
0.100002
0.100012
0.100132
0.100729
0.102232
0.108553
0.121946
0.138252
0.148585
0.15557
0.162562
0.167436
0.167893
0.159868
0.142266
0.117933
0.101885
0.100102
0.100008
0.100006
0.100006
0.100006
0.100006
0.100006
0.100006
0.100007
0.100006
0.100007
0.100007
0.100016
0.100008
0.100286
0.100059
0.104231
0.100986
0.197506
0.139731
0.355171
0.313296
0.278211
0.391021
0.371438
0.387468
0.41618
0.406271
0.410953
0.476206
0.471764
0.285333
0.301211
0.395582
0.382167
0.221818
0.2363
0.311625
0.330941
0.210738
0.22293
0.254075
0.237429
0.201081
0.197071
0.197695
0.201097
0.343764
0.290889
0.249096
0.222666
0.573846
0.537343
0.493519
0.443177
0.668796
0.65013
0.629112
0.739584
0.735536
0.700888
0.720615
0.729359
0.744471
0.740974
0.747833
0.747182
0.737655
0.572277
0.554582
0.656853
0.731021
0.720729
0.628435
0.529255
0.546402
0.546176
0.533927
0.531862
0.524209
0.48147
0.170183
0.383839
0.1
0.1
0.100001
0.100001
0.100001
0.100001
0.100005
0.10004
0.100364
0.101034
0.10381
0.112115
0.126219
0.14096
0.151238
0.158945
0.165988
0.169063
0.165923
0.152786
0.130575
0.106338
0.100424
0.100021
0.100006
0.100006
0.100006
0.100006
0.100006
0.100006
0.100006
0.100007
0.100006
0.100007
0.100007
0.100024
0.10001
0.100492
0.100125
0.111936
0.10267
0.278364
0.184261
0.409121
0.371305
0.328754
0.380553
0.459264
0.440396
0.442639
0.47155
0.469439
0.47484
0.52966
0.525655
0.34934
0.366487
0.460113
0.448297
0.272807
0.291881
0.380452
0.400067
0.252344
0.271949
0.315111
0.293067
0.215406
0.216046
0.220882
0.234938
0.389002
0.335764
0.290049
0.259813
0.605931
0.580654
0.551228
0.51593
0.687886
0.673397
0.658326
0.747643
0.74721
0.711719
0.742235
0.743613
0.75227
0.748416
0.754444
0.759944
0.745238
0.603173
0.58484
0.696569
0.741935
0.734395
0.663504
0.542533
0.574099
0.571368
0.552445
0.546801
0.541339
0.522348
0.431262
0.522875
0.1
0.1
0.100001
0.100001
0.100001
0.100002
0.100012
0.100115
0.100637
0.10163
0.10591
0.115621
0.129728
0.143317
0.15371
0.162175
0.168348
0.168952
0.160749
0.142199
0.116354
0.101592
0.100077
0.100007
0.100006
0.100006
0.100006
0.100006
0.100006
0.100006
0.100006
0.100007
0.100006
0.100008
0.100007
0.100041
0.100012
0.101104
0.100258
0.127541
0.106221
0.368214
0.351142
0.293425
0.23474
0.453016
0.417702
0.409572
0.513919
0.495547
0.484868
0.512811
0.526746
0.529697
0.573739
0.566583
0.418039
0.434213
0.520705
0.512184
0.337362
0.359153
0.45523
0.472974
0.315924
0.341081
0.390549
0.366221
0.254153
0.25652
0.27063
0.291515
0.476041
0.434503
0.394716
0.361165
0.642092
0.625242
0.608793
0.593798
0.702677
0.694586
0.69224
0.764743
0.76865
0.740253
0.761778
0.765293
0.76831
0.75518
0.772257
0.774306
0.75484
0.636024
0.617584
0.716804
0.750555
0.741557
0.698073
0.559386
0.607156
0.59518
0.572773
0.561779
0.561349
0.563621
0.3544
0.565402
0.1
0.1
0.100001
0.100001
0.100001