/*--------------------------------*- C++ -*----------------------------------*\
  =========                 |
  \\      /  F ield         | OpenFOAM: The Open Source CFD Toolbox
   \\    /   O peration     | Website:  https://openfoam.org
    \\  /    A nd           | Version:  dev
     \\/     M anipulation  |
\*---------------------------------------------------------------------------*/
FoamFile
{
    version     2.0;
    format      ascii;
    class       volScalarField;
    location    "2500";
    object      alphat;
}
// * * * * * * * * * * * * * * * * * * * * * * * * * * * * * * * * * * * * * //

dimensions      [1 -1 -1 0 0 0 0];

internalField   nonuniform List<scalar> 
9842
(
0.000145255
0.000150216
0.000140111
0.000141777
0.000172713
0.000126603
0.00013162
0.000185
0.000161958
0.000121915
0.000127434
0.000182925
0.00018547
0.000140148
0.000119745
0.000123822
0.000172077
0.000201636
0.00017074
0.000129027
0.000119266
0.000122179
0.000156327
0.00020503
0.000195228
0.000147123
0.000123786
0.000118921
0.000121321
0.000144919
0.000201513
0.000209982
0.000173773
0.000133009
0.000121801
0.000118385
0.000120477
0.00013566
0.00018921
0.000219843
0.000199253
0.000151
0.000126259
0.000120875
0.000117849
0.000119672
0.000129549
0.000169943
0.00022042
0.000215982
0.000173938
0.000136251
0.000123092
0.000119964
0.00011763
0.000119068
0.00012575
0.000155119
0.000215685
0.000226829
0.000198574
0.000152795
0.000128262
0.000121741
0.000118991
0.000117564
0.000118698
0.000123865
0.00014398
0.000201612
0.00023434
0.000218557
0.000172229
0.000139117
0.000124219
0.00012082
0.000118272
0.000117568
0.000118454
0.000122864
0.000136111
0.000181629
0.000233803
0.000231448
0.00019522
0.000152235
0.00013063
0.00012226
0.000119795
0.000117826
0.000117609
0.00011829
0.000122283
0.000131108
0.000164629
0.000227991
0.000240561
0.000216842
0.00016973
0.000140129
0.000125482
0.000121163
0.000118843
0.000117623
0.00011765
0.000118208
0.000121923
0.000128047
0.000152571
0.000213547
0.000246243
0.000233484
0.000189761
0.000151355
0.000132468
0.000122776
0.000120257
0.000118111
0.000117613
0.000117668
0.000118212
0.000121673
0.000126221
0.000143542
0.00019314
0.000245317
0.000243772
0.000211637
0.000166181
0.00014017
0.000127021
0.00012136
0.000119324
0.00011764
0.000117724
0.000117684
0.000118262
0.000121478
0.000125146
0.000137541
0.000174992
0.000239122
0.000252059
0.000230728
0.000184435
0.000150142
0.000133188
0.000123495
0.000120448
0.000118475
0.000117446
0.000117892
0.000117707
0.00011834
0.000121265
0.000124605
0.00013374
0.000161522
0.000224153
0.000257202
0.000245518
0.000204232
0.000162575
0.000140341
0.000128196
0.000121601
0.00011963
0.000117832
0.00011748
0.000118098
0.000117727
0.000118441
0.000121134
0.000124282
0.000131394
0.000151842
0.000203766
0.000256114
0.000255038
0.000224803
0.000178832
0.000148521
0.000133963
0.000124415
0.000120533
0.000118845
0.000117452
0.000117669
0.000118358
0.000117752
0.000118558
0.000121092
0.000124086
0.000129892
0.000145096
0.00018501
0.000250128
0.000262842
0.000242507
0.000197261
0.000159851
0.000139986
0.000129211
0.000121997
0.000119805
0.000118191
0.000117346
0.000117977
0.000118668
0.000117837
0.000118694
0.00012114
0.000123994
0.000128898
0.000140679
0.000170778
0.000235323
0.000267875
0.000256868
0.000216739
0.000173413
0.000147704
0.000134227
0.000125488
0.00012069
0.00011917
0.000117746
0.00011749
0.000118381
0.000118935
0.000117993
0.000118844
0.000121244
0.000123938
0.00012818
0.000137895
0.000160621
0.000215155
0.000266521
0.000265631
0.000236376
0.000190552
0.000157048
0.000139971
0.000129988
0.00012273
0.00011994
0.000118659
0.00011759
0.000117871
0.000118866
0.000119143
0.000118193
0.000118991
0.000121363
0.000123911
0.000127675
0.00013591
0.000153347
0.000196182
0.000261077
0.000272921
0.000253476
0.000209068
0.00016943
0.000146945
0.000134681
0.000126636
0.000121088
0.000119491
0.000118365
0.000117708
0.000118428
0.000119414
0.000119309
0.000118406
0.000119123
0.000121498
0.000123906
0.000127429
0.000134316
0.00014852
0.00018137
0.000247205
0.00027815
0.000267433
0.000228333
0.000184154
0.000155322
0.000140242
0.000130843
0.000123956
0.000120259
0.000119265
0.000118369
0.000118128
0.000119089
0.000119994
0.000119448
0.000118574
0.000119234
0.000121637
0.000123935
0.000127324
0.000133165
0.000145437
0.000170699
0.000227575
0.000276692
0.000275742
0.000247035
0.000201928
0.000165994
0.000146581
0.000135393
0.000127944
0.000122122
0.000119951
0.000119339
0.00011867
0.000118806
0.000119819
0.00012057
0.00011962
0.000118644
0.000119312
0.000121763
0.000124
0.000127258
0.00013233
0.000143018
0.000163153
0.000208987
0.000272378
0.000282846
0.000263535
0.00022042
0.000179495
0.000154619
0.000140876
0.000131977
0.000125807
0.000121231
0.00012006
0.000119753
0.000119339
0.000119657
0.000120556
0.000121033
0.000119789
0.000118598
0.000119358
0.000121853
0.000124079
0.000127204
0.000131725
0.000140961
0.000158072
0.000193846
0.000260698
0.000289114
0.000277597
0.000239537
0.00019534
0.000164158
0.000147482
0.000137
0.000129743
0.000124406
0.000121097
0.000120535
0.000120602
0.000120434
0.000120608
0.000121174
0.000121244
0.00011984
0.000118409
0.000119352
0.000121896
0.000124122
0.000127124
0.000131231
0.000139284
0.000154469
0.000182573
0.000241562
0.000288581
0.000286525
0.000257637
0.000213809
0.000176467
0.000155173
0.000142844
0.000134467
0.000128485
0.000123837
0.000121583
0.000121446
0.000121828
0.000121969
0.000121878
0.000121694
0.000121118
0.000119675
0.000118078
0.000119311
0.000121894
0.000124098
0.00012696
0.000130779
0.00013791
0.000151597
0.000174581
0.000223613
0.000285221
0.00029425
0.000274238
0.000232438
0.000191426
0.00016496
0.00015009
0.000140094
0.000133151
0.000128276
0.000124296
0.000122682
0.000122813
0.00012337
0.000123639
0.000123429
0.000122543
0.000120908
0.000119258
0.000117697
0.000119256
0.000121843
0.000124008
0.000126719
0.000130363
0.000136765
0.00014909
0.000169079
0.000208168
0.000277665
0.000302361
0.000289077
0.000251776
0.000208509
0.000176499
0.000158728
0.000147358
0.000139128
0.000133439
0.000129137
0.000125576
0.000124543
0.000124722
0.000125098
0.00012519
0.000124626
0.000123264
0.000120822
0.000118497
0.000117431
0.000119174
0.000121715
0.000123872
0.000126422
0.000129975
0.0001358
0.000146854
0.000165055
0.000196319
0.00026034
0.000304964
0.000299831
0.000270105
0.00022797
0.000191002
0.000169135
0.000156062
0.000147167
0.000140166
0.000134967
0.000131159
0.000128039
0.000127171
0.000127226
0.000127144
0.0001264
0.000125162
0.000123261
0.000120592
0.000117607
0.000117282
0.000119046
0.000121487
0.000123669
0.000126083
0.000129564
0.000134912
0.000144979
0.000161754
0.000187589
0.000241537
0.000302279
0.000309574
0.000287532
0.000247302
0.000208079
0.000182015
0.000167354
0.00015701
0.000149255
0.000143099
0.000138298
0.00013471
0.000131698
0.000130657
0.000128961
0.000124982
0.000123088
0.000125468
0.000122741
0.000120059
0.000116956
0.000117196
0.000118884
0.000121187
0.000123354
0.000125692
0.000129099
0.000134014
0.000143381
0.000158707
0.000181309
0.000225868
0.000297906
0.000320116
0.000304107
0.000267459
0.000226772
0.000197161
0.000180834
0.000170156
0.000161649
0.000154787
0.000149021
0.000144089
0.000140124
0.000126625
0.000117176
0.000111949
0.000109121
0.000108294
0.000111652
0.000121998
0.000119305
0.000116914
0.000117377
0.000118707
0.00012084
0.000122957
0.00012519
0.000128575
0.000133069
0.00014186
0.000155841
0.000176812
0.000212747
0.000286249
0.000326741
0.000317789
0.00028686
0.000247434
0.000214742
0.000197025
0.000186544
0.000179034
0.000171964
0.000165269
0.000158279
0.000136358
0.000120495
0.000109996
0.000102209
9.7595e-05
9.45727e-05
9.32834e-05
9.62372e-05
0.000106727
0.000119015
0.0001182
0.000113736
0.000108728
0.000118525
0.000120452
0.000122442
0.000124572
0.000127918
0.000132064
0.000140237
0.000153193
0.000173068
0.000202657
0.000264877
0.000326982
0.000330849
0.000305903
0.000267514
0.000234447
0.00021567
0.000207416
0.000201938
0.000196183
0.000187449
0.000176689
0.000142606
0.000117745
0.000103298
9.46485e-05
8.82895e-05
8.41164e-05
8.08938e-05
7.79318e-05
7.97065e-05
8.46215e-05
9.2887e-05
9.38426e-05
8.17736e-05
8.69347e-05
8.18064e-05
0.000118296
0.000119997
0.000121807
0.00012389
0.000127101
0.000131048
0.000138283
0.000150843
0.000169409
0.000195149
0.000247102
0.000323294
0.000344432
0.000324952
0.000288716
0.000254859
0.000236557
0.00023163
0.0002307
0.000224152
0.000212226
0.000197613
0.000184365
0.000157137
0.00011508
9.45487e-05
8.41396e-05
7.74102e-05
7.31743e-05
6.89424e-05
6.5499e-05
6.51939e-05
8.35822e-05
6.8932e-05
7.24029e-05
6.69725e-05
6.34601e-05
7.57674e-05
6.73196e-05
6.76902e-05
6.39757e-05
0.000118051
0.000119504
0.000121142
0.000123173
0.000126213
0.000130018
0.000136564
0.000148855
0.000165637
0.000189499
0.000232226
0.000316073
0.000354982
0.000342136
0.000309716
0.000277053
0.000258544
0.000259187
0.000265121
0.000261748
0.00024463
0.000227497
0.000203398
0.000182167
0.000170344
0.000139535
9.55528e-05
7.77819e-05
6.88585e-05
6.34522e-05
5.83032e-05
5.61831e-05
5.90767e-05
5.19358e-05
6.00286e-05
6.06205e-05
5.32828e-05
5.36553e-05
6.13054e-05
5.66665e-05
5.40036e-05
5.19378e-05
0.000117812
0.00011899
0.000120463
0.000122389
0.000125286
0.00012896
0.000135031
0.000146814
0.000162083
0.000184687
0.000219889
0.000296197
0.000358795
0.000358854
0.000330738
0.000297884
0.000280918
0.000287296
0.000305556
0.000322816
0.000334621
0.000333494
0.000292115
0.000232037
0.000187236
0.000168838
0.000159386
0.000106153
7.56217e-05
6.18993e-05
5.41449e-05
4.97906e-05
4.87792e-05
4.57198e-05
5.05437e-05
4.76539e-05
4.96484e-05
5.15486e-05
4.88396e-05
4.67283e-05
5.06756e-05
4.80457e-05
4.4423e-05
4.33758e-05
0.000117585
0.000118469
0.000119782
0.000121549
0.000124349
0.000127886
0.000133485
0.000144553
0.000158856
0.000180093
0.000209998
0.000271904
0.000355755
0.000375938
0.000352592
0.000319201
0.000300732
0.00031283
0.000347112
0.000394407
0.000456555
0.000516711
0.000536743
0.000479957
0.000354718
0.000234649
0.00018074
0.000164189
0.000124661
7.59664e-05
5.65374e-05
4.61122e-05
4.48344e-05
4.3677e-05
4.23875e-05
4.21162e-05
4.50346e-05
4.20715e-05
4.48e-05
4.44717e-05
4.29212e-05
4.11675e-05
4.29379e-05
4.1516e-05
3.74043e-05
3.71369e-05
0.000117373
0.000117962
0.000119131
0.000120695
0.000123429
0.000126803
0.000131941
0.000141931
0.000155967
0.000175427
0.000202308
0.000253557
0.00034932
0.000390028
0.000373314
0.000340604
0.00032002
0.000332927
0.000381612
0.000462408
0.000573151
0.000690931
0.000746446
0.000729646
0.000656979
0.000515136
0.000328839
0.000207686
0.000172176
0.000148465
7.90514e-05
5.21953e-05
4.23784e-05
4.18779e-05
3.93032e-05
4.05434e-05
3.92054e-05
3.82242e-05
4.10986e-05
3.82732e-05
3.97763e-05
3.91138e-05
3.82519e-05
3.68022e-05
3.72826e-05
3.66186e-05
3.22183e-05
3.2561e-05
0.00011718
0.000117513
0.000118527
0.000119886
0.000122531
0.000125752
0.000130481
0.000139255
0.000153282
0.000170776
0.000196106
0.000237818
0.000331757
0.000396102
0.000393236
0.000362108
0.000337282
0.00034694
0.000405794
0.000508269
0.000670073
0.00079235
0.000825315
0.000827144
0.000794831
0.00073227
0.000622291
0.000437994
0.000254214
0.000181597
0.000165013
8.49975e-05
4.24793e-05
4.88631e-05
3.81492e-05
3.89483e-05
3.70149e-05
3.6301e-05
3.63143e-05
3.53287e-05
3.70642e-05
3.52411e-05
3.58291e-05
3.5114e-05
3.44338e-05
3.31593e-05
3.31294e-05
3.30325e-05
2.84402e-05
2.92244e-05
0.000117028
0.000117178
0.000118026
0.000119257
0.000121752
0.000124767
0.000129161
0.000136795
0.000150453
0.000166536
0.000190476
0.000225044
0.000299241
0.000392517
0.000413074
0.000385774
0.000354296
0.000357262
0.000417142
0.000538882
0.000728365
0.000823296
0.000845699
0.00082819
0.000796808
0.000758
0.000715268
0.000644163
0.000509698
0.00031875
0.000195617
0.000165664
6.45214e-05
0.000101542
4.08858e-05
5.32138e-05
3.56209e-05
4.1712e-05
3.39137e-05
3.66217e-05
3.38822e-05
3.40142e-05
3.40705e-05
3.35037e-05
3.30624e-05
3.17171e-05
3.19444e-05
3.07779e-05
3.02247e-05
3.00013e-05
2.5698e-05
2.69865e-05
0.000116956
0.000117033
0.000117729
0.000118959
0.000121201
0.000123811
0.000127898
0.00013466
0.000147359
0.000162907
0.0001849
0.000214831
0.000273857
0.000385016
0.000429088
0.000409229
0.000373822
0.000363841
0.000419155
0.00054949
0.000751601
0.000820362
0.00082389
0.000783447
0.000742878
0.000715221
0.000690547
0.000660738
0.000615829
0.000527187
0.000369257
0.000220183
0.000136118
0.000156141
7.65359e-05
0.000119633
5.54991e-05
8.95806e-05
4.85077e-05
8.07448e-05
4.17295e-05
7.02026e-05
3.63787e-05
5.40791e-05
3.31463e-05
4.12326e-05
3.28867e-05
2.93373e-05
3.23748e-05
3.12198e-05
2.79492e-05
2.75166e-05
2.4023e-05
2.55374e-05
0.00011711
0.00011735
0.000117909
0.000119036
0.000120918
0.00012309
0.000126733
0.000132644
0.000144069
0.000159757
0.000179438
0.000206704
0.000254271
0.000365583
0.000434506
0.000430693
0.000394724
0.000373548
0.000418183
0.000547406
0.000752861
0.000812193
0.000774196
0.000666598
0.000586895
0.000595001
0.000610733
0.000613446
0.000606858
0.000588308
0.000528363
0.000408331
0.00021476
0.000307336
0.00013093
0.000184257
0.000110311
0.000132074
0.000110095
0.000127591
0.00011523
0.000132489
0.000108927
0.000134389
7.51521e-05
0.000129556
4.70739e-05
0.000101753
5.2041e-05
2.92471e-05
5.46706e-05
5.22646e-05
2.56511e-05
2.69684e-05
2.35065e-05
2.40605e-05
0.000118157
0.00011884
0.000118826
0.000119393
0.000120955
0.00012285
0.000125881
0.00013087
0.00014086
0.000156508
0.000174589
0.000199702
0.000238231
0.000324749
0.000428855
0.000451288
0.000419307
0.000384867
0.000408754
0.000531819
0.000748681
0.000802736
0.00072364
0.000547557
0.000455248
0.000479104
0.00053421
0.000562346
0.000572207
0.000577782
0.000566242
0.000534488
0.000385609
0.000467587
0.000267268
0.000360367
0.000200387
0.000286137
0.000185036
0.000266433
0.000182867
0.000266436
0.000178107
0.000261451
0.000161541
0.000241379
0.000144781
0.000197373
0.000122148
0.000157635
0.000125256
4.59235e-05
0.000124985
0.000120349
2.46229e-05
3.71086e-05
2.51137e-05
2.27982e-05
0.000118911
0.000121007
0.000120714
0.000120323
0.000121456
0.000122863
0.000125252
0.000129512
0.000138147
0.000152952
0.000170473
0.000193167
0.000225323
0.000290629
0.000419193
0.000466892
0.000445048
0.000401062
0.000400269
0.000500478
0.000731448
0.000799039
0.000696053
0.000465906
0.000365068
0.000376985
0.000447687
0.000513913
0.000533686
0.000541648
0.000549938
0.000564855
0.000570521
0.000438523
0.000516495
0.000372773
0.000451739
0.000350173
0.00042736
0.000353348
0.000433588
0.000354357
0.000440676
0.000341919
0.000434955
0.000308081
0.000413898
0.000240138
0.00036592
0.000168351
0.000278475
0.000174468
0.000111309
0.000175348
0.000169573
2.90433e-05
0.000100331
2.98396e-05
2.38582e-05
0.000121404
0.000127419
0.0001266
0.000122798
0.000122439
0.000123093
0.000124727
0.000128585
0.000135834
0.000149563
0.000166677
0.000186947
0.000215369
0.000266697
0.000392922
0.000468424
0.000465958
0.000422244
0.0003979
0.000468017
0.000684481
0.000794173
0.000696244
0.000439512
0.000323738
0.000310132
0.000359585
0.000435594
0.000500684
0.000514574
0.000524568
0.000550668
0.00058595
0.000601034
0.000614094
0.000519662
0.000569829
0.000497445
0.000554405
0.000506035
0.000560947
0.000518499
0.000574329
0.000513467
0.000569236
0.000496708
0.00055444
0.000463212
0.000528856
0.00040418
0.000489376
0.000303363
0.00042431
0.00031212
0.00015783
0.000307244
0.000291544
7.2981e-05
0.000142773
2.76311e-05
4.85744e-05
0.000127585
0.000141541
0.000139221
0.000129596
0.000124758
0.000124029
0.000124643
0.000127971
0.00013406
0.000146775
0.000162955
0.000181301
0.000206985
0.000248209
0.000344833
0.000461042
0.000484835
0.000449489
0.000405161
0.000437356
0.000616117
0.00078446
0.000704247
0.000442604
0.000318559
0.000287215
0.000297826
0.000352462
0.000434841
0.000496805
0.000513432
0.000532696
0.000565656
0.000607942
0.000587888
0.000621242
0.000612875
0.000600181
0.000621854
0.000605633
0.000627118
0.000611702
0.000628789
0.00060453
0.00062187
0.000588858
0.000610546
0.000567709
0.00058974
0.000539889
0.000567549
0.000500028
0.000541048
0.000430307
0.000498828
0.00042629
0.000267039
0.000417085
0.000403258
0.000126202
0.000242782
1.74828e-05
0.000105701
0.000141286
0.000167879
0.000164082
0.000146286
0.000130961
0.00012654
0.000125155
0.000127737
0.000132565
0.000144105
0.000159421
0.000176221
0.000198966
0.000233224
0.000303567
0.000447074
0.000497518
0.000475949
0.000419162
0.000417714
0.000541116
0.000764642
0.000725108
0.000459114
0.000327229
0.000288904
0.000276328
0.000292694
0.000358369
0.000452999
0.000506385
0.000524205
0.000542194
0.000565657
0.000548832
0.000593817
0.000570683
0.00060979
0.000589985
0.000629727
0.000626357
0.000632114
0.000631231
0.000624821
0.000625468
0.000614074
0.000612553
0.000600321
0.000604608
0.000586129
0.000603592
0.000571718
0.000592604
0.000543626
0.00057722
0.000494248
0.000544481
0.000485285
0.000385291
0.000475674
0.000461729
0.000231984
0.000366271
7.51851e-05
0.000247908
0.000141135
0.000184142
0.000195036
0.000178369
0.0001481
0.000132388
0.000127125
0.000128402
0.00013158
0.0001416
0.00015605
0.000171566
0.000191357
0.000221851
0.000274505
0.000410812
0.000494387
0.000494427
0.000439933
0.000410607
0.000483957
0.000717763
0.000756376
0.000498997
0.000353154
0.000301125
0.00027845
0.000277052
0.000313348
0.00038324
0.000470709
0.000514683
0.000529808
0.000525452
0.000546268
0.000534302
0.000567665
0.000546223
0.000581837
0.000559985
0.000618159
0.000601187
0.000617448
0.000602462
0.000608805
0.000600026
0.000606078
0.000606185
0.000613378
0.000629049
0.000628124
0.000664485
0.000623863
0.000675515
0.000596359
0.0006529
0.000542956
0.000608291
0.000536835
0.000444168
0.000524132
0.000505833
0.000353733
0.000423576
0.000148935
0.000220102
0.00015186
0.000201867
0.000206471
0.000181222
0.000147953
0.000132464
0.000129514
0.000131367
0.000139399
0.000152809
0.000167186
0.000184476
0.000211952
0.000254556
0.000359534
0.000485907
0.000509489
0.000472438
0.00041675
0.000442659
0.000627351
0.000766905
0.000578746
0.000414653
0.000333461
0.000294513
0.000277796
0.000295766
0.000346448
0.00040624
0.000474001
0.000515907
0.00052333
0.000535097
0.000542317
0.000538768
0.000531147
0.000546143
0.000541214
0.000552153
0.000547581
0.000586247
0.000569843
0.00058863
0.000578582
0.000605157
0.00060289
0.000647494
0.000666435
0.000704536
0.000740674
0.000713608
0.000744625
0.000689127
0.0007168
0.000657695
0.000682811
0.000608515
0.000648554
0.000597672
0.000479376
0.00057721
0.000547674
0.000383485
0.000440841
9.6962e-05
0.000275748
0.000147583
0.000204279
0.000208063
0.000179283
0.000144768
0.0001312
0.000131818
0.000137128
0.000149698
0.000163106
0.000178406
0.000202845
0.000238669
0.000313683
0.000465391
0.000516658
0.000498515
0.000430229
0.000420475
0.00053702
0.000755921
0.000667727
0.000504973
0.00041172
0.00033353
0.000295063
0.000282357
0.00032693
0.000375294
0.00042496
0.000476855
0.00051728
0.000545215
0.000551102
0.000563974
0.000570911
0.000538621
0.000549983
0.000546022
0.00055395
0.000560181
0.000565356
0.000564661
0.000560259
0.000603054
0.000603233
0.000682225
0.000696032
0.000768969
0.000791843
0.000770764
0.000796455
0.000738793
0.000761605
0.000697901
0.000703657
0.000669372
0.000657804
0.000632706
0.000643869
0.000616262
0.000510818
0.000593284
0.000577264
0.000551251
0.000385473
0.000470708
7.18395e-05
0.000300929
0.000139991
0.000203514
0.000206845
0.000170391
0.000137101
0.000132968
0.000135563
0.000146889
0.000159391
0.000173005
0.000194784
0.00022673
0.000279568
0.000419691
0.000511702
0.000513133
0.000449807
0.00041444
0.000471349
0.000689506
0.000732108
0.000589219
0.000520531
0.00042174
0.000337846
0.00030357
0.000312368
0.000366798
0.000409784
0.000461864
0.000510199
0.000568061
0.000580861
0.000589484
0.000606027
0.000620253
0.00057295
0.000593899
0.000582531
0.000606892
0.000620414
0.000639343
0.000605432
0.000610884
0.000708244
0.000714569
0.000807415
0.000815283
0.000820295
0.000839424
0.000786514
0.000813416
0.000708072
0.0007188
0.000630525
0.000602847
0.000607964
0.000554774
0.000616581
0.000572897
0.000597823
0.000604165
0.000598303
0.000561565
0.00051411
0.000544655
0.000585262
0.000582762
0.000588794
0.000574666
0.000405195
0.000444943
0.000525687
0.000506358
0.000476733
0.000154184
0.00043044
0.00020862
0.000319301
0.000136747
0.000203295
0.000200664
0.000153476
0.000134646
0.000134791
0.000143513
0.000155809
0.00016794
0.000187699
0.000217815
0.000257936
0.000369081
0.000500802
0.000522365
0.000487838
0.000419377
0.000431766
0.000579153
0.000744621
0.00065949
0.000612332
0.000590888
0.000425135
0.000352439
0.000340359
0.000361353
0.000409309
0.000460843
0.000515889
0.000580049
0.000640145
0.000650012
0.000629912
0.000633347
0.000675774
0.000682806
0.000636173
0.000654744
0.000664533
0.000685636
0.000719284
0.000723955
0.000717308
0.000718588
0.000816508
0.000806997
0.000851216
0.0008549
0.000826698
0.000794
0.000738654
0.000733687
0.000593574
0.000606652
0.000554429
0.000539933
0.000535396
0.000530093
0.000547709
0.000522837
0.000511796
0.000490517
0.000506213
0.000557648
0.000576369
0.000547013
0.000529604
0.000569083
0.000561833
0.000547585
0.000575447
0.000559471
0.000563776
0.000566067
0.000461068
0.000530622
0.000511095
0.000486764
0.000245686
0.000205626
0.000449499
0.000294631
0.000140486
0.00020816
0.000182761
0.000141451
0.000135641
0.000140075
0.000151914
0.000163398
0.000181746
0.000210767
0.000243636
0.000324266
0.000472139
0.000523719
0.00050983
0.000432369
0.000413038
0.000496992
0.000718653
0.000713483
0.000671697
0.000718303
0.000643517
0.000442735
0.000403644
0.000389255
0.000388594
0.000446478
0.000501878
0.000566484
0.00064054
0.000685018
0.000677926
0.000685785
0.000687758
0.000721761
0.000722053
0.000705159
0.000718017
0.000731127
0.0007378
0.000766241
0.000762269
0.000791991
0.000776843
0.000843216
0.000830315
0.000768269
0.000752679
0.000692719
0.000663041
0.000642399
0.000604621
0.000532354
0.00053569
0.000546628
0.000560341
0.000504105
0.000499489
0.000497933
0.000506239
0.000487606
0.000479302
0.000460505
0.00047189
0.000517235
0.000540274
0.000508428
0.000493216
0.000535607
0.000555422
0.000543499
0.000556514
0.000532803
0.000531948
0.000551995
0.000468475
0.000529122
0.000510403
0.000489514
0.000189204
0.000201715
1.81775e-05
0.000215638
0.000454698
0.000290944
0.000155544
0.000210986
0.000161011
0.000138019
0.000138358
0.000148032
0.000159226
0.000176683
0.000204766
0.000234349
0.000287471
0.00042428
0.000519333
0.00052079
0.000452513
0.00040501
0.000441287
0.000606131
0.000727812
0.000702809
0.000777891
0.000831126
0.000681818
0.000505768
0.000463125
0.000420731
0.000408909
0.000448428
0.000503738
0.000525371
0.000598606
0.00047062
0.000696992
0.000660891
0.000718876
0.000711486
0.000746439
0.000738871
0.000743877
0.000747852
0.00076373
0.000765914
0.000782605
0.000776027
0.000811009
0.000793787
0.00074092
0.000732419
0.0006495
0.00063717
0.000564598
0.000535322
0.000578059
0.000535497
0.000563402
0.000490618
0.000500957
0.000507606
0.000518803
0.00053318
0.000473169
0.000469879
0.000470621
0.000473167
0.000456664
0.000455032
0.000442753
0.000447456
0.00048338
0.000503458
0.00047674
0.000461378
0.000500939
0.000544534
0.000534239
0.000532084
0.000500544
0.00050212
0.000531798
0.000468034
0.000521688
0.00050512
0.000487056
0.000284832
0.000198802
7.39408e-05
0.000195358
0.000455966
0.000183503
0.000200803
0.000148284
0.000139602
0.000145171
0.000155748
0.00017261
0.000199231
0.000228011
0.000262973
0.000378782
0.000504595
0.000522671
0.000493166
0.000412245
0.000409149
0.000509252
0.000711939
0.00071863
0.000778624
0.000910754
0.000905567
0.000764971
0.000581551
0.000504154
0.000455672
0.000423302
0.000386983
0.000337351
0.0002841
0.0004305
0.000304734
0.000642833
0.000556046
0.00072346
0.000694335
0.000736321
0.000706856
0.000763782
0.000754467
0.000769122
0.000756728
0.000747979
0.000739645
0.000731513
0.000725328
0.000629706
0.000622076
0.000537457
0.000526662
0.000526816
0.000480089
0.000511503
0.000469913
0.000535459
0.000502384
0.000469258
0.000460947
0.000475643
0.00048474
0.000497625
0.000512909
0.000453247
0.000453194
0.00045591
0.000445661
0.000436828
0.00044184
0.000432407
0.000432975
0.000452631
0.000472865
0.0004469
0.000436574
0.000471362
0.000529133
0.000521691
0.000505386
0.000472255
0.000475124
0.000508819
0.000466228
0.000510685
0.000496817
0.00048402
0.000463665
0.000274667
0.000241763
8.21911e-05
0.000252747
0.000212152
0.000180246
0.000145835
0.00014511
0.000154737
0.000170287
0.000195305
0.000223162
0.000248736
0.000336577
0.000470822
0.000521156
0.00050998
0.000424311
0.000390205
0.000442033
0.000618314
0.000720187
0.000766037
0.000906678
0.00102144
0.00100084
0.000868734
0.000664562
0.000542156
0.000466116
0.000360079
0.000290046
0.00023711
0.000210774
0.000202742
0.000269481
0.000223305
0.000492085
0.00036517
0.000661509
0.000592611
0.000658203
0.000598303
0.000735332
0.000702958
0.000724631
0.00068956
0.000619264
0.00061913
0.000618858
0.00062037
0.000513698
0.000507319
0.000438336
0.00042277
0.0004485
0.000454118
0.000448564
0.000457433
0.000477553
0.000435545
0.000408434
0.000393252
0.000461767
0.000470878
0.000482922
0.000476954
0.000442252
0.000444555
0.000448303
0.000427713
0.000423914
0.000434082
0.000425208
0.000423292
0.0004292
0.000443761
0.000423709
0.00041947
0.00044344
0.000509774
0.000506311
0.000479491
0.000445831
0.000450556
0.000484814
0.000470132
0.000497685
0.000488681
0.000482904
0.000476635
0.000326524
0.000318751
6.6779e-05
0.000222933
0.000213459
0.000168909
0.00014927
0.000156206
0.000170726
0.000193501
0.000219659
0.000239633
0.000302288
0.000430331
0.000514761
0.000517216
0.00045417
0.000384231
0.000398471
0.000507849
0.000699927
0.00074698
0.000878875
0.00103337
0.00112602
0.00110726
0.000986187
0.000774404
0.000561167
0.000397847
0.000286982
0.000228802
0.000189804
0.000188755
0.000185408
0.000205498
0.000192188
0.000314897
0.000241222
0.000519038
0.000418056
0.00051738
0.000441363
0.000642705
0.000585042
0.000628233
0.000573759
0.000484256
0.000491273
0.00049603
0.000492374
0.000395272
0.000387812
0.00038575
0.000370674
0.000365103
0.000369312
0.000381631
0.000373612
0.000364493
0.000352275
0.000419939
0.000378803
0.000353372
0.000338735
0.000454478
0.000463291
0.000473931
0.000430196
0.000435649
0.000438744
0.000443213
0.000415198
0.000414116
0.000427049
0.000417598
0.000414921
0.000412155
0.000420133
0.000406036
0.000406609
0.000419315
0.000489001
0.000489573
0.000456797
0.000421052
0.000425874
0.000462705
0.000478643
0.000485353
0.000481637
0.00048297
0.000417264
0.000367986
0.000375285
5.27953e-05
0.000183503
0.000209178
0.000168206
0.00016069
0.00017309
0.00019424
0.000217296
0.000235008
0.000278265
0.000391294
0.000498054
0.000515297
0.000488016
0.00039514
0.000370874
0.000433323
0.000602047
0.000726435
0.000812045
0.00100962
0.00114993
0.00123432
0.00121349
0.00109332
0.00085429
0.000552701
0.000336966
0.000243751
0.000176331
0.000173846
0.000160729
0.00017864
0.000174905
0.000181903
0.00017907
0.000224094
0.000193185
0.000360463
0.000283077
0.000386749
0.000325819
0.000512445
0.000449118
0.00051618
0.000460522
0.000361976
0.000369972
0.00037193
0.000367657
0.000361299
0.000369958
0.000286675
0.000329423
0.000324557
0.000308481
0.000312993
0.000330691
0.000325609
0.00032218
0.000324886
0.000373217
0.000333189
0.000308266
0.000294161
0.000449206
0.000457456
0.000465446
0.000394241
0.000430146
0.000432935
0.000437384
0.000404508
0.000404226
0.000419293
0.000406854
0.000405163
0.000398512
0.000401423
0.000391274
0.000394715
0.00039894
0.000468139
0.000472202
0.000433186
0.000399275
0.000403181
0.000441259
0.000439701
0.000473896
0.00046948
0.000451091
0.000395173
0.000390287
0.000352217
4.08564e-05
0.000142173
0.000208598
0.000175452
0.00018078
0.000196487
0.000217522
0.000234182
0.000264334
0.000357146
0.00046999
0.000512002
0.000501218
0.00041031
0.000354814
0.000381569
0.000493592
0.00068232
0.000770759
0.000928646
0.00113053
0.00126146
0.001338
0.0013147
0.00116492
0.000881087
0.000528861
0.000296269
0.000180536
0.000157838
0.000160632
0.000161062
0.000165799
0.000163011
0.000174974
0.000171021
0.000187046
0.000178138
0.00026627
0.000215592
0.000307501
0.000260173
0.000406578
0.000356151
0.000392005
0.000379927
0.000261739
0.000271074
0.000258719
0.000257932
0.000305578
0.000299898
0.000222631
0.000226473
0.000272498
0.000262665
0.000241684
0.000250964
0.000286529
0.000281047
0.000275737
0.000275812
0.000337798
0.000298093
0.00027201
0.000256026
0.000443053
0.000450312
0.000436922
0.000367085
0.000421964
0.000425036
0.000428908
0.000392803
0.000392055
0.000408439
0.000392512
0.00039189
0.000385292
0.00038538
0.000376751
0.000381197
0.000381633
0.000448953
0.000455402
0.000410164
0.000380718
0.000382861
0.000419597
0.00039704
0.000462837
0.000431903
0.000406874
0.000382538
0.000376823
0.000315495
9.18515e-06
0.000107394
0.000212547
0.000193746
0.000203218
0.000219367
0.000235463
0.00025766
0.000331093
0.000439759
0.000504103
0.000505627
0.000448339
0.000361317
0.000347417
0.000416143
0.000560948
0.000726894
0.000838373
0.00105685
0.00124457
0.00136629
0.00143727
0.00139538
0.00118668
0.000866092
0.00043345
0.000238992
0.000159307
0.000154884
0.000150001
0.000151698
0.000153354
0.000152365
0.000150861
0.000160976
0.000155072
0.000178102
0.000169218
0.000217692
0.000189519
0.00024847
0.000209576
0.000334905
0.000291726
0.000282491
0.000281948
0.000197561
0.000212182
0.000208342
0.000223012
0.000209315
0.000230785
0.000213923
0.000204473
0.000199569
0.000232938
0.00022562
0.000210388
0.000215867
0.000247232
0.000241984
0.0002377
0.00023676
0.000311996
0.000272772
0.000246418
0.0002301
0.000434273
0.000440503
0.000421997
0.000354062
0.000410768
0.000413747
0.000417013
0.000378235
0.000375885
0.000393694
0.000372874
0.000373626
0.000370059
0.000369754
0.00036028
0.000364171
0.000365014
0.000430118
0.000442152
0.000389199
0.00036272
0.00036499
0.000398789
0.000376293
0.0004503
0.000410787
0.000385747