/*--------------------------------*- C++ -*----------------------------------*\
  =========                 |
  \\      /  F ield         | OpenFOAM: The Open Source CFD Toolbox
   \\    /   O peration     | Website:  https://openfoam.org
    \\  /    A nd           | Version:  dev
     \\/     M anipulation  |
\*---------------------------------------------------------------------------*/
FoamFile
{
    version     2.0;
    format      ascii;
    class       volScalarField;
    location    "2500";
    object      CO2;
}
// * * * * * * * * * * * * * * * * * * * * * * * * * * * * * * * * * * * * * //

dimensions      [0 0 0 0 0 0 0];

internalField   nonuniform List<scalar> 
9842
(
2.45709e-32
7.60344e-32
4.20223e-32
1.30102e-31
1.78973e-31
4.80358e-32
2.19064e-31
3.28709e-31
1.96449e-31
1.65506e-32
2.02141e-31
6.47003e-31
4.48473e-31
1.66418e-31
6.59732e-33
2.69476e-31
1.08227e-30
7.59909e-31
3.30085e-31
9.20478e-32
4.20372e-33
4.7066e-31
1.54928e-30
1.57024e-30
7.60421e-31
1.98863e-31
2.58815e-32
9.24439e-34
6.92777e-31
1.97579e-30
2.334e-30
1.49961e-30
5.5161e-31
1.02716e-31
1.51395e-32
8.78069e-34
5.13952e-31
2.87511e-30
3.77585e-30
3.22741e-30
1.55914e-30
4.62279e-31
5.65537e-32
7.60061e-33
1.85213e-34
4.69549e-31
3.64771e-30
5.65079e-30
4.85887e-30
2.77133e-30
1.02763e-30
2.42951e-31
3.67586e-32
2.75034e-33
1.84651e-34
5.10668e-31
3.97213e-30
7.65232e-30
8.09387e-30
5.21716e-30
2.62144e-30
8.64223e-31
1.07783e-31
1.38168e-32
3.37592e-33
3.07197e-33
1.07767e-30
4.1703e-30
8.72625e-30
1.15483e-29
9.12996e-30
4.22508e-30
2.0297e-30
3.90572e-31
6.49099e-32
4.06118e-32
6.52538e-32
7.43524e-32
2.09132e-30
5.03205e-30
9.2066e-30
1.56382e-29
1.37681e-29
8.98864e-30
3.92087e-30
1.22183e-30
5.3208e-31
5.18854e-31
8.91237e-31
1.69155e-30
1.26151e-30
3.80721e-30
1.03596e-29
1.43656e-29
2.03625e-29
2.01305e-29
1.31285e-29
8.51493e-30
4.75031e-30
3.85333e-30
8.42575e-30
1.42805e-29
2.72393e-29
3.68486e-29
3.13361e-29
8.85679e-30
2.03753e-29
2.7509e-29
2.67035e-29
3.3048e-29
2.67113e-29
2.08765e-29
2.53084e-29
3.89331e-29
9.99427e-29
2.24757e-28
3.96764e-28
5.98211e-28
7.14373e-28
5.47261e-28
1.38528e-29
4.54621e-29
5.84e-29
4.91166e-29
6.08995e-29
7.46653e-29
1.18831e-28
2.0445e-28
4.48948e-28
1.02665e-27
2.83224e-27
5.22291e-27
9.28548e-27
1.17746e-26
1.49581e-26
1.36111e-26
3.90721e-29
1.04284e-28
1.42374e-28
1.31075e-28
1.79789e-28
3.92152e-28
1.01714e-27
2.16458e-27
5.06388e-27
9.88481e-27
3.06796e-26
6.60334e-26
1.17628e-25
1.88352e-25
1.98056e-25
2.53341e-25
1.50784e-25
1.08629e-28
3.10229e-28
3.79673e-28
3.33526e-28
7.92534e-28
2.73492e-27
7.97948e-27
2.15712e-26
4.70743e-26
1.28431e-25
2.94049e-25
7.29948e-25
1.48818e-24
2.27798e-24
3.72993e-24
4.06319e-24
3.72371e-24
3.69505e-24
2.49453e-28
6.87521e-28
9.06607e-28
9.96603e-28
3.16485e-27
2.00964e-26
7.22044e-26
1.8232e-25
4.1301e-25
1.11885e-24
3.27458e-24
8.36859e-24
1.91543e-23
3.41338e-23
4.06274e-23
6.47503e-23
4.90089e-23
3.89238e-23
5.6499e-23
5.31908e-28
1.45103e-27
2.18233e-27
2.78978e-27
1.18105e-26
1.05603e-25
5.58842e-25
1.56342e-24
4.21429e-24
1.07282e-23
2.9538e-23
8.05661e-23
2.13424e-22
4.38826e-22
6.57896e-22
8.09198e-22
9.63744e-22
6.21069e-22
6.17539e-22
8.34361e-22
8.19541e-28
2.66834e-27
4.44068e-27
7.26368e-27
3.39084e-26
4.52536e-25
3.30724e-24
1.31447e-23
3.43552e-23
8.40433e-23
2.35966e-22
7.64484e-22
1.9657e-21
4.28519e-21
7.89269e-21
9.0614e-21
1.02284e-20
1.16065e-20
8.11593e-21
1.2006e-20
8.51e-21
9.0337e-28
4.8424e-27
8.09441e-27
1.49045e-26
1.04396e-25
1.4574e-24
1.57026e-23
8.04377e-23
2.65024e-22
7.31557e-22
2.17397e-21
5.40222e-21
1.9789e-20
4.0287e-20
8.11604e-20
1.27508e-19
1.54958e-19
1.34938e-19
1.06776e-19
1.29509e-19
1.36715e-19
6.37962e-20
1.01509e-27
6.42141e-27
1.68198e-26
2.51751e-26
2.38693e-25
4.75657e-24
5.54511e-23
4.39628e-22
1.7153e-21
5.68515e-21
1.4566e-20
5.51096e-20
1.34819e-19
4.40049e-19
7.47199e-19
1.46585e-18
1.85699e-18
2.36815e-18
1.52752e-18
1.39421e-18
1.58872e-18
1.39043e-18
3.67875e-19
1.38366e-27
6.39716e-27
2.44411e-26
4.71308e-26
4.22571e-25
1.1848e-23
2.00471e-22
1.73857e-21
1.04538e-20
3.5127e-20
1.16412e-19
3.00007e-19
1.28845e-18
3.52082e-18
8.09913e-18
1.50101e-17
2.13035e-17
2.193e-17
2.57358e-17
1.59957e-17
2.21453e-17
1.756e-17
1.18413e-17
5.59407e-18
2.19112e-27
9.7748e-27
3.26251e-26
7.0057e-26
5.47093e-25
2.2653e-23
5.87202e-22
7.05062e-21
4.78079e-20
2.59971e-19
8.072e-19
2.52051e-18
8.4127e-18
2.65265e-17
6.46494e-17
1.2755e-16
2.07301e-16
1.94139e-16
2.31221e-16
2.14835e-16
1.81692e-16
1.59096e-16
1.09686e-16
6.76731e-17
2.56993e-17
7.98685e-27
1.84148e-26
4.72585e-26
9.85337e-26
6.28246e-25
3.0656e-23
1.1949e-21
2.36314e-20
1.9697e-19
1.1451e-18
5.52251e-18
1.97929e-17
6.53939e-17
1.87497e-16
4.62476e-16
9.75847e-16
1.73132e-15
2.52606e-15
1.7324e-15
1.5478e-15
1.31442e-15
1.02433e-15
8.67725e-16
6.0038e-16
2.30304e-16
1.15051e-16
1.24688e-26
4.36874e-26
8.66507e-26
1.36542e-25
6.44407e-25
3.52734e-23
1.759e-21
5.45495e-20
7.7018e-19
5.45775e-18
2.57754e-17
1.14391e-16
3.94203e-16
1.26296e-15
3.22534e-15
7.04392e-15
1.24011e-14
1.73884e-14
1.98562e-14
1.52e-14
1.31547e-14
1.03892e-14
7.39025e-15
5.18939e-15
2.59636e-15
1.30781e-15
6.7789e-16
3.23003e-26
7.80524e-26
1.39363e-25
1.86968e-25
6.20186e-25
3.24316e-23
2.16816e-21
9.11659e-20
2.01922e-18
2.07881e-17
1.32947e-16
6.22954e-16
2.29239e-15
8.56061e-15
2.67045e-14
6.56459e-14
1.24135e-13
1.79944e-13
2.2228e-13
1.71468e-13
1.46094e-13
1.17156e-13
8.40664e-14
5.43817e-14
3.14423e-14
1.57262e-14
6.59412e-15
9.57989e-16
1.65734e-25
2.39576e-25
2.9967e-25
3.11024e-25
6.4834e-25
2.35064e-23
2.06708e-21
1.19565e-19
3.96555e-18
6.09178e-17
4.92319e-16
2.95298e-15
1.39341e-14
5.91777e-14
2.08933e-13
5.69704e-13
1.17701e-12
1.83587e-12
2.21981e-12
1.97031e-12
1.58727e-12
1.26306e-12
9.12002e-13
5.95298e-13
3.54619e-13
1.8787e-13
8.66907e-14
3.18591e-14
4.12136e-15
7.28761e-25
9.45763e-25
7.44124e-25
7.8898e-25
1.0783e-24
1.55316e-23
1.61055e-21
1.21053e-19
5.70581e-18
1.3735e-16
1.7155e-15
1.2107e-14
7.25668e-14
3.70399e-13
1.4939e-12
4.60874e-12
1.04558e-11
1.7551e-11
2.2643e-11
2.45721e-11
1.66236e-11
1.31557e-11
9.37084e-12
6.10707e-12
3.66014e-12
2.04936e-12
9.93169e-13
4.26212e-13
1.39102e-13
1.45112e-14
2.9434e-24
4.40802e-24
2.812e-24
2.09962e-24
2.21642e-24
9.38922e-24
1.04011e-21
1.02077e-19
6.30727e-18
2.26454e-16
4.08865e-15
4.28807e-14
3.18768e-13
1.95717e-12
9.47962e-12
3.35993e-11
8.55635e-11
1.56001e-10
2.15103e-10
2.51886e-10
1.68873e-10
1.31865e-10
9.26698e-11
5.89039e-11
3.49379e-11
1.94157e-11
9.90786e-12
4.61097e-12
1.8049e-12
5.12106e-13
4.01256e-14
1.61614e-23
2.76986e-23
1.69759e-23
9.72455e-24
5.01886e-24
7.36627e-24
5.43281e-22
6.88936e-20
5.71092e-18
2.7679e-16
7.37697e-15
1.17093e-13
1.19078e-12
8.69321e-12
5.08792e-11
2.16041e-10
6.24891e-10
1.26723e-09
1.85665e-09
2.38228e-09
1.74221e-09
1.28655e-09
8.76294e-10
5.38176e-10
3.06055e-10
1.67011e-10
8.66584e-11
4.21268e-11
1.80426e-11
6.49815e-12
1.45206e-12
7.01752e-14
5.4717e-23
1.24376e-22
9.75783e-23
6.17911e-23
2.11551e-23
1.30752e-23
2.51177e-22
3.66508e-20
4.14514e-18
2.71784e-16
9.92416e-15
2.26114e-13
3.3117e-12
3.24778e-11
2.32327e-10
1.18245e-09
3.99168e-09
8.97993e-09
1.47638e-08
1.85442e-08
1.92063e-08
1.22096e-08
7.99541e-09
4.63831e-09
2.51847e-09
1.31485e-09
6.73576e-10
3.30533e-10
1.50489e-10
6.0808e-11
1.79366e-11
2.58536e-12
4.30619e-14
3.91149e-22
6.53595e-22
5.14414e-22
3.06864e-22
1.51858e-22
4.13305e-23
1.03001e-22
1.71382e-20
2.22518e-18
2.18289e-16
1.05653e-14
3.10303e-13
6.31998e-12
9.05842e-11
8.83865e-10
5.67942e-09
2.18245e-08
5.43768e-08
9.80492e-08
1.50312e-07
1.67545e-07
1.09575e-07
7.10051e-08
3.88559e-08
1.98352e-08
9.88605e-09
4.86942e-09
2.37331e-09
1.10667e-09
4.73783e-10
1.60947e-10
3.02429e-11
1.53835e-12
3.58344e-16
2.30797e-14
9.61447e-22
2.83125e-21
2.43551e-21
1.28898e-21
8.06859e-22
2.77895e-22
1.09148e-22
5.94063e-21
1.07613e-18
1.20059e-16
9.32591e-15
3.50312e-13
9.23412e-12
1.78411e-10
2.45785e-09
2.00786e-08
1.02691e-07
2.74101e-07
5.381e-07
9.40021e-07
1.08172e-06
9.09252e-07
6.09388e-07
3.28346e-07
1.56601e-07
7.23555e-08
3.39028e-08
1.59509e-08
7.45776e-09
3.28878e-09
1.23442e-09
2.7226e-10
1.10842e-11
1.72259e-13
1.02614e-12
1.34094e-15
3.11059e-14
4.94263e-21
1.04077e-20
1.18946e-20
8.51248e-21
4.50438e-21
1.2971e-21
4.74452e-22
2.27253e-21
3.93648e-19
5.89797e-17
5.66355e-15
3.29418e-13
1.05336e-11
2.63164e-10
4.59006e-09
4.98927e-08
3.13864e-07
1.00138e-06
2.30702e-06
4.63288e-06
6.60003e-06
6.59245e-06
4.71072e-06
2.61752e-06
1.22919e-06
5.34574e-07
2.30422e-07
1.02977e-07
4.67897e-08
2.09886e-08
8.53011e-09
2.22008e-09
3.94177e-11
9.54715e-11
3.72935e-12
3.23737e-11
1.40636e-11
2.46707e-13
1.44713e-12
2.33553e-15
6.0133e-14
1.73052e-20
6.30196e-20
5.14862e-20
3.64826e-20
1.95292e-20
8.17637e-21
2.74489e-21
1.29678e-21
1.44597e-19
2.31018e-17
2.75078e-15
2.11696e-13
1.02376e-11
2.99065e-10
6.46721e-09
8.76764e-08
6.78516e-07
2.40648e-06
7.72061e-06
1.84876e-05
3.18128e-05
3.79984e-05
3.08387e-05
1.82472e-05
8.77418e-06
3.76396e-06
1.53149e-06
6.37992e-07
2.76848e-07
1.22395e-07
5.22497e-08
1.6255e-08
2.51457e-10
6.92779e-10
8.44678e-11
6.95709e-12
5.06258e-11
3.0483e-11
5.29898e-13
3.31363e-12
4.41505e-15
1.27899e-13
7.92421e-20
2.87597e-19
1.7208e-19
1.43356e-19
8.84182e-20
4.35732e-20
1.47582e-20
3.68957e-21
4.54166e-20
8.6371e-18
1.11882e-15
1.08224e-13
6.59363e-12
2.98792e-10
7.07265e-09
1.19313e-07
1.08354e-06
4.52433e-06
1.82766e-05
5.184e-05
0.000103914
0.000148827
0.000146246
0.000102241
5.46663e-05
2.38506e-05
9.49887e-06
3.74134e-06
1.53589e-06
6.59431e-07
2.85304e-07
1.05146e-07
1.94928e-09
5.42238e-09
2.47766e-10
7.44797e-10
1.77006e-10
1.7725e-11
1.2787e-10
9.03132e-11
1.24049e-12
8.71481e-12
9.33866e-15
3.04637e-13
4.47865e-19
1.266e-18
8.23505e-19
7.44352e-19
4.03872e-19
1.98145e-19
6.68785e-20
1.66659e-20
1.79849e-20
2.75186e-18
4.21435e-16
4.69694e-14
3.52591e-12
1.87098e-10
6.47597e-09
1.25484e-07
1.39451e-06
6.67953e-06
3.17597e-05
0.00010008
0.000218679
0.000346394
0.000411453
0.000369128
0.000245689
0.00012476
5.33823e-05
2.04821e-05
7.97634e-06
3.28984e-06
1.40231e-06
5.80778e-07
1.54597e-08
4.25573e-08
2.20276e-09
6.35563e-09
6.03212e-10
2.02309e-09
5.31273e-10
5.80122e-11
4.80702e-10
4.19874e-10
3.41411e-12
3.15283e-11
2.46384e-14
8.99043e-13
2.48793e-18
4.21321e-18
4.36409e-18
3.28859e-18
1.91832e-18
8.05048e-19
3.62825e-19
1.07697e-19
2.34889e-20
8.2915e-19
1.37238e-16
1.74831e-14
1.5596e-12
9.93418e-11
4.24915e-09
1.12558e-07
1.47238e-06
8.11324e-06
4.399e-05
0.000151615
0.000346615
0.000561582
0.000704533
0.00072387
0.000619061
0.000418225
0.000209695
8.99242e-05
3.53332e-05
1.41536e-05
5.96829e-06
2.64454e-06
1.19285e-07
3.14794e-07
1.77248e-08
4.78989e-08
6.56212e-09
2.04777e-08
2.19632e-09
9.01317e-09
2.69667e-09
3.18877e-10
3.17176e-09
3.31369e-09
1.34938e-11
1.92361e-10
9.26186e-14
4.02996e-12
1.21706e-17
1.60265e-17
1.44258e-17
1.20057e-17
6.31007e-18
4.03671e-18
1.69554e-18
4.97594e-19
1.27506e-19
2.60426e-19
4.07705e-17
5.7408e-15
6.06667e-13
4.21476e-11
2.3049e-09
7.67785e-08
1.36928e-06
8.40735e-06
5.08251e-05
0.000192121
0.0004611
0.00076379
0.000980378
0.001071
0.00102784
0.000853387
0.000577869
0.000290671
0.000125724
5.15808e-05
2.1652e-05
9.83642e-06
8.36531e-07
2.02871e-06
1.25582e-07
3.26832e-07
6.11834e-08
1.74499e-07
3.52421e-08
1.27774e-07
1.45199e-08
7.1107e-08
2.26418e-08
2.73228e-09
2.97082e-08
3.24154e-08
8.72179e-11
1.69109e-09
5.5299e-13
2.81264e-11
8.10849e-17
8.82177e-17
6.09041e-17
3.86752e-17
2.17196e-17
1.5619e-17
6.38172e-18
2.18512e-18
5.25554e-19
1.82538e-19
1.18402e-17
1.71859e-15
2.12118e-13
1.65182e-11
8.96857e-10
4.02759e-08
9.95153e-07
7.8376e-06
5.17932e-05
0.00021259
0.000540965
0.000927144
0.00120959
0.00136579
0.00140701
0.00132212
0.001079
0.000714952
0.000352866
0.000155943
6.79321e-05
3.15934e-05
4.97469e-06
1.07886e-05
8.6034e-07
2.26951e-06
4.75769e-07
1.26008e-06
4.32002e-07
1.34488e-06
3.09843e-07
1.18933e-06
1.36731e-07
6.85094e-07
2.20713e-07
2.697e-08
2.91437e-07
3.14817e-07
7.66711e-10
1.66176e-08
4.57869e-12
2.518e-10
4.52683e-16
5.94318e-16
3.88599e-16
2.02403e-16
9.30892e-17
4.64214e-17
2.28822e-17
8.01951e-18
2.77106e-18
5.41566e-19
3.05108e-18
4.69678e-16
6.64874e-14
6.00342e-12
3.65963e-10
1.70984e-08
5.74103e-07
6.06903e-06
4.76104e-05
0.000214644
0.000578118
0.00102974
0.0013563
0.00154211
0.0016557
0.00169364
0.00159415
0.00128742
0.00082672
0.000397611
0.000184336
9.28536e-05
2.37722e-05
4.92008e-05
5.80662e-06
1.41915e-05
3.19268e-06
8.00325e-06
3.86174e-06
1.00888e-05
4.09828e-06
1.21998e-05
2.94529e-06
1.06736e-05
1.30773e-06
6.15057e-06
2.03485e-06
2.61583e-07
2.62369e-06
2.78374e-06
7.53387e-09
1.62705e-07
4.41735e-11
2.45431e-09
4.15851e-15
6.0878e-15
2.82916e-15
1.14138e-15
4.31631e-16
2.28576e-16
8.79027e-17
4.33933e-17
1.44549e-17
2.98183e-18
1.27676e-18
1.26383e-16
1.87038e-14
1.97155e-12
1.35227e-10
5.96964e-09
2.54169e-07
4.01648e-06
3.7833e-05
0.000203486
0.000585825
0.00107122
0.00137178
0.00156646
0.00171649
0.00184171
0.00191839
0.00182543
0.00145984
0.000909287
0.000445514
0.000241189
0.000104091
0.000188557
3.37034e-05
8.24241e-05
1.98389e-05
4.73345e-05
2.47956e-05
5.67995e-05
3.21867e-05
7.56985e-05
3.25589e-05
8.54311e-05
2.34877e-05
7.20717e-05
1.09042e-05
4.336e-05
1.59572e-05
2.33979e-06
1.97845e-05
2.06347e-05
7.50966e-08
1.50819e-06
4.55346e-10
2.42743e-08
4.19487e-14
6.34223e-14
3.26387e-14
1.13225e-14
3.48216e-15
9.62134e-16
3.85283e-16
1.7346e-16
6.15728e-17
1.61541e-17
3.19466e-18
3.31834e-17
4.8431e-15
5.94919e-13
4.45866e-11
2.30428e-09
9.68882e-08
2.42803e-06
2.37235e-05
0.000166403
0.000560896
0.00103414
0.0013074
0.00149384
0.00165279
0.00182202
0.00198353
0.00210733
0.00202639
0.00160218
0.00100064
0.000580257
0.000341253
0.000456986
0.000166424
0.000325112
0.000107684
0.000224078
0.00012278
0.000236622
0.000164417
0.00030884
0.000195851
0.000386399
0.00018621
0.000416483
0.000136629
0.000345031
6.87024e-05
0.000220475
9.26738e-05
1.78575e-05
0.000109268
0.000112149
7.27728e-07
1.23745e-05
4.91038e-09
2.39175e-07
3.48072e-13
6.39019e-13
3.74936e-13
1.29049e-13
3.4749e-14
7.92983e-15
2.10524e-15
5.87378e-16
2.46531e-16
7.30971e-17
1.12473e-17
1.02693e-17
1.17207e-15
1.64814e-13
1.40978e-11
8.20973e-10
3.22854e-08
1.13052e-06
1.291e-05
0.000116468
0.000483372
0.000957126
0.00117639
0.0013186
0.00142942
0.00163602
0.00190629
0.00213528
0.00230762
0.00223302
0.00177357
0.00121721
0.000999697
0.000473963
0.000779689
0.000375183
0.000580571
0.00038548
0.000567966
0.000489975
0.000693503
0.000631311
0.000896768
0.000740302
0.00109458
0.000739154
0.00120587
0.000564971
0.00112963
0.00031213
0.000797937
0.000389028
9.95097e-05
0.000435637
0.000438581
6.56509e-06
7.49504e-05
5.45312e-08
2.33959e-06
2.28069e-12
5.06526e-12
3.70496e-12
1.45961e-12
3.89717e-13
8.3323e-14
1.56011e-14
3.82502e-15
9.90844e-16
2.72257e-16
7.09092e-17
1.11973e-17
2.59566e-16
4.16956e-14
4.18121e-12
2.62793e-10
9.21808e-09
4.05463e-07
7.31043e-06
7.17407e-05
0.000371348
0.000861027
0.00106115
0.00111257
0.0010488
0.00118078
0.00154868
0.00199969
0.00232222
0.0025494
0.00249482
0.00206875
0.00172721
0.00138932
0.00179384
0.000806606
0.00110518
0.000778913
0.00102805
0.000912215
0.00114717
0.00116673
0.00143247
0.00145636
0.0018009
0.00168676
0.00213241
0.00174045
0.00235238
0.00153824
0.00231177
0.00101878
0.00190029
0.00117687
0.000395724
0.00125053
0.0012317
4.57608e-05
0.0003197
5.8873e-07
2.01682e-05
1.06457e-11
2.89178e-11
2.76419e-11
1.39267e-11
4.38306e-12
1.02816e-12
1.62098e-13
2.57012e-14
6.86334e-15
1.09639e-15
2.42253e-16
5.70868e-17
7.3246e-17
9.76316e-15
1.15114e-12
7.96348e-11
3.60541e-09
1.25572e-07
3.27511e-06
3.80231e-05
0.00025939
0.000748452
0.000967104
0.000945467
0.000736456
0.000829095
0.00111828
0.00154737
0.00214181
0.00256701
0.00286065
0.00287028
0.00259692
0.00214165
0.00262184
0.0019693
0.00235258
0.00130853
0.00162221
0.0013982
0.00167989
0.00169242
0.00195631
0.00211768
0.00240597
0.00255697
0.00291404
0.00287307
0.00327807
0.00298415
0.00341463
0.00280599
0.00339888
0.00221209
0.00317407
0.00240683
0.00112234
0.00246746
0.0024095
0.000227755
0.000948425
6.28921e-06
0.000137126
2.89773e-11
1.04617e-10
1.4097e-10
9.94674e-11
4.0988e-11
1.21003e-11
2.05898e-12
2.77199e-13
5.121e-14
8.43325e-15
1.18608e-15
1.92398e-16
5.64334e-17
2.1699e-15
2.91401e-13
2.32727e-11
1.22316e-09
3.98517e-08
1.2257e-06
1.68006e-05
0.000159721
0.000603524
0.00088619
0.000855873
0.000542606
0.000582627
0.00081889
0.00118225
0.00169172
0.00237069
0.00289445
0.00327052
0.00343317
0.00301751
0.00341662
0.00275856
0.00319815
0.002671
0.00304855
0.0019868
0.00231625
0.00222549
0.00251621
0.00267565
0.00293696
0.0032092
0.00345519
0.00354003
0.00372148
0.00365101
0.00377988
0.00367292
0.00377202
0.00363651
0.00377293
0.00338911
0.003774
0.00350975
0.00224366
0.00354777
0.00348232
0.000756307
0.00197218
5.73534e-05
0.000562363
3.71764e-11
2.08681e-10
3.87637e-10
4.50823e-10
2.81199e-10
1.17744e-10
2.14985e-11
2.60292e-12
3.03352e-13
5.28218e-14
6.25975e-15
8.36039e-16
1.42044e-16
4.96495e-16
6.77877e-14
6.41839e-12
3.68959e-10
1.10907e-08
3.98506e-07
7.93808e-06
8.4443e-05
0.000432756
0.000808047
0.000814724
0.00045808
0.000417817
0.000607054
0.00101063
0.00148697
0.00204377
0.00272974
0.00331235
0.00379694
0.00423043
0.00357149
0.00405739
0.00344307
0.00382776
0.00346198
0.00379882
0.00282141
0.00313609
0.00319218
0.00345111
0.00365918
0.00383969
0.00386358
0.00398638
0.00385803
0.00393281
0.00381988
0.00382463
0.00379306
0.00373742
0.0038401
0.00375681
0.00386977
0.00387465
0.00394892
0.003285
0.00401509
0.00404324
0.00165469
0.00297718
0.000376987
0.00133968
1.83913e-10
6.54028e-10
1.07488e-09
1.16637e-09
7.46405e-10
1.57272e-10
2.14702e-11
2.46626e-12
3.11388e-13
4.34171e-14
4.83592e-15
6.35175e-16
2.12685e-16
1.47199e-14
1.64246e-12
1.05971e-10
4.33256e-09
1.28136e-07
3.57631e-06
3.76545e-05
0.000271884
0.000709525
0.000791558
0.000455224
0.000323773
0.000440858
0.000861699
0.00141743
0.00193996
0.00250403
0.0031756
0.00382418
0.00441099
0.00467111
0.00478369
0.00419091
0.00448087
0.0041301
0.00444075
0.0042043
0.00445306
0.00370619
0.00395511
0.00401045
0.00417665
0.00410358
0.00422429
0.00400755
0.00409194
0.0038255
0.003831
0.00359749
0.00348071
0.00351511
0.00327926
0.00366653
0.00329788
0.00391858
0.00360109
0.00399198
0.00400166
0.00409385
0.00419195
0.0025756
0.00378926
0.00021119
0.00156348
4.16001e-10
1.61974e-09
2.55345e-09
2.74847e-09
9.11891e-10
1.50097e-10
1.89718e-11
2.0241e-12
2.52414e-13
3.28218e-14
3.22565e-15
4.74485e-16
3.05201e-15
3.87567e-13
2.88983e-11
1.42818e-09
4.11319e-08
1.11867e-06
1.42826e-05
0.000146928
0.000554797
0.000766928
0.000482876
0.000287102
0.000326959
0.00062276
0.00123636
0.00185093
0.00240798
0.00302936
0.0037148
0.00432302
0.00478395
0.00469429
0.00495076
0.00493991
0.00470791
0.00487942
0.00469846
0.00490223
0.00468705
0.00486617
0.00434182
0.00451014
0.00435085
0.00448356
0.00419011
0.00430943
0.00386954
0.00396676
0.0034569
0.00352567
0.00320406
0.00322049
0.00313198
0.00309728
0.00320917
0.00309613
0.00358916
0.00319162
0.00367166
0.00425865
0.00383069
0.00395519
0.0041717
0.00323579
0.00420758
0.000243795
0.00210971
8.31133e-10
3.5068e-09
5.25797e-09
3.49009e-09
8.46829e-10
1.23888e-10
1.33956e-11
1.28595e-12
1.24785e-13
1.69484e-14
1.58117e-15
9.08953e-16
8.47508e-14
7.51562e-12
3.95832e-10
1.10786e-08
3.53571e-07
7.23128e-06
6.72467e-05
0.000368563
0.000709597
0.000564345
0.000287027
0.000270001
0.00042012
0.000768727
0.0013957
0.0020936
0.00272013
0.00335722
0.00397658
0.0044785
0.0048774
0.00473099
0.00505416
0.0049906
0.00502801
0.00507202
0.00502162
0.00512305
0.00493218
0.00507503
0.00462534
0.0047763
0.00444707
0.00459946
0.00412055
0.00429748
0.00368055
0.00388319
0.00329296
0.00344293
0.00311833
0.0031755
0.00310189
0.00320616
0.00311394
0.00330602
0.00323908
0.00318567
0.00315664
0.00351213
0.00329494
0.00406118
0.00429144
0.00417827
0.00370641
0.00344077
0.00335898
0.00380957
0.00330364
0.00396376
0.00426844
0.00434094
0.0042724
0.000550217
0.00367249
0.00233075
0.00344614
1.43726e-09
6.3457e-09
7.7113e-09
3.29582e-09
6.57292e-10
7.91594e-11
7.88112e-12
7.106e-13
5.96678e-14
7.87871e-15
1.04161e-15
1.75094e-14
1.81982e-12
1.09819e-10
4.24735e-09
1.14233e-07
3.00915e-06
2.68957e-05
0.000207398
0.000589208
0.000636909
0.000311141
0.000254804
0.000311527
0.00045981
0.0007943
0.00135911
0.00207718
0.00280285
0.00342263
0.00392975
0.00438475
0.00409987
0.00484816
0.00463626
0.00506245
0.00489605
0.0051491
0.00513128
0.00516408
0.00519062
0.00507013
0.00516626
0.00475785
0.00492166
0.00448596
0.00467744
0.00410553
0.00434253
0.00365662
0.0039138
0.00327504
0.00343542
0.00327999
0.00328554
0.00339566
0.00353172
0.00360946
0.00364689
0.003324
0.00355319
0.00378399
0.00405084
0.00379246
0.00323592
0.00323107
0.0032788
0.00340184
0.00327259
0.00394563
0.00408741
0.0035512
0.00340325
0.00333167
0.0036757
0.00417591
0.00422228
0.00433762
0.00436044
0.00208242
0.00305448
0.0040473
0.00397132
2.28203e-09
9.33816e-09
8.24823e-09
2.63726e-09
3.96186e-10
4.28073e-11
3.97998e-12
3.31698e-13
3.00377e-14
3.02335e-15
3.7335e-15
4.08254e-13
2.85647e-11
1.34908e-09
3.60218e-08
8.90512e-07
1.04436e-05
9.87692e-05
0.000417166
0.000643198
0.000401809
0.000258858
0.000270249
0.000335251
0.000455312
0.000704529
0.00110482
0.00166958
0.00231549
0.00284532
0.00302039
0.00403615
0.00346078
0.00466192
0.00436583
0.00488521
0.00460991
0.00517034
0.00508491
0.00519686
0.00516801
0.00513682
0.00516404
0.00486729
0.00502784
0.00457738
0.00478974
0.00418814
0.00444729
0.00367291
0.00395307
0.00328341
0.00337609
0.00362839
0.00356473
0.0034669
0.0033505
0.00390954
0.00397177
0.00396698
0.00367199
0.00398682
0.0042306
0.00454887
0.00429208
0.00347158
0.00331393
0.00352316
0.00378263
0.00335383
0.00382108
0.00397916
0.00348926
0.00339782
0.00344948
0.00359248
0.00434147
0.00414091
0.00429368
0.0044077
0.00408999
0.00380205
6.98587e-06
0.00181238
0.00432779
0.00434563
3.64937e-09
1.1351e-08
7.44851e-09
1.58822e-09
2.02124e-10
2.01873e-11
1.76092e-12
1.33308e-13
1.30336e-14
2.3832e-15
7.96131e-14
7.02614e-12
3.51196e-10
9.20704e-09
2.66894e-07
5.40933e-06
4.08475e-05
0.000244269
0.000595113
0.000523029
0.000285855
0.00026586
0.000306893
0.000331925
0.000382256
0.000481692
0.000673263
0.000974924
0.0012441
0.00129102
0.00218728
0.001354
0.00341278
0.00281148
0.0042825
0.00388846
0.00449275
0.00411853
0.00505754
0.00481458
0.005119
0.00497302
0.0050835
0.00501216
0.00495923
0.00507122
0.00467303
0.0048528
0.00423323
0.00447314
0.00357375
0.00381956
0.00325689
0.0031947
0.0031822
0.00320836
0.00389414
0.00375803
0.00358219
0.0033952
0.00434505
0.00437021
0.00431299
0.00415243
0.00452172
0.00472639
0.00508195
0.00484215
0.00386579
0.00355545
0.0039143
0.00428556
0.003571
0.0037205
0.00387668
0.00351334
0.00357939
0.00358589
0.00359214
0.00444813
0.00405364
0.00423241
0.00441915
0.00446946
0.00367523
0.000220051
0.00152329
0.00449177
5.983e-09
1.20223e-08
5.02226e-09
7.9416e-10
9.05334e-11
8.50948e-12
6.94152e-13
4.85659e-14
5.0726e-15
1.89542e-14
1.57309e-12
9.24889e-11
3.37785e-09
8.46925e-08
1.87033e-06
1.56277e-05
0.000119119
0.000433684
0.000556127
0.000377383
0.000276579
0.000307736
0.000321959
0.000302261
0.000263394
0.000241705
0.000279
0.000354055
0.000367939
0.000294593
0.00120527
0.000543062
0.00259932
0.00192853
0.00368707
0.00318408
0.00389096
0.00342392
0.00468068
0.00431147
0.00481476
0.0044831
0.00482655
0.00457401
0.00495237
0.00494049
0.00464212
0.00471125
0.00405193
0.00419462
0.00326999
0.00335951
0.00344774
0.00349639
0.00322838
0.00309901
0.00303811
0.00302644
0.00416941
0.00395337
0.00369329
0.00342413
0.00479537
0.0047769
0.00465032
0.00471408
0.0050977
0.00521108
0.00558753
0.00539632
0.00437473
0.00392867
0.00441442
0.00486089
0.0039123
0.00368723
0.00381142
0.00360294
0.0038737
0.00382436
0.00364646
0.0045123
0.00397761
0.00417327
0.00440073
0.00455637
0.00441139
0.00327292
0.000327026
0.00151459
1.22618e-08
1.07457e-08
2.53229e-09
3.46727e-10
3.66232e-11
3.24451e-12
2.46856e-13
2.18119e-14
7.70494e-15
3.09064e-13
2.21347e-11
1.04515e-09
2.39608e-08
5.38181e-07
7.41449e-06
5.06367e-05
0.000254646
0.000533636
0.000482601
0.000322052
0.000320001
0.000348675
0.000318727
0.000256684
0.00017415
0.000110906
8.30646e-05
7.64488e-05
5.59092e-05
7.76716e-05
2.08507e-05
0.000474571
0.000178342
0.00167568
0.000998596
0.00290294
0.00232019
0.00311907
0.00258992
0.00407237
0.00361297
0.00420619
0.00377175
0.00423511
0.00384767
0.00467689
0.00451501
0.00423728
0.00419809
0.00348481
0.0034824
0.00305531
0.00311324
0.003188
0.00326395
0.00318153
0.00298893
0.00285614
0.00279858
0.00442676
0.00412757
0.00378245
0.00343085
0.00522908
0.00514283
0.00493985
0.00530471
0.00566351
0.00564579
0.00602082
0.00591136
0.00494996
0.00440714
0.00498138
0.0054567
0.00435435
0.00372013
0.00381152
0.00378144
0.0042652
0.00415421
0.00376073
0.0045377
0.00394116
0.0041304
0.00437409
0.00456407
0.0042709
0.00304719
0.000276666
0.00134288
1.2875e-08
6.68419e-09
1.10644e-09
1.36683e-10
1.35063e-11
1.12414e-12
7.744e-14
8.59428e-15
9.83142e-14
4.52964e-12
2.41906e-10
6.70043e-09
1.68513e-07
3.3469e-06
1.95723e-05
0.000124715
0.00042189
0.000508396
0.00041362
0.000346283
0.000388901
0.000392069
0.00032795
0.000226638
0.000126669
5.39757e-05
1.88895e-05
8.83832e-06
2.38787e-06
1.65139e-05
4.05357e-06
0.000154298
5.15438e-05
0.000834562
0.000395135
0.00202094
0.00141838
0.00227926
0.00175292
0.00329522
0.00279509
0.0034038
0.00294428
0.00337413
0.00296176
0.00402083
0.0037404
0.00341512
0.00327407
0.0028132
0.00278948
0.00266273
0.00274366
0.00278441
0.00278979
0.00281177
0.00282016
0.00311419
0.00285257
0.00265875
0.00253301
0.00463183
0.00425065
0.00382364
0.00340372
0.00560858
0.00543775
0.00514848
0.00587499
0.00617838
0.00601967
0.00637385
0.00634523
0.00554523
0.00495289
0.0055688
0.00602792
0.00486469
0.003788
0.00385557
0.00404381
0.00472679
0.00455332
0.00395747
0.00454352
0.00396227
0.0041211
0.00435794
0.00454795
0.00414439
0.00284244
0.000147754
0.00100696
1.08759e-08
2.999e-09
4.32276e-10
4.92209e-11
4.55265e-12
3.51049e-13
2.73918e-14
2.98792e-14
1.46329e-12
5.11284e-11
1.77833e-09
5.10052e-08
9.51985e-07
8.81696e-06
5.34653e-05
0.0002459
0.000485969
0.000476246
0.000399481
0.000410172
0.000455547
0.000441908
0.000368115
0.000241275
0.000105069
2.7324e-05
4.46233e-06
6.631e-07
4.21786e-07
1.78752e-07
3.81089e-06
9.35149e-07
4.70985e-05
1.40349e-05
0.000359035
0.000140538
0.00122913
0.000738904
0.00155853
0.00112043
0.00247491
0.00201113
0.00255038
0.00214544
0.00236069
0.00201795
0.00301049
0.00270852
0.00255667
0.00239889
0.00197689
0.00231819
0.00226395
0.00211859
0.00219973
0.00245978
0.00241853
0.00238788
0.00235662
0.00301739
0.00268793
0.00243062
0.00224516
0.00475889
0.004296
0.00380257
0.00331651
0.00589531
0.00564445
0.00526877
0.00638845
0.00661389
0.00631322
0.00665862
0.00668471
0.00611557
0.00552379
0.00613455
0.00654061
0.00540677
0.0039167
0.00393478
0.00437279
0.00522611
0.00499512
0.0042127
0.00454839
0.00401704
0.00415103
0.00435626
0.00453165
0.00403473
0.0025818
5.48496e-05
0.00063548
6.25968e-09
1.1789e-09
1.54234e-10
1.63219e-11
1.41442e-12
9.91384e-14
1.51282e-14
4.22599e-13
1.6286e-11
4.5374e-10
1.35898e-08
2.66824e-07
4.45304e-06
2.12261e-05
0.00011914
0.000377735
0.000480933
0.00045491
0.000434257
0.000483359
0.000517488
0.000489105
0.000392174
0.000250365
9.60592e-05
1.46316e-05
1.05719e-06
5.27446e-08
6.55307e-08
1.68942e-08
7.90442e-07
2.41868e-07
1.2526e-05
3.29318e-06
0.000136767
4.3582e-05
0.000709496
0.000360523
0.00101044
0.000647118
0.00175674
0.00138036
0.00169224
0.00137041
0.0011827
0.000943533
0.00169622
0.00145426
0.00203896
0.00199364
0.00102306
0.000894576
0.0017515
0.00165356
0.00142104
0.00154403
0.00211284
0.00201212
0.0019255
0.00184165
0.00287248
0.00248761
0.00217711
0.00193773
0.00479822
0.00426909
0.00371022
0.00317481
0.00609366
0.00576294
0.00531313
0.00682362
0.00694297
0.00650452
0.00684566
0.00695071
0.00662853
0.00607993
0.0066477
0.00697396
0.00594327
0.0040981
0.0040499
0.00474766
0.00572937
0.00545388
0.00451162
0.0045597
0.00409662
0.00420722
0.00436863
0.0045237
0.00393836
0.00225112
1.69547e-05
0.000363176
2.92824e-09
4.30775e-10
5.17191e-11
5.15503e-12
4.21735e-13
3.0384e-14
9.78268e-14
4.64347e-12
1.1398e-10
3.54192e-09
8.34683e-08
1.36801e-06
9.41164e-06
5.06997e-05
0.000216318
0.000447391
0.00047414
0.000465664
0.000494049
0.000550107
0.00056914
0.000515337
0.000399201
0.000234543
6.41614e-05
5.86723e-06
3.21122e-07
1.12089e-09
2.02437e-08
1.0348e-08
3.27658e-09
1.77755e-07
4.37522e-08
2.54842e-06
6.04182e-07
3.59805e-05
9.93597e-06
0.000322592
0.000117189
0.000446491
0.000208118
0.00106088
0.000746115
0.000733056
0.00053448
0.000400367
0.000363169
0.000776491
0.000650225
0.000467929
0.00129398
0.00116383
0.000600679
0.000545402
0.00120043
0.00107631
0.000843251
0.000955043
0.00175082
0.00159519
0.00145675
0.0013275
0.00268267
0.00225737
0.00190952
0.00163386
0.00477021
0.00417009
0.00356122
0.00297998
0.00621879
0.00582231
0.00531341
0.00714958
0.00718274
0.00662661
0.00695891
0.00713985
0.00706469
0.00658861
0.00708715
0.00730833
0.00644306
0.00431902
0.00420225
0.00514344
0.00620971
0.0058979
0.00483411
0.00458037
0.004197
0.00429271
0.00440226
0.0045293
0.00384714
0.00190688
9.04763e-06
0.000276261
1.24356e-09
1.58118e-10
1.79521e-11
1.73752e-12
1.42778e-13
3.68257e-14
1.08555e-12
2.86242e-11
9.05506e-10
2.33186e-08
3.74977e-07
5.00888e-06
2.04177e-05
0.000103641
0.000320047
0.000463453
0.000478664
0.00049623
0.000552527
0.000605551
0.000603528
0.000524124
0.000381124
0.000184978
3.06421e-05
2.1251e-06
7.93989e-08
1.5877e-09
3.92911e-09
2.29899e-09
1.08775e-09
2.95687e-08
7.83678e-09
4.03305e-07
1.15862e-07
6.77369e-06
1.69144e-06
8.03925e-05
2.52396e-05
9.9318e-05
4.0623e-05
0.000354819
0.000204939
0.000270899
0.000195374
0.000388264
0.000383971
0.000435751
0.000503577
0.000480206
0.00040262
0.000414332
0.000746834
0.000667435
0.000458689
0.000447999
0.000798537
0.000697293
0.000553141
0.000614861
0.00141198
0.00122511
0.00106273