/*--------------------------------*- C++ -*----------------------------------*\
  =========                 |
  \\      /  F ield         | OpenFOAM: The Open Source CFD Toolbox
   \\    /   O peration     | Website:  https://openfoam.org
    \\  /    A nd           | Version:  dev
     \\/     M anipulation  |
\*---------------------------------------------------------------------------*/
FoamFile
{
    version     2.0;
    format      ascii;
    class       volScalarField;
    location    "2500";
    object      G;
}
// * * * * * * * * * * * * * * * * * * * * * * * * * * * * * * * * * * * * * //

dimensions      [1 0 -3 0 0 0 0];

internalField   nonuniform List<scalar> 
9842
(
3983.44
3989.1
3990.64
3993.97
3996.31
3998.64
3998.08
4001.2
4004.32
4007.46
4001.43
4005.31
4009.22
4013.15
4017.09
4004.02
4008.65
4013.32
4018.04
4022.8
4027.58
4005.88
4011.24
4016.65
4022.13
4027.68
4033.29
4038.92
4007.03
4013.09
4019.22
4025.44
4031.75
4038.16
4044.64
4051.15
4007.48
4014.22
4021.04
4027.97
4035.02
4042.2
4049.5
4056.88
4064.31
4007.26
4014.65
4022.13
4029.73
4037.49
4045.42
4053.5
4061.71
4070.03
4078.42
4006.4
4014.4
4022.51
4030.76
4039.19
4047.82
4056.64
4065.66
4074.84
4084.14
4093.52
4004.93
4013.51
4022.21
4031.07
4040.13
4049.42
4058.95
4068.73
4078.73
4088.91
4099.24
4109.66
4002.88
4012
4021.25
4030.68
4040.34
4050.26
4060.45
4070.93
4081.7
4092.72
4103.97
4115.38
4126.89
4000.28
4009.91
4019.68
4029.64
4039.85
4050.34
4061.15
4072.29
4083.77
4095.58
4107.69
4120.06
4132.6
4145.27
3997.17
4007.27
4017.51
4027.96
4038.68
4049.7
4061.08
4072.83
4084.97
4097.5
4110.42
4123.67
4137.22
4150.97
4164.86
3993.57
4004.11
4014.79
4025.69
4036.87
4048.38
4060.27
4072.57
4085.32
4098.52
4112.17
4126.25
4140.71
4155.51
4170.55
4185.73
3989.54
4000.47
4011.55
4022.86
4034.45
4046.4
4058.75
4071.55
4084.85
4098.65
4112.97
4127.8
4143.12
4158.87
4175
4191.4
4207.97
3985.11
3996.39
4007.83
4019.5
4031.47
4043.81
4056.57
4069.81
4083.59
4097.93
4112.85
4128.36
4144.45
4161.08
4178.21
4195.76
4213.62
4231.67
3980.3
3991.9
4003.66
4015.66
4027.96
4040.63
4053.76
4067.39
4081.58
4096.39
4111.84
4127.95
4144.73
4162.16
4180.19
4198.79
4217.86
4237.28
4256.93
3975.17
3987.05
3999.09
4011.37
4023.95
4036.93
4050.36
4064.32
4078.87
4094.08
4109.98
4126.62
4144
4162.13
4180.98
4200.52
4220.68
4241.38
4262.49
4283.86
3969.74
3981.87
3994.15
4006.67
4019.5
4032.72
4046.41
4060.65
4075.5
4091.04
4107.33
4124.4
4142.3
4161.04
4180.61
4200.99
4222.13
4243.98
4266.44
4289.37
4312.6
3964.05
3976.38
3988.88
4001.61
4014.64
4028.07
4041.97
4056.42
4071.51
4087.32
4103.91
4121.35
4139.67
4158.92
4179.11
4200.22
4222.23
4245.1
4268.77
4293.14
4318.05
4343.31
3958.13
3970.64
3983.31
3996.21
4009.42
4023
4037.07
4051.69
4066.96
4082.97
4099.8
4117.51
4136.18
4155.84
4176.53
4198.27
4221.03
4244.8
4269.53
4295.16
4321.6
4348.67
4376.16
3952.01
3964.68
3977.49
3990.53
4003.86
4017.57
4031.76
4046.5
4061.89
4078.04
4095.03
4112.94
4131.86
4151.84
4172.94
4195.17
4218.57
4243.11
4268.76
4295.49
4323.26
4351.96
4381.41
4411.36
3945.73
3958.51
3971.44
3984.59
3998.02
4011.82
4026.08
4040.89
4056.36
4072.58
4089.66
4107.7
4126.79
4147
4168.39
4191.02
4214.91
4240.08
4266.52
4294.19
4323.1
4353.2
4384.38
4416.46
4449.24
3939.31
3952.18
3965.2
3978.43
3991.93
4005.78
4020.09
4034.93
4050.42
4066.66
4083.77
4101.85
4121.01
4141.35
4162.95
4185.86
4210.12
4235.78
4262.86
4291.34
4321.2
4352.48
4385.13
4419.06
4454.15
4490.1
3932.77
3945.72
3958.8
3972.08
3985.62
3999.5
4013.82
4028.65
4044.12
4060.32
4077.39
4095.44
4114.6
4134.98
4156.67
4179.75
4204.29
4230.31
4257.87
4286.98
4317.64
4349.88
4383.73
4419.2
4456.27
4494.77
4534.26
3926.15
3939.14
3952.26
3965.57
3979.13
3993.02
4007.31
4022.11
4037.51
4053.63
4070.61
4088.56
4107.63
4127.94
4149.63
4172.77
4197.46
4223.73
4251.63
4281.21
4312.5
4345.52
4380.33
4417.02
4455.68
4496.3
4538.62
4582.17
3919.45
3932.47
3945.62
3958.94
3972.5
3986.36
4000.61
4015.34
4030.64
4046.65
4063.47
4081.26
4100.16
4120.33
4141.89
4164.99
4189.7
4216.11
4244.25
4274.15
4305.87
4339.48
4375.05
4412.66
4452.53
4494.8
4539.4
4586.1
4634.36
3912.71
3925.74
3938.89
3952.2
3965.74
3979.57
3993.75
4008.39
4023.57
4039.42
4056.05
4073.62
4092.28
4112.2
4133.55
4156.47
4181.1
4207.51
4235.77
4265.88
4297.9
4331.9
4368
4406.31
4447.04
4490.49
4536.78
4585.93
4637.75
4691.53
3905.93
3918.95
3932.09
3945.39
3958.89
3972.66
3986.77
4001.29
4016.33
4031.99
4048.4
4065.71
4084.07
4103.67
4124.69
4147.32
4171.71
4198
4226.25
4256.48
4288.69
4322.94
4359.35
4398.1
4439.41
4483.62
4531.04
4581.92
4636.38
4694.24
4754.61
3899.12
3912.14
3925.25
3938.51
3951.97
3965.67
3979.68
3994.08
4008.96
4024.42
4040.58
4057.58
4075.59
4094.8
4115.4
4137.62
4161.65
4187.66
4215.76
4245.98
4278.3
4312.72
4349.3
4388.24
4429.84
4474.47
4522.5
4574.41
4630.6
4691.32
4756.4
4824.64
3892.31
3905.29
3918.38
3931.6
3944.99
3958.62
3972.53
3986.79
4001.5
4016.74
4032.63
4049.31
4066.93
4085.69
4105.79
4127.48
4151.01
4176.58
4204.37
4234.44
4266.76
4301.28
4337.98
4376.98
4418.59
4463.29
4511.52
4563.82
4620.87
4683.27
4751.49
4825.31
4903.06
3885.5
3898.44
3911.5
3924.67
3937.99
3951.53
3965.33
3979.45
3993.98
4009
4024.6
4040.94
4058.15
4076.41
4095.96
4117.03
4139.9
4164.87
4192.17
4221.92
4254.12
4288.67
4325.46
4364.48
4405.97
4450.42
4498.44
4550.62
4607.76
4670.77
4740.5
4817.91
4902.32
4968.14
4969.89
3878.71
3891.6
3904.61
3917.72
3930.98
3944.42
3958.11
3972.09
3986.43
4001.22
4016.55
4032.53
4049.3
4067.05
4085.99
4106.36
4128.48
4152.67
4179.26
4208.48
4240.41
4274.91
4311.76
4350.83
4392.18
4436.24
4483.67
4535.23
4591.83
4654.5
4724.49
4802.93
4892.07
4968.8
4964.67
5015.57
5017.04
3871.96
3884.78
3897.73
3910.78
3923.96
3937.31
3950.88
3964.71
3978.88
3993.44
4008.49
4024.12
4040.47
4057.69
4075.99
4095.6
4116.86
4140.12
4165.79
4194.23
4225.65
4259.98
4296.88
4336.05
4377.34
4421.03
4467.7
4518.2
4573.64
4635.2
4704.27
4782.57
4860.31
4849.1
4957.91
4896.88
4948.09
5015.26
5010.22
5066.46
5067.58
3865.24
3877.99
3890.87
3903.86
3916.96
3930.22
3943.66
3957.35
3971.34
3985.68
4000.45
4015.75
4031.68
4048.39
4066.05
4084.88
4105.2
4127.4
4151.94
4179.33
4209.95
4243.86
4280.76
4320.1
4361.49
4404.92
4450.86
4500.12
4553.88
4613.59
4680.78
4757.33
4836.73
4822.61
4884.58
5002.08
4935.92
4990.85
5065
5058.84
5121.25
5121.91
3858.57
3871.24
3884.05
3896.96
3909.98
3923.14
3936.47
3950.02
3963.83
3977.96
3992.47
4007.45
4022.98
4039.19
4056.23
4074.3
4093.68
4114.72
4137.97
4164.06
4193.54
4226.68
4263.29
4302.79
4344.49
4387.95
4433.35
4481.4
4533.26
4590.51
4654.95
4728.62
4807.76
4791.56
4870.42
4854.65
4921.78
5049.21
4976.96
5036.24
5118.4
5110.92
5180.39
5180.57
3851.94
3864.53
3877.27
3890.09
3903.02
3916.08
3929.3
3942.72
3956.36
3970.29
3984.56
3999.23
4014.39
4030.13
4046.58
4063.92
4082.38
4102.28
4124.15
4148.74
4176.78
4208.7
4244.58
4283.94
4325.97
4369.88
4415.18
4462.29
4512.31
4566.84
4627.83
4697.54
4774.94
4757.21
4837.8
4819.91
4905.66
4887.89
4960.82
5099.58
5020.33
5084.59
5175.94
5166.86
5244.46
5244.09
3845.37
3857.88
3870.53
3883.27
3896.11
3909.07
3922.18
3935.46
3948.95
3962.68
3976.72
3991.11
4005.92
4021.23
4037.15
4053.8
4071.39
4090.19
4110.68
4133.67
4160.05
4190.38
4224.89
4263.49
4305.57
4350.07
4395.96
4442.75
4491.26
4543.17
4600.48
4665.47
4739.4
4720.85
4801.26
4781.86
4868.95
4849
4942.51
4922.47
5001.89
5153.53
5066.32
5136.18
5238.14
5227.14
5314.06
5313.12
3838.86
3851.28
3863.85
3876.5
3889.25
3902.1
3915.1
3928.25
3941.58
3955.14
3968.96
3983.09
3997.59
4012.51
4027.94
4043.98
4060.78
4078.55
4097.74
4119.12
4143.71
4172.22
4204.89
4241.83
4282.97
4327.69
4374.63
4422.18
4470.02
4519.72
4573.53
4633.7
4702.71
4684.28
4762.04
4741.92
4828.23
4806.8
4901.19
4878.89
4981.13
4958.51
5045.23
5211.43
5115.15
5191.27
5305.68
5292.35
5390.04
5388.44
3832.41
3844.74
3857.22
3869.78
3882.43
3895.19
3908.07
3921.09
3934.28
3947.67
3961.29
3975.18
3989.39
4003.96
4018.96
4034.46
4050.55
4067.42
4085.41
4105.28
4128.08
4154.63
4185.17
4219.8
4258.91
4302.52
4349.89
4399.02
4447.75
4496.28
4547.08
4602.85
4666.61
4648.88
4721.91
4702.08
4784.92
4762.88
4855.78
4832.04
4934.56
4909.6
5021.69
4996.13
5091
5273.76
5167.01
5250.27
5379.19
5363.07
5473.37
5470.87
3826.02
3838.26
3850.66
3863.13
3875.68
3888.33
3901.1
3914
3927.05
3940.27
3953.7
3967.37
3981.32
3995.57
4010.19
4025.21
4040.72
4056.8
4073.73
4092.25
4113.4
4138.04
4166.25
4198.18
4234.46
4275.65
4321.79
4371.68
4422.51
4471.85
4520.81
4572.77
4632.07
4615.04
4682.76
4663.9
4741.01
4719.49
4807.93
4783.79
4883.88
4857.61
4969.13
4941.21
5064.29
5035.39
5139.35
5341.05
5222.28
5313.66
5459.45
5440.06
5565.33
5561.68
3819.7
3831.85
3844.15
3856.53
3868.99
3881.54
3894.2
3906.97
3919.88
3932.95
3946.21
3959.67
3973.38
3987.35
4001.62
4016.24
4031.23
4046.66
4062.69
4079.99
4099.74
4122.68
4148.67
4177.74
4210.65
4248.5
4291.82
4340.47
4392.51
4444.32
4493.63
4542.98
4598.92
4582.11
4645.67
4627.78
4698.57
4678.35
4759.95
4736.7
4831.13
4804.88
4912.67
4883.83
5005.04
4974.09
5109.03
5076.56
5190.68
5413.95
5281.5
5382.07
5547.66
5524.35
5667.49
5662.34
3813.44
3825.51
3837.72
3850
3862.37
3874.81
3887.36
3900.01
3912.79
3925.72
3938.8
3952.08
3965.56
3979.28
3993.25
4007.51
4022.07
4036.96
4052.27
4068.48
4086.94
4108.53
4132.73
4159.12
4188.45
4222.32
4261.87
4307.37
4358.22
4411.69
4463.54
4512.46
4566.13
4549.01
4610.35
4592.81
4658.85
4639.86
4714.26
4692.65
4779.2
4754.28
4855.15
4827.01
4942.92
4911.82
5042.98
5009.44
5156.53
5120.79
5245.86
5493.31
5345.68
5456.71
5645.04
5616.9
5781.82
5774.56
3807.26
3819.23
3831.35
3843.54
3855.81
3868.15
3880.59
3893.13
3905.78
3918.56
3931.49
3944.59
3957.87
3971.35
3985.06
3999
4013.2
4027.65
4042.38
4057.71
4074.91
4095.39
4118.3
4142.58
4168.61
4198.27
4233.36
4274.69
4322.11
4374.49
4428.33
4479.34
4527.67
4575.47
4557.73
4621.22
4602.65
4671.81
4651.59
4730.27
4707.25
4799.55
4773.06
4881.16
4851.4
4976.16
4943.28
5084.74
5049.33
5208.38
5170.46
5306.82
5580.61
5417.23
5540.65
5752.9
5719.4
5911.06
5900.74
3801.15
3813.02
3825.05
3837.15
3849.32
3861.57
3873.9
3886.32
3898.85
3911.49
3924.27
3937.2
3950.29
3963.56
3977.03
3990.7
4004.58
4018.66
4032.95
4047.59
4063.65
4082.99
4105.05
4127.95
4151.35
4177.33
4207.82
4244.14
4286.99
4335.66
4388.49
4441.4
4490.96
4547.04
4526.7
4584.13
4565.61
4631.74
4612
4685.09
4663.57
4747.63
4723.22
4822.57
4794.69
4911.36
4880.42
5014.96
4981.31
5133.27
5097.61
5267.66
5229.63
5377.54
5679.48
5501.28
5640.22
5873.44
5835.91
6059.2
6044.21
3795.1
3806.88
3818.83
3830.83
3842.91
3855.05
3867.28
3879.59
3891.99
3904.51
3917.14
3929.91
3942.83
3955.9
3969.15
3982.57
3996.18
4009.95
4023.88
4038.01
4053.09
4071.17
4092.53
4114.72
4136.38
4159.41
4185.92
4217.39
4254.82
4298.5
4347.37
4399.2
4450.13
4507.35
4485.83
4552.47
4531.64
4592.27
4572.53
4642.4
4621.29
4699.61
4676.55
4767.76
4741.66
4850.23
4820.65
4948.27
4915.63
5062.64
5027.46
5193.09
5156.66
5339.71
5303.19
5464.66
5797.31
5605.75
5764.87
6011.35
5975.12
6232.77
6211.62
3789.13
3800.82
3812.67
3824.59
3836.57
3848.61
3860.73
3872.93
3885.22
3897.61
3910.11
3922.73
3935.48
3948.37
3961.42
3974.62
3987.98
4001.49
4015.12
4028.88
4043.18
4059.91
4080.45
4102.31
4123.12
4143.9
4167.13
4194.66
4227.08
4265.1
4308.64
4356.37
4405.87
4464.75
4442.24
4510.51
4488.48
4557.49
4535.48
4600.15
4578.98
4653.75
4630.94
4716.2
4691.15
4791.68
4763.26
4883.18
4850.94
4991.9
4956.03
5119.16
5079.92
5265.43
5224.77
5429.38
5391.26
5573.28
5945.46
5736.52
5921.82
6178.14
6151.54
6443.25
6418.95
3783.3
3794.82
3806.59
3818.41
3830.3
3842.25
3854.27
3866.36
3878.53
3890.8
3903.16
3915.64
3928.24
3940.96
3953.82
3966.82
3979.96
3993.23
4006.62
4020.09
4033.83
4049.27
4068.67
4090.28
4110.89
4130.31
4150.93
4174.95
4203.43
4236.38
4274.24
4316.61
4361.97
4408.04
4466.09
4443.01
4512.99
4489.95
4562.09
4538.6
4608.08
4585.2
4666.23
4641.25
4735.28
4707.55
4818.99
4787.41
4919.84
4883.65
5039.48
4998.48
5181.15
5134.95
5347.41
5298.11
5536.1
5490.14
5702.59
6133.49
5893.3
6111.8
6393.01
6378.22
6721.16
6694.46
3788.97
3800.57
3812.31
3824.1
3835.96
3847.88
3859.86
3871.93
3884.07
3896.31
3908.65
3921.1
3933.66
3946.35
3959.16
3972.1
3985.16
3998.33
4011.57
4024.94
4039.31
4057.18
4078.41
4099.16
4118.05
4136.98
4157.89
4182.73
4211.7
4244.57
4281.47
4321.75
4363.89
4418.82
4395.72
4466.46
4442.6
4514.72
4490.48
4566.38
4541.19
4616.29
4591.39
4679.87
4652.23
4756.17
4725.12
4847.75
4812.3
4957.25
4916.28
5087.46
5039.99
5244.83
5189.38
5435.45
5373.73
5656.33
5597.05
5849.43
6363.67
6073.46
6331.82
6671.61
6657.69
7052.93
7028.07
3794.71
3806.28
3817.98
3829.74
3841.57
3853.45
3865.41
3877.44
3889.55
3901.76
3914.07
3926.48
3939
3951.64
3964.4
3977.26
3990.23
4003.27
4016.39
4030
4046.2
4066.54
4087.59
4106.48
4124.65
4143.56
4164.91
4190.1
4218.95
4251.03
4286.19
4323.65
4373.6
4353
4417.41
4394.28
4465.96
4441.44
4515.8
4490.26
4570.45
4543.35
4624.8
4597.58
4694.17
4663.51
4777.3
4742.59
4875.95
4836.41
4993.11
4947.2
5133.71
5079.09
5308.54
5242.28
5527.59
5451.18
5787.91
5710.5
6012.04
6634.11
6276.19
6502.58
6534.95
7003.48
6983.29
7403.4
7387.85
3800.4
3811.93
3823.6
3835.33
3847.12
3858.97
3870.89
3882.88
3894.96
3907.14
3919.4
3931.78
3944.26
3956.84
3969.53
3982.31
3995.17
4008.08
4021.22
4035.95
4054.77
4075.94
4095.18
4113.17
4131.24
4150.41
4172.1
4196.98
4224.9
4255.53
4288.38
4322.77
4372.28
4351.62
4415.35
4392.15
4464.73
4439.63
4516.31
4489.4
4574.15
4545.02
4633.34
4603.59
4708.2
4674.43
4797.54
4759.11
4902.42
4858.79
5026.15
4975.21
5177.12
5114.71
5371.71
5293.43
5624.4
5532.05
5931.09
5778.49
5826.33
6168.56
6123.84
6665.8
6876.75
6846.31
6463.7
6418.89
6263.09
6629.57
7290.11
7276.15
7034.3
7239.74
7264.26
7819.91
7482.51
7713.56
7703.21
3806.04
3817.54
3829.18
3840.87
3852.62
3864.43
3876.31
3888.27
3900.31
3912.45
3924.68
3937
3949.43
3961.95
3974.56
3987.24
3999.97
4012.82
4026.48
4043.39
4064.01
4083.93
4101.99
4119.86
4138.26
4157.84
4179.48
4203.44
4229.78
4258.39
4288.54
4330.15
4312.63
4370.21
4349.59
4412.67
4389.42
4462.9
4437.23
4516.24
4487.93
4577.18
4545.96
4641.4
4609
4721.27
4684.39
4816.09
4774.05
4926.13
4878.64
5055.56
4999.68
5217.55
5146.26
5443.13
5397.95
5353.32
5308.82
5728.02
5676.57
5478.13
5568.72
5622.88
5892.17
6073.67
6020.92
5839.55
6213.35
6809.12
7001.99
6584.17
6531.81
6365.79
6764.35
7474.74
7207.74
7429.32
7458.02
8432.38
7948.07
7700.37
7948.61
3811.63
3823.1
3834.7
3846.35
3858.06
3869.83
3881.68
3893.6
3905.6
3917.69
3929.87
3942.14
3954.51
3966.95
3979.46
3992.04
4004.68
4017.68
4032.77
4052
4072.45
4090.85
4108.73
4127
4145.89
4165.81
4187.06
4209.79
4234.37
4260.63
4287.92
4328.47
4311.45
4367.63
4347.32
4409.42
4386.25
4460.47
4434.22
4515.4
4485.75
4579.22
4545.93
4648.48
4613.42
4732.87
4692.9
4832.3
4786.83
4946.52
4895.41
5080.41
5019.63
5266.47
5224.56
5185.76
5147.12
5428.86
5380.04
5331.96
5784.67
5728.08
5514.22
5610.71
5669.75
5963.28
6158.31
6099.63
5904.38
6308.78
6958.81
7167.06
6711.47
6473.23
6651.99
6906.54
7688.87
7390.03
7629.93
7665.62
8551.05
8245.77
8910.32
8901.54
7940.09
8224.92
3817.18
3828.61
3840.18
3851.79
3863.45
3875.18
3886.98
3898.86
3910.82
3922.86
3934.98
3947.19
3959.48
3971.83
3984.25
3996.72
4009.36
4023.09
4040.31
4060.52
4079.64
4097.55
4115.82
4134.66
4154.06
4174.12
4194.87
4216.59
4239.79
4264.37
4295.85
4284.19
4326.7
4310.42
4364.71
4344.84
4405.85
4382.86
4457.4
4430.71
4513.67
4482.85
4580.05
4544.81
4654.14
4616.51
4742.48
4699.6
4845.65
4797.03
4962.7
4908.44
5112.58
5077.6
5046.73
5014.69
5285.67
5241.06
5198.77
5158.54
5460.39
5407.17
5354.99
5844.14
5782.25
5551.5
5654.54
5718.75
6037.25
6247.81
6183.39
5972.71
6410
7116.22
7340.94
6846.43
6587
6779.75
7056.34
7919.86
7582.45
7842.32
7887.12
8517.49
8871.76
9196.27
9202.08
8200.47
3822.69
3834.09
3845.6
3857.16
3868.78
3880.47
3892.22
3904.05
3915.95
3927.93
3940
3952.13
3964.34
3976.61
3988.92
4001.33
4014.23
4029.43
4048.44
4068.1
4086.29
4104.44
4123.35
4142.76
4162.53
4182.5
4202.79
4223.92
4246.39
4270.16
4297.16
4286.37
4325.31
4310.18
4361.74
4342.53
4402.23
4379.61
4453.87
4426.97
4511.14
4479.55
4579.68
4542.84
4658.17
4618.19
4749.82
4704.32
4855.55
4804.27
4986.3
4956.38
4929.39
4901.18
5121.16
5085.67
5052.58
5020.66
5304.77
5256.77
5211.3
5168.65
5492.76
5434.82
5378.16
5906.79
5839.16
5590.08
5700.1
5769.99
6115.51
6342.92
6272.41
6045.09
6517.37
7282.03
7524.52
6989.17
6707.73
6915.26
7214.61
8166.51
7785.81
8066.22
8121.88
8475.75
8821.14
9180.13
9516.49
9517.68
3828.17
3839.51
3850.97
3862.48
3874.04
3885.68
3897.38
3909.15
3921
3932.92
3944.91
3956.98
3969.1
3981.27
3993.5
4005.95
4019.62
4036.7
4056.1
4074.84
4092.9
4111.68
4131.21
4151.09
4170.97
4190.7
4210.58
4231.3
4253.23
4279.4
4270.75
4299.24
4288.94
4324.77
4311
4359.12
4340.82
4398.98
4376.96
4450.27
4423.4
4508.24
4476.26
4578.48
4540.6
4660.59
4618.62
4754.82
4707.24
4861.46
4808.5
4990.51
4960.9
4932.36
4903.85
5129.03
5092.08
5057.57
5024.92
5323.78
5272.06
5223.29
5177.91
5526.05
5463.05
5401.6
5972.82
5898.92
5629.91
5747.51
5823.61
6198.45
6443.78
6366.54
6121.46
6631.38
7457.3
7718.67
7140.05
6835.96
7059
7382.09
8426.24
7999.91
8300.95
8368.29
8762.03
9125.45
9491.59
9845.44
9844.48
3833.58
3844.86
3856.26
3867.72
3879.23
3890.81
3902.46
3914.17
3925.96
3937.82
3949.74
3961.72
3973.75
3985.83
3998.02
4010.76
4025.77
4044.08
4063.04
4081.25
4099.71
4119.17
4139.2
4159.32
4179.1
4198.42
4217.82
4238.02
4259.26
4282.3
4273.39
4301.81
4291.74
4325.47
4312.88
4357.34
4340.18
4396.55
4375.35
4446.97
4420.4
4505.55
4473.47
4577.13
4538.7
4661.74
4618.33
4757.76
4708.71
4878.35
4849.89
4796.74
4823.61
4993.88
4963.84
4934.67
4906.07
5136.04
5097.39
5061.56
5028.04
5342.79
5287.1
5234.86
5186.58
5560.27
5491.89
5425.35
6042.26
5961.58
5671.09
5796.73
5879.63
6285.76
6550.79
6466.06
6201.61
6752.26
7642.86
7923.93
7299.88
6972.1
7211.37
7559.39
8696.73
8224.46
8546.43
8625.17
9054.72
9431.74
9809.44
10159.5
10161.3
3838.91
3850.14
3861.49
3872.89
3884.35
3895.87
3907.46
3919.11
3930.83
3942.62
3954.46
3966.36
3978.3
3990.31
4002.54
4015.98
4032.49
4051.02
4069.44
4087.66
4106.75
4126.75
4147.12
4167.22
4186.64
4205.36
4224.11
4243.62
4266.98
4258.88
4284.79
4275.71
4304.39
4294.32
4327.16
4315.21
4356.79
4340.82
4395.22
4374.91
4444.4
4418.34
4503.47
4471.47
4576.17
4537.5
4662.13
4617.87
4771.54
4746.58
4709.34
4878.94
4851.14
4797.7
4824.23
4996.28
4965.71
4936.12
4907.22
5142.36
5101.9
5064.75
5030.33
5361.88
5302
5246.12
5194.83
5595.46
5521.37
5449.47
6114.95
6026.86
5713.61
5847.54
5937.64
6377.64
6663.81
6570.76
6285.57
6879.92
7839.34
8139.8
7469.23
7116.13
7372.4
7747.21
8976.36
8460.04
8802.96
8892.44
9352.3
9741.7
10124.4
10453.3
10457.5
3844.18
3855.35
3866.64
3877.98
3889.39
3900.85
3912.38
3923.96
3935.61
3947.32
3959.09
3970.89
3982.75
3994.72
4007.22
4021.75
4039.18
4057.46
4075.63
4094.25
4113.9
4134.29
4154.75
4174.62
4193.39
4211.26
4229.29
4247.92
4268.97
4260.7
4286.87
4277.7
4306.68
4296.51
4329.21
4317.51
4357.33
4342.27
4394.77
4375.27
4442.73
4417.21
4502.12
4470.17
4575.94
4537
4662.65
4617.92
4772
4746.53
4722.84
4698.54
4879.39
4851.72
4798.35
4824.75
4997.88
4966.81
4936.9
4907.8
5148.21
5105.91
5067.42
5032.08
5381.09
5316.83
5257.2
5202.83
5631.67
5551.59
5474.07
6190.78
6094.54
5757.56
5899.95
5997.48
6473.75
6782.55
6680.28
6373.05
7014.53
8046.46
8366.48
7648.52
7268.05
7542.35
7945.4
9264.03
8707.32
9070.71
9170.01
9654.84
10052.4
10427.1
10734.1
10735.9
3849.38
3860.49
3871.72
3883
3894.34
3905.74
3917.2
3928.72
3940.3
3951.93
3963.61
3975.33
3987.13
3999.15
4012.21
4027.88
4045.56
4063.59
4081.85
4100.97
4121.08
4141.66
4161.96
4181.28
4199.12
4216.08
4233.35
4254.21
4246.74
4270.53
4262.21
4288.48
4279.27
4308.5
4298.2
4331.21
4319.45
4358.51
4344.04
4394.94
4376.23
4441.72
4416.69
4501.44
4469.5
4576.92
4537.3
4675.02
4652.78
4618.9
4772.65
4747.5
4724.15
4699.87
4879.82
4852.25
4799.29
4825.44
4999.01
4967.52
4937.39
4908.22
5153.79
5109.7
5069.94
5033.76
5400.54
5331.73
5268.21
5210.72
5669.05
5582.7
5499.33
6269.5
6164.56
5803.08
5953.91
6059.14
6573.75
6907.27
6794.83
6463.67
7156.28
8264.58
8604.84
7837.27
7427.76
7720.64
8154.47
9559.23
8966.12
9350.22
9457.64
9961.67
10360
10714.6
11014.5
11010.2
3854.5
3865.55
3876.72
3887.94
3899.22
3910.55
3921.94
3933.39
3944.89
3956.45
3968.04
3979.69
3991.46
4003.69
4017.56
4034.02
4051.64
4069.6
4088.19
4107.77
4128.17
4148.71
4168.59
4187.03
4203.73
4219.88
4236.35
4255.48
4247.91
4271.7
4263.41
4289.59
4280.41
4309.68
4299.32
4332.66
4320.75
4359.99
4345.62
4395.53
4377.01
4441.34
4416.81
4501.28
4469.06
4587.32
4567.32
4536.02
4676.27
4653.02
4609.15
4630.88
4773.81
4748.85
4725.79
4701.44
4880.67
4853.24
4800.74
4826.65
5000.15
4968.37
4938.13
4908.98
5159.33
5113.55
5072.64
5035.74
5420.48
5346.94
5279.4
5218.73
5707.87
5614.94
5525.56
6350.83
6236.73
5849.99
6009.33
6122.62
6677.92
7037.96
6914.26
6557.67
7304.63
8494.34
8854.88
8035.84
7594.7
7907.58
8374.79
9861.99
9237.05
9642.39
9755.73
10272.5
10664
10998.9
11309.3
11299.4
3859.55
3870.54
3881.64
3892.8
3904.01
3915.28
3926.6
3937.97
3949.4
3960.87
3972.39
3983.99
3995.79
4008.42
4023.14
4039.97
4057.53
4075.62
4094.61
4114.55
4135.05
4155.32
4174.47
4191.71
4207.29
4222.73
4241.51
4234.6
4256.39
4248.83
4272.48
4264.26
4290.2
4281.11
4310.15
4299.85
4333.19
4321.22
4360.75
4346.27
4394.79
4376.28
4440.69
4416.09
4499.54
4466.61
4587.11
4565.88
4542.98
4524.03
4677.62
4654.07
4609.16
4631.69
4775.43
4750.52
4727.42
4703.01
4882.26
4854.93
4802.58
4828.42
5001.75
4969.83
4939.58
4910.48
5165.02
5117.64
5075.7
5038.16
5441.25
5362.82
5291.11
5227.13
5747.87
5648.32
5552.97
6434.9
6311.16
5897.93
6066.43
6188.02
6786.16
7174.22
7038.36
6654.89
7459.57
8735.42
9116.9
8244.83
7769.33
8103.66
8605.84
10173.8
9521.6
9948.96
10066.1
10589.5
10973.4
11306.4
11700.7
11668.8
3864.53
3875.44
3886.48
3897.57
3908.72
3919.92
3931.17
3942.47
3953.82
3965.22
3976.67
3988.24
4000.17
4013.36
4028.77
4045.72
4063.33
4081.71
4101.06
4121.23
4141.62
4161.33
4179.4
4195.26
4209.98
4224.74
4242.29
4235.33
4256.99
4249.51
4272.87
4264.76
4290.29
4281.36
4309.88
4299.76
4332.62
4320.77
4360.04
4345.62
4391.77
4373.52
4437.79
4413
4504.83
4487.95
4460.97
4586.26
4564.35
4541.04
4521.13
4678.96
4655.09
4608.81
4631.87
4777.26
4752.23
4728.81
4704.21
4884.34
4856.99
4804.51
4830.43
5003.91
4971.95
4941.66
4912.54
5171.04
5122.08
5079.12
5040.98
5463.21
5379.8
5303.75
5236.24
5788.76
5682.82
5581.76
6521.59
6387.79
5947.07
6124.77
6255.24
6898.31
7316.51
7167.63
6755.25
7621.3
8988.1
9392.43
8464.06
7951.49
8308.81
8847.77
10497.8
9821.64
10272.5
10391.6
10920
11310.3
11687.8
12215.5
12177.8
3869.42
3880.27
3891.24
3902.27
3913.34
3924.47
3935.65
3946.88
3958.15
3969.48
3980.88
3992.46
4004.67
4018.47
4034.32
4051.34
4069.13
4087.84
4107.48
4127.7
4147.74
4166.56
4183.25
4197.84
4211.94
4226.13
4242.81
4235.91
4257.3
4249.94
4272.87
4264.93
4289.88
4281.17
4308.88
4299.08
4330.9
4319.42
4357.61
4343.53
4386.19
4368.58
4431.79
4407
4502
4484.25
4447.5
4462.57
4584.54
4562.32
4537.67
4517.39
4679.78
4655.58
4607.51
4631.01
4779.06
4753.8
4729.36
4704.4
4886.57
4859.07
4806.1
4832.27
5006.48
4974.44
4944.02
4914.81
5177.51
5126.77
5082.73
5044.02
5486.59
5398.08
5317.55
5246.22
5830.6
5718.41
5611.8
6610.81
6466.58
5997.03
6183.78
6323.94
7014.67
7464.61
7301.89
6859.22
7789.06
9253.6
9683.8
8693.25
8141.05
8522.78
9101.8
10840.1
10139.8
10616.9
10737.7
11278.5
11704.6
12163.7
12678.7
12672.1
3874.24
3885.02
3895.93
3906.88
3917.89
3928.94
3940.04
3951.2
3962.4
3973.66
3985.04
3996.7
4009.29
4023.64
4039.75
4056.91
4074.95
4093.98
4113.8
4133.87
4153.23
4170.83
4186
4199.7
4213.34
4229.95
4236.29
4223.62
4243.1
4257.32
4250.11
4272.52
4264.78
4288.97
4280.56
4307.19
4297.82
4328.07
4317.21
4353.38
4340.02
4378.31
4361.61
4423.09
4398.51
4498.1
4479.9
4442.22
4457.71
4581.42
4559.05
4532.64
4512.25
4679.56
4655.01
4604.63
4628.44
4780.31
4754.7
4728.4
4702.94
4888.44
4860.63
4806.7
4833.39
5009.23
4976.99
4946.32
4916.9
5184.47
5131.61
5086.32
5046.94
5511.18
5417.61
5332.55
5257.22
5873.05
5754.51
5642.18
6702.89
6547.19
6047.14
6242.84
6393.42
7135.4
7617.79
7440.64
6966.46
7962.6
9534.22
9993.23
8933.3
8338.19
8746.37
9369.59
11210.1
10478.9
10988.9
11111.8
11682.1
12164.2
12669.9
13101.5
13131.4
3878.97
3889.69
3900.52
3911.41
3922.34
3933.32
3944.35
3955.43
3966.57
3977.79
3989.16
4001.01
4014.02
4028.8
4045.11
4062.47
4080.81
4100.1
4119.93
4139.57
4157.92
4174.03
4187.86
4201.08
4214.24
4236.51
4230.14
4223.82
4243.22
4257.11
4250.07
4271.83
4264.36
4287.63
4279.58
4304.86
4296.03
4324.26
4314.22
4347.48
4335.21
4368.68
4353.07
4421.44
4408.72
4388.05
4492.92
4474.72
4436.04
4451.56
4576.4
4554.03
4525.76
4505.49
4677.66
4652.76
4599.64
4623.64
4780.32
4754.18
4725.24
4699.19
4889.29
4860.9
4805.54
4833.01
5011.73
4979.11
4948.07
4918.25
5192.07
5136.66
5089.72
5049.41
5536.29
5437.93
5348.59
5269.33
5915.4
5790.11
5671.73
6796.56
6627.94
6096.74
6300.96
6462.39
7259.67
7775.68
7582.88
7075.87
8142.72
9831.76
10323.4
9186
8543.7
8981.43
9652.68
11619.3
10844.7
11396.3
11522.2
12138.9
12672.5
13193.8
13577.9
13668.2
3883.62
3894.27
3905.04
3915.85
3926.71
3937.61
3948.57
3959.58
3970.66
3981.86
3993.29
4005.38
4018.81
4033.93
4050.44
4068.04
4086.68
4106.12
4125.75
4144.62
4161.65
4176.16
4189.2
4202.11
4214.88
4236.59
4230.23
4223.99
4243.17
4256.72
4249.87
4270.9
4263.72
4285.91
4278.29
4302
4293.8
4319.64
4310.58
4340.28
4329.38
4357.79
4343.57
4415.09
4402.53
4374.15
4384.12
4486.32
4468.32
4429.05
4444.2
4569.25
4547.03
4517.01
4497.06
4673.48
4648.27
4592.39
4616.42
4778.4
4751.6
4719.32
4692.71
4888.29
4859.02
4801.86
4830.26
5013.46
4980.19
4948.64
4918.14
5200.6
5142.1
5092.78
5050.81
5560.51
5457.58
5364.23
5281.34
5956.68
5823.7
5698.4
6890.58
6707.57
6144.18
6351.46
6529.5
7386.05
7938.72
7727.97
7187.25
8329.58
10148.6
10678.8
9452.43
8757.91
9228.65
9952.3
12075.9
11244.9
11846.7
11977
12648
13230.2
13802.6
14325.1
14442.8
3888.18
3898.77
3909.47
3920.2
3930.99
3941.82
3952.7
3963.65
3974.7
3985.89
3997.43
4009.83
4023.64
4039.03
4055.77
4073.65
4092.55
4111.97
4131.1
4148.86
4164.32
4177.56
4190.27
4202.9
4215.32
4224.11
4236.56
4230.25
4242.99
4256.16
4249.52
4269.77
4262.9
4283.93
4276.78
4298.76
4291.25
4314.45
4306.47
4332.27
4322.86
4367.9
4352.96
4345.67
4333.59
4407.7
4395.47
4377.34
4478.23
4460.59
4421.1
4435.71
4559.9
4537.97
4506.46
4487.02
4666.64
4641.21
4582.81
4606.68
4773.84
4746.34
4710.19
4683.22
4884.46
4854.06
4794.87
4824.23
5013.62
4979.39
4946.97
4915.42
5209.15
5147.3
5094.81
5050.09
5581.12
5473.13
5375.69
5289.46
5994.38
5846.29
5711.77
6977.23
6776.65
6182.53
6424.79
6592.22
7513.52
8108.05
7872.5
7300.58
8522.53
10488.3
11066.2
9733.12
8978.3
9491.82
10271.7
12584.1
11685.9
12343.9
12481.9
13215.6
13866.7
14567.5
15395.9
15419.5
3892.66
3903.19
3913.81
3924.47
3935.17
3945.93
3956.75
3967.65
3978.68
3989.9
4001.61
4014.33
4028.48
4044.13
4061.13
4079.32
4098.37
4117.51
4135.78
4152.13
4166.01
4178.64
4191.14
4203.52
4218.49
4224.21
4224.26
4212.74
4236.45
4230.24
4242.72
4255.48
4249.07
4268.5
4261.95
4281.8
4275.12
4295.32
4288.54
4308.99
4302.13
4323.96
4316.07
4361.12
4346.75
4340.08
4323.84
4399.51
4387.91
4370.02
4468.7
4451.58
4412.24
4426.18
4548.44
4526.95
4494.32
4475.51
4656.95
4631.42
4570.92
4594.42
4766.01
4737.79
4697.63
4670.52
4876.43
4844.85
4783.76
4813.93
5010.79
4974.98
4941.32
4908.61
5214.07
5149
5093.26
5045.28
5590.32
5478.64
5377.85
5288.91
6030.89
5893.54
5702.47
7085.52
6790.9
6186.26
6401.05
6614.85
7637.17
8283.32
8036.1
7429.26
8711.69
10857
11491.7
10028.5
9215.41
9772.08
10615
13150.5
12169.7
12891.2
13041.4
13856
14612.3
15472.9
16297.6
16429.4
3897.06
3907.52
3918.06
3928.64
3939.27
3949.96
3960.72
3971.59
3982.61
3993.91
4005.83
4018.87
4033.33
4049.26
4066.56
4085.05
4104.02
4122.56
4139.61
4154.35
4167.15
4179.56
4191.88
4204.03
4224.31
4218.6
4230.2
4212.85
4236.31
4242.42
4254.74
4248.56
4267.16
4260.93
4279.62
4273.39
4291.89
4285.8
4303.64
4297.84
4315.85
4309.45
4354.19
4340.48
4334.4
4328.8
4319.1
4315.14
4390.69
4379.86
4362.39
4457.86
4441.39
4402.59
4415.73
4535.03
4514.17
4480.75
4462.71
4644.3
4618.92
4556.92
4579.83
4754.28
4725.57
4681.47
4654.6
4862.79
4830.21
4767.85
4798.52
5003.16
4965.32
4930.32
4896.23
5210.97
5143.59
5086.05
5036.74
5584.04
5474.02
5373.57
5284.33
6043.28
5871.33
5698.59
7057.63
6785.9
6181.88
6395.25
6610.94
7686.25
8467.88
8012.6
7408.5
8793.77
11260.6
11957.4
10341.6
9199.99
10057.9
9637.9
10989.9
13784.5
12699.2
13495.6
13664.3
14582.2
15467.5
16473.8
17416.6
17656.2
3901.37
3911.76
3922.22
3932.72
3943.27
3953.9
3964.62
3975.47
3986.51
3997.92
4010.09
4023.44
4038.22
4054.46
4072.14
4090.77
4109.35
4126.89
4142.44
4155.71
4168.1
4180.37
4192.54
4204.58
4230.15
4224.35
4218.72
4236.15
4213.02
4242.1
4254.02
4248.07
4265.85
4259.95
4277.47
4271.7
4288.59
4283.12
4298.69
4293.79
4308.41
4303.41
4347.21
4334.26
4323.42
4314.48
4311.07
4381.4
4371.44
4354.62
4445.85
4430.17
4392.41
4404.64
4519.87
4499.82
4466
4448.92
4628.71
4603.78
4540.93
4562.98
4738.13
4709.32
4661.63
4635.43
4842.96
4809.44
4746.88
4777.49
4993.18
4952.34
4913.92
4877.86
5205.68
5137.62
5079.55
5029.64
5580.4
5470.47
5370.12
5280.96
6039.74
5866.57
5694.94
7051.45
6781.16
6177.72
6390.4
6606.87
7681.78
8448.8
8005.18
7401.61
8788.29
11713.7
12462.2
10681
9191.83
10062.6
9628.26
11389.6
14491.6
13277.3
14157.6
14350.3
15395.9
16415.8
17613.1
20437.8
19311.4
3905.59
3915.91
3926.28
3936.7
3947.19
3957.76
3968.45
3979.3
3990.38
4001.95
4014.39
4028.05
4043.16
4059.81
4077.85
4096.28
4114.09
4130.29
4144.24
4156.73
4168.96
4181.11
4193.19
4205.15
4213.23
4235.98
4230.09
4224.41
4218.88
4241.79
4253.34
4247.59
4264.64
4259.03
4275.5
4270.14
4285.59
4280.67
4294.36
4290.17
4302.15
4298.24
4340.26
4328.23
4318.25
4310.29
4307.49
4371.83
4362.79
4346.84
4432.95
4418.17
4381.88
4393.16
4503.18
4484.11
4450.38
4434.39
4610.24
4586.07
4523.17
4544.09
4717.39
4688.98
4638.35
4613.16
4820.11
4784.23
4721.45
4751.79
4985.02
4926.72
4892.76
4856.69
5202.34
5134.28
5076.11
5026.04
5576.89
5467.09
5366.77
5277.7