/*--------------------------------*- C++ -*----------------------------------*\
  =========                 |
  \\      /  F ield         | OpenFOAM: The Open Source CFD Toolbox
   \\    /   O peration     | Website:  https://openfoam.org
    \\  /    A nd           | Version:  dev
     \\/     M anipulation  |
\*---------------------------------------------------------------------------*/
FoamFile
{
    version     2.0;
    format      ascii;
    class       volScalarField;
    location    "2500";
    object      H2O;
}
// * * * * * * * * * * * * * * * * * * * * * * * * * * * * * * * * * * * * * //

dimensions      [0 0 0 0 0 0 0];

internalField   nonuniform List<scalar> 
9842
(
2.34179e-32
7.24666e-32
4.00505e-32
1.23997e-31
1.70575e-31
4.57818e-32
2.08785e-31
3.13285e-31
1.87231e-31
1.5774e-32
1.92655e-31
6.16644e-31
4.27429e-31
1.58609e-31
6.28775e-33
2.56831e-31
1.03149e-30
7.24252e-31
3.14596e-31
8.77286e-32
4.00647e-33
4.48575e-31
1.47658e-30
1.49656e-30
7.24739e-31
1.89532e-31
2.46671e-32
8.81062e-34
6.6027e-31
1.88308e-30
2.22448e-30
1.42924e-30
5.25726e-31
9.78962e-32
1.44291e-32
8.36867e-34
4.89836e-31
2.7402e-30
3.59867e-30
3.07597e-30
1.48598e-30
4.40588e-31
5.39e-32
7.24396e-33
1.76522e-34
4.47516e-31
3.47655e-30
5.38564e-30
4.63087e-30
2.64129e-30
9.79409e-31
2.31551e-31
3.50338e-32
2.62128e-33
1.75986e-34
4.86706e-31
3.78574e-30
7.29325e-30
7.71408e-30
4.97236e-30
2.49844e-30
8.23671e-31
1.02726e-31
1.31685e-32
3.21751e-33
2.92782e-33
1.02711e-30
3.97462e-30
8.31678e-30
1.10065e-29
8.70156e-30
4.02682e-30
1.93446e-30
3.72245e-31
6.18641e-32
3.87061e-32
6.21919e-32
7.08636e-32
1.99319e-30
4.79593e-30
8.77459e-30
1.49044e-29
1.31221e-29
8.56686e-30
3.73689e-30
1.1645e-30
5.07113e-31
4.94508e-31
8.49417e-31
1.61218e-30
1.20232e-30
3.62857e-30
9.87346e-30
1.36915e-29
1.9407e-29
1.91859e-29
1.25124e-29
8.11538e-30
4.52741e-30
3.67252e-30
8.03039e-30
1.36104e-29
2.59612e-29
3.51196e-29
2.98657e-29
8.4412e-30
1.94192e-29
2.62182e-29
2.54505e-29
3.14973e-29
2.54579e-29
1.98969e-29
2.41208e-29
3.71062e-29
9.52531e-29
2.1421e-28
3.78147e-28
5.70142e-28
6.80852e-28
5.21582e-28
1.32028e-29
4.33289e-29
5.56597e-29
4.68119e-29
5.80419e-29
7.11618e-29
1.13255e-28
1.94856e-28
4.27882e-28
9.78478e-28
2.69934e-27
4.97784e-27
8.84978e-27
1.12221e-26
1.42562e-26
1.29724e-26
3.72387e-29
9.93906e-29
1.35693e-28
1.24925e-28
1.71353e-28
3.73751e-28
9.69411e-28
2.06301e-27
4.82626e-27
9.42098e-27
2.924e-26
6.29349e-26
1.12109e-25
1.79514e-25
1.88763e-25
2.41454e-25
1.43709e-25
1.03531e-28
2.95673e-28
3.61858e-28
3.17876e-28
7.55346e-28
2.60659e-27
7.60506e-27
2.0559e-26
4.48654e-26
1.22405e-25
2.80251e-25
6.95697e-25
1.41835e-24
2.17109e-24
3.55491e-24
3.87253e-24
3.54898e-24
3.52166e-24
2.37748e-28
6.5526e-28
8.64067e-28
9.4984e-28
3.01634e-27
1.91534e-26
6.88163e-26
1.73765e-25
3.9363e-25
1.06635e-24
3.12093e-24
7.97591e-24
1.82555e-23
3.25321e-23
3.8721e-23
6.17121e-23
4.67092e-23
3.70974e-23
5.38479e-23
5.06949e-28
1.38294e-27
2.07993e-27
2.65888e-27
1.12563e-26
1.00648e-25
5.3262e-25
1.49006e-24
4.01654e-24
1.02248e-23
2.8152e-23
7.67857e-23
2.03409e-22
4.18235e-22
6.27025e-22
7.71228e-22
9.18522e-22
5.91926e-22
5.88562e-22
7.95211e-22
7.81086e-28
2.54314e-27
4.23231e-27
6.92285e-27
3.23173e-26
4.31301e-25
3.15206e-24
1.25279e-23
3.27432e-23
8.00997e-23
2.24893e-22
7.28612e-22
1.87346e-21
4.08411e-21
7.52234e-21
8.63622e-21
9.74842e-21
1.10619e-20
7.7351e-21
1.14426e-20
8.11068e-21
8.60982e-28
4.61518e-27
7.7146e-27
1.42051e-26
9.94972e-26
1.38902e-24
1.49658e-23
7.66633e-23
2.52588e-22
6.9723e-22
2.07196e-21
5.14873e-21
1.88604e-20
3.83966e-20
7.73521e-20
1.21525e-19
1.47687e-19
1.28606e-19
1.01766e-19
1.23432e-19
1.303e-19
6.08027e-20
9.67457e-28
6.1201e-27
1.60305e-26
2.39938e-26
2.27492e-25
4.53337e-24
5.28492e-23
4.18999e-22
1.63481e-21
5.41838e-21
1.38826e-20
5.25237e-20
1.28493e-19
4.19401e-19
7.12138e-19
1.39707e-18
1.76986e-18
2.25703e-18
1.45584e-18
1.32879e-18
1.51418e-18
1.32519e-18
3.50613e-19
1.31873e-27
6.09699e-27
2.32943e-26
4.49193e-26
4.02743e-25
1.1292e-23
1.91065e-22
1.657e-21
9.96331e-21
3.34787e-20
1.1095e-19
2.8593e-19
1.22799e-18
3.35562e-18
7.71909e-18
1.43058e-17
2.03039e-17
2.0901e-17
2.45282e-17
1.52451e-17
2.11062e-17
1.67361e-17
1.12857e-17
5.33158e-18
2.08831e-27
9.31614e-27
3.10942e-26
6.67697e-26
5.21422e-25
2.15901e-23
5.59649e-22
6.71979e-21
4.55646e-20
2.47773e-19
7.69324e-19
2.40224e-18
8.01795e-18
2.52818e-17
6.16158e-17
1.21565e-16
1.97574e-16
1.8503e-16
2.20371e-16
2.04754e-16
1.73166e-16
1.51631e-16
1.04539e-16
6.44977e-17
2.44934e-17
7.61208e-27
1.75507e-26
4.5041e-26
9.39102e-26
5.98767e-25
2.92176e-23
1.13883e-21
2.25225e-20
1.87728e-19
1.09137e-18
5.26338e-18
1.88642e-17
6.23254e-17
1.78699e-16
4.40776e-16
9.30057e-16
1.65008e-15
2.40753e-15
1.65111e-15
1.47517e-15
1.25274e-15
9.76268e-16
8.27009e-16
5.72208e-16
2.19497e-16
1.09653e-16
1.18837e-26
4.16375e-26
8.25848e-26
1.30135e-25
6.1417e-25
3.36182e-23
1.67646e-21
5.19899e-20
7.34041e-19
5.20165e-18
2.45659e-17
1.09023e-16
3.75706e-16
1.2037e-15
3.07399e-15
6.7134e-15
1.18192e-14
1.65725e-14
1.89245e-14
1.44868e-14
1.25374e-14
9.90173e-15
7.04347e-15
4.94589e-15
2.47453e-15
1.24644e-15
6.46081e-16
3.07847e-26
7.439e-26
1.32824e-25
1.78195e-25
5.91084e-25
3.09099e-23
2.06642e-21
8.68881e-20
1.92448e-18
1.98127e-17
1.26709e-16
5.93723e-16
2.18482e-15
8.15892e-15
2.54515e-14
6.25656e-14
1.1831e-13
1.715e-13
2.1185e-13
1.63422e-13
1.39239e-13
1.11659e-13
8.01217e-14
5.18299e-14
2.99669e-14
1.49883e-14
6.28471e-15
9.13038e-16
1.57957e-25
2.28335e-25
2.85609e-25
2.9643e-25
6.17917e-25
2.24034e-23
1.97009e-21
1.13955e-19
3.77948e-18
5.80594e-17
4.69217e-16
2.81442e-15
1.32803e-14
5.64009e-14
1.99129e-13
5.42972e-13
1.12178e-12
1.74972e-12
2.11565e-12
1.87785e-12
1.51279e-12
1.20379e-12
8.69208e-13
5.67365e-13
3.37979e-13
1.79055e-13
8.26229e-14
3.03642e-14
3.92798e-15
6.94565e-25
9.01384e-25
7.09208e-25
7.51959e-25
1.02771e-24
1.48028e-23
1.53498e-21
1.15373e-19
5.43807e-18
1.30905e-16
1.63501e-15
1.15389e-14
6.91617e-14
3.53019e-13
1.42381e-12
4.39248e-12
9.96522e-12
1.67275e-11
2.15805e-11
2.34191e-11
1.58435e-11
1.25384e-11
8.93113e-12
5.8205e-12
3.48839e-12
1.9532e-12
9.46566e-13
4.06213e-13
1.32574e-13
1.38303e-14
2.80529e-24
4.20118e-24
2.68006e-24
2.0011e-24
2.11242e-24
8.94865e-24
9.91301e-22
9.72872e-20
6.01132e-18
2.15828e-16
3.8968e-15
4.08686e-14
3.0381e-13
1.86534e-12
9.03481e-12
3.20227e-11
8.15486e-11
1.48681e-10
2.05009e-10
2.40067e-10
1.60949e-10
1.25678e-10
8.83215e-11
5.61399e-11
3.32985e-11
1.85047e-11
9.44295e-12
4.39461e-12
1.72021e-12
4.88076e-13
3.82428e-14
1.54031e-23
2.63989e-23
1.61794e-23
9.26824e-24
4.78335e-24
7.02063e-24
5.17789e-22
6.56609e-20
5.44294e-18
2.63802e-16
7.03082e-15
1.11598e-13
1.13491e-12
8.2853e-12
4.84918e-11
2.05904e-10
5.95569e-10
1.20777e-09
1.76953e-09
2.2705e-09
1.66046e-09
1.22618e-09
8.35175e-10
5.12923e-10
2.91693e-10
1.59174e-10
8.25921e-11
4.015e-11
1.7196e-11
6.19324e-12
1.38393e-12
6.68824e-14
5.21495e-23
1.1854e-22
9.29996e-23
5.88916e-23
2.01624e-23
1.24617e-23
2.39391e-22
3.4931e-20
3.95063e-18
2.59031e-16
9.45849e-15
2.15504e-13
3.15631e-12
3.09538e-11
2.21426e-10
1.12696e-09
3.80438e-09
8.55856e-09
1.4071e-08
1.7674e-08
1.83051e-08
1.16367e-08
7.62024e-09
4.42067e-09
2.40029e-09
1.25316e-09
6.41969e-10
3.15024e-10
1.43427e-10
5.79547e-11
1.70949e-11
2.46404e-12
4.10413e-14
3.72795e-22
6.22926e-22
4.90276e-22
2.92465e-22
1.44733e-22
3.93911e-23
9.81674e-23
1.63341e-20
2.12076e-18
2.08046e-16
1.00695e-14
2.95742e-13
6.02343e-12
8.63337e-11
8.42391e-10
5.41292e-09
2.08004e-08
5.18253e-08
9.34484e-08
1.43259e-07
1.59684e-07
1.04434e-07
6.76733e-08
3.70326e-08
1.89044e-08
9.42216e-09
4.64093e-09
2.26194e-09
1.05475e-09
4.51551e-10
1.53394e-10
2.88238e-11
1.46617e-12
3.41529e-16
2.19967e-14
9.16333e-22
2.6984e-21
2.32123e-21
1.2285e-21
7.68999e-22
2.64856e-22
1.04026e-22
5.66188e-21
1.02563e-18
1.14425e-16
8.88831e-15
3.33875e-13
8.80083e-12
1.70039e-10
2.34252e-09
1.91365e-08
9.78721e-08
2.61239e-07
5.12851e-07
8.95912e-07
1.03096e-06
8.66587e-07
5.80794e-07
3.12939e-07
1.49253e-07
6.89604e-08
3.2312e-08
1.52024e-08
7.10782e-09
3.13446e-09
1.1765e-09
2.59485e-10
1.05641e-11
1.64176e-13
9.77993e-13
1.27802e-15
2.96463e-14
4.7107e-21
9.91931e-21
1.13364e-20
8.11305e-21
4.29302e-21
1.23623e-21
4.52189e-22
2.16589e-21
3.75176e-19
5.62121e-17
5.39779e-15
3.13961e-13
1.00394e-11
2.50815e-10
4.37468e-09
4.75516e-08
2.99137e-07
9.54395e-07
2.19877e-06
4.41549e-06
6.29034e-06
6.28311e-06
4.48967e-06
2.49469e-06
1.17151e-06
5.0949e-07
2.1961e-07
9.81451e-08
4.45942e-08
2.00038e-08
8.12985e-09
2.11591e-09
3.75681e-11
9.09917e-11
3.55436e-12
3.08546e-11
1.34037e-11
2.35131e-13
1.37922e-12
2.22594e-15
5.73113e-14
1.64932e-20
6.00625e-20
4.90703e-20
3.47708e-20
1.86128e-20
7.79271e-21
2.61609e-21
1.23593e-21
1.37812e-19
2.20178e-17
2.6217e-15
2.01763e-13
9.75723e-12
2.85032e-10
6.16375e-09
8.35623e-08
6.46678e-07
2.29356e-06
7.35834e-06
1.76201e-05
3.032e-05
3.62154e-05
2.93916e-05
1.7391e-05
8.36246e-06
3.58734e-06
1.45962e-06
6.08055e-07
2.63857e-07
1.16652e-07
4.9798e-08
1.54923e-08
2.39658e-10
6.60271e-10
8.05043e-11
6.63064e-12
4.82503e-11
2.90526e-11
5.05033e-13
3.15815e-12
4.20789e-15
1.21898e-13
7.55238e-20
2.74102e-19
1.64005e-19
1.3663e-19
8.42693e-20
4.15286e-20
1.40657e-20
3.51644e-21
4.32855e-20
8.23182e-18
1.06633e-15
1.03146e-13
6.28424e-12
2.84772e-10
6.74078e-09
1.13714e-07
1.03269e-06
4.31204e-06
1.7419e-05
4.94076e-05
9.90382e-05
0.000141844
0.000139383
9.74433e-05
5.21012e-05
2.27315e-05
9.05316e-06
3.56578e-06
1.46382e-06
6.28489e-07
2.71917e-07
1.00212e-07
1.85781e-09
5.16794e-09
2.3614e-10
7.09849e-10
1.687e-10
1.68933e-11
1.2187e-10
8.60754e-11
1.18229e-12
8.30588e-12
8.90046e-15
2.90342e-13
4.2685e-19
1.2066e-18
7.84864e-19
7.09425e-19
3.84921e-19
1.88847e-19
6.37404e-20
1.58839e-20
1.7141e-20
2.62273e-18
4.0166e-16
4.47655e-14
3.36047e-12
1.78319e-10
6.1721e-09
1.19596e-07
1.32907e-06
6.3661e-06
3.02694e-05
9.53843e-05
0.000208418
0.00033014
0.000392146
0.000351807
0.000234161
0.000118906
5.08775e-05
1.95211e-05
7.60207e-06
3.13547e-06
1.33651e-06
5.53526e-07
1.47343e-08
4.05604e-08
2.0994e-09
6.05741e-09
5.74908e-10
1.92816e-09
5.06344e-10
5.52901e-11
4.58146e-10
4.00172e-10
3.25391e-12
3.00489e-11
2.34823e-14
8.56857e-13
2.37119e-18
4.01551e-18
4.15931e-18
3.13428e-18
1.82831e-18
7.67273e-19
3.458e-19
1.02643e-19
2.23867e-20
7.90243e-19
1.30798e-16
1.66628e-14
1.48642e-12
9.46804e-11
4.04977e-09
1.07276e-07
1.40329e-06
7.73254e-06
4.19259e-05
0.0001445
0.00033035
0.000535231
0.000671474
0.000689904
0.000590013
0.0003986
0.000199855
8.57047e-05
3.36752e-05
1.34895e-05
5.68824e-06
2.52045e-06
1.13687e-07
3.00023e-07
1.68931e-08
4.56513e-08
6.2542e-09
1.95168e-08
2.09326e-09
8.59025e-09
2.57014e-09
3.03915e-10
3.02293e-09
3.15821e-09
1.28606e-11
1.83335e-10
8.82726e-14
3.84086e-12
1.15995e-17
1.52745e-17
1.37489e-17
1.14423e-17
6.01399e-18
3.8473e-18
1.61598e-18
4.74245e-19
1.21523e-19
2.48206e-19
3.88574e-17
5.47143e-15
5.782e-13
4.017e-11
2.19675e-09
7.31758e-08
1.30503e-06
8.01285e-06
4.84402e-05
0.000183106
0.000439463
0.000727951
0.000934376
0.00102074
0.000979608
0.000813343
0.000550754
0.000277032
0.000119825
4.91605e-05
2.0636e-05
9.37486e-06
7.97278e-07
1.93351e-06
1.19689e-07
3.11496e-07
5.83125e-08
1.66311e-07
3.35884e-08
1.21779e-07
1.38386e-08
6.77704e-08
2.15794e-08
2.60408e-09
2.83142e-08
3.08944e-08
8.31253e-11
1.61174e-09
5.27042e-13
2.68066e-11
7.72801e-17
8.40782e-17
5.80463e-17
3.68605e-17
2.07005e-17
1.48862e-17
6.08227e-18
2.08259e-18
5.00894e-19
1.73973e-19
1.12846e-17
1.63795e-15
2.02165e-13
1.57431e-11
8.54773e-10
3.8386e-08
9.48457e-07
7.46984e-06
4.93629e-05
0.000202615
0.000515581
0.00088364
0.00115284
0.00130171
0.00134098
0.00126008
0.00102837
0.000681404
0.000336308
0.000148626
6.47445e-05
3.01109e-05
4.74126e-06
1.02824e-05
8.1997e-07
2.16302e-06
4.53445e-07
1.20095e-06
4.11731e-07
1.28178e-06
2.95305e-07
1.13353e-06
1.30315e-07
6.52947e-07
2.10357e-07
2.57045e-08
2.77762e-07
3.00045e-07
7.30734e-10
1.58378e-08
4.36384e-12
2.39985e-10
4.31442e-16
5.66431e-16
3.70365e-16
1.92906e-16
8.87212e-17
4.42432e-17
2.18085e-17
7.64321e-18
2.64103e-18
5.16154e-19
2.90791e-18
4.47639e-16
6.33676e-14
5.72172e-12
3.48791e-10
1.62961e-08
5.47164e-07
5.78426e-06
4.53764e-05
0.000204572
0.000550991
0.000981422
0.00129266
0.00146975
0.00157801
0.00161417
0.00151935
0.00122701
0.000787927
0.000378954
0.000175687
8.84967e-05
2.26567e-05
4.68921e-05
5.53415e-06
1.35256e-05
3.04287e-06
7.62771e-06
3.68053e-06
9.61544e-06
3.90598e-06
1.16273e-05
2.80709e-06
1.01727e-05
1.24636e-06
5.86196e-06
1.93937e-06
2.49309e-07
2.50057e-06
2.65312e-06
7.18036e-09
1.5507e-07
4.21007e-11
2.33915e-09
3.96338e-15
5.80215e-15
2.69641e-15
1.08783e-15
4.11378e-16
2.17851e-16
8.3778e-17
4.13571e-17
1.37766e-17
2.84191e-18
1.21685e-18
1.20453e-16
1.78262e-14
1.87904e-12
1.28882e-10
5.68952e-09
2.42243e-07
3.82802e-06
3.60578e-05
0.000193938
0.000558336
0.00102096
0.00130741
0.00149296
0.00163595
0.0017553
0.00182837
0.00173978
0.00139134
0.00086662
0.000424609
0.000229872
9.92063e-05
0.00017971
3.21219e-05
7.85565e-05
1.8908e-05
4.51134e-05
2.36321e-05
5.41343e-05
3.06764e-05
7.21465e-05
3.10311e-05
8.14224e-05
2.23856e-05
6.86899e-05
1.03925e-05
4.13254e-05
1.52084e-05
2.23e-06
1.88561e-05
1.96665e-05
7.15729e-08
1.43743e-06
4.3398e-10
2.31353e-08
3.99803e-14
6.04463e-14
3.11072e-14
1.07912e-14
3.31877e-15
9.16987e-16
3.67205e-16
1.6532e-16
5.86836e-17
1.53961e-17
3.04476e-18
3.16263e-17
4.61585e-15
5.67003e-13
4.24944e-11
2.19615e-09
9.23419e-08
2.3141e-06
2.26103e-05
0.000158595
0.000534577
0.000985618
0.00124606
0.00142374
0.00157524
0.00173652
0.00189045
0.00200845
0.00193131
0.001527
0.000953689
0.000553029
0.00032524
0.000435543
0.000158615
0.000309857
0.000102631
0.000213563
0.000117019
0.000225519
0.000156702
0.000294348
0.000186661
0.000368268
0.000177473
0.00039694
0.000130218
0.000328841
6.54787e-05
0.00021013
8.83253e-05
1.70196e-05
0.00010414
0.000106887
6.93581e-07
1.17938e-05
4.67997e-09
2.27952e-07
3.31739e-13
6.09034e-13
3.57343e-13
1.22993e-13
3.31184e-14
7.55774e-15
2.00645e-15
5.59816e-16
2.34963e-16
6.96671e-17
1.07196e-17
9.78746e-18
1.11707e-15
1.57081e-13
1.34363e-11
7.82451e-10
3.07705e-08
1.07747e-06
1.23042e-05
0.000111003
0.000460691
0.000912215
0.00112119
0.00125672
0.00136235
0.00155926
0.00181684
0.00203508
0.00219934
0.00212824
0.00169035
0.0011601
0.000952788
0.000451724
0.000743104
0.000357579
0.000553329
0.000367392
0.000541315
0.000466984
0.000660962
0.000601688
0.000854689
0.000705565
0.00104322
0.00070447
0.00114929
0.00053846
0.00107663
0.000297484
0.000760495
0.000370774
9.48404e-05
0.000415195
0.000418001
6.25703e-06
7.14335e-05
5.19725e-08
2.22981e-06
2.17367e-12
4.82758e-12
3.53111e-12
1.39112e-12
3.71431e-13
7.94132e-14
1.4869e-14
3.64554e-15
9.44351e-16
2.59482e-16
6.75819e-17
1.06719e-17
2.47386e-16
3.97391e-14
3.98501e-12
2.50462e-10
8.78554e-09
3.86437e-07
6.9674e-06
6.83744e-05
0.000353923
0.000820625
0.00101136
0.00106036
0.000999585
0.00112538
0.00147601
0.00190586
0.00221326
0.00242977
0.00237776
0.00197167
0.00164617
0.00132413
0.00170967
0.000768757
0.00105332
0.000742364
0.000979807
0.000869411
0.00109334
0.00111198
0.00136525
0.00138802
0.0017164
0.00160761
0.00203235
0.00165879
0.002242
0.00146607
0.00220329
0.000970978
0.00181112
0.00112164
0.000377155
0.00119185
0.00117391
4.36135e-05
0.000304699
5.61105e-07
1.92219e-05
1.01462e-11
2.75609e-11
2.63449e-11
1.32732e-11
4.17739e-12
9.79917e-13
1.54492e-13
2.44952e-14
6.54129e-15
1.04494e-15
2.30886e-16
5.44081e-17
6.98091e-17
9.30505e-15
1.09712e-12
7.58981e-11
3.43623e-09
1.1968e-07
3.12143e-06
3.6239e-05
0.000247218
0.000713332
0.000921724
0.000901102
0.000701899
0.000790191
0.0010658
0.00147476
0.00204131
0.00244656
0.00272642
0.0027356
0.00247506
0.00204115
0.00249881
0.0018769
0.00224219
0.00124713
0.00154609
0.00133259
0.00160106
0.001613
0.00186451
0.00201831
0.00229308
0.00243699
0.0027773
0.00273825
0.00312426
0.00284412
0.00325441
0.00267432
0.0032394
0.00210829
0.00302513
0.00229389
0.00106967
0.00235167
0.00229644
0.000217068
0.000903922
5.9941e-06
0.000130692
2.76176e-11
9.97081e-11
1.34356e-10
9.48001e-11
3.90648e-11
1.15325e-11
1.96237e-12
2.64192e-13
4.8807e-14
8.03753e-15
1.13043e-15
1.8337e-16
5.37854e-17
2.06808e-15
2.77728e-13
2.21807e-11
1.16577e-09
3.79817e-08
1.16819e-06
1.60123e-05
0.000152226
0.000575205
0.000844608
0.000815713
0.000517145
0.000555288
0.000780465
0.00112678
0.00161234
0.00225945
0.00275863
0.00311706
0.00327208
0.00287592
0.0032563
0.00262912
0.00304809
0.00254566
0.0029055
0.00189357
0.00220756
0.00212106
0.00239814
0.0025501
0.00279914
0.00305862
0.00329306
0.00337392
0.00354685
0.0034797
0.00360252
0.00350058
0.00359503
0.00346588
0.00359589
0.00323008
0.00359691
0.00334506
0.00213838
0.0033813
0.00331892
0.000720818
0.00187963
5.46622e-05
0.000535976
3.5432e-11
1.98889e-10
3.69448e-10
4.29669e-10
2.68005e-10
1.1222e-10
2.04897e-11
2.48078e-12
2.89118e-13
5.03432e-14
5.96602e-15
7.96809e-16
1.35379e-16
4.73198e-16
6.46068e-14
6.11722e-12
3.51646e-10
1.05703e-08
3.79807e-07
7.5656e-06
8.04806e-05
0.00041245
0.000770131
0.000776495
0.000436586
0.000398212
0.000578569
0.000963208
0.00141719
0.00194787
0.00260165
0.00315693
0.00361877
0.00403192
0.0034039
0.00386701
0.00328151
0.00364815
0.00329953
0.00362057
0.00268902
0.00298894
0.0030424
0.00328918
0.00348748
0.00365952
0.00368229
0.00379932
0.003677
0.00374827
0.00364064
0.00364516
0.00361507
0.00356205
0.00365991
0.00358053
0.00368819
0.00369284
0.00376363
0.00313086
0.00382669
0.00385352
0.00157704
0.00283748
0.000359298
0.00127682
1.75283e-10
6.23339e-10
1.02444e-09
1.11164e-09
7.11381e-10
1.49893e-10
2.04628e-11
2.35054e-12
2.96777e-13
4.13799e-14
4.609e-15
6.0537e-16
2.02705e-16
1.40292e-14
1.56539e-12
1.00998e-10
4.12926e-09
1.22124e-07
3.4085e-06
3.58876e-05
0.000259126
0.000676232
0.000754415
0.000433864
0.000308581
0.000420172
0.000821265
0.00135092
0.00184893
0.00238653
0.00302659
0.00364474
0.00420402
0.00445193
0.00455922
0.00399426
0.00427062
0.0039363
0.00423238
0.00400702
0.00424411
0.00353229
0.00376952
0.00382227
0.00398067
0.00391103
0.00402607
0.00381951
0.00389993
0.003646
0.00365123
0.00342869
0.00331739
0.00335017
0.00312538
0.00349448
0.00314314
0.00373471
0.00343212
0.00380466
0.00381389
0.00390176
0.00399525
0.00245474
0.00361146
0.00020128
0.00149012
3.96481e-10
1.54374e-09
2.43364e-09
2.6195e-09
8.69102e-10
1.43054e-10
1.80816e-11
1.92913e-12
2.4057e-13
3.12817e-14
3.07429e-15
4.5222e-16
2.9088e-15
3.69381e-13
2.75423e-11
1.36117e-09
3.92019e-08
1.06618e-06
1.36124e-05
0.000140033
0.000528764
0.000730941
0.000460218
0.00027363
0.000311617
0.000593538
0.00117834
0.00176408
0.00229499
0.00288721
0.00354049
0.00412017
0.00455948
0.00447402
0.00471846
0.00470812
0.004487
0.00465046
0.004478
0.00467221
0.00446711
0.00463784
0.00413809
0.00429851
0.0041467
0.00427318
0.0039935
0.00410722
0.00368797
0.00378063
0.00329469
0.00336023
0.00305372
0.00306938
0.00298501
0.00295195
0.00305859
0.00295085
0.00342075
0.00304186
0.00349937
0.00405882
0.00365094
0.0037696
0.00397595
0.00308396
0.00401015
0.000232355
0.00201072
7.92134e-10
3.34225e-09
5.01125e-09
3.32632e-09
8.07093e-10
1.18074e-10
1.27671e-11
1.22561e-12
1.18929e-13
1.61531e-14
1.50698e-15
8.66302e-16
8.0774e-14
7.16296e-12
3.77259e-10
1.05588e-08
3.3698e-07
6.89196e-06
6.40913e-05
0.000351269
0.0006763
0.000537864
0.000273559
0.000257332
0.000400407
0.000732656
0.00133021
0.00199536
0.00259249
0.00319969
0.00378998
0.00426835
0.00464853
0.004509
0.004817
0.00475643
0.00479208
0.00483402
0.00478599
0.00488267
0.00470075
0.00483689
0.00440831
0.00455218
0.0042384
0.00438364
0.0039272
0.00409583
0.00350785
0.00370098
0.00313844
0.00328138
0.00297201
0.0030265
0.00295634
0.00305572
0.00296783
0.0031509
0.00308709
0.00303619
0.00300852
0.00334733
0.00314033
0.00387061
0.00409007
0.00398221
0.00353249
0.00327932
0.00320137
0.00363081
0.00314862
0.00377777
0.00406815
0.00413725
0.00407193
0.000524399
0.00350016
0.00222138
0.00328443
1.36982e-09
6.04794e-09
7.34946e-09
3.14117e-09
6.2645e-10
7.5445e-11
7.51131e-12
6.77257e-13
5.6868e-14
7.50901e-15
9.92733e-16
1.66878e-14
1.73443e-12
1.04666e-10
4.04805e-09
1.08873e-07
2.86795e-06
2.56337e-05
0.000197667
0.00056156
0.000607023
0.000296541
0.000242848
0.000296909
0.000438234
0.000757029
0.00129533
0.00197972
0.00267133
0.00326203
0.00374535
0.00417901
0.00390749
0.00462067
0.00441871
0.0048249
0.00466632
0.00490749
0.00489051
0.00492177
0.00494706
0.00483222
0.00492384
0.0045346
0.00469072
0.00427547
0.00445796
0.00391289
0.00413877
0.00348504
0.00373015
0.00312137
0.00327422
0.00312608
0.00313138
0.00323633
0.003366
0.00344009
0.00347576
0.00316803
0.00338646
0.00360643
0.00386076
0.00361451
0.00308408
0.00307945
0.00312494
0.00324222
0.00311903
0.00376049
0.00389561
0.00338457
0.00324356
0.00317534
0.00350322
0.00397996
0.00402416
0.00413409
0.00415583
0.0019847
0.00291115
0.00385739
0.00378497
2.17495e-09
8.89998e-09
7.8612e-09
2.51351e-09
3.77595e-10
4.07987e-11
3.79322e-12
3.16133e-13
2.86283e-14
2.88149e-15
3.55832e-15
3.89098e-13
2.72243e-11
1.28577e-09
3.43316e-08
8.48726e-07
9.95353e-06
9.41347e-05
0.000397591
0.000613017
0.000382955
0.000246711
0.000257568
0.00031952
0.000433947
0.000671471
0.00105298
0.00159124
0.00220684
0.00271181
0.00287867
0.00384676
0.00329839
0.00444317
0.00416097
0.00465598
0.0043936
0.00492773
0.00484631
0.00495301
0.00492551
0.00489579
0.00492173
0.0046389
0.00479192
0.00436259
0.00456499
0.00399162
0.00423861
0.00350057
0.00376758
0.00312934
0.00321767
0.00345813
0.00339746
0.00330423
0.00319329
0.00372609
0.00378541
0.00378084
0.00349969
0.00379974
0.00403209
0.00433543
0.00409068
0.00330869
0.00315843
0.00335784
0.00360513
0.00319645
0.00364178
0.00379244
0.00332554
0.00323839
0.00328762
0.00342391
0.00413776
0.00394661
0.00409221
0.00420087
0.00389808
0.00362365
6.65807e-06
0.00172734
0.00412471
0.00414172
3.47813e-09
1.08184e-08
7.09901e-09
1.5137e-09
1.92639e-10
1.92401e-11
1.67829e-12
1.27053e-13
1.2422e-14
2.27137e-15
7.58774e-14
6.69645e-12
3.34717e-10
8.77502e-09
2.54371e-07
5.15551e-06
3.89308e-05
0.000232807
0.000567189
0.000498486
0.000272441
0.000253385
0.000292493
0.00031635
0.000364319
0.000459089
0.000641672
0.000929178
0.00118572
0.00123044
0.00208465
0.00129046
0.00325264
0.00267956
0.00408156
0.003706
0.00428194
0.00392528
0.00482023
0.00458866
0.0048788
0.00473967
0.00484496
0.00477697
0.00472653
0.00483327
0.00445376
0.00462509
0.00403459
0.00426325
0.00340606
0.00364034
0.00310407
0.0030448
0.00303288
0.00305781
0.00371141
0.00358169
0.0034141
0.00323589
0.00414117
0.00416515
0.00411061
0.00395758
0.00430955
0.00450461
0.00484349
0.00461494
0.0036844
0.00338862
0.00373063
0.00408446
0.00340344
0.00354592
0.00369477
0.00334848
0.00341144
0.00341763
0.00342358
0.00423941
0.00386343
0.00403381
0.00421179
0.00425974
0.00350278
0.000209725
0.00145181
0.004281
5.70226e-09
1.14581e-08
4.7866e-09
7.56896e-10
8.62853e-11
8.11019e-12
6.6158e-13
4.62871e-14
4.83458e-15
1.80648e-14
1.49928e-12
8.8149e-11
3.21935e-09
8.07184e-08
1.78257e-06
1.48944e-05
0.000113529
0.000413335
0.000530032
0.000359675
0.000263601
0.000293297
0.000306852
0.000288078
0.000251035
0.000230363
0.000265909
0.000337441
0.000350674
0.00028077
0.00114872
0.00051758
0.00247735
0.00183803
0.00351406
0.00303468
0.00370839
0.00326326
0.00446105
0.00410916
0.00458884
0.00427274
0.00460007
0.00435939
0.00471998
0.00470867
0.0044243
0.00449018
0.0038618
0.0039978
0.00311655
0.00320187
0.00328596
0.00333233
0.00307689
0.00295359
0.00289556
0.00288443
0.00397377
0.00376787
0.00351999
0.00326346
0.00457036
0.00455276
0.00443211
0.00449288
0.0048585
0.00496656
0.00532534
0.0051431
0.00416946
0.00374433
0.00420728
0.0046328
0.00372872
0.00351421
0.00363258
0.00343388
0.00369193
0.00364491
0.00347536
0.00430057
0.00379097
0.00397745
0.00419423
0.00434257
0.00420439
0.00311935
0.000311681
0.00144352
1.16864e-08
1.02414e-08
2.41347e-09
3.30457e-10
3.49048e-11
3.09226e-12
2.35273e-13
2.07884e-14
7.3434e-15
2.94562e-13
2.10961e-11
9.96105e-10
2.28365e-08
5.12928e-07
7.06658e-06
4.82607e-05
0.000242697
0.000508596
0.000459956
0.00030694
0.000304985
0.000332314
0.000303772
0.00024464
0.000165979
0.000105702
7.91669e-05
7.28616e-05
5.32858e-05
7.4027e-05
1.98723e-05
0.000452303
0.000169973
0.00159705
0.000951739
0.00276673
0.00221132
0.00297272
0.0024684
0.00388128
0.00344343
0.00400883
0.00359477
0.00403638
0.00366712
0.00445743
0.00430315
0.00403845
0.0040011
0.00332129
0.00331899
0.00291195
0.00296716
0.00303841
0.0031108
0.00303224
0.00284868
0.00272212
0.00266726
0.00421904
0.00393389
0.00360497
0.00326986
0.00498372
0.00490151
0.00470806
0.0050558
0.00539776
0.00538088
0.0057383
0.00563398
0.0047177
0.00420034
0.00474764
0.00520065
0.00415003
0.00354557
0.00363267
0.00360401
0.00406506
0.00395928
0.00358426
0.00432478
0.00375623
0.00393659
0.00416884
0.00434991
0.0040705
0.00290421
0.000263684
0.00127987
1.22709e-08
6.37055e-09
1.05453e-09
1.3027e-10
1.28726e-11
1.07139e-12
7.38063e-14
8.19101e-15
9.3701e-14
4.3171e-12
2.30555e-10
6.38603e-09
1.60605e-07
3.18985e-06
1.86539e-05
0.000118863
0.000402093
0.000484541
0.000394212
0.000330034
0.000370652
0.000373672
0.000312561
0.000216003
0.000120725
5.1443e-05
1.80032e-05
8.4236e-06
2.27583e-06
1.5739e-05
3.86336e-06
0.000147058
4.91252e-05
0.000795402
0.000376594
0.00192611
0.00135182
0.00217231
0.00167067
0.00314059
0.00266393
0.00324408
0.00280612
0.00321581
0.00282279
0.00383216
0.00356489
0.00325487
0.00312044
0.00268119
0.00265859
0.00253779
0.00261492
0.00265375
0.00265888
0.00267983
0.00268783
0.00296806
0.00271872
0.002534
0.00241415
0.00441449
0.00405119
0.00364422
0.00324401
0.0053454
0.00518259
0.0049069
0.00559932
0.00588848
0.00573721
0.00607477
0.00604749
0.00528503
0.00472049
0.00530749
0.00574507
0.00463642
0.00361025
0.00367466
0.00385406
0.004505
0.00433966
0.00377177
0.00433032
0.00377635
0.00392772
0.00415346
0.00433455
0.00394992
0.00270907
0.000140821
0.000959714
1.03655e-08
2.85828e-09
4.11992e-10
4.69113e-11
4.33902e-12
3.34577e-13
2.61065e-14
2.84771e-14
1.39463e-12
4.87293e-11
1.69488e-09
4.86118e-08
9.07315e-07
8.40324e-06
5.09566e-05
0.000234362
0.000463166
0.000453899
0.000380736
0.000390926
0.000434171
0.000421173
0.000350842
0.000229954
0.000100139
2.60419e-05
4.25295e-06
6.31985e-07
4.01994e-07
1.70364e-07
3.63207e-06
8.91269e-07
4.48885e-05
1.33763e-05
0.000342188
0.000133944
0.00117145
0.000704233
0.0014854
0.00106786
0.00235878
0.00191676
0.0024307
0.00204477
0.00224992
0.00192326
0.00286923
0.00258143
0.0024367
0.00228633
0.00188412
0.00220941
0.00215772
0.00201918
0.00209651
0.00234436
0.00230505
0.00227583
0.00224604
0.0028758
0.0025618
0.00231657
0.00213981
0.00453559
0.00409442
0.00362414
0.00316089
0.00561868
0.00537959
0.00502154
0.00608869
0.00630355
0.00601699
0.00634618
0.00637104
0.00582861
0.0052646
0.0058467
0.0062337
0.00515307
0.00373292
0.00375014
0.00416761
0.00498089
0.00476073
0.00401503
0.00433497
0.00382855
0.00395625
0.00415185
0.00431901
0.00384541
0.00246065
5.22759e-05
0.000605661
5.96596e-09
1.12358e-09
1.46996e-10
1.5556e-11
1.34805e-12
9.44865e-14
1.44183e-14
4.02769e-13
1.55218e-11
4.32449e-10
1.29521e-08
2.54304e-07
4.24409e-06
2.02301e-05
0.000113549
0.00036001
0.000458367
0.000433564
0.000413881
0.000460678
0.000493206
0.000466155
0.000373772
0.000238617
9.15518e-05
1.39451e-05
1.00758e-06
5.02697e-08
6.24558e-08
1.61014e-08
7.53352e-07
2.30518e-07
1.19382e-05
3.13866e-06
0.00013035
4.1537e-05
0.000676204
0.000343606
0.00096303
0.000616753
0.00167431
0.00131559
0.00161283
0.0013061
0.00112721
0.000899259
0.00161663
0.00138603
0.00194328
0.0019001
0.000975054
0.0008526
0.00166932
0.00157597
0.00135436
0.00147158
0.0020137
0.0019177
0.00183515
0.00175523
0.00273769
0.00237088
0.00207496
0.00184681
0.00457307
0.00406877
0.00353612
0.00302584
0.00580772
0.00549253
0.00506383
0.00650344
0.00661718
0.00619931
0.00652444
0.00662457
0.0063175
0.00579464
0.00633577
0.00664672
0.00566439
0.00390581
0.00385987
0.00452489
0.00546053
0.00519796
0.00429992
0.00434574
0.00390439
0.00400981
0.00416365
0.00431143
0.00375356
0.00214549
1.61591e-05
0.000346134
2.79084e-09
4.10562e-10
4.92922e-11
4.91314e-12
4.01946e-13
2.89583e-14
9.32365e-14
4.42559e-12
1.08632e-10
3.37573e-09
7.95517e-08
1.30382e-06
8.97002e-06
4.83207e-05
0.000206168
0.000426398
0.000451892
0.000443813
0.000470867
0.000524295
0.000542434
0.000491156
0.000380469
0.000223538
6.11507e-05
5.59192e-06
3.06054e-07
1.06829e-09
1.92938e-08
9.86242e-09
3.12283e-09
1.69414e-07
4.16992e-08
2.42884e-06
5.75832e-07
3.42922e-05
9.46974e-06
0.000307455
0.00011169
0.000425541
0.000198353
0.0010111
0.000711105
0.000698659
0.000509401
0.000381581
0.000346128
0.000740055
0.000619715
0.000445973
0.00123327
0.00110922
0.000572493
0.00051981
0.0011441
0.00102581
0.000803683
0.000910229
0.00166867
0.00152034
0.00138839
0.00126521
0.0025568
0.00215145
0.00181992
0.00155719
0.00454638
0.00397441
0.00339412
0.00284015
0.00592698
0.00554911
0.00506409
0.0068141
0.0068457
0.00631567
0.00663237
0.00680483
0.00673319
0.00627945
0.0067546
0.0069654
0.00614073
0.00411636
0.00400506
0.0049021
0.00591833
0.00562115
0.00460728
0.00436544
0.00400006
0.00409128
0.00419569
0.00431677
0.00366662
0.0018174
8.62309e-06
0.000263298
1.18521e-09
1.50699e-10
1.71098e-11
1.65599e-12
1.36078e-13
3.50978e-14
1.03461e-12
2.72811e-11
8.63017e-10
2.22244e-08
3.57382e-07
4.77384e-06
1.94597e-05
9.87779e-05
0.000305029
0.000441707
0.000456203
0.000472945
0.000526601
0.000577137
0.000575209
0.000499531
0.00036324
0.000176298
2.92043e-05
2.02538e-06
7.56733e-08
1.5132e-09
3.74475e-09
2.19111e-09
1.03671e-09
2.81812e-08
7.46906e-09
3.84381e-07
1.10425e-07
6.45585e-06
1.61207e-06
7.66202e-05
2.40553e-05
9.46577e-05
3.87169e-05
0.00033817
0.000195323
0.000258188
0.000186206
0.000370045
0.000365954
0.000415305
0.000479947
0.000457673
0.000383728
0.000394891
0.00071179
0.000636117
0.000437166
0.000426977
0.000761067
0.000664573
0.000527186