/*--------------------------------*- C++ -*----------------------------------*\
  =========                 |
  \\      /  F ield         | OpenFOAM: The Open Source CFD Toolbox
   \\    /   O peration     | Website:  https://openfoam.org
    \\  /    A nd           | Version:  dev
     \\/     M anipulation  |
\*---------------------------------------------------------------------------*/
FoamFile
{
    version     2.0;
    format      ascii;
    class       volScalarField;
    location    "2500";
    object      k;
}
// * * * * * * * * * * * * * * * * * * * * * * * * * * * * * * * * * * * * * //

dimensions      [0 2 -2 0 0 0 0];

internalField   nonuniform List<scalar> 
9842
(
0.000147789
0.000155549
0.000137799
0.000140297
0.000187796
0.000114247
0.000120992
0.000204177
0.000167113
0.000105443
0.00011211
0.000198503
0.000202195
0.00012986
0.000102272
0.000106306
0.000177589
0.000224218
0.000174822
0.000112152
0.000100985
0.00010292
0.000149697
0.00022744
0.000211369
0.00013538
0.000104904
0.000100367
0.000100789
0.000130722
0.000219536
0.00023205
0.00017447
0.000114695
0.000101752
9.98353e-05
9.92303e-05
0.000117175
0.00019754
0.000244489
0.000212197
0.000137273
0.000105792
0.000100028
9.93774e-05
9.81094e-05
0.000108402
0.000166604
0.000244442
0.000236396
0.000170505
0.000116296
0.000101463
9.87943e-05
9.9227e-05
9.75047e-05
0.000103155
0.000141927
0.000235792
0.000250875
0.000206434
0.000136902
0.000106213
9.91404e-05
9.78147e-05
9.92118e-05
9.7208e-05
0.000100171
0.000125041
0.000213212
0.000260819
0.000235377
0.000164424
0.000117409
0.000101137
9.76457e-05
9.71913e-05
9.92559e-05
9.70473e-05
9.8517e-05
0.000113864
0.000181566
0.000259804
0.000253954
0.000197192
0.000134066
0.000106991
9.83142e-05
9.6396e-05
9.68684e-05
9.93363e-05
9.69476e-05
9.75727e-05
0.000107065
0.000153968
0.000250572
0.000266301
0.000228133
0.00015773
0.000116998
0.000101019
9.65097e-05
9.54371e-05
9.67877e-05
9.94347e-05
9.69198e-05
9.70275e-05
0.000103056
0.000134748
0.000228293
0.000274212
0.00025216
0.00018564
0.000130984
0.000107385
9.76166e-05
9.51826e-05
9.48221e-05
9.68843e-05
9.95276e-05
9.697e-05
9.67588e-05
0.000100736
0.000121672
0.000197038
0.000273096
0.000267397
0.000216188
0.000150213
0.000115776
0.000101176
9.55325e-05
9.40931e-05
9.45055e-05
9.71115e-05
9.96267e-05
9.7079e-05
9.66868e-05
9.94588e-05
0.000113383
0.000167761
0.000264204
0.000279115
0.000243216
0.000174887
0.000127546
0.00010692
9.71823e-05
9.40985e-05
9.3279e-05
9.44553e-05
9.74256e-05
9.9744e-05
9.72486e-05
9.67267e-05
9.88088e-05
0.000108435
0.000145889
0.000242204
0.000286944
0.000264903
0.000202096
0.000143302
0.000114641
0.000101137
9.47327e-05
9.29866e-05
9.27706e-05
9.46358e-05
9.78053e-05
9.9878e-05
9.74719e-05
9.68609e-05
9.8478e-05
0.000105551
0.000131249
0.000211149
0.000286225
0.000280005
0.000230433
0.00016442
0.000124161
0.000106651
9.69587e-05
9.3149e-05
9.21254e-05
9.25564e-05
9.49927e-05
9.82604e-05
0.00010003
9.77343e-05
9.70828e-05
9.83412e-05
0.000103797
0.000121774
0.000181096
0.00027821
0.000291598
0.000255447
0.000189341
0.000137774
0.000113161
0.000101049
9.41582e-05
9.20605e-05
9.15437e-05
9.26261e-05
9.5511e-05
9.87974e-05
0.000100219
9.80303e-05
9.73907e-05
9.83655e-05
0.000102706
0.00011584
0.000157863
0.000257499
0.000299764
0.000277075
0.000215856
0.000155241
0.000121815
0.000106012
9.69479e-05
9.24297e-05
9.12514e-05
9.12581e-05
9.29706e-05
9.61771e-05
9.93574e-05
0.000100456
9.83521e-05
9.77674e-05
9.85306e-05
0.000102024
0.00011221
0.000141935
0.000227177
0.000299441
0.000291933
0.000242894
0.000177676
0.000132936
0.000112177
0.000100928
9.39689e-05
9.13312e-05
9.07295e-05
9.13106e-05
9.35927e-05
9.6968e-05
9.99173e-05
0.000100716
9.86884e-05
9.81851e-05
9.88461e-05
0.00010166
0.000109856
0.000131337
0.000196843
0.00029254
0.000303565
0.000267186
0.000202761
0.000148339
0.000119879
0.000105762
9.71601e-05
9.20665e-05
9.06719e-05
9.0558e-05
9.16913e-05
9.44404e-05
9.78615e-05
0.000100465
0.000100973
9.90221e-05
9.86334e-05
9.92295e-05
0.000101592
0.000108187
0.00012468
0.000172422
0.000273807
0.000312332
0.000288472
0.000228942
0.000167588
0.000129791
0.000111675
0.000101138
9.43117e-05
9.09999e-05
9.03972e-05
9.07733e-05
9.24289e-05
9.5452e-05
9.88232e-05
0.000100984
0.000101173
9.934e-05
9.90927e-05
9.96458e-05
0.000101682
0.000107076
0.000120597
0.000155261
0.000245138
0.000312764
0.000303564
0.000254917
0.00019113
0.000142895
0.000118832
0.000105945
9.77669e-05
9.24154e-05
9.0564e-05
9.05716e-05
9.13916e-05
9.34853e-05
9.65947e-05
9.98044e-05
0.000101457
0.000101261
9.96286e-05
9.9528e-05
0.000100082
0.000101844
0.000106378
0.000117711
0.000143851
0.000215705
0.000307814
0.000315769
0.000278548
0.000216425
0.000160268
0.00012816
0.000111914
0.000101947
9.54673e-05
9.15125e-05
9.07109e-05
9.12121e-05
9.24578e-05
9.47842e-05
9.78029e-05
0.000100715
0.000101818
0.000101216
9.98782e-05
9.99073e-05
0.000100499
0.000102048
0.000105963
0.000115526
0.00013662
0.000190877
0.000292884
0.00032652
0.000300281
0.000242609
0.000181437
0.000140065
0.000119414
0.00010735
9.9354e-05
9.41165e-05
9.14853e-05
9.13936e-05
9.24239e-05
9.40131e-05
9.62596e-05
9.8941e-05
0.000101378
0.000101968
0.000101008
0.000100063
0.000100207
0.000100837
0.000102262
0.000105711
0.000113918
0.000131854
0.000172418
0.000266761
0.000329616
0.000316936
0.00026817
0.00020643
0.000155811
0.000128718
0.000114032
0.000104497
9.79956e-05
9.37839e-05
9.22208e-05
9.2733e-05
9.41636e-05
9.60511e-05
9.80564e-05
9.99779e-05
0.000101655
0.00010181
0.000100646
0.000100201
0.000100428
0.000101065
0.000102434
0.000105527
0.000112687
0.000128375
0.00015987
0.000238583
0.000327462
0.000331328
0.000292474
0.000232516
0.000175882
0.000140902
0.000122624
0.000111005
0.000103235
9.80026e-05
9.45999e-05
9.37955e-05
9.48001e-05
9.64625e-05
9.83178e-05
0.000100035
0.000101164
0.000101664
0.000101296
0.00010019
0.0001003
0.000100579
0.000101195
0.000102529
0.000105365
0.000111684
0.000125541
0.000151751
0.000213148
0.000318607
0.000345848
0.000315726
0.000259629
0.000199652
0.000156266
0.000133453
0.000119735
0.000110307
0.000103901
9.93361e-05
9.6533e-05
9.63995e-05
9.76249e-05
9.92646e-05
0.000100757
0.00010166
0.000101939
0.000101428
0.000100394
9.98236e-05
0.000100338
0.000100622
0.00010125
0.000102529
0.000105167
0.000110845
0.000123091
0.00014623
0.00019335
0.000296801
0.000354821
0.000335729
0.000286319
0.000227107
0.000176137
0.000147249
0.000130973
0.000120135
0.000112059
0.000106271
0.000102284
9.99753e-05
0.00010009
0.00010128
0.00010251
0.000103138
0.000102981
0.000102053
0.000100751
9.9297e-05
9.96209e-05
0.000100305
0.000100532
0.000101199
0.000102438
0.000104889
0.000110068
0.000121121
0.000142008
0.000179143
0.000269442
0.000356463
0.000354718
0.000312693
0.000255539
0.000200711
0.000165132
0.000146105
0.000133191
0.000123804
0.000116649
0.000111215
0.000107355
0.000105081
0.000105015
0.000105858
0.000106255
0.000105484
0.000103979
0.000101798
9.97255e-05
9.82869e-05
9.95459e-05
0.000100208
0.000100334
0.000100976
0.000102246
0.000104516
0.000109251
0.000119496
0.000138316
0.000169485
0.000242902
0.000353545
0.000375035
0.00033943
0.000285222
0.000228775
0.000187485
0.000165527
0.00015171
0.000141111
0.000132707
0.000125667
0.000119713
0.000115073
0.000112043
0.000110856
0.000110359
0.000109143
0.000106639
0.000103989
0.000101171
9.87378e-05
9.80421e-05
9.98169e-05
0.000100072
0.000100046
0.00010061
0.000101868
0.000104053
0.00010835
0.000117932
0.000134996
0.000163054
0.000220347
0.000339837
0.000391957
0.000364983
0.000314849
0.000260162
0.000214507
0.000190342
0.000177052
0.000167658
0.000158665
0.000149424
0.000139775
0.00013082
0.000123742
0.000118978
0.000116499
0.000114809
0.000111739
0.000107269
0.000103506
0.000100179
9.86159e-05
9.98228e-05
0.000100417
0.000100972
9.98997e-05
9.96688e-05
0.00010009
0.000101289
0.000103445
0.000107366
0.000116245
0.00013204
0.000158088
0.00020315
0.000311768
0.000400739
0.00039108
0.000345072
0.000292073
0.00024607
0.000220944
0.000212222
0.000208508
0.000203932
0.000193052
0.000177014
0.000159489
0.0001443
0.000133148
0.000126403
0.000122354
0.00011921
0.000114191
0.000107912
0.000102936
0.000100141
0.00010027
0.000101661
0.000102449
0.000100618
0.000101781
9.96536e-05
9.9188e-05
9.94313e-05
0.000100565
0.000102648
0.000106357
0.000114226
0.000129435
0.000153422
0.000191011
0.000282308
0.00040194
0.000418998
0.000377058
0.000325542
0.000280352
0.00025762
0.000259434
0.000274596
0.000286712
0.000284293
0.000259375
0.000221703
0.000187735
0.000161659
0.000144496
0.000134277
0.000127987
0.000122383
0.000115256
0.00010745
0.000102839
0.000100668
0.000101335
0.000103278
0.000101924
0.00010389
0.000102941
0.000104117
0.000100777
0.00010248
9.93718e-05
9.86343e-05
9.87015e-05
9.97418e-05
0.000101714
0.000105262
0.000112348
0.000127098
0.000148655
0.00018238
0.000255286
0.000395331
0.000444861
0.000409729
0.000359472
0.000317609
0.000298763
0.00032125
0.000382444
0.000464696
0.000516646
0.000516757
0.000421827
0.000308759
0.000229585
0.000185101
0.000158074
0.000142945
0.000132865
0.000123724
0.000113774
0.000106242
0.000102771
0.000104075
0.00010269
0.000105239
0.00010496
0.000106262
0.000104172
0.000105762
0.000100974
0.000103182
9.90856e-05
9.80241e-05
9.79056e-05
9.88185e-05
0.000100678
0.000104041
0.000110553
0.000124607
0.000144181
0.000175391
0.000233056
0.000369814
0.000462409
0.00044424
0.000394648
0.000353881
0.000342012
0.000393113
0.000540372
0.000804374
0.00112986
0.00135596
0.00123793
0.000876177
0.000528772
0.000319705
0.000218709
0.00017625
0.000153541
0.000137879
0.000123979
0.000112287
0.000106259
0.000108122
0.000104353
0.000105483
0.000105766
0.000107253
0.000107255
0.000108635
0.000105491
0.000107607
0.000101172
0.000103941
9.88054e-05
9.73791e-05
9.70895e-05
9.78173e-05
9.9574e-05
0.000102747
0.00010868
0.000121799
0.000140184
0.000168949
0.000215687
0.000333334
0.000468227
0.000481358
0.000432848
0.000390152
0.000381566
0.000463933
0.000729602
0.00127793
0.00209887
0.00289903
0.00322941
0.00284174
0.00189162
0.000990867
0.000508508
0.000289905
0.000208595
0.000169147
0.000144445
0.000124718
0.000112209
0.000115435
0.000107782
0.000109768
0.000106965
0.000108199
0.000108134
0.000109528
0.000109842
0.000111301
0.000106936
0.000109659
0.000101379
0.000104808
9.85283e-05
9.67321e-05
9.63034e-05
9.67674e-05
9.8459e-05
0.000101435
0.000106825
0.000118542
0.000136643
0.000162531
0.000202813
0.000297753
0.000464373
0.000516754
0.000473316
0.000426191
0.00041776
0.000519237
0.000906589
0.00179454
0.00318104
0.0045229
0.00517587
0.00510954
0.00446633
0.00319438
0.00169238
0.000774606
0.000400628
0.00025731
0.000192475
0.000153071
0.00012182
0.000127447
0.00011359
0.000116982
0.000110255
0.000112481
0.000109321
0.000110975
0.000111089
0.000112053
0.000112928
0.000114338
0.000108593
0.000111913
0.000101597
0.000105854
9.82612e-05
9.61532e-05
9.5552e-05
9.57526e-05
9.73377e-05
0.000100132
0.00010509
0.000115198
0.000133235
0.000156249
0.000192927
0.00026685
0.000440956
0.000541553
0.00051633
0.000463301
0.000448593
0.000553216
0.00103061
0.00221339
0.00411567
0.00552096
0.00600497
0.00609603
0.00583206
0.00523583
0.00412721
0.00248571
0.00111929
0.000540491
0.000322176
0.000224914
0.000138985
0.000154788
0.000122042
0.000128167
0.000115196
0.000118783
0.000112843
0.000115123
0.000112643
0.000114277
0.000114466
0.000114948
0.000116081
0.000117207
0.000110439
0.000114576
0.000101866
0.000107033
9.80351e-05
9.57208e-05
9.49021e-05
9.49404e-05
9.62474e-05
9.88936e-05
0.000103457
0.000112204
0.000129484
0.000150597
0.000184309
0.000242248
0.000392323
0.000549123
0.000561844
0.000505602
0.00047651
0.000569218
0.00107979
0.00248556
0.00466661
0.0058505
0.00620059
0.00610893
0.00585587
0.00551813
0.0051022
0.00435739
0.00304271
0.00154756
0.000709746
0.000416268
0.000190765
0.000250827
0.000139296
0.000161708
0.000125181
0.000138119
0.000119849
0.00013067
0.000117564
0.000125953
0.000116529
0.000121647
0.000118774
0.000117559
0.000120479
0.000121246
0.000112688
0.000117014
0.000102156
0.000108471
9.79122e-05
9.55201e-05
9.44917e-05
9.44895e-05
9.53852e-05
9.77685e-05
0.000101847
0.000109552
0.000125284
0.000145692
0.00017603
0.000223564
0.000343072
0.00054376
0.000604054
0.00055246
0.000506395
0.000569682
0.00107423
0.00257041
0.00487326
0.00580469
0.00596158
0.00559175
0.00519619
0.00500261
0.00488116
0.00461587
0.00417071
0.00325946
0.0019717
0.000992627
0.000374087
0.000620511
0.000210467
0.000314621
0.000166654
0.000234683
0.000157418
0.000223804
0.000150365
0.000217671
0.000138153
0.000192343
0.000126788
0.000157048
0.000131609
0.000120784
0.000134685
0.000134817
0.000114906
0.000118888
0.000102492
0.000110381
9.80686e-05
9.5848e-05
9.46371e-05
9.44799e-05
9.49757e-05
9.69375e-05
0.000100363
0.00010695
0.000120847
0.000141217
0.000168099
0.0002094
0.000300346
0.000515466
0.00063043
0.000601485
0.000540368
0.000563817
0.00101561
0.00253231
0.00487221
0.00567274
0.0054008
0.00441486
0.00375528
0.0038357
0.00405085
0.00422105
0.00420359
0.00401715
0.00345137
0.00251885
0.0011114
0.00196388
0.000532019
0.00104139
0.000389693
0.000714186
0.000381353
0.000716857
0.000386787
0.000756929
0.000348641
0.000725971
0.000264304
0.000569986
0.000180922
0.00036265
0.000202179
0.000131526
0.00021423
0.000211674
0.000115466
0.000126111
0.000103181
0.000110929
9.91976e-05
9.75313e-05
9.5762e-05
9.49434e-05
9.50586e-05
9.65846e-05
9.92532e-05
0.000104558
0.000116462
0.000136458
0.000161062
0.000197789
0.00026672
0.000450707
0.000634614
0.000651511
0.000583819
0.000564383
0.000882838
0.00234234
0.00480444
0.00553646
0.00484802
0.00336105
0.00272119
0.00292446
0.00336762
0.0036856
0.00391673
0.00404434
0.00405203
0.00395762
0.00276022
0.00368486
0.00184897
0.00287069
0.00142617
0.00239868
0.0014292
0.00248197
0.00151805
0.0027535
0.00150469
0.00288024
0.00127025
0.00268474
0.000881874
0.00201998
0.000470855
0.00122928
0.00055333
0.000194927
0.000591167
0.00057211
0.000119046
0.000169197
0.000103692
0.000110375
0.000100907
0.000100789
9.84115e-05
9.6357e-05
9.579e-05
9.65483e-05
9.84816e-05
0.000102645
0.000112605
0.000131216
0.000154929
0.000187485
0.000241254
0.000383889
0.000623562
0.00069497
0.000635633
0.000579154
0.000755822
0.00195561
0.00460044
0.00546043
0.00454572
0.00268501
0.00204658
0.00218787
0.00271843
0.00328678
0.00361545
0.00386516
0.00411498
0.00456267
0.00532918
0.00378702
0.00489234
0.00346738
0.00449546
0.0036418
0.0047459
0.00413002
0.00542988
0.00450727
0.00606353
0.00453426
0.00632343
0.0040452
0.00612067
0.00288422
0.00527827
0.00153878
0.00364082
0.00173264
0.00049884
0.00178582
0.00169231
0.000142625
0.000401132
0.000102122
0.00011916
0.000104861
0.00010963
0.000105663
9.97321e-05
9.72158e-05
9.67645e-05
9.77776e-05
0.000101079
0.000109303
0.000126171
0.000149034
0.000177989
0.000222659
0.00032831
0.000581767
0.000715163
0.000686699
0.000607962
0.000665059
0.00153582
0.00412573
0.0053824
0.00451712
0.00247151
0.00172316
0.00169878
0.00208367
0.00271866
0.00338764
0.00376468
0.00413379
0.0046923
0.00570274
0.00652234
0.00673835
0.00541705
0.00611392
0.00574529
0.00656287
0.00657766
0.00743253
0.00744087
0.00842577
0.00785451
0.00896384
0.00784269
0.00907719
0.0073289
0.00881388
0.00617215
0.00808139
0.00415347
0.0066701
0.00436211
0.00148135
0.00430424
0.00402977
0.000297855
0.0012068
0.000104644
0.000207045
0.000116562
0.000131777
0.000123253
0.000108191
0.000100411
9.76938e-05
9.735e-05
9.96559e-05
0.000106541
0.000121801
0.000143086
0.000169291
0.000208018
0.000286115
0.000499835
0.000713264
0.000735598
0.000653081
0.000624879
0.00115618
0.00339606
0.00526127
0.00457717
0.00248556
0.00167112
0.00150635
0.0016489
0.0021177
0.0028953
0.00365246
0.00417913
0.00477657
0.00561697
0.00667706
0.00644835
0.00744772
0.00727125
0.00718043
0.00746397
0.00806149
0.00835204
0.00901244
0.00925483
0.00961377
0.00990106
0.00985719
0.0103102
0.00980594
0.0104648
0.00944571
0.0104211
0.00857449
0.00999233
0.00688962
0.00884261
0.00688608
0.00357635
0.00674489
0.00645284
0.000972069
0.00310466
0.000140382
0.000844716
0.000141444
0.000177109
0.000163045
0.000130944
0.000108886
0.000100633
9.76709e-05
9.86336e-05
0.000104089
0.000117678
0.000137378
0.000161255
0.000194975
0.000254944
0.000416486
0.000691937
0.00077369
0.000708865
0.000623848
0.000875561
0.00253638
0.00503438
0.00475966
0.00260154
0.00171919
0.00150115
0.00150016
0.0017296
0.0023278
0.00326791
0.00411907
0.00480185
0.00555156
0.00621123
0.00598529
0.00695683
0.00663436
0.00777598
0.0073789
0.00832718
0.00815257
0.0092179
0.00903841
0.0098906
0.00976719
0.0103971
0.0103496
0.0108773
0.0111164
0.0112828
0.0121018
0.0113938
0.012668
0.0107166
0.0126043
0.00904833
0.0113863
0.00905221
0.00602375
0.008948
0.00858893
0.00285562
0.00553573
0.000422197
0.00364226
0.000142402
0.000208288
0.000218975
0.000182409
0.000132473
0.000108587
9.95423e-05
9.84767e-05
0.000102169
0.000113712
0.000132019
0.000153721
0.000183008
0.000232084
0.000349699
0.000630393
0.00078317
0.000758334
0.000649891
0.000711173
0.00177489
0.00454292
0.0050159
0.00290177
0.0018793
0.00156876
0.00151343
0.00165407
0.0020342
0.00270586
0.00369913
0.00467205
0.00547133
0.00615759
0.00638264
0.00639694
0.00702985
0.00680173
0.00779126
0.00745323
0.00865155
0.00821539
0.0094568
0.00902901
0.0102036
0.00995465
0.0112669
0.0113197
0.0127077
0.0133409
0.0142317
0.0155613
0.0148341
0.0166988
0.0141384
0.0165746
0.0118886
0.0152068
0.0119966
0.00801948
0.0117312
0.0111179
0.00523655
0.00728543
0.0019573
0.00530741
0.000159157
0.000234044
0.00023524
0.000185381
0.000130468
0.000105245
9.88602e-05
0.000100965
0.000110034
0.000126905
0.000146584
0.000172367
0.000213823
0.000300546
0.000536071
0.00077412
0.00080063
0.000703221
0.000648281
0.0012062
0.00359844
0.00508491
0.00349435
0.00226397
0.00176043
0.0015906
0.00166104
0.00195001
0.00245624
0.00311931
0.00409247
0.00522369
0.00614468
0.0070777
0.00723695
0.00679614
0.00687062
0.00731994
0.00737122
0.00802129
0.00802965
0.0086274
0.00826891
0.009672
0.0094225
0.011319
0.0112923
0.0139314
0.0144216
0.0166096
0.0173903
0.0177442
0.0183444
0.0177678
0.0183223
0.0173111
0.0180019
0.0156252
0.0174053
0.0154887
0.0101161
0.0148628
0.0137576
0.0062349
0.00875659
0.000685895
0.00412677
0.000150044
0.000235199
0.000235469
0.000179992
0.000121245
0.000100119
9.99312e-05
0.000106531
0.000121944
0.000139931
0.00016289
0.000198392
0.000263786
0.000440973
0.000739129
0.000826378
0.000761793
0.000642565
0.000860365
0.00248672
0.00493981
0.00417916
0.00284262
0.00221243
0.00177813
0.00168323
0.00183436
0.00233566
0.00290523
0.00360589
0.00458364
0.00581629
0.00724298
0.00712013
0.00829817
0.00835611
0.0075881
0.00798472
0.00818821
0.00861799
0.00924364
0.00957177
0.00916311
0.00913323
0.0113318
0.0113829
0.0147618
0.0150323
0.0178898
0.0182256
0.0187023
0.0189857
0.0186071
0.0186948
0.0181761
0.0178769
0.0179495
0.0173384
0.017151
0.0174237
0.016808
0.0123166
0.0161579
0.0156134
0.0142528
0.00712249
0.0107502
0.00116626
0.00659521
0.000135338
0.00022913
0.000229121
0.000160488
0.000106548
9.93361e-05
0.000103485
0.000117084
0.000133824
0.0001542
0.000185372
0.000237872
0.000364539
0.000657165
0.000826341
0.000805917
0.00066694
0.000695234
0.00159977
0.00427328
0.00471476
0.00342069
0.00287167
0.00225421
0.00180504
0.00180572
0.00218184
0.00286649
0.00352664
0.0044165
0.00556801
0.0071557
0.00828734
0.00810978
0.00975874
0.00966959
0.00921995
0.00965443
0.0102104
0.0108691
0.0121065
0.0125484
0.011498
0.0117227
0.0152376
0.0153133
0.0184016
0.0184195
0.0192242
0.0193811
0.0187204
0.0187687
0.0172988
0.0167901
0.01618
0.0150258
0.0162143
0.0146114
0.016802
0.0153775
0.0161023
0.016548
0.0163918
0.0150588
0.0127855
0.0144297
0.0160355
0.0160254
0.0162128
0.0157166
0.00812655
0.00971815
0.0136693
0.0128745
0.0112181
0.00258243
0.00927701
0.00938108
0.00982763
0.000127959
0.000224424
0.000212594
0.000128
0.000100062
0.000101044
0.00011187
0.000127919
0.000146014
0.000174262
0.000219226
0.000310873
0.000556644
0.000808638
0.000835959
0.000730635
0.000636854
0.00103943
0.00305017
0.0047994
0.00394583
0.00347348
0.00321266
0.00224048
0.0018847
0.00211823
0.00271828
0.00353565
0.00449309
0.00572727
0.00732648
0.0088176
0.00895817
0.00936685
0.00897647
0.0112806
0.0108287
0.0113507
0.0114279
0.0129947
0.0131868
0.0151564
0.0149917
0.0153138
0.0152686
0.0182932
0.0179269
0.0194002
0.019252
0.0188198
0.0187681
0.0165238
0.0164824
0.0142074
0.0137554
0.0143927
0.01392
0.0136698
0.0133206
0.0147131
0.0141747
0.0137315
0.0137403
0.0139207
0.015073
0.0156729
0.0148651
0.0143785
0.0155349
0.0152898
0.014776
0.0158121
0.0153539
0.0154442
0.0155537
0.0105664
0.0141168
0.013324
0.0119633
0.0108236
0.012725
0.0101833
0.0111028
0.000132058
0.000229303
0.000174455
0.000107449
0.000100158
0.000106646
0.000121763
0.000138478
0.000164803
0.00020509
0.000273241
0.000460306
0.000756854
0.000845466
0.000787406
0.000633244
0.00075156
0.00193605
0.00451149
0.00441068
0.00389084
0.00401935
0.00341245
0.00230119
0.00218286
0.0024599
0.0030564
0.0041213
0.00535039
0.00688014
0.00865222
0.00977205
0.0095215
0.010368
0.0100253
0.0120497
0.0114093
0.0130693
0.0126804
0.0147372
0.0142956
0.0163131
0.0157339
0.0174279
0.016874
0.0188433
0.0182361
0.0185369
0.0181065
0.0164851
0.016382
0.0136295
0.0136753
0.0131013
0.0128027
0.012621
0.0124101
0.0135059
0.0133003
0.0130513
0.0139941
0.0138373
0.0136008
0.0138444
0.0138074
0.0141858
0.0147438
0.01404
0.0138829
0.0146777
0.0152344
0.0148352
0.0153076
0.0146389
0.0146518
0.0152016
0.0111305
0.0143011
0.013557
0.0123849
0.0156533
0.0157601
0.000394689
0.0132012
0.010717
0.0118402
0.00015392
0.000228065
0.000133078
0.000101634
0.000103063
0.00011573
0.000131421
0.000156214
0.000194066
0.000248144
0.000380924
0.000665226
0.000839028
0.000823223
0.000661879
0.000625307
0.0011854
0.00339824
0.00453936
0.0041381
0.00445752
0.00452881
0.00356409
0.00262044
0.00250482
0.00259764
0.00310726
0.0041591
0.00541064
0.00627674
0.0079914
0.0060664
0.00995503
0.00918819
0.0108611
0.0103968
0.0121307
0.0113976
0.0136679
0.0129167
0.015075
0.0142766
0.0159794
0.0151408
0.0175138
0.0167566
0.0174811
0.0167485
0.0160771
0.0156076
0.0137041
0.0136213
0.0122754
0.0122034
0.0121209
0.012085
0.0127985
0.0125247
0.012258
0.0119909
0.0134845
0.013308
0.0130689
0.0138261
0.0139211
0.0139143
0.0144674
0.0141884
0.01379
0.0139961
0.0137295
0.0138059
0.0139702
0.0149946
0.0146724
0.0146928
0.0139716
0.0140134
0.0147013
0.011422
0.0142312
0.0135957
0.012588
0.0125532
0.0145095
0.00169354
0.00866198
0.011133
0.000195662
0.000196788
0.000112406
0.000103
0.000110576
0.000125318
0.000148868
0.000184447
0.000231821
0.000324663
0.000568573
0.000812025
0.000835866
0.00073451
0.000590511
0.000785971
0.00212175
0.00435953
0.00430625
0.00451798
0.00512918
0.0048663
0.00398191
0.00300897
0.00268385
0.00261327
0.00271665
0.00286237
0.00267797
0.0021835
0.0052673
0.00299716
0.00890658
0.00736226
0.0107116
0.00994313
0.0113526
0.0103707
0.0133338
0.0123362
0.0141569
0.0130244
0.0143011
0.0132423
0.0159888
0.0152133
0.014988
0.0142969
0.0133734
0.0129452
0.0120151
0.0119657
0.0118514
0.0116814
0.0117603
0.0115536
0.0113788
0.011225
0.0127895
0.012485
0.0121607
0.0118185
0.0139018
0.0137592
0.0134784
0.0140676
0.01451
0.0146401
0.015389
0.0149893
0.0137736
0.0136894
0.0137328
0.0141621
0.0136501
0.0146303
0.014399
0.0140968
0.0136248
0.0136227
0.0141804
0.0116958
0.0140319
0.0135463
0.0127712
0.0118526
0.0133592
0.01247
0.00193262
0.00690705
0.000222959
0.000154889
0.000108581
0.000108811
0.00012206
0.000143503
0.00017738
0.000220038
0.000288787
0.000478498
0.000747918
0.000834387
0.000783758
0.000598434
0.000603429
0.00124799
0.00346688
0.00433612
0.00447885
0.00520809
0.00565824
0.00535995
0.00452575
0.00343546
0.00278338
0.00234221
0.00177853
0.00133657
0.00104431
0.00112159
0.000808295
0.00253951
0.00150733
0.00623747
0.0041865
0.00928877
0.00795743
0.00932048
0.0080108
0.011806
0.0105676
0.0119705
0.0105783
0.0116049
0.0103455
0.0135502
0.0126625
0.0123694
0.0116499
0.0110041
0.010554
0.011119
0.0110136
0.0109268
0.0108617
0.0114625
0.0111114
0.0107831
0.0105102
0.0131036
0.0126778
0.0122189
0.0117502
0.0146445
0.0144629
0.0140755
0.0147573
0.0154157
0.0155747
0.0164447
0.0160116
0.0141777
0.0136741
0.0141265
0.0148958
0.0136054
0.0141915
0.0140713
0.0136573
0.0135381
0.0134924
0.0137301
0.0122676
0.0138036
0.0135576
0.013085
0.0128809
0.0135894
0.0113343
0.00138411
0.00585027
0.000205309
0.00013532
0.000112308
0.000121811
0.00014179
0.000172624
0.000212145
0.000264423
0.00040584
0.000663377
0.000821347
0.000808676
0.000645385
0.000532447
0.000776738
0.00213941
0.00413419
0.00438085
0.00506614
0.00585316
0.00620925
0.00596139
0.00518809
0.00398696
0.00274519
0.00174476
0.00106813
0.000739035
0.000587774
0.000756889
0.000633865
0.00132513
0.00094312
0.00328211
0.0020578
0.00654447
0.00488766
0.00639409
0.00506461
0.00915557
0.00776067
0.00896894
0.00754563
0.00868749
0.00750373
0.0108119
0.00981638
0.00994324
0.00921918
0.00946267
0.00923353
0.00860635
0.00895398
0.0102953
0.010115
0.0099327
0.00972701
0.0112528
0.0107269
0.0102236
0.00978881
0.0135582
0.0129772
0.0123539
0.0117105
0.0155446
0.0152447
0.0147059
0.0157079
0.0164795
0.0165721
0.0175011
0.0171134
0.0149105
0.0140069
0.0148119
0.015844
0.0138504
0.0137878
0.0137709
0.0134781
0.0136741
0.013526
0.0134742
0.0131003
0.0136666
0.0136737
0.0135192
0.0137374
0.0135788
0.0107477
0.000900759
0.00485411
0.000188546
0.000132665
0.000125392
0.000142746
0.000171406
0.000206355
0.000249846
0.000352963
0.000579735
0.000786785
0.000810162
0.000715411
0.000529641
0.000561161
0.00121881
0.00324524
0.00424869
0.00467186
0.0057565
0.00646215
0.00682473
0.00663319
0.00586978
0.00440089
0.00256803
0.00127838
0.000746675
0.000513904
0.000507839
0.000462004
0.000625588
0.000546491
0.000898534
0.000719919
0.0017991
0.00122392
0.00380242
0.00268104
0.00404898
0.00317458
0.00621434
0.00504996
0.00637906
0.00529165
0.00648537
0.00562686
0.00832942
0.00741247
0.00824689
0.00781447
0.00691076
0.00834793
0.00808304
0.00749229
0.00780338
0.00943062
0.00913193
0.0088616
0.00860229
0.0110266
0.0103071
0.00961763
0.00901113
0.0140072
0.0132406
0.0124337
0.0116097
0.0164694
0.0160101
0.0152784
0.0167659
0.0175644
0.0175579
0.0184504
0.0181711
0.0158202
0.0146086
0.015647
0.0168562
0.0143258
0.0134952
0.0135459
0.0134342
0.014016
0.0137388
0.0133815
0.0138748
0.013638
0.0138642
0.0139355
0.014272
0.0135912
0.0103762
0.00051231
0.00380892
0.000183223
0.000140573
0.000149311
0.000172246
0.00020438
0.000241929
0.000318914
0.00050575
0.000727307
0.000803074
0.000754844
0.000551705
0.000468842
0.000724314
0.00198034
0.00387597
0.00442143
0.0052796
0.00639229
0.0070817
0.00748316
0.00733807
0.00640136
0.00458968
0.00239172
0.000975173
0.0005237
0.000410012
0.000435682
0.000405826
0.000532457
0.00048023
0.000721568
0.000612677
0.00120346
0.000901954
0.00238157
0.00169729
0.00290905
0.00228152
0.00436375
0.00358881
0.00483534
0.0040814
0.00465891
0.00407558
0.00604596
0.00537781
0.00720638
0.00700803
0.00491829
0.00459795
0.00703644
0.00671114
0.00599903
0.00636534
0.00850388
0.00808013
0.0077097
0.00736505
0.0107147
0.00979236
0.00891814
0.0081457
0.014373
0.0133941
0.0123828
0.0113508
0.0173151
0.0167007
0.0157628
0.0177941
0.0185489
0.0184404
0.0192459
0.0190694
0.0167562
0.0153454
0.0164863
0.0177862
0.0149481
0.0133709
0.0134364
0.0135254
0.0145154
0.0140803
0.0133842
0.0143837
0.0136588
0.0140072
0.0142694
0.0146177
0.0137356
0.0100385
0.000254196
0.00291901
0.000186097
0.000162339
0.000178139
0.000204641
0.000238665
0.000297758
0.000447426
0.000661688
0.000783319
0.000771525
0.000616764
0.000454599
0.000501451
0.00110677
0.00282372
0.00412304
0.00472611
0.00596051
0.00701687
0.00772076
0.00817994
0.00796276
0.00663502
0.00450832
0.00181458
0.000644433
0.000418915
0.00036316
0.000356583
0.000396877
0.000375564
0.000463893
0.000422344
0.000596447
0.000515798
0.000923396
0.000722618
0.0017052
0.00123844
0.00215273
0.00161445
0.00337879
0.0027489
0.00345059
0.00289343
0.00344384
0.00321033
0.00433032
0.00403499
0.00376502
0.00563746
0.00528904
0.00418851
0.00406993
0.00563527
0.00528887
0.00469377
0.00496813
0.00748881
0.00693217
0.00645102
0.00601986
0.010262
0.00916531
0.00814044
0.00724991
0.0146468
0.0134409
0.012209
0.0109767
0.0180818
0.0173228
0.0162172
0.0186602
0.0193099
0.0191856
0.0197937
0.0196948
0.0175671
0.0160754
0.0171758
0.0184903
0.0155743
0.013355
0.0134616
0.0137105
0.0149962
0.0144319
0.0134583
0.014748
0.013724
0.0141262
0.014498
0.0149229
0.0140142
0.00982292
0.000191623
0.00280885
0.000200853
0.000188745
0.000209275
0.000238047
0.000287167
0.000404301
0.000598899
0.000749933
0.000769095
0.000675943
0.000467199
0.000402726
0.00064037
0.00170169
0.00340919
0.00437219
0.00517404
0.0066215
0.00764576
0.00839641
0.00886544
0.00840432
0.00666409
0.00381339
0.00114577
0.000485924
0.000350681
0.000335509
0.000330689
0.000359239
0.000343155
0.000415783
0.000384332
0.000506184
0.00045659
0.000699807
0.000582043
0.00117828
0.000885433
0.0013367
0.00101615
0.00229309
0.00178319
0.00270241
0.00227964
0.00404694
0.00399644
0.00420908
0.00395074
0.00383122
0.00409905
0.00417942
0.00448884
0.00432654
0.00418707
0.00420666
0.00472728
0.00451627
0.00425021
0.00436002
0.00650339
0.00588832
0.00539459
0.00501505
0.00972194
0.00851384
0.00743925
0.00655619
0.0149046
0.0134705
0.012014
0.0106052
0.0187594
0.0179399
0.0167743
0.0192071
0.0196956
0.0197238
0.0200606
0.0199867
0.0181157
0.0166478
0.017562
0.0188539
0.0159975
0.0134232
0.0135793
0.0139132
0.0153126
0.0146502
0.0136507
0.015017
0.0138911
0.0143198
0.0146464
0.0152493
0.0144657
0.0100927
0.000334429
0.00359189
0.000221991
0.000218122
0.000241026
0.000284482
0.000376469
0.000544607
0.00070794
0.000757542
0.00070968
0.000513101
0.000382228
0.000432487
0.000943177
0.00230978
0.00376336
0.00461936
0.0056875
0.00723823
0.00829904
0.0091019
0.00949289
0.00856811
0.00621285
0.0027268
0.000704355
0.000390205
0.000316814
0.000327514
0.000320137
0.000318417
0.000337586
0.000326344
0.000379185
0.000354293
0.000452312
0.000411698
0.000575098