/*--------------------------------*- C++ -*----------------------------------*\
  =========                 |
  \\      /  F ield         | OpenFOAM: The Open Source CFD Toolbox
   \\    /   O peration     | Website:  https://openfoam.org
    \\  /    A nd           | Version:  dev
     \\/     M anipulation  |
\*---------------------------------------------------------------------------*/
FoamFile
{
    version     2.0;
    format      ascii;
    class       volScalarField;
    location    "2500";
    object      N2;
}
// * * * * * * * * * * * * * * * * * * * * * * * * * * * * * * * * * * * * * //

dimensions      [0 0 0 0 0 0 0];

internalField   nonuniform List<scalar> 
9842
(
0.76699
0.76699
0.76699
0.76699
0.76699
0.76699
0.76699
0.76699
0.76699
0.76699
0.76699
0.76699
0.76699
0.76699
0.76699
0.76699
0.76699
0.76699
0.76699
0.76699
0.76699
0.76699
0.76699
0.76699
0.76699
0.76699
0.76699
0.76699
0.76699
0.76699
0.76699
0.76699
0.76699
0.76699
0.76699
0.76699
0.76699
0.76699
0.76699
0.76699
0.76699
0.76699
0.76699
0.76699
0.76699
0.76699
0.76699
0.76699
0.76699
0.76699
0.76699
0.76699
0.76699
0.76699
0.76699
0.76699
0.76699
0.76699
0.76699
0.76699
0.76699
0.76699
0.76699
0.76699
0.76699
0.76699
0.76699
0.76699
0.76699
0.76699
0.76699
0.76699
0.76699
0.76699
0.76699
0.76699
0.76699
0.76699
0.76699
0.76699
0.76699
0.76699
0.76699
0.76699
0.76699
0.76699
0.76699
0.76699
0.76699
0.76699
0.76699
0.76699
0.76699
0.76699
0.76699
0.76699
0.76699
0.76699
0.76699
0.76699
0.76699
0.76699
0.76699
0.76699
0.76699
0.76699
0.76699
0.76699
0.76699
0.76699
0.76699
0.76699
0.76699
0.76699
0.76699
0.76699
0.76699
0.76699
0.76699
0.76699
0.76699
0.76699
0.76699
0.76699
0.76699
0.76699
0.76699
0.76699
0.76699
0.76699
0.76699
0.76699
0.76699
0.76699
0.76699
0.76699
0.76699
0.76699
0.76699
0.76699
0.76699
0.76699
0.76699
0.76699
0.76699
0.76699
0.76699
0.76699
0.76699
0.76699
0.76699
0.76699
0.76699
0.76699
0.76699
0.76699
0.76699
0.76699
0.76699
0.76699
0.76699
0.76699
0.76699
0.76699
0.76699
0.76699
0.76699
0.76699
0.76699
0.76699
0.76699
0.76699
0.76699
0.76699
0.76699
0.76699
0.76699
0.76699
0.76699
0.76699
0.76699
0.76699
0.76699
0.76699
0.76699
0.76699
0.76699
0.76699
0.76699
0.76699
0.76699
0.76699
0.76699
0.76699
0.76699
0.76699
0.76699
0.76699
0.76699
0.76699
0.76699
0.76699
0.76699
0.76699
0.76699
0.76699
0.76699
0.76699
0.76699
0.76699
0.76699
0.76699
0.76699
0.76699
0.76699
0.76699
0.76699
0.76699
0.76699
0.76699
0.76699
0.76699
0.76699
0.76699
0.76699
0.76699
0.76699
0.76699
0.76699
0.76699
0.76699
0.76699
0.76699
0.76699
0.76699
0.76699
0.76699
0.76699
0.76699
0.76699
0.76699
0.76699
0.76699
0.76699
0.76699
0.76699
0.76699
0.76699
0.76699
0.76699
0.76699
0.76699
0.76699
0.76699
0.76699
0.76699
0.76699
0.76699
0.76699
0.76699
0.76699
0.76699
0.76699
0.76699
0.76699
0.76699
0.76699
0.76699
0.76699
0.76699
0.76699
0.76699
0.76699
0.76699
0.76699
0.76699
0.76699
0.76699
0.76699
0.76699
0.76699
0.76699
0.76699
0.76699
0.76699
0.76699
0.76699
0.76699
0.76699
0.76699
0.76699
0.76699
0.76699
0.76699
0.76699
0.76699
0.76699
0.76699
0.76699
0.76699
0.76699
0.76699
0.76699
0.76699
0.76699
0.76699
0.76699
0.76699
0.76699
0.76699
0.76699
0.76699
0.76699
0.76699
0.76699
0.76699
0.76699
0.76699
0.76699
0.76699
0.76699
0.76699
0.76699
0.76699
0.76699
0.76699
0.76699
0.76699
0.76699
0.76699
0.76699
0.76699
0.76699
0.76699
0.76699
0.76699
0.76699
0.76699
0.76699
0.76699
0.76699
0.76699
0.76699
0.76699
0.76699
0.76699
0.76699
0.76699
0.76699
0.76699
0.76699
0.76699
0.76699
0.76699
0.76699
0.76699
0.76699
0.76699
0.76699
0.76699
0.76699
0.76699
0.76699
0.76699
0.76699
0.76699
0.76699
0.76699
0.76699
0.76699
0.76699
0.76699
0.76699
0.76699
0.76699
0.76699
0.76699
0.76699
0.76699
0.76699
0.76699
0.76699
0.76699
0.76699
0.76699
0.76699
0.76699
0.76699
0.76699
0.76699
0.76699
0.76699
0.76699
0.76699
0.76699
0.76699
0.76699
0.76699
0.76699
0.76699
0.76699
0.76699
0.76699
0.76699
0.76699
0.76699
0.76699
0.76699
0.76699
0.76699
0.76699
0.76699
0.76699
0.76699
0.76699
0.76699
0.76699
0.76699
0.76699
0.76699
0.76699
0.76699
0.76699
0.76699
0.76699
0.76699
0.76699
0.76699
0.76699
0.76699
0.76699
0.76699
0.76699
0.76699
0.76699
0.76699
0.76699
0.76699
0.76699
0.76699
0.76699
0.76699
0.76699
0.76699
0.76699
0.76699
0.76699
0.76699
0.76699
0.76699
0.76699
0.76699
0.76699
0.76699
0.76699
0.76699
0.76699
0.76699
0.76699
0.76699
0.76699
0.76699
0.76699
0.76699
0.76699
0.76699
0.76699
0.76699
0.76699
0.76699
0.76699
0.76699
0.76699
0.76699
0.76699
0.76699
0.76699
0.76699
0.76699
0.76699
0.76699
0.76699
0.76699
0.76699
0.76699
0.76699
0.76699
0.76699
0.76699
0.76699
0.76699
0.76699
0.76699
0.76699
0.76699
0.76699
0.76699
0.76699
0.76699
0.76699
0.76699
0.76699
0.76699
0.76699
0.76699
0.76699
0.76699
0.76699
0.76699
0.76699
0.76699
0.76699
0.76699
0.76699
0.76699
0.76699
0.76699
0.76699
0.76699
0.76699
0.76699
0.76699
0.76699
0.76699
0.76699
0.76699
0.76699
0.76699
0.76699
0.76699
0.76699
0.76699
0.76699
0.76699
0.76699
0.76699
0.76699
0.76699
0.76699
0.76699
0.76699
0.76699
0.76699
0.76699
0.76699
0.76699
0.76699
0.76699
0.76699
0.76699
0.76699
0.76699
0.76699
0.76699
0.76699
0.76699
0.76699
0.76699
0.76699
0.76699
0.76699
0.76699
0.76699
0.76699
0.76699
0.76699
0.76699
0.76699
0.76699
0.76699
0.76699
0.76699
0.76699
0.76699
0.76699
0.76699
0.76699
0.76699
0.76699
0.76699
0.76699
0.76699
0.76699
0.76699
0.76699
0.76699
0.76699
0.76699
0.76699
0.76699
0.76699
0.76699
0.76699
0.76699
0.76699
0.76699
0.76699
0.76699
0.76699
0.76699
0.76699
0.76699
0.76699
0.76699
0.76699
0.76699
0.76699
0.76699
0.76699
0.76699
0.76699
0.76699
0.76699
0.76699
0.76699
0.76699
0.76699
0.76699
0.76699
0.76699
0.76699
0.76699
0.76699
0.76699
0.76699
0.76699
0.76699
0.76699
0.76699
0.76699
0.76699
0.76699
0.76699
0.76699
0.76699
0.76699
0.76699
0.76699
0.76699
0.76699
0.76699
0.76699
0.76699
0.76699
0.76699
0.76699
0.76699
0.76699
0.76699
0.76699
0.76699
0.766989
0.766988
0.766987
0.766987
0.766988
0.766989
0.766989
0.76699
0.76699
0.76699
0.76699
0.76699
0.76699
0.76699
0.76699
0.76699
0.76699
0.76699
0.76699
0.76699
0.76699
0.76699
0.76699
0.76699
0.76699
0.76699
0.76699
0.76699
0.76699
0.76699
0.76699
0.76699
0.76699
0.76699
0.76699
0.76699
0.76699
0.76699
0.76699
0.76699
0.766989
0.766987
0.766982
0.766977
0.766975
0.766977
0.766983
0.766986
0.766988
0.766989
0.76699
0.76699
0.76699
0.76699
0.76699
0.76699
0.76699
0.76699
0.76699
0.76699
0.76699
0.76699
0.76699
0.76699
0.76699
0.76699
0.76699
0.76699
0.76699
0.76699
0.76699
0.76699
0.76699
0.76699
0.76699
0.76699
0.76699
0.76699
0.76699
0.76699
0.76699
0.76699
0.766988
0.766983
0.766969
0.766948
0.766929
0.766931
0.766948
0.766968
0.76698
0.766986
0.766988
0.766989
0.76699
0.76699
0.76699
0.76699
0.76699
0.76699
0.76699
0.76699
0.76699
0.76699
0.76699
0.76699
0.76699
0.76699
0.76699
0.76699
0.76699
0.76699
0.76699
0.76699
0.76699
0.76699
0.76699
0.76699
0.76699
0.76699
0.76699
0.76699
0.76699
0.76699
0.76699
0.766989
0.766987
0.766977
0.766949
0.766901
0.766849
0.766823
0.76684
0.76689
0.766939
0.766968
0.766982
0.766987
0.766989
0.766989
0.76699
0.76699
0.76699
0.76699
0.76699
0.76699
0.76699
0.76699
0.76699
0.76699
0.76699
0.76699
0.76699
0.76699
0.76699
0.76699
0.76699
0.76699
0.76699
0.76699
0.76699
0.76699
0.76699
0.76699
0.76699
0.76699
0.76699
0.76699
0.76699
0.76699
0.76699
0.766989
0.766987
0.766972
0.766928
0.766849
0.766762
0.766703
0.766695
0.766738
0.76682
0.766905
0.766953
0.766976
0.766984
0.766988
0.766989
0.76699
0.76699
0.76699
0.76699
0.76699
0.76699
0.76699
0.76699
0.76699
0.76699
0.76699
0.76699
0.76699
0.76699
0.76699
0.76699
0.76699
0.76699
0.76699
0.76699
0.76699
0.76699
0.76699
0.76699
0.76699
0.76699
0.76699
0.76699
0.76699
0.76699
0.76699
0.76699
0.766989
0.766987
0.766969
0.766912
0.766802
0.766679
0.766591
0.766554
0.766572
0.766643
0.766755
0.766872
0.766939
0.766969
0.766981
0.766986
0.76699
0.766989
0.76699
0.76699
0.76699
0.76699
0.76699
0.76699
0.76699
0.76699
0.76699
0.76699
0.76699
0.76699
0.76699
0.76699
0.76699
0.76699
0.76699
0.76699
0.76699
0.76699
0.76699
0.76699
0.76699
0.76699
0.76699
0.76699
0.76699
0.76699
0.76699
0.76699
0.76699
0.76699
0.76699
0.766987
0.766969
0.766904
0.76677
0.766613
0.766498
0.766434
0.766418
0.766452
0.766551
0.766699
0.766846
0.766927
0.766962
0.766977
0.766988
0.766986
0.76699
0.766989
0.76699
0.766989
0.76699
0.766989
0.76699
0.76699
0.76699
0.76699
0.76699
0.76699
0.76699
0.76699
0.76699
0.76699
0.76699
0.76699
0.76699
0.76699
0.76699
0.76699
0.76699
0.76699
0.76699
0.76699
0.76699
0.76699
0.76699
0.76699
0.76699
0.76699
0.76699
0.76699
0.76699
0.766988
0.766971
0.766903
0.766755
0.766571
0.766438
0.766363
0.766316
0.766301
0.766341
0.766466
0.766654
0.766828
0.766915
0.766952
0.76698
0.76697
0.766988
0.766984
0.766989
0.766987
0.766988
0.766986
0.766988
0.766985
0.766989
0.766986
0.766989
0.766987
0.766989
0.76699
0.766989
0.766989
0.76699
0.76699
0.76699
0.76699
0.76699
0.76699
0.76699
0.76699
0.76699
0.76699
0.76699
0.76699
0.76699
0.76699
0.76699
0.76699
0.76699
0.76699
0.76699
0.76699
0.76699
0.766988
0.766975
0.766907
0.766752
0.766554
0.766432
0.766353
0.766292
0.766241
0.76621
0.766247
0.766396
0.76662
0.766809
0.766892
0.766948
0.766913
0.766976
0.766956
0.766982
0.766971
0.76698
0.766967
0.766977
0.766959
0.766977
0.766955
0.76698
0.766961
0.766986
0.766972
0.766984
0.766989
0.766982
0.766982
0.76699
0.766989
0.76699
0.76699
0.76699
0.76699
0.76699
0.76699
0.76699
0.76699
0.76699
0.76699
0.76699
0.76699
0.76699
0.76699
0.76699
0.76699
0.76699
0.76699
0.76699
0.766989
0.76698
0.766922
0.766762
0.766569
0.766458
0.766382
0.766318
0.766249
0.766183
0.766133
0.766166
0.766338
0.766583
0.766754
0.766851
0.766804
0.766922
0.766858
0.766946
0.766899
0.76694
0.766894
0.766923
0.766864
0.76691
0.766833
0.766914
0.766821
0.766934
0.76685
0.766962
0.7669
0.766952
0.766983
0.766946
0.766944
0.76699
0.766985
0.76699
0.76699
0.76699
0.76699
0.76699
0.76699
0.76699
0.76699
0.76699
0.76699
0.76699
0.76699
0.76699
0.76699
0.76699
0.76699
0.76699
0.76699
0.76699
0.76699
0.766985
0.766943
0.766793
0.766601
0.766511
0.766454
0.766408
0.766324
0.766214
0.766121
0.766051
0.766082
0.766268
0.766495
0.766583
0.766797
0.766673
0.766837
0.766754
0.766833
0.766759
0.766791
0.766708
0.766733
0.766625
0.766689
0.766545
0.766689
0.766499
0.76676
0.76653
0.766863
0.766665
0.766832
0.76695
0.766813
0.766812
0.766987
0.76696
0.76699
0.766989
0.76699
0.76699
0.76699
0.76699
0.76699
0.76699
0.76699
0.76699
0.76699
0.76699
0.76699
0.76699
0.76699
0.76699
0.76699
0.76699
0.76699
0.76699
0.766987
0.766961
0.766839
0.76664
0.766558
0.766537
0.766563
0.76651
0.76636
0.766176
0.766045
0.765953
0.765975
0.766148
0.766287
0.766425
0.76626
0.766662
0.76654
0.766673
0.766572
0.766619
0.766523
0.766515
0.766407
0.766397
0.766257
0.766304
0.766122
0.766282
0.766033
0.766364
0.766049
0.766576
0.766217
0.766511
0.766829
0.766481
0.766489
0.766971
0.76686
0.76699
0.766982
0.76699
0.76699
0.76699
0.76699
0.76699
0.76699
0.76699
0.76699
0.76699
0.76699
0.76699
0.76699
0.76699
0.76699
0.76699
0.76699
0.76699
0.76699
0.766989
0.766975
0.766884
0.766685
0.766597
0.766605
0.76669
0.766653
0.766535
0.76636
0.766119
0.765946
0.765826
0.765822
0.765933
0.766119
0.765923
0.766189
0.766033
0.766458
0.76633
0.766421
0.766307
0.766301
0.766194
0.766128
0.766011
0.76595
0.765804
0.765821
0.765656
0.765776
0.765601
0.765848
0.765607
0.76609
0.765699
0.766011
0.766533
0.765986
0.76601
0.766897
0.766604
0.766987
0.766934
0.76699
0.76699
0.76699
0.76699
0.76699
0.76699
0.76699
0.76699
0.76699
0.76699
0.76699
0.76699
0.76699
0.76699
0.76699
0.76699
0.76699
0.76699
0.76699
0.766983
0.766925
0.766744
0.766629
0.766642
0.766769
0.766753
0.766657
0.766509
0.766302
0.766025
0.765812
0.765659
0.765593
0.765762
0.7656
0.765868
0.765689
0.765903
0.76575
0.766182
0.766048
0.766085
0.765966
0.765901
0.765795
0.765684
0.765584
0.76555
0.765476
0.765505
0.765452
0.765496
0.765455
0.76551
0.765455
0.765611
0.765455
0.765562
0.766077
0.765547
0.765573
0.766682
0.766188
0.766967
0.766761
0.76699
0.76699
0.76699
0.76699
0.76699
0.76699
0.76699
0.76699
0.76699
0.76699
0.76699
0.76699
0.76699
0.76699
0.76699
0.76699
0.76699
0.76699
0.76699
0.766987
0.766956
0.766814
0.766661
0.766659
0.766804
0.76682
0.766743
0.766579
0.766385
0.766159
0.765879
0.765642
0.765445
0.765269
0.765537
0.765339
0.765589
0.765433
0.765582
0.765444
0.765842
0.765714
0.765691
0.765586
0.765501
0.765428
0.765418
0.765368
0.76542
0.76539
0.765436
0.765434
0.765447
0.765469
0.765428
0.765462
0.765416
0.765414
0.765383
0.765654
0.765356
0.765345
0.766317
0.765779
0.766837
0.766445
0.76699
0.76699
0.76699
0.76699
0.76699
0.76699
0.76699
0.76699
0.76699
0.76699
0.76699
0.76699
0.76699
0.76699
0.76699
0.76699
0.76699
0.76699
0.766989
0.766975
0.766879
0.766701
0.766668
0.766805
0.766858
0.766811
0.766639
0.766413
0.766201
0.765971
0.765698
0.765434
0.765195
0.76509
0.765044
0.765285
0.765167
0.76531
0.765183
0.765279
0.765178
0.765482
0.765381
0.765358
0.765291
0.76532
0.765271
0.76536
0.765325
0.765434
0.765431
0.765526
0.765574
0.76556
0.765656
0.765498
0.765648
0.765396
0.765525
0.765366
0.765362
0.765324
0.765285
0.765942
0.765448
0.766904
0.766354
0.76699
0.76699
0.76699
0.76699
0.76699
0.76699
0.76699
0.76699
0.76699
0.76699
0.76699
0.76699
0.76699
0.76699
0.76699
0.76699
0.76699
0.76699
0.766984
0.76693
0.766764
0.766678
0.766794
0.766873
0.766857
0.766737
0.766487
0.766237
0.76601
0.765758
0.765479
0.765231
0.765044
0.76508
0.764976
0.76498
0.765075
0.765005
0.765078
0.764996
0.765083
0.76501
0.765224
0.765155
0.76522
0.765166
0.765285
0.765237
0.765416
0.765376
0.765584
0.765556
0.765686
0.76568
0.765716
0.76573
0.765684
0.76573
0.76553
0.765691
0.765496
0.765257
0.765431
0.765381
0.765293
0.765674
0.765278
0.766891
0.766132
0.76699
0.76699
0.76699
0.76699
0.76699
0.76699
0.76699
0.76699
0.76699
0.76699
0.76699
0.76699
0.76699
0.76699
0.76699
0.76699
0.76699
0.766987
0.766963
0.76684
0.766701
0.76676
0.766873
0.76688
0.766819
0.766677
0.766422
0.766138
0.765883
0.765624
0.765372
0.765168
0.765006
0.765065
0.764934
0.76496
0.764944
0.764926
0.764947
0.764906
0.764983
0.764925
0.765108
0.765047
0.765181
0.765119
0.765314
0.765242
0.765493
0.76541
0.76565
0.765589
0.765721
0.765698
0.765728
0.765686
0.765723
0.765645
0.765672
0.765694
0.765706
0.765561
0.765649
0.765338
0.765244
0.76529
0.765482
0.76559
0.765623
0.76544
0.765646
0.765377
0.765253
0.765224
0.765252
0.766766
0.765496
0.766042
0.765588
0.76699
0.76699
0.76699
0.76699
0.76699
0.76699
0.76699
0.76699
0.76699
0.76699
0.76699
0.76699
0.76699
0.76699
0.76699
0.76699
0.766989
0.766979
0.766906
0.76675
0.766731
0.766863
0.766886
0.766863
0.766803
0.766667
0.766437
0.766145
0.76585
0.765598
0.765391
0.765206
0.765322
0.765018
0.765104
0.76493
0.764998
0.764895
0.764902
0.764889
0.764878
0.764927
0.764888
0.765054
0.764988
0.765165
0.765087
0.76532
0.765223
0.765502
0.765398
0.765658
0.765592
0.765656
0.765653
0.765608
0.765553
0.765521
0.765506
0.765638
0.765544
0.76545
0.765342
0.765447
0.765673
0.765675
0.765656
0.765606
0.765659
0.765385
0.765327
0.765545
0.765605
0.765635
0.765495
0.765291
0.765272
0.765225
0.765216
0.766142
0.765747
0.765343
0.765374
0.76699
0.76699
0.76699
0.76699
0.76699
0.76699
0.76699
0.76699
0.76699
0.76699
0.76699
0.76699
0.76699
0.76699
0.76699
0.76699
0.766986
0.76695
0.76682
0.766728
0.766827
0.766885
0.76688
0.766854
0.766805
0.766703
0.766541
0.766311
0.766048
0.765832
0.765761
0.765348
0.765582
0.765093
0.765214
0.765002
0.765114
0.764886
0.764921
0.764876
0.764887
0.7649
0.764889
0.76501
0.764944
0.765128
0.765041
0.765286
0.765181
0.765496
0.765382
0.765654
0.765616
0.765514
0.76554
0.765579
0.765627
0.765399
0.765374
0.765376
0.765496
0.765368
0.765269
0.765139
0.765244
0.765578
0.765642
0.765557
0.765451
0.765626
0.765435
0.765371
0.76557
0.765608
0.765587
0.765528
0.765224
0.765305
0.765243
0.765197
0.765326
0.765443
0.766982
0.766251
0.765229
0.765222
0.76699
0.76699
0.76699
0.76699
0.76699
0.76699
0.76699
0.76699
0.76699
0.76699
0.76699
0.76699
0.76699
0.76699
0.76699
0.766988
0.766973
0.766891
0.766748
0.766777
0.766874
0.766882
0.766865
0.766855
0.766834
0.766794
0.766716
0.766593
0.766484
0.766465
0.7661
0.766439
0.765602
0.765846
0.765248
0.765408
0.765162
0.765314
0.764932
0.765031
0.764907
0.764967
0.764922
0.764951
0.764972
0.764927
0.765089
0.765016
0.765268
0.76517
0.765536
0.765436
0.765665
0.76569
0.765695
0.765685
0.765406
0.765461
0.765533
0.765609
0.765222
0.765212
0.765235
0.765301
0.76515
0.765067
0.764922
0.76502
0.765417
0.765543
0.765397
0.765246
0.765537
0.765476
0.765413
0.765561
0.765534
0.765531
0.765529
0.76518
0.765341
0.765268
0.765192
0.765172
0.765495
0.766901
0.76637
0.765163
0.76699
0.76699
0.76699
0.76699
0.76699
0.76699
0.76699
0.76699
0.76699
0.76699
0.76699
0.76699
0.76699
0.76699
0.766989
0.766984
0.766942
0.766814
0.766764
0.766836
0.766877
0.766865
0.766859
0.766867
0.766883
0.766892
0.766876
0.766846
0.76684
0.76687
0.7665
0.766769
0.765932
0.766205
0.76549
0.765695
0.765407
0.765597
0.765086
0.765236
0.765031
0.765166
0.765026
0.765129
0.764975
0.76498
0.765101
0.765073
0.765341
0.765283
0.76566
0.765623
0.765587
0.765568
0.765677
0.765729
0.765754
0.765759
0.765294
0.765382
0.765487
0.765597
0.765039
0.765047
0.765098
0.765072
0.764916
0.76487
0.764717
0.764795
0.76521
0.765392
0.765194
0.765012
0.765398
0.76549
0.765439
0.765524
0.765414
0.765434
0.765506
0.765154
0.765372
0.765292
0.7652
0.765136
0.765195
0.765658
0.766857
0.766374
0.76699
0.76699
0.76699
0.76699
0.76699
0.76699
0.76699
0.76699
0.76699
0.76699
0.76699
0.76699
0.76699
0.76699
0.766987
0.766969
0.766886
0.766773
0.766794
0.766859
0.76686
0.766848
0.76686
0.766886
0.766919
0.766945
0.766956
0.766959
0.766967
0.766958
0.766982
0.766797
0.766917
0.766308
0.766584
0.765809
0.766046
0.765721
0.765936
0.765333
0.76552
0.765279
0.765455
0.765267
0.765425
0.765087
0.765153
0.765266
0.765282
0.765572
0.765573
0.765747
0.765723
0.765693
0.765662
0.765696
0.765774
0.765828
0.765851
0.765189
0.765311
0.765451
0.765594
0.764863
0.764898
0.76498
0.764832
0.764686
0.764693
0.76454
0.764585
0.764976
0.765197
0.764963
0.76477
0.765218
0.765476
0.765439
0.765452
0.765255
0.7653
0.76546
0.765144
0.765387
0.76531
0.76521
0.765133
0.765252
0.76575
0.766877
0.766444
0.76699
0.76699
0.76699
0.76699
0.76699
0.76699
0.76699
0.76699
0.76699
0.76699
0.76699
0.76699
0.76699
0.766989
0.766982
0.766939
0.766818
0.766783
0.766822
0.766849
0.766832
0.76683
0.766857
0.766898
0.766938
0.766968
0.766982
0.766986
0.766989
0.766983
0.766988
0.766927
0.766969
0.76665
0.766829
0.766168
0.766413
0.766063
0.766277
0.765649
0.765853
0.765605
0.765792
0.765617
0.765785
0.765354
0.765468
0.765601
0.765658
0.765845
0.765855
0.765907
0.765874
0.765857
0.765855
0.765846
0.765843
0.765723
0.765829
0.765908
0.765959
0.765106
0.765261
0.765434
0.765605
0.764708
0.764778
0.764895
0.7646
0.764476
0.764541
0.764397
0.764408
0.764734
0.764975
0.764724
0.764538
0.765011
0.765449
0.765421
0.765345
0.765067
0.765137
0.76538
0.765141
0.765378
0.765313
0.765217
0.76514
0.765304
0.765834
0.76693
0.76658
0.76699
0.76699
0.76699
0.76699
0.76699
0.76699
0.76699
0.76699
0.76699
0.76699
0.76699
0.76699
0.76699
0.766986
0.766968
0.76689
0.766792
0.766796
0.766827
0.766823
0.766805
0.76681
0.76684
0.766892
0.766947
0.766979
0.766988
0.76699
0.76699
0.76699
0.766988
0.76699
0.766971
0.766984
0.766844
0.766933
0.76649
0.766689
0.766356
0.766534
0.765983
0.766172
0.765952
0.766117
0.76603
0.766169
0.765765
0.765888
0.76595
0.766014
0.766186
0.766047
0.766069
0.766128
0.766095
0.765989
0.766006
0.766019
0.766031
0.765762
0.765896
0.766001
0.766077
0.765054
0.765242
0.765443
0.765641
0.764592
0.764694
0.764846
0.764391
0.764299
0.764421
0.764281
0.76427
0.764502
0.764743
0.764494
0.764329
0.76479
0.765396
0.765389
0.765211
0.764864
0.764958
0.765276
0.765139
0.765356
0.765301
0.765218
0.765146
0.765348
0.76594
0.766968
0.766731
0.76699
0.76699
0.76699
0.76699
0.76699
0.76699
0.76699
0.76699
0.76699
0.76699
0.76699
0.76699
0.766988
0.766981
0.766942
0.766836
0.766794
0.766805
0.766813
0.766793
0.766779
0.766791
0.76683
0.766888
0.766951
0.766984
0.76699
0.76699
0.76699
0.76699
0.76699
0.76699
0.766985
0.766989
0.766934
0.766972
0.766701
0.766843
0.766579
0.766727
0.766275
0.766428
0.766302
0.766432
0.766509
0.766606
0.7663
0.766398
0.76616
0.766179
0.766574
0.766626
0.766277
0.766317
0.766412
0.766362
0.76613
0.766171
0.766207
0.766241
0.765821
0.765978
0.766104
0.766202
0.765038
0.765253
0.765481
0.765698
0.764511
0.764645
0.764828
0.764214
0.764165
0.764344
0.764205
0.764162
0.764293
0.764516
0.764285
0.764153
0.764572
0.765323
0.765342
0.765058
0.764659
0.764771
0.765154
0.765135
0.765323
0.765278
0.765213
0.76515
0.765388
0.766074
0.766983
0.766842
0.76699
0.76699
0.76699
0.76699
0.76699
0.76699
0.76699
0.76699
0.76699
0.76699
0.76699
0.766989
0.766986
0.766969
0.766902
0.766808
0.766797
0.766801
0.766789
0.766766
0.766758
0.76678
0.766828
0.766895
0.766964
0.766988
0.76699
0.76699
0.76699
0.76699
0.76699
0.76699
0.76699
0.766989
0.76699
0.766975
0.766986
0.766859
0.766942
0.766808
0.766905
0.766558
0.766686
0.766692
0.766773
0.766827
0.766842
0.766674
0.766725
0.7668
0.766464
0.766516
0.766746
0.766768
0.766502
0.766552
0.766647
0.766601
0.766278
0.766341
0.766397
0.76645
0.765899
0.766072
0.766213
0.766325
0.765049
0.765293
0.765541
0.765778
0.76446
0.764621
0.764828
0.764081
0.764068
0.764294
0.764159
0.764085
0.764116
0.764309
0.764107
0.764017
0.764369
0.765233
0.76528
0.764897
0.764464
0.76459
0.765023
0.765126
0.765282
0.765244
0.765199
0.765147
0.765425
0.766214
0.766986
0.766878
0.76699
0.76699
0.76699
0.76699
0.76699
0.76699
0.76699
0.76699
0.76699
0.76699
0.76699
0.766988
0.766982
0.766948
0.76686
0.766801
0.766795
0.766788
0.766765
0.766744
0.766744
0.766777
0.766835
0.766915
0.766978
0.766989
0.76699
0.76699
0.76699
0.76699
0.76699
0.76699
0.76699
0.76699
0.76699
0.766987
0.766989
0.766957
0.76698
0.76695
0.766973
0.766846
0.766907
0.76688
0.766911
0.766832
0.766834
0.766813
0.766785
0.766795
0.766826
0.766821
0.766686
0.766718
0.766803
0.766808
0.766665
0.766706
0.766765
0.76674
0.766416
0.766492
0.766558
0.766615
0.765989
0.76617
0.766316
0.76643
0.765072
0.76534
0.76561
0.765859
0.764428
0.764607
0.764828
0.763988
0.763994
0.764266
0.764131
0.764043
0.763973
0.764129
0.763958
0.763922
0.764188
0.765134
0.765209
0.764738
0.764289
0.764426
0.764893
0.765113
0.765233
0.765203
0.765175
0.76514
0.765441
0.766241
0.766978
0.766826
0.76699
0.76699
0.76699
0.76699
0.76699
0.76699
0.76699
0.76699
0.76699
0.76699
0.766989
0.766986
0.766972
0.766918
0.766827
0.766797
0.766788
0.766768
0.766742
0.766726
0.766739
0.766781
0.766855
0.766942
0.766985
0.76699
0.76699
0.76699
0.76699
0.76699
0.76699
0.76699
0.76699
0.76699
0.76699
0.76699
0.76699
0.76699
0.766984
0.766988
0.766979
0.766985
0.766943
0.766966
0.766847
0.766878
0.766703
0.766725
0.766473
0.766516
0.766812
0.766816
0.766695
0.766697
0.766782
0.766794
0.766763
0.766742
0.766725
0.76675
0.766778
0.766768
0.76652
0.766591
0.766647
0.766691
0.766077
0.766257
0.766398
0.766502
0.765089
0.765375
0.765661
0.765921
0.764407
0.764592
0.764817
0.763915
0.763944
0.764246
0.764102
0.76401
0.763873
0.763979
0.763843
0.763849
0.764038
0.76503
0.765129
0.764594
0.764142
0.764289
0.764767
0.765095
0.765171
0.765154
0.765142
0.765123
0.765418
0.766118
0.766728
0.766402
0.76699
0.76699
0.76699
0.76699
0.76699
0.76699
0.76699
0.76699
0.76699
0.76699
0.766988
0.766983
0.766956
0.766887
0.766811
0.76679
0.766773
0.766746
0.766723
0.766715
0.766739
0.766798
0.766886
0.76697
0.766989
0.76699
0.76699
0.76699
0.76699
0.76699
0.76699
0.76699
0.76699
0.76699
0.76699
0.76699
0.76699
0.76699
0.766988
0.766989
0.766975
0.766984
0.766922
0.766955
0.766566
0.766603
0.766608
0.766437
0.766444
0.766117
0.76617
0.766723
0.766707
0.76644
0.766454
0.766778
0.766773
0.76662
0.766575
0.766722
0.76673
0.766716
0.766726
0.766579
0.766634
0.766674
0.766703
0.766137
0.766308
0.766438
0.766533
0.765082
0.765375
0.765669
0.765935
0.764392
0.764575
0.764797
0.763852
0.763889
0.764221
0.764053
0.763958
0.763792
0.763857
0.763756
0.763779
0.763919
0.764924
0.765042
0.764461
0.764027
0.764171
0.764647
0.765071
0.765102
0.765094
0.765097
0.765091
0.765342
0.765737
0.766785
0.765994
0.76699
0.76699
0.76699
0.76699
0.76699
0.76699
0.76699
0.76699
0.76699
0.766989
0.766986
0.766976
0.766935
0.766857
0.766801
0.766779
0.766755
0.766726
0.766708
0.766712
0.766751
0.766827
0.766925
0.766984
0.76699
0.76699
0.76699
0.76699
0.76699
0.76699
0.76699
0.76699
0.76699
0.76699
0.76699
0.76699
0.76699
0.76699
0.766988
0.766989
0.76693
0.766968
0.766735
0.766852
0.766247
0.76635
0.766209
0.766077
0.766095
0.766093
0.765724
0.765774
0.76653
0.766488
0.76611
0.76615
0.766691
0.766658
0.766416
0.766348
0.766666
0.766655
0.766586
0.766626
0.766598
0.766637
0.766659
0.766669
0.766154
0.766326
0.766455
0.766541
0.765055
0.765344
0.765638
0.765911
0.764369
0.764544
0.764752
0.763783
0.763819
0.76417
0.763972
0.763885
0.763716
0.763758
0.763677
0.763703
0.763815
0.764819
0.764948
0.764349
0.763916
0.764058
0.764537
0.765035
0.765015
0.765021
0.765042
0.765048
0.765205
0.765433
0.766937
0.766124
0.76699
0.76699
0.76699
0.76699
0.76699
0.76699
0.76699
0.76699
0.76699
0.766988
0.766984
0.766964
0.766912
0.766835
0.766791
0.766765
0.766736
0.76671
0.766699
0.766717
0.766776
0.766868
0.766965
0.766988
0.76699
0.76699
0.76699
0.76699
0.76699
0.76699
0.76699
0.76699
0.76699
0.76699
0.76699
0.76699
0.76699
0.766989
0.76699
0.766983
0.766988
0.766795
0.766918
0.766298
0.76658
0.765852
0.765954
0.76588
0.765714
0.765718
0.76571
0.76534
0.765385
0.766277
0.766211
0.765754
0.76582
0.766539
0.766479
0.766157
0.766069
0.766568
0.766525
0.766403
0.766471
0.766589
0.766608
0.766608
0.766599
0.766143
0.766325
0.766453
0.766526
0.764992
0.765263
0.76555
0.76583
0.764308
0.764467
0.764652
0.763706
0.76374
0.764081
0.763884
0.763805
0.763643
0.763675
0.763617
0.763638
0.763718
0.764709
0.764841
0.764226
0.76379
0.763902
0.76441
0.76499
0.764918
0.764933
0.764979
0.764991
0.765078
0.765302
0.766958
0.766158
0.76699
0.76699
0.76699
0.76699
0.76699
0.76699
0.76699
0.76699
0.766989
0.766987
0.766979
0.76695
0.76689
0.76682
0.766779
0.766749
0.766718
0.766698
0.766698
0.766735
0.766813
0.766918
0.766983
0.76699
0.76699
0.76699
0.76699
0.76699
0.76699
0.76699
0.76699
0.76699
0.76699
0.76699
0.76699
0.76699
0.76699
0.766989
0.76699
0.766969
0.766985
0.766513
0.766797
0.765699
0.76592
0.766106
0.765466
0.765577
0.765527
0.765369
0.765355
0.765336
0.765
0.765039
0.765981
0.765897
0.765406
0.765475
0.766327
0.766245
0.765843
0.765741
0.76641
0.766334
0.766153
0.766248
0.766547
0.766543
0.766524
0.766474
0.76608
0.766279
0.766412
0.766456
0.764857
0.76509
0.765347
0.765612
0.764201
0.764332
0.764474
0.763657
0.763706
0.76397
0.763841
0.763766
0.763606
0.763618
0.763593
0.763603
0.763631
0.764584
0.764719
0.76406
0.763676
0.763744
0.764249
0.764931
0.764796
0.764823
0.764901
0.764924
0.764973
0.76521
0.766811
0.765881
0.76699
0.76699
0.76699
0.76699
0.76699
0.76699
0.76699
0.76699
0.766988
0.766985
0.766972
0.766934
0.766871
0.766809
0.766767
0.766734
0.766704
0.766691
0.766707
0.766767
0.766864
0.766965
0.766988
0.76699
0.76699
0.76699
0.76699
0.76699
0.76699
0.76699
0.76699
0.76699
0.76699
0.76699
0.76699
0.76699
0.76699
0.766988
0.766989
0.766933
0.766977
0.766146
0.766597
0.765444
0.765644
0.765893
0.765625
0.765119
0.765231
0.765262
0.765099
0.765022
0.765001
0.764721
0.764761
0.765645
0.765556
0.765067
0.765126
0.766051
0.765948
0.765478
0.765375
0.766169
0.766059
0.765824
0.765943
0.766454
0.766429
0.766359
0.766271
0.765865
0.766078
0.766224
0.76626
0.764626
0.764791
0.764974
0.765174
0.764064
0.764163
0.764264
0.763621
0.763659
0.763917
0.763758
0.763712
0.763571
0.763587
0.763556
0.763563
0.763613
0.764428
0.764564
0.763862
0.763657
0.763698
0.764071
0.76486
0.764654
0.764688
0.764803
0.764844
0.764882
0.765019
0.765607
0.765041
0.76699
0.76699
0.76699
0.76699
0.76699
0.76699
0.76699
0.766989
0.766987
0.766982
0.766962
0.766918
0.766857
0.766799
0.766756
0.766719
0.766694
0.766692
0.766731
0.766813
0.766924
0.766984
0.76699
0.76699
0.76699
0.76699
0.76699
0.76699
0.76699
0.76699
0.76699
0.76699
0.76699
0.76699
0.76699
0.76699
0.76699
0.766985
0.766989
0.766863
0.766961
0.765712
0.765824
0.7661
0.766384
0.76524
0.765431
0.765502
0.764842
0.764957
0.765064
0.764905
0.764716
0.76471
0.764491
0.764552
0.765282
0.765198
0.764741
0.764782
0.765706
0.76559
0.765078
0.764984
0.765819
0.765684
0.76542
0.76555
0.766248
0.766181
0.766077
0.765954
0.765377
0.765561
0.765703
0.765772
0.764365
0.764462
0.764553
0.764632
0.763994
0.764064
0.764078
0.763566
0.763579
0.763791
0.763649
0.763626
0.763515
0.763567
0.763496
0.763509
0.763573
0.764258
0.764395
0.763796
0.763624
0.763683
0.763919
0.764772
0.764478
0.76456
0.764695
0.764764
0.764775
0.764769
0.765659
0.764756
0.76699
0.76699
0.76699
0.76699
0.76699
0.76699
0.76699
0.766989
0.766986
0.766978
0.766952
0.766904
0.766845
0.76679
0.766745
0.766706
0.76669
0.766707
0.76677
0.766873
0.766971
0.766989
0.76699
0.76699
0.76699
0.76699
0.76699
0.76699
0.76699
0.76699
0.76699
0.76699
0.76699
0.76699
0.76699
0.76699
0.76699
0.76699
0.76699
0.766981
0.766988
0.766768
0.766937
0.765628
0.7658
0.766011
0.766309
0.765132
0.765309
0.765444
0.76464
0.764761
0.764964
0.764798
0.764437
0.764452
0.764298
0.76439
0.764905
0.764835
0.764437
0.764454
0.765297
0.765183
0.764661
0.764586
0.765345
0.765207
0.764954
0.765078
0.765773
0.765742
0.765624
0.765492
0.764705
0.764773
0.764823
0.764872
0.764167
0.764227
0.76429
0.76433
0.763842
0.763874
0.76374
0.763514
0.763527
0.76363
0.763595
0.763566
0.763473
0.763517
0.763466
0.763485
0.763564
0.764055
0.764188
0.763777
0.763645
0.763727
0.763875
0.764686
0.764351
0.76445
0.764596
0.764677
0.764655
0.764626
0.76585
0.764646
0.76699
0.76699
0.76699
0.76699
0.76699
0.76699
0.76699
0.766988
0.766984
0.766972
0.76694
0.766892
0.766834
0.766781
0.766732
0.766696
0.766695
0.766737
0.766826
0.76694