/*--------------------------------*- C++ -*----------------------------------*\
  =========                 |
  \\      /  F ield         | OpenFOAM: The Open Source CFD Toolbox
   \\    /   O peration     | Website:  https://openfoam.org
    \\  /    A nd           | Version:  dev
     \\/     M anipulation  |
\*---------------------------------------------------------------------------*/
FoamFile
{
    version     2.0;
    format      ascii;
    class       volScalarField;
    location    "2500";
    object      nut;
}
// * * * * * * * * * * * * * * * * * * * * * * * * * * * * * * * * * * * * * //

dimensions      [0 2 -1 0 0 0 0];

internalField   nonuniform List<scalar> 
9842
(
0.000123969
0.000128225
0.000119588
0.000121024
0.000147469
0.000108057
0.000112356
0.000157989
0.000138288
0.000104046
0.000108776
0.000156232
0.000158412
0.000119661
0.000102191
0.000105691
0.000146976
0.000172248
0.000145822
0.000110156
0.000101781
0.000104292
0.000133524
0.000175173
0.000166785
0.00012564
0.000105669
0.000101484
0.00010356
0.000123773
0.000172174
0.000179425
0.000148447
0.000113579
0.000103974
0.000101027
0.000102835
0.000115862
0.000161668
0.000187883
0.000170263
0.000128986
0.000107808
0.00010318
0.000100567
0.000102148
0.000110642
0.000145204
0.000188387
0.00018459
0.000148615
0.000116373
0.0001051
0.000102401
0.00010038
0.000101632
0.000107395
0.000132535
0.000184345
0.000193889
0.000169711
0.000130542
0.000109539
0.000103941
0.000101567
0.000100323
0.000101319
0.000105782
0.000123011
0.000172317
0.000200327
0.000186818
0.000147181
0.000118841
0.000106081
0.000103152
0.000100952
0.000100326
0.000101111
0.00010492
0.000116276
0.000155233
0.000199877
0.000197872
0.000166864
0.000130079
0.000111584
0.000104405
0.000102274
0.00010057
0.00010036
0.00010097
0.000104424
0.000112001
0.000140697
0.000194914
0.00020568
0.000185381
0.000145066
0.000119723
0.00010718
0.000103465
0.00010146
0.000100396
0.000100395
0.0001009
0.000104115
0.000109384
0.00013038
0.000182568
0.000210555
0.000199637
0.000162219
0.000129344
0.000113169
0.000104863
0.000102688
0.000100834
0.000100386
0.00010041
0.000100901
0.0001039
0.000107819
0.000122655
0.000165117
0.00020977
0.000208459
0.00018095
0.000142047
0.000119774
0.000108509
0.000103649
0.00010189
0.00010043
0.000100481
0.000100424
0.000100943
0.00010373
0.000106899
0.000117525
0.000149595
0.000204475
0.000215565
0.000197305
0.000157682
0.000128322
0.000113799
0.000105492
0.000102868
0.000101163
0.000100263
0.000100623
0.000100442
0.000101011
0.000103549
0.000106436
0.000114272
0.000138071
0.000191674
0.000219974
0.000209981
0.000174639
0.000138978
0.000119933
0.000109527
0.000103871
0.000102168
0.000100613
0.000100292
0.000100799
0.00010046
0.000101097
0.000103435
0.000106155
0.000112263
0.000129786
0.000174234
0.00021905
0.000218143
0.000192259
0.000152904
0.00012695
0.000114475
0.000106293
0.000102956
0.000101496
0.000100288
0.000100452
0.000101018
0.00010048
0.000101197
0.000103397
0.000105984
0.000110976
0.00012401
0.000158187
0.00021393
0.000224834
0.000207429
0.000168693
0.00013666
0.000119644
0.000110409
0.000104224
0.000102333
0.000100936
0.000100196
0.000100715
0.000101283
0.000100552
0.000101312
0.000103436
0.000105902
0.000110123
0.000120228
0.000146009
0.000201263
0.000229148
0.000219735
0.000185379
0.000148284
0.000126263
0.000114714
0.000107222
0.000103104
0.000101788
0.000100555
0.000100319
0.000101059
0.00010151
0.000100685
0.000101438
0.000103522
0.000105852
0.000109505
0.000117841
0.000137314
0.000184006
0.000227994
0.00022725
0.000202204
0.000162968
0.000134275
0.000119642
0.000111085
0.000104863
0.000102462
0.000101351
0.000100422
0.000100643
0.000101472
0.000101687
0.000100855
0.000101563
0.000103623
0.000105826
0.000109067
0.000116138
0.000131086
0.000167769
0.000223335
0.000233499
0.000216856
0.000178832
0.000144888
0.000125625
0.000115113
0.000108216
0.000103458
0.000102077
0.0001011
0.000100522
0.000101117
0.000101939
0.000101828
0.000101036
0.000101675
0.000103734
0.000105819
0.000108855
0.000114772
0.000126953
0.000155092
0.000211463
0.00023798
0.000228817
0.000195338
0.000157505
0.00013281
0.000119885
0.000111828
0.000105923
0.000102748
0.000101883
0.000101104
0.00010088
0.000101683
0.000102435
0.000101947
0.000101179
0.000101767
0.00010385
0.000105841
0.000108761
0.000113781
0.000124309
0.000145954
0.000194662
0.000236736
0.000235943
0.000211363
0.000172734
0.000141957
0.000125324
0.000115733
0.000109345
0.000104354
0.000102483
0.000101947
0.00010136
0.000101459
0.000102305
0.000102926
0.000102092
0.000101239
0.000101834
0.000103956
0.000105894
0.000108703
0.000113061
0.000122234
0.000139491
0.000178752
0.000233043
0.000242032
0.000225504
0.000188582
0.000153529
0.000132217
0.000120437
0.000112808
0.000107517
0.000103591
0.000102576
0.0001023
0.000101931
0.000102185
0.000102935
0.00010332
0.000102235
0.000101199
0.000101871
0.000104031
0.000105959
0.000108653
0.000112541
0.000120468
0.000135137
0.000165789
0.000223043
0.000247403
0.000237553
0.000204963
0.000167108
0.000140395
0.000126102
0.000117116
0.000110893
0.000106317
0.000103476
0.000102982
0.000103025
0.000102866
0.000102998
0.000103461
0.000103499
0.000102277
0.000101037
0.000101864
0.000104066
0.000105993
0.000108578
0.000112115
0.000119029
0.000132047
0.000156136
0.000206661
0.000246947
0.000245209
0.000220473
0.000182933
0.000150945
0.000132698
0.000122128
0.000114945
0.000109816
0.00010583
0.000103891
0.000103761
0.000104073
0.000104178
0.000104082
0.000103905
0.00010339
0.000102136
0.000100754
0.000101829
0.000104062
0.000105968
0.000108435
0.000111724
0.000117846
0.000129583
0.00014929
0.000191295
0.00024407
0.000251831
0.0002347
0.000198897
0.000163765
0.000141088
0.00012834
0.000119771
0.000113818
0.000109637
0.000106223
0.000104831
0.000104929
0.000105391
0.000105605
0.000105407
0.000104629
0.00010321
0.000101779
0.000100428
0.000101782
0.000104017
0.000105889
0.000108226
0.000111366
0.000116864
0.000127432
0.000144572
0.000178071
0.000237597
0.000258778
0.000247415
0.000215468
0.000178403
0.000150978
0.000135744
0.000125996
0.000118941
0.000114062
0.000110373
0.000107317
0.000106421
0.000106562
0.000106868
0.00010693
0.000106429
0.000105244
0.000103135
0.000101129
0.000100201
0.00010171
0.000103904
0.000105769
0.00010797
0.00011103
0.000116035
0.000125514
0.000141118
0.00016792
0.00022276
0.000261006
0.000256634
0.000231177
0.000195079
0.000163404
0.000144662
0.000133453
0.000125827
0.000119826
0.000115368
0.000112101
0.000109422
0.000108668
0.000108701
0.000108617
0.000107964
0.000106887
0.00010524
0.000102939
0.000100369
0.000100074
0.0001016
0.00010371
0.000105593
0.000107679
0.000110674
0.00011527
0.000123905
0.000138285
0.000160436
0.000206661
0.000258704
0.000264985
0.000246112
0.000211646
0.000178036
0.000155697
0.000143125
0.000134256
0.000127609
0.000122332
0.000118216
0.000115137
0.000112551
0.000111649
0.000110186
0.000106771
0.000105135
0.000107148
0.000104796
0.000102482
9.98134e-05
0.000100001
0.00010146
0.000103451
0.000105324
0.000107341
0.000110272
0.0001145
0.000122533
0.000135671
0.000155052
0.000193237
0.000254954
0.000274013
0.000260319
0.000228922
0.000194056
0.000168674
0.00015467
0.000145512
0.000138218
0.000132336
0.000127395
0.000123167
0.000119765
0.000108217
0.00010013
9.56514e-05
9.32214e-05
9.24993e-05
9.53485e-05
0.000104161
0.000101839
9.9778e-05
0.000100155
0.000101309
0.000103154
0.000104982
0.000106909
0.000109821
0.000113688
0.000121227
0.000133211
0.000151191
0.000181997
0.000244966
0.000279683
0.000272045
0.000245553
0.000211764
0.00018374
0.00016854
0.000159542
0.000153098
0.000147035
0.000141298
0.00013531
0.00011656
0.00010299
9.40064e-05
8.73421e-05
8.33882e-05
8.07937e-05
7.96782e-05
8.21844e-05
9.11221e-05
0.000101591
0.000100875
9.70418e-05
9.27757e-05
0.000101152
0.000102821
0.000104541
0.000106377
0.000109257
0.000112823
0.000119836
0.000130939
0.000147978
0.000173348
0.00022666
0.000279884
0.000283233
0.000261875
0.000228977
0.000200626
0.000184513
0.000177413
0.000172702
0.000167762
0.000160278
0.000151065
0.000121915
0.000100651
8.8293e-05
8.08916e-05
7.54481e-05
7.18725e-05
6.91082e-05
6.65656e-05
6.80675e-05
7.22489e-05
7.92878e-05
8.00808e-05
6.97881e-05
7.41742e-05
6.98039e-05
0.000100956
0.00010243
0.000103996
0.000105795
0.000108559
0.000111951
0.000118161
0.000128924
0.000144836
0.000166911
0.000211434
0.000276719
0.000294863
0.000278198
0.000247147
0.000218116
0.000202402
0.000198149
0.000197327
0.000191712
0.0001815
0.000168988
0.000157641
0.000134345
9.83774e-05
8.0817e-05
7.19117e-05
6.61524e-05
6.25239e-05
5.88984e-05
5.59464e-05
5.56743e-05
7.13539e-05
5.88537e-05
6.17969e-05
5.71736e-05
5.417e-05
6.46564e-05
5.74526e-05
5.77546e-05
5.45896e-05
0.000100746
0.000102009
0.000103428
0.00010518
0.000107797
0.000111066
0.000116687
0.000127218
0.0001416
0.000162062
0.000198688
0.000270525
0.000303894
0.000292919
0.000265144
0.000237133
0.000221233
0.000221745
0.000226811
0.000223945
0.000209333
0.000194679
0.000174019
0.000155806
0.000145657
0.000119291
8.16787e-05
6.64798e-05
5.88454e-05
5.42175e-05
4.98096e-05
4.79894e-05
5.0445e-05
4.43526e-05
5.12514e-05
5.17407e-05
4.54879e-05
4.58009e-05
5.23156e-05
4.83616e-05
4.60772e-05
4.43182e-05
0.000100541
0.00010157
0.000102844
0.000104509
0.000107001
0.000110161
0.000115373
0.000125468
0.000138555
0.000157932
0.00018811
0.000253494
0.000307154
0.000307239
0.000283156
0.000254985
0.000240401
0.000245821
0.000261471
0.000276386
0.000286754
0.000286013
0.000250496
0.000198797
0.000160257
0.000144415
0.000136281
9.07454e-05
6.46359e-05
5.28994e-05
4.62654e-05
4.25376e-05
4.16615e-05
3.9053e-05
4.31584e-05
4.06956e-05
4.23903e-05
4.39984e-05
4.16951e-05
3.98887e-05
4.32452e-05
4.1005e-05
3.79029e-05
3.70127e-05
0.000100348
0.000101125
0.000102262
0.00010379
0.0001062
0.000109241
0.000114049
0.000123531
0.000135789
0.000153991
0.000179634
0.000232683
0.000304539
0.000321871
0.000301881
0.000273251
0.00025738
0.000267701
0.000297122
0.000338005
0.000392117
0.000444832
0.000462623
0.000413328
0.000304746
0.000201117
0.000154689
0.000140421
0.000106578
6.49335e-05
4.83183e-05
3.94022e-05
3.83007e-05
3.73159e-05
3.62023e-05
3.59747e-05
3.84557e-05
3.59299e-05
3.82512e-05
3.7959e-05
3.66435e-05
3.5143e-05
3.66426e-05
3.54331e-05
3.19145e-05
3.16895e-05
0.000100168
0.000100692
0.000101707
0.000103061
0.000105413
0.000108312
0.000112726
0.000121285
0.000133314
0.000149992
0.000173035
0.000216962
0.000299012
0.000333934
0.000319643
0.000291594
0.000273909
0.000284926
0.000326746
0.000396681
0.000493463
0.00059725
0.000646944
0.000632595
0.000568465
0.000444038
0.000282321
0.000177886
0.000147301
0.000126947
6.75747e-05
4.46089e-05
3.621e-05
3.57857e-05
3.35756e-05
3.46388e-05
3.34861e-05
3.26518e-05
3.50953e-05
3.26867e-05
3.39628e-05
3.33868e-05
3.26583e-05
3.14177e-05
3.18172e-05
3.12543e-05
2.74898e-05
2.77852e-05
0.000100003
0.000100307
0.000101191
0.000102369
0.000104643
0.000107414
0.000111477
0.000118996
0.00013101
0.000146006
0.000167717
0.000203472
0.000283959
0.000339128
0.000336713
0.000310036
0.000288706
0.000296939
0.000347511
0.000436369
0.000578168
0.000687534
0.000719008
0.000721795
0.000693033
0.000636416
0.000538053
0.000376646
0.000217905
0.000155416
0.00014112
7.26642e-05
3.6303e-05
4.17628e-05
3.25966e-05
3.32827e-05
3.16223e-05
3.10157e-05
3.10175e-05
3.01794e-05
3.16512e-05
3.00982e-05
3.05938e-05
2.99739e-05
2.93998e-05
2.83092e-05
2.82736e-05
2.81946e-05
2.42664e-05
2.49385e-05
9.98732e-05
0.000100021
0.000100762
0.000101829
0.000103975
0.000106573
0.000110345
0.000116888
0.000128591
0.000142376
0.000162891
0.000192524
0.000256104
0.000336043
0.000353701
0.000330326
0.000303308
0.000305789
0.000357249
0.000462843
0.000629421
0.000716582
0.000739919
0.000726668
0.000699643
0.000664516
0.000624251
0.000558421
0.000438862
0.000273402
0.000167473
0.00014171
5.51536e-05
8.68152e-05
3.49418e-05
4.54825e-05
3.04378e-05
3.56465e-05
2.8974e-05
3.12915e-05
2.89414e-05
2.9058e-05
2.9096e-05
2.8616e-05
2.82328e-05
2.70755e-05
2.7276e-05
2.62778e-05
2.57955e-05
2.56085e-05
2.19269e-05
2.30294e-05
9.98115e-05
9.98965e-05
0.000100509
0.000101576
0.000103506
0.000105755
0.000109261
0.000115063
0.000125943
0.000139267
0.000158111
0.000183769
0.000234356
0.0003296
0.000367411
0.000350428
0.000320062
0.000311448
0.000358967
0.000471981
0.000649967
0.000715406
0.000722811
0.000689656
0.000655276
0.000631279
0.000608361
0.00057884
0.000534966
0.000454332
0.00031691
0.000188597
0.000116417
0.000133616
6.54262e-05
0.000102292
4.74349e-05
7.65773e-05
4.14537e-05
6.90177e-05
3.56551e-05
5.99991e-05
3.10768e-05
4.62097e-05
2.83089e-05
3.5223e-05
2.80855e-05
2.50457e-05
2.76467e-05
2.66583e-05
2.38544e-05
2.3489e-05
2.0498e-05
2.17934e-05
9.99433e-05
0.000100167
0.000100661
0.00010164
0.000103262
0.000105138
0.000108265
0.000113338
0.000123127
0.00013657
0.000153431
0.000176802
0.000217574
0.00031294
0.000372041
0.000368817
0.000337991
0.000319786
0.000358101
0.000470106
0.00065116
0.000708845
0.000679424
0.000587072
0.000518271
0.000526586
0.000541193
0.000542619
0.00053323
0.000511801
0.000455751
0.000350811
0.000183985
0.00026373
0.000112002
0.000157773
9.43269e-05
0.000113001
9.41387e-05
0.000109172
9.85285e-05
0.000113386
9.31249e-05
0.000115015
6.42277e-05
0.000110835
4.0214e-05
8.69895e-05
4.44588e-05
2.49715e-05
4.67056e-05
4.46476e-05
2.18941e-05
2.30232e-05
2.00576e-05
2.05338e-05
0.000100837
0.00010144
0.000101445
0.000101944
0.000103294
0.00010493
0.000107539
0.000111823
0.000120383
0.000133789
0.00014928
0.0001708
0.000203829
0.000277963
0.000367183
0.000386454
0.000359066
0.000329506
0.000349982
0.000456432
0.000647254
0.000700123
0.000634317
0.000481602
0.000401561
0.00042387
0.000473939
0.000499913
0.000507841
0.000508862
0.000493349
0.000462119
0.000331846
0.000403287
0.000229229
0.000309991
0.000171653
0.000245644
0.000158526
0.000228746
0.000156764
0.000229011
0.000152748
0.000225004
0.000138497
0.000207813
0.000123999
0.000169691
0.000104469
0.000135208
0.000107169
3.92252e-05
0.000106963
0.000102995
2.1018e-05
3.16893e-05
2.14293e-05
1.94574e-05
0.000101483
0.000103292
0.000103058
0.00010274
0.00010372
0.000104937
0.000107002
0.000110656
0.000118063
0.000130748
0.000145757
0.000165201
0.000192771
0.000248736
0.000358888
0.000399813
0.000381128
0.000343407
0.000342695
0.000429171
0.00063146
0.000695924
0.000608685
0.000408486
0.000320719
0.000332415
0.000396638
0.000457089
0.000476
0.000482314
0.00048565
0.000493918
0.000496834
0.000378273
0.000447964
0.000320916
0.000390348
0.000301462
0.000369126
0.000304711
0.000375265
0.000306294
0.000382685
0.000296065
0.00037895
0.000266729
0.000361248
0.000207255
0.000318933
0.000144633
0.000241319
0.00015009
9.52284e-05
0.000150967
0.000145998
2.47959e-05
8.57885e-05
2.54624e-05
2.0364e-05
0.000103613
0.00010877
0.000108087
0.000104856
0.000104561
0.000105135
0.000106553
0.000109861
0.000116086
0.00012785
0.000142509
0.000159876
0.000184239
0.000228234
0.000336372
0.000401112
0.000399043
0.000361578
0.000340668
0.000401044
0.000589701
0.000690472
0.000607581
0.000383909
0.000282447
0.000271219
0.000316553
0.000386519
0.000446693
0.000460743
0.000469025
0.000488578
0.000516725
0.000526801
0.00054198
0.000450863
0.000496991
0.000431282
0.00048278
0.000439659
0.000489371
0.000452381
0.000503382
0.000450128
0.000501923
0.000437067
0.000491497
0.000407925
0.000470462
0.000354719
0.000435026
0.00026389
0.000374641
0.000272243
0.000135774
0.00026833
0.000254538
6.236e-05
0.000122643
2.35787e-05
4.14777e-05
0.000108893
0.000120833
0.000118871
0.000110667
0.000106547
0.000105937
0.000106483
0.000109337
0.000114567
0.000125464
0.000139325
0.000155044
0.000177056
0.000212393
0.000295181
0.000394771
0.00041521
0.000384937
0.000346907
0.000374585
0.000529722
0.000680617
0.000613517
0.000385444
0.000276348
0.000249566
0.000260149
0.000310254
0.000386752
0.00044499
0.000461978
0.000479071
0.000506125
0.000539695
0.000526071
0.000549779
0.000545851
0.000525198
0.000547099
0.000530651
0.000552125
0.000538513
0.000556019
0.000535864
0.000553861
0.000525649
0.000548165
0.000509298
0.000532493
0.000485164
0.00051351
0.000448046
0.000489368
0.00038189
0.000449578
0.000379531
0.000232702
0.000371713
0.000359067
0.000108214
0.000210921
1.49209e-05
9.04687e-05
0.000120593
0.000143331
0.000140112
0.000124931
0.000111853
0.000108087
0.000106921
0.00010914
0.000113287
0.000123181
0.000136302
0.000150694
0.000170187
0.000199556
0.000259835
0.000382788
0.000426067
0.000407617
0.000358931
0.000357677
0.000464412
0.000661646
0.000630762
0.00039918
0.000282875
0.000249906
0.000240048
0.000255934
0.000316215
0.000404405
0.000455934
0.000474669
0.000491863
0.000509438
0.000497506
0.000532415
0.000515327
0.000545801
0.000531317
0.0005573
0.000557368
0.000561474
0.000563386
0.000558949
0.000561903
0.000553944
0.000554737
0.000544305
0.000549767
0.000532301
0.000549292
0.000519344
0.000539171
0.000493497
0.000525115
0.000446937
0.000495287
0.000439644
0.00034215
0.000431191
0.000418136
0.000200851
0.000323812
6.4233e-05
0.000213885
0.000120461
0.000157224
0.000166562
0.00015235
0.000126502
0.000113087
0.00010861
0.000109718
0.000112452
0.00012104
0.000133414
0.000146712
0.000163677
0.000189814
0.000234941
0.000351716
0.000423371
0.000423451
0.000376754
0.000351576
0.000414823
0.000619119
0.000657023
0.000433535
0.000304833
0.000259704
0.000240952
0.000241475
0.000275449
0.000340195
0.00042267
0.000466429
0.0004836
0.000482488
0.000496238
0.000489091
0.000514454
0.000498043
0.000527289
0.000510188
0.000554475
0.000541999
0.000556979
0.000545708
0.000553123
0.000546695
0.000552341
0.000553509
0.00055892
0.000573908
0.000571974
0.000605222
0.000567811
0.000614415
0.000543067
0.000593899
0.000494588
0.000554181
0.00048957
0.00040101
0.000478439
0.000461917
0.00031107
0.000380585
0.000128016
0.00019253
0.000129634
0.000172392
0.000176364
0.000154813
0.000126396
0.000113186
0.000110675
0.000112271
0.000119157
0.000130642
0.000142965
0.000157788
0.000181336
0.000217852
0.000307792
0.000416089
0.00043635
0.000404617
0.000356855
0.000379154
0.000539537
0.000664952
0.00050261
0.00035791
0.000287116
0.000254092
0.000241457
0.000259631
0.000306942
0.000363402
0.000428654
0.000471191
0.00048207
0.000494445
0.000502117
0.000494051
0.0004893
0.000500152
0.000498035
0.000506073
0.000503807
0.000533167
0.000520273
0.000537746
0.000529934
0.000553587
0.000552556
0.000591461
0.000609592
0.000641872
0.000674995
0.000647899
0.000675103
0.000624774
0.000647845
0.000597432
0.000617093
0.000554701
0.000588514
0.000545364
0.000437471
0.000527445
0.000501142
0.000342342
0.00040101
8.30675e-05
0.000241974
0.000125983
0.000174472
0.000177749
0.000153187
0.000123721
0.000112125
0.000112662
0.000117217
0.000127982
0.000139473
0.000152592
0.000173539
0.000204242
0.00026852
0.000398499
0.000442484
0.000426971
0.000368438
0.000360058
0.00046082
0.000653543
0.000579619
0.000436101
0.000354283
0.000287183
0.000255376
0.000247049
0.000289164
0.000335145
0.000383422
0.000434879
0.000475996
0.000504884
0.000509758
0.000523299
0.000529741
0.000497718
0.000509634
0.000504265
0.000513222
0.000517104
0.000523311
0.000518505
0.000515789
0.000553785
0.000555076
0.000625015
0.000638854
0.000701298
0.000723303
0.000698811
0.000722947
0.000667237
0.00068821
0.00062944
0.000634567
0.000604141
0.00059299
0.000573979
0.000580939
0.000559671
0.000467838
0.000539987
0.000526322
0.000504194
0.000347586
0.000430732
6.15752e-05
0.000266409
0.000119499
0.000173835
0.000176744
0.000145647
0.000117185
0.000113654
0.000115887
0.000125586
0.000136299
0.000147969
0.000166638
0.000194014
0.000239301
0.000359345
0.000438227
0.000439499
0.000385239
0.000354882
0.000403927
0.000594067
0.000634821
0.000509621
0.000447927
0.000362789
0.000291376
0.00026342
0.000274072
0.000325777
0.000367843
0.000418904
0.000467163
0.000523961
0.000538602
0.000545568
0.000563122
0.000575948
0.000531944
0.0005519
0.000540528
0.000564137
0.000574767
0.000593642
0.000558297
0.000564604
0.000651421
0.000658747
0.000739269
0.000748445
0.000746398
0.000766159
0.000711673
0.000737806
0.000638981
0.000649421
0.000568766
0.000544983
0.000548233
0.000502129
0.000556662
0.000517202
0.000539273
0.000547463
0.000540591
0.000512764
0.000471008
0.000498145
0.000531749
0.000527581
0.000532454
0.000522858
0.000365664
0.000405617
0.000481402
0.00046417
0.000436593
0.000132861
0.000390609
0.00018533
0.000288738
0.000116729
0.000173677
0.000171528
0.000131206
0.000115103
0.000115236
0.000122708
0.000133242
0.000143639
0.000160574
0.000186385
0.000220774
0.000315994
0.000428872
0.000447406
0.000417838
0.000359136
0.000369793
0.000497529
0.000644213
0.00057114
0.000527177
0.00050818
0.000365987
0.000304179
0.000295474
0.000316819
0.000363355
0.000414173
0.000468341
0.000530744
0.00058957
0.000596187
0.000583893
0.00058541
0.000628051
0.000633275
0.000591726
0.000608953
0.000617996
0.000638041
0.000667833
0.000673266
0.000662833
0.000665647
0.000751685
0.000745027
0.000779523
0.000785687
0.00075234
0.00072543
0.000668531
0.000665723
0.000537403
0.000549375
0.000502647
0.000490667
0.000487206
0.000482725
0.000495717
0.000475036
0.000466898
0.00044928
0.000461728
0.000503805
0.00052044
0.000494471
0.000479886
0.000514136
0.000512149
0.000500148
0.00052173
0.000506312
0.000509733
0.000514091
0.000421607
0.000485567
0.000468455
0.000446309
0.000217207
0.000184806
0.000410213
0.000268571
0.000119924
0.000177884
0.000156275
0.000120941
0.000115977
0.00011978
0.00012992
0.000139759
0.000155482
0.000180347
0.000208529
0.000277612
0.000404309
0.00044856
0.000436692
0.000370305
0.000353705
0.000426141
0.000619757
0.000617953
0.000579264
0.00061783
0.00055362
0.000381316
0.000348348
0.000337366
0.00033913
0.000393469
0.000447184
0.000509201
0.000577415
0.000627575
0.000615455
0.000634045
0.000633182
0.000669241
0.000667004
0.000656141
0.000667464
0.000680416
0.000686484
0.00071237
0.000709132
0.000733235
0.000720955
0.00077765
0.000768138
0.000704816
0.000693146
0.000630818
0.000606335
0.000581696
0.000548262
0.000484684
0.000487278
0.000496485
0.00050801
0.000460849
0.000457125
0.00045571
0.000460758
0.000446037
0.000440279
0.000424981
0.000433739
0.000469137
0.000488595
0.000461459
0.000449617
0.000484603
0.000505428
0.000495654
0.000504203
0.000482311
0.000481826
0.000500792
0.000429395
0.000483622
0.000467502
0.000449104
0.000172743
0.000183392
1.55102e-05
0.000189775
0.000416666
0.000266669
0.000132796
0.000180379
0.000137694
0.000118028
0.000118325
0.000126611
0.000136199
0.000151152
0.00017521
0.000200581
0.000246104
0.000363311
0.000444792
0.000446089
0.000387591
0.000346837
0.000378038
0.000521069
0.000629779
0.00060742
0.00066945
0.000714997
0.000587
0.000435597
0.000399165
0.000363186
0.000354112
0.000390349
0.000440519
0.000459807
0.000532107
0.00041237
0.000632257
0.000593653
0.000660941
0.000650259
0.000688297
0.000677589
0.000691226
0.000692703
0.000710177
0.000710891
0.00072737
0.00072064
0.000752154
0.000737475
0.000684559
0.000678485
0.000596436
0.000587197
0.000513482
0.000488656
0.000523279
0.000484244
0.000509347
0.000443689
0.000458005
0.000463143
0.000472082
0.000483742
0.000435463
0.000432643
0.000432996
0.000433859
0.000421128
0.000421108
0.00041182
0.000414668
0.000441153
0.00045711
0.000435351
0.000423837
0.000454853
0.000494868
0.000486532
0.000482323
0.000454472
0.000455846
0.000482548
0.000429629
0.000476245
0.00046225
0.000446895
0.000261509
0.000180292
6.33333e-05
0.000171107
0.000418794
0.000156724
0.000171748
0.00012683
0.000119405
0.000124177
0.000133235
0.000147674
0.000170475
0.000195151
0.000225131
0.000324342
0.000432158
0.0004477
0.000422436
0.000353071
0.000350406
0.000436822
0.000614181
0.000621441
0.000671218
0.000783698
0.000779695
0.000658787
0.000500613
0.000433612
0.000391672
0.000364012
0.000333172
0.000290489
0.000244303
0.000376245
0.000263217
0.000575402
0.000492103
0.000659083
0.000627504
0.000672874
0.000641269
0.000706095
0.000693807
0.000712336
0.000697587
0.000692898
0.000682742
0.000678695
0.000672935
0.000581777
0.000575345
0.00049232
0.000483465
0.000476849
0.000435133
0.000464221
0.000426786
0.000484508
0.00045361
0.00042325
0.000415643
0.000436701
0.000443614
0.000453594
0.000465559
0.000419937
0.000419809
0.000421573
0.000412088
0.000406261
0.0004118
0.000405111
0.00040448
0.000416293
0.00043184
0.000411198
0.000404488
0.000430285
0.000480711
0.00047472
0.000458812
0.000430769
0.000432968
0.000462124
0.000428336
0.000465727
0.000454273
0.00044397
0.000426221
0.000251915
0.000217844
7.05325e-05
0.000221334
0.000181413
0.000154195
0.000124761
0.000124142
0.000132385
0.000145697
0.000167122
0.000190997
0.000212947
0.000288201
0.000403225
0.000446399
0.000436855
0.000363442
0.000334173
0.000378747
0.00053166
0.000622506
0.000661601
0.000780885
0.000879742
0.000862444
0.000748144
0.000571596
0.000465542
0.000399716
0.000308569
0.000248483
0.000203031
0.000180532
0.000173477
0.000232486
0.000191616
0.000433631
0.000318003
0.000595111
0.000527991
0.000594236
0.000535507
0.000673786
0.000639621
0.000665303
0.000628973
0.000568833
0.000565401
0.000572124
0.000572196
0.000471869
0.000465746
0.000398019
0.000383858
0.000404565
0.000409975
0.000405414
0.000413913
0.000431788
0.000392563
0.0003673
0.000353278
0.000425594
0.000432053
0.000440774
0.000432945
0.000412326
0.000413988
0.000416269
0.000398901
0.000397445
0.000407052
0.000400741
0.000398296
0.000398104
0.000408198
0.000393121
0.000391991
0.00040751
0.000463407
0.000460775
0.000436556
0.000409088
0.000412652
0.00044113
0.000432047
0.000453674
0.000446581
0.000442764
0.000438144
0.000298795
0.000286158
5.72568e-05
0.000194654
0.000182637
0.000144532
0.000127724
0.000133658
0.000146085
0.000165587
0.000188002
0.000205154
0.000258843
0.000368544
0.000440917
0.000443061
0.000389047
0.000329079
0.00034129
0.000435676
0.000603717
0.000645411
0.000758189
0.00089051
0.000971176
0.000955029
0.000849514
0.000665732
0.000481444
0.000340814
0.000245641
0.000195774
0.000162362
0.000161487
0.000158593
0.000176255
0.000164527
0.000273442
0.000207811
0.000460139
0.000366784
0.00046072
0.000389524
0.000581899
0.000525445
0.000569786
0.000516587
0.000438997
0.000442441
0.000454179
0.000448908
0.000358504
0.000350956
0.000346488
0.000332806
0.000327111
0.000331327
0.000342728
0.000335528
0.000327415
0.000316467
0.000379271
0.000340659
0.000316754
0.000302971
0.000420109
0.000425829
0.000432789
0.000390296
0.000408324
0.000410242
0.000412708
0.000390352
0.000391019
0.00040248
0.000395385
0.000392698
0.000385566
0.000389572
0.000379896
0.000383012
0.000388244
0.000445005
0.000445855
0.000417579
0.000388994
0.000392369
0.000422317
0.000439872
0.000442602
0.000440113
0.000442716
0.000383429
0.00033604
0.000335774
4.51649e-05
0.000159313
0.00017902
0.000143955
0.000137515
0.000148124
0.000166232
0.000185987
0.000201191
0.00023828
0.000335113
0.000426605
0.000441422
0.000418061
0.000338463
0.000317633
0.000371314
0.000517611
0.000627374
0.000701271
0.000870877
0.000992257
0.00106601
0.00104774
0.000942616
0.000734681
0.000474008
0.000288512
0.000208572
0.000150847
0.000148692
0.000137482
0.000152792
0.000149595
0.000155701
0.000153185
0.000192929
0.000165647
0.000315234
0.000245402
0.000340202
0.000284402
0.000457852
0.000398155
0.000461759
0.000409192
0.000322752
0.000327981
0.000335174
0.000329707
0.000323133
0.000330008
0.000253907
0.000293464
0.000288856
0.000273868
0.000278258
0.000295383
0.000290614
0.00028738
0.000289622
0.000336523
0.000298816
0.000275271
0.000261834
0.000415922
0.000420664
0.000424826
0.000357126
0.000404694
0.000405877
0.000407852
0.000382961
0.000383874
0.000396645
0.000386559
0.000385117
0.000375764
0.000375269
0.000368962
0.000374381
0.000372256
0.000426885
0.000430562
0.000397954
0.000371536
0.000373849
0.000404306
0.000404082
0.000432517
0.000429204
0.000413483
0.000362998
0.000355757
0.000313781
3.48941e-05
0.00012265
0.000178574
0.000150175
0.000154728
0.000168172
0.000186196
0.00020049
0.000226362
0.000305874
0.000402568
0.000438602
0.000429386
0.000351489
0.000303892
0.00032683
0.00042342
0.000588071
0.000665644
0.000801765
0.000975914
0.00109007
0.00115698
0.00113621
0.00100486
0.00075789
0.000453501
0.0002536
0.000154464
0.000135019
0.000137387
0.000137762
0.000141797
0.000139414
0.000149667
0.000146264
0.000160363
0.00015246
0.000230711
0.000185609
0.000267875
0.00022516
0.000358871
0.000312304
0.000345576
0.000333053
0.000228643
0.000235792
0.000228042
0.000226395
0.000270925
0.000265686
0.000193915
0.000196809
0.000240418
0.000231343
0.000211996
0.000220612
0.000254443
0.000249122
0.000244032
0.000243732
0.000303838
0.000266437
0.000241852
0.000226698
0.000410326
0.00041381
0.000398118
0.000331714
0.000397934
0.000398962
0.000400025
0.000373984
0.000373837
0.0003872
0.00037367
0.000373679
0.0003658
0.000363058
0.000357713
0.000363577
0.000358775
0.000410527
0.000415967
0.000378877
0.000356775
0.000357316
0.00038616
0.000364912
0.000422919
0.000395175
0.00037302
0.000351305
0.000342923
0.000279533
7.83934e-06
9.22129e-05
0.000181991
0.000165864
0.000173966
0.000187798
0.000201604
0.000220651
0.000283577
0.00037668
0.00043184
0.000433174
0.000384091
0.000309499
0.000297555
0.000356589
0.000482035
0.00062734
0.000724007
0.000912719
0.00107559
0.00118216
0.00124408
0.00120658
0.00102379
0.000744791
0.000371447
0.000204531
0.000136291
0.000132479
0.00012831
0.000129741
0.000131165
0.000130299
0.000129018
0.000137662
0.000132612
0.000152398
0.000144728
0.000187274
0.000162414
0.000214223
0.000179897
0.000291978
0.000252897
0.000244796
0.000243449
0.000170145
0.000182609
0.00018067
0.00019295
0.000180496
0.000201984
0.000186797
0.000176747
0.000172333
0.00020355
0.000196715
0.000182665
0.000187801
0.000218187
0.000212961
0.00020867
0.000207362
0.000279722
0.000242847
0.000218092
0.000202672
0.000401859
0.000404023
0.000383507
0.000318871
0.000387834
0.000388466
0.000388713
0.000361546
0.000359404
0.000373611
0.000355288
0.000356976
0.000353306
0.000350721
0.000344007
0.000348745
0.000345473
0.000394602
0.000404794
0.000361549
0.000342137
0.000342723
0.000368722
0.00034592