/*--------------------------------*- C++ -*----------------------------------*\
  =========                 |
  \\      /  F ield         | OpenFOAM: The Open Source CFD Toolbox
   \\    /   O peration     | Website:  https://openfoam.org
    \\  /    A nd           | Version:  dev
     \\/     M anipulation  |
\*---------------------------------------------------------------------------*/
FoamFile
{
    version     2.0;
    format      ascii;
    class       volScalarField;
    location    "2500";
    object      O2;
}
// * * * * * * * * * * * * * * * * * * * * * * * * * * * * * * * * * * * * * //

dimensions      [0 0 0 0 0 0 0];

internalField   nonuniform List<scalar> 
9842
(
0.23301
0.23301
0.23301
0.23301
0.23301
0.23301
0.23301
0.23301
0.23301
0.23301
0.23301
0.23301
0.23301
0.23301
0.23301
0.23301
0.23301
0.23301
0.23301
0.23301
0.23301
0.23301
0.23301
0.23301
0.23301
0.23301
0.23301
0.23301
0.23301
0.23301
0.23301
0.23301
0.23301
0.23301
0.23301
0.23301
0.23301
0.23301
0.23301
0.23301
0.23301
0.23301
0.23301
0.23301
0.23301
0.23301
0.23301
0.23301
0.23301
0.23301
0.23301
0.23301
0.23301
0.23301
0.23301
0.23301
0.23301
0.23301
0.23301
0.23301
0.23301
0.23301
0.23301
0.23301
0.23301
0.23301
0.23301
0.23301
0.23301
0.23301
0.23301
0.23301
0.23301
0.23301
0.23301
0.23301
0.23301
0.23301
0.23301
0.23301
0.23301
0.23301
0.23301
0.23301
0.23301
0.23301
0.23301
0.23301
0.23301
0.23301
0.23301
0.23301
0.23301
0.23301
0.23301
0.23301
0.23301
0.23301
0.23301
0.23301
0.23301
0.23301
0.23301
0.23301
0.23301
0.23301
0.23301
0.23301
0.23301
0.23301
0.23301
0.23301
0.23301
0.23301
0.23301
0.23301
0.23301
0.23301
0.23301
0.23301
0.23301
0.23301
0.23301
0.23301
0.23301
0.23301
0.23301
0.23301
0.23301
0.23301
0.23301
0.23301
0.23301
0.23301
0.23301
0.23301
0.23301
0.23301
0.23301
0.23301
0.23301
0.23301
0.23301
0.23301
0.23301
0.23301
0.23301
0.23301
0.23301
0.23301
0.23301
0.23301
0.23301
0.23301
0.23301
0.23301
0.23301
0.23301
0.23301
0.23301
0.23301
0.23301
0.23301
0.23301
0.23301
0.23301
0.23301
0.23301
0.23301
0.23301
0.23301
0.23301
0.23301
0.23301
0.23301
0.23301
0.23301
0.23301
0.23301
0.23301
0.23301
0.23301
0.23301
0.23301
0.23301
0.23301
0.23301
0.23301
0.23301
0.23301
0.23301
0.23301
0.23301
0.23301
0.23301
0.23301
0.23301
0.23301
0.23301
0.23301
0.23301
0.23301
0.23301
0.23301
0.23301
0.23301
0.23301
0.23301
0.23301
0.23301
0.23301
0.23301
0.23301
0.23301
0.23301
0.23301
0.23301
0.23301
0.23301
0.23301
0.23301
0.23301
0.23301
0.23301
0.23301
0.23301
0.23301
0.23301
0.23301
0.23301
0.23301
0.23301
0.23301
0.23301
0.23301
0.23301
0.23301
0.23301
0.23301
0.23301
0.23301
0.23301
0.23301
0.23301
0.23301
0.23301
0.23301
0.23301
0.23301
0.23301
0.23301
0.23301
0.23301
0.23301
0.23301
0.23301
0.23301
0.23301
0.23301
0.23301
0.23301
0.23301
0.23301
0.23301
0.23301
0.23301
0.23301
0.23301
0.23301
0.23301
0.23301
0.23301
0.23301
0.23301
0.23301
0.23301
0.23301
0.23301
0.23301
0.23301
0.23301
0.23301
0.23301
0.23301
0.23301
0.23301
0.23301
0.23301
0.23301
0.23301
0.23301
0.23301
0.23301
0.23301
0.23301
0.23301
0.23301
0.23301
0.23301
0.23301
0.23301
0.23301
0.23301
0.23301
0.23301
0.23301
0.23301
0.23301
0.23301
0.23301
0.23301
0.23301
0.23301
0.23301
0.23301
0.23301
0.23301
0.23301
0.23301
0.23301
0.23301
0.23301
0.23301
0.23301
0.23301
0.23301
0.23301
0.23301
0.23301
0.23301
0.23301
0.23301
0.23301
0.23301
0.23301
0.23301
0.23301
0.23301
0.23301
0.23301
0.23301
0.23301
0.23301
0.23301
0.23301
0.23301
0.23301
0.23301
0.23301
0.23301
0.23301
0.23301
0.23301
0.23301
0.23301
0.23301
0.23301
0.23301
0.23301
0.23301
0.23301
0.23301
0.23301
0.23301
0.23301
0.23301
0.23301
0.23301
0.23301
0.23301
0.23301
0.23301
0.23301
0.23301
0.23301
0.23301
0.23301
0.23301
0.23301
0.23301
0.23301
0.23301
0.23301
0.23301
0.23301
0.23301
0.23301
0.23301
0.23301
0.23301
0.23301
0.23301
0.23301
0.23301
0.23301
0.23301
0.23301
0.23301
0.23301
0.23301
0.23301
0.23301
0.23301
0.23301
0.23301
0.23301
0.23301
0.23301
0.23301
0.23301
0.23301
0.23301
0.23301
0.23301
0.23301
0.23301
0.23301
0.23301
0.23301
0.23301
0.23301
0.23301
0.23301
0.23301
0.23301
0.23301
0.23301
0.23301
0.23301
0.23301
0.23301
0.23301
0.23301
0.23301
0.23301
0.23301
0.23301
0.23301
0.23301
0.23301
0.23301
0.23301
0.23301
0.23301
0.23301
0.23301
0.23301
0.23301
0.23301
0.23301
0.23301
0.23301
0.23301
0.23301
0.23301
0.23301
0.23301
0.23301
0.23301
0.23301
0.23301
0.23301
0.23301
0.23301
0.23301
0.23301
0.23301
0.23301
0.23301
0.23301
0.23301
0.23301
0.23301
0.23301
0.23301
0.23301
0.23301
0.23301
0.23301
0.23301
0.23301
0.23301
0.23301
0.23301
0.23301
0.23301
0.23301
0.23301
0.23301
0.23301
0.23301
0.23301
0.23301
0.23301
0.23301
0.23301
0.23301
0.23301
0.23301
0.23301
0.23301
0.23301
0.23301
0.23301
0.23301
0.23301
0.23301
0.23301
0.23301
0.23301
0.23301
0.23301
0.23301
0.23301
0.23301
0.23301
0.23301
0.23301
0.23301
0.23301
0.23301
0.23301
0.23301
0.23301
0.23301
0.23301
0.23301
0.23301
0.23301
0.23301
0.23301
0.23301
0.23301
0.23301
0.23301
0.23301
0.23301
0.23301
0.23301
0.23301
0.23301
0.23301
0.23301
0.23301
0.23301
0.23301
0.23301
0.23301
0.23301
0.23301
0.23301
0.23301
0.23301
0.23301
0.23301
0.23301
0.23301
0.23301
0.23301
0.23301
0.23301
0.23301
0.23301
0.23301
0.23301
0.23301
0.23301
0.23301
0.23301
0.23301
0.23301
0.23301
0.23301
0.23301
0.23301
0.23301
0.23301
0.23301
0.23301
0.23301
0.23301
0.23301
0.23301
0.23301
0.23301
0.23301
0.23301
0.23301
0.23301
0.23301
0.23301
0.23301
0.23301
0.23301
0.23301
0.23301
0.23301
0.23301
0.23301
0.23301
0.23301
0.23301
0.23301
0.23301
0.23301
0.23301
0.23301
0.23301
0.23301
0.23301
0.23301
0.23301
0.23301
0.23301
0.233009
0.233009
0.233008
0.233009
0.233009
0.233009
0.23301
0.23301
0.23301
0.23301
0.23301
0.23301
0.23301
0.23301
0.23301
0.23301
0.23301
0.23301
0.23301
0.23301
0.23301
0.23301
0.23301
0.23301
0.23301
0.23301
0.23301
0.23301
0.23301
0.23301
0.23301
0.23301
0.23301
0.23301
0.23301
0.23301
0.233008
0.233006
0.233003
0.233
0.233
0.233003
0.233006
0.233008
0.233009
0.23301
0.23301
0.23301
0.23301
0.23301
0.23301
0.23301
0.23301
0.23301
0.23301
0.23301
0.23301
0.23301
0.23301
0.23301
0.23301
0.23301
0.23301
0.23301
0.23301
0.23301
0.23301
0.23301
0.23301
0.23301
0.23301
0.23301
0.23301
0.23301
0.23301
0.23301
0.233009
0.233006
0.232998
0.232981
0.232961
0.232951
0.232962
0.232982
0.232996
0.233004
0.233008
0.233009
0.23301
0.23301
0.23301
0.23301
0.23301
0.23301
0.23301
0.23301
0.23301
0.23301
0.23301
0.23301
0.23301
0.23301
0.23301
0.23301
0.23301
0.23301
0.23301
0.23301
0.23301
0.23301
0.23301
0.23301
0.23301
0.23301
0.23301
0.23301
0.23301
0.23301
0.233008
0.233003
0.232982
0.23293
0.232849
0.23278
0.232784
0.232852
0.232925
0.232973
0.232995
0.233004
0.233008
0.233009
0.23301
0.23301
0.23301
0.23301
0.23301
0.23301
0.23301
0.23301
0.23301
0.23301
0.23301
0.23301
0.23301
0.23301
0.23301
0.23301
0.23301
0.23301
0.23301
0.23301
0.23301
0.23301
0.23301
0.23301
0.23301
0.23301
0.23301
0.23301
0.23301
0.23301
0.233008
0.233
0.232961
0.232855
0.232672
0.232474
0.232374
0.232439
0.23263
0.232817
0.232927
0.232978
0.232998
0.233005
0.233008
0.233009
0.23301
0.23301
0.23301
0.23301
0.23301
0.23301
0.23301
0.23301
0.23301
0.23301
0.23301
0.23301
0.23301
0.23301
0.23301
0.23301
0.23301
0.23301
0.23301
0.23301
0.23301
0.23301
0.23301
0.23301
0.23301
0.23301
0.23301
0.23301
0.23301
0.23301
0.233008
0.232997
0.232942
0.232776
0.232474
0.232142
0.231921
0.231891
0.232053
0.232363
0.232686
0.232871
0.232955
0.232988
0.233001
0.233006
0.23301
0.23301
0.23301
0.23301
0.23301
0.23301
0.23301
0.23301
0.23301
0.23301
0.23301
0.23301
0.23301
0.23301
0.23301
0.23301
0.23301
0.23301
0.23301
0.23301
0.23301
0.23301
0.23301
0.23301
0.23301
0.23301
0.23301
0.23301
0.23301
0.23301
0.23301
0.23301
0.233008
0.232997
0.232931
0.232713
0.232297
0.231829
0.231494
0.231354
0.231421
0.23169
0.232116
0.232561
0.232816
0.23293
0.232977
0.232995
0.233009
0.233007
0.23301
0.233009
0.23301
0.23301
0.23301
0.23301
0.23301
0.23301
0.23301
0.23301
0.23301
0.23301
0.23301
0.23301
0.23301
0.23301
0.23301
0.23301
0.23301
0.23301
0.23301
0.23301
0.23301
0.23301
0.23301
0.23301
0.23301
0.23301
0.23301
0.23301
0.23301
0.23301
0.233008
0.232998
0.23293
0.232681
0.232174
0.231576
0.23114
0.230898
0.230834
0.230966
0.231342
0.231905
0.232464
0.232769
0.232905
0.232961
0.233002
0.232993
0.233009
0.233006
0.233009
0.233008
0.233009
0.233008
0.23301
0.233008
0.23301
0.233009
0.23301
0.23301
0.23301
0.23301
0.23301
0.23301
0.23301
0.23301
0.23301
0.23301
0.23301
0.23301
0.23301
0.23301
0.23301
0.23301
0.23301
0.23301
0.23301
0.23301
0.23301
0.23301
0.23301
0.23301
0.233009
0.233001
0.232936
0.232678
0.232116
0.231418
0.230913
0.230626
0.23045
0.230391
0.230545
0.231019
0.231732
0.232395
0.232725
0.232866
0.232973
0.232934
0.233001
0.232988
0.233005
0.232998
0.233004
0.232994
0.233004
0.232991
0.233005
0.232993
0.233008
0.233
0.233007
0.23301
0.233006
0.233006
0.23301
0.23301
0.23301
0.23301
0.23301
0.23301
0.23301
0.23301
0.23301
0.23301
0.23301
0.23301
0.23301
0.23301
0.23301
0.23301
0.23301
0.23301
0.23301
0.23301
0.23301
0.233004
0.232952
0.232695
0.232104
0.231354
0.230889
0.230588
0.230356
0.230162
0.230044
0.230187
0.230753
0.231604
0.232321
0.232637
0.232849
0.232718
0.232958
0.232883
0.232979
0.232937
0.232972
0.232922
0.23296
0.232893
0.23296
0.232878
0.232974
0.232899
0.232993
0.232943
0.232985
0.233006
0.232979
0.232978
0.23301
0.233008
0.23301
0.23301
0.23301
0.23301
0.23301
0.23301
0.23301
0.23301
0.23301
0.23301
0.23301
0.23301
0.23301
0.23301
0.23301
0.23301
0.23301
0.23301
0.23301
0.233006
0.232973
0.232753
0.232143
0.231411
0.230988
0.2307
0.230454
0.230193
0.229943
0.229752
0.229877
0.230533
0.231463
0.232113
0.232482
0.232303
0.232753
0.232507
0.232843
0.232664
0.23282
0.232644
0.232756
0.232532
0.232707
0.232413
0.232722
0.232366
0.232799
0.232477
0.232904
0.232669
0.232867
0.232982
0.232841
0.232837
0.233009
0.232991
0.23301
0.23301
0.23301
0.23301
0.23301
0.23301
0.23301
0.23301
0.23301
0.23301
0.23301
0.23301
0.23301
0.23301
0.23301
0.23301
0.23301
0.23301
0.23301
0.233008
0.23299
0.23283
0.232263
0.23153
0.231191
0.230971
0.2308
0.23048
0.230062
0.229708
0.229442
0.229557
0.230268
0.231128
0.231464
0.232277
0.231804
0.23243
0.232112
0.232414
0.232132
0.232252
0.231938
0.232034
0.231623
0.231865
0.231318
0.231867
0.231145
0.232136
0.231263
0.232527
0.231776
0.232408
0.232856
0.232336
0.232332
0.233
0.232894
0.23301
0.233006
0.23301
0.23301
0.23301
0.23301
0.23301
0.23301
0.23301
0.23301
0.23301
0.23301
0.23301
0.23301
0.23301
0.23301
0.23301
0.23301
0.23301
0.233009
0.232999
0.232899
0.232436
0.231679
0.231369
0.23129
0.231388
0.231184
0.230615
0.229918
0.229419
0.229068
0.229152
0.229811
0.230339
0.230862
0.230236
0.231763
0.231301
0.231806
0.23142
0.2316
0.231236
0.231206
0.230795
0.230758
0.230225
0.230402
0.229713
0.230319
0.229373
0.230632
0.229435
0.231435
0.230072
0.23119
0.232398
0.231076
0.231106
0.232939
0.232516
0.233009
0.232979
0.23301
0.23301
0.23301
0.23301
0.23301
0.23301
0.23301
0.23301
0.23301
0.23301
0.23301
0.23301
0.23301
0.23301
0.23301
0.23301
0.23301
0.23301
0.233005
0.232951
0.232609
0.231853
0.231515
0.231548
0.231871
0.231728
0.231281
0.230617
0.229698
0.229041
0.228587
0.228572
0.228995
0.229699
0.228956
0.229965
0.229372
0.230987
0.230502
0.230848
0.230413
0.230393
0.229985
0.229736
0.22929
0.229056
0.228504
0.228568
0.227941
0.228396
0.22773
0.228671
0.227755
0.22959
0.228102
0.229288
0.231275
0.229195
0.229284
0.232658
0.231544
0.233
0.232798
0.23301
0.23301
0.23301
0.23301
0.23301
0.23301
0.23301
0.23301
0.23301
0.23301
0.23301
0.23301
0.23301
0.23301
0.23301
0.23301
0.23301
0.23301
0.233008
0.232984
0.232763
0.232077
0.23164
0.231687
0.232171
0.232109
0.231744
0.231182
0.230394
0.229344
0.228535
0.227953
0.227702
0.228344
0.227727
0.228745
0.228065
0.22888
0.228296
0.229938
0.229429
0.229569
0.229119
0.228873
0.228469
0.228048
0.227667
0.227536
0.227256
0.227365
0.227165
0.227331
0.227178
0.227387
0.227176
0.22777
0.227175
0.227583
0.229541
0.227524
0.227626
0.231841
0.229961
0.232921
0.23214
0.23301
0.23301
0.23301
0.23301
0.23301
0.23301
0.23301
0.23301
0.23301
0.23301
0.23301
0.23301
0.23301
0.23301
0.23301
0.23301
0.23301
0.23301
0.233009
0.232998
0.232879
0.232341
0.231761
0.23175
0.232302
0.232364
0.232071
0.231447
0.230711
0.22985
0.228789
0.227888
0.227139
0.226469
0.227488
0.226736
0.227686
0.227091
0.227657
0.227136
0.228647
0.228161
0.228074
0.227674
0.227352
0.227073
0.227036
0.226846
0.227045
0.226929
0.227104
0.227096
0.227145
0.227231
0.227072
0.227201
0.227026
0.227019
0.226904
0.227931
0.226802
0.226758
0.230451
0.228407
0.232427
0.230939
0.23301
0.23301
0.23301
0.23301
0.23301
0.23301
0.23301
0.23301
0.23301
0.23301
0.23301
0.23301
0.23301
0.23301
0.23301
0.23301
0.23301
0.23301
0.233004
0.232952
0.23259
0.231913
0.231786
0.232306
0.232509
0.232328
0.231678
0.230818
0.23001
0.229138
0.2281
0.227097
0.22619
0.225787
0.225613
0.22653
0.226082
0.226624
0.226144
0.226509
0.226125
0.227279
0.226894
0.226809
0.226552
0.226665
0.226478
0.226813
0.226683
0.227095
0.227086
0.227447
0.227628
0.227575
0.22794
0.227341
0.227911
0.226951
0.227442
0.226837
0.226823
0.22668
0.226528
0.229028
0.227151
0.232683
0.230593
0.23301
0.23301
0.23301
0.23301
0.23301
0.23301
0.23301
0.23301
0.23301
0.23301
0.23301
0.23301
0.23301
0.23301
0.23301
0.23301
0.23301
0.233008
0.232988
0.232783
0.232152
0.231824
0.232263
0.232566
0.232504
0.232047
0.231098
0.230148
0.229287
0.228326
0.227266
0.226326
0.225613
0.225752
0.225355
0.225372
0.22573
0.225465
0.225745
0.22543
0.225763
0.225486
0.226297
0.226036
0.226283
0.226077
0.226531
0.226347
0.227027
0.226876
0.227665
0.227559
0.228056
0.22803
0.228167
0.228221
0.228048
0.228223
0.22746
0.228075
0.227333
0.226425
0.227087
0.226894
0.22656
0.228007
0.226504
0.232633
0.229748
0.23301
0.23301
0.23301
0.23301
0.23301
0.23301
0.23301
0.23301
0.23301
0.23301
0.23301
0.23301
0.23301
0.23301
0.23301
0.23301
0.233009
0.232999
0.232906
0.23244
0.231913
0.232137
0.232566
0.232593
0.23236
0.231821
0.230852
0.229773
0.228804
0.227819
0.226861
0.226085
0.225468
0.225695
0.225195
0.225293
0.225236
0.225167
0.225245
0.225089
0.225384
0.225163
0.225858
0.225625
0.226134
0.225898
0.226639
0.226365
0.227319
0.227006
0.227918
0.227686
0.228188
0.2281
0.228214
0.228053
0.228195
0.227898
0.228002
0.228084
0.228129
0.227579
0.227915
0.22673
0.226374
0.226549
0.227279
0.22769
0.227816
0.22712
0.227902
0.226881
0.22641
0.226298
0.226404
0.232159
0.227332
0.229406
0.227682
0.23301
0.23301
0.23301
0.23301
0.23301
0.23301
0.23301
0.23301
0.23301
0.23301
0.23301
0.23301
0.23301
0.23301
0.23301
0.23301
0.233005
0.232968
0.232689
0.232099
0.232025
0.232529
0.232616
0.232528
0.232299
0.231782
0.230909
0.229798
0.228676
0.227718
0.226934
0.22623
0.226671
0.225514
0.225841
0.225182
0.22544
0.225048
0.225076
0.225025
0.224984
0.22517
0.225022
0.225653
0.2254
0.226074
0.225778
0.226662
0.226295
0.227356
0.226958
0.227946
0.227698
0.227938
0.22793
0.22776
0.227549
0.227429
0.227371
0.22787
0.227516
0.227159
0.226746
0.227146
0.228007
0.228014
0.22794
0.22775
0.22795
0.226909
0.22669
0.227519
0.227748
0.227858
0.227327
0.226553
0.226481
0.226303
0.226268
0.229791
0.228287
0.226752
0.226869
0.23301
0.23301
0.23301
0.23301
0.23301
0.23301
0.23301
0.23301
0.23301
0.23301
0.23301
0.23301
0.23301
0.23301
0.23301
0.233009
0.232994
0.232857
0.232365
0.232015
0.232389
0.23261
0.232592
0.232492
0.232306
0.231921
0.231302
0.230428
0.22943
0.22861
0.22834
0.226769
0.227659
0.225802
0.226259
0.225456
0.225882
0.225015
0.225148
0.224974
0.225019
0.225067
0.225025
0.225484
0.225236
0.225932
0.225604
0.226534
0.226133
0.227331
0.226898
0.227933
0.22779
0.2274
0.227498
0.227649
0.227829
0.226965
0.226869
0.226876
0.227332
0.226845
0.226469
0.225976
0.226373
0.227642
0.227886
0.227562
0.227161
0.227824
0.227102
0.226857
0.227615
0.227756
0.227676
0.227455
0.226297
0.226607
0.226371
0.226195
0.226686
0.227131
0.233004
0.230209
0.226318
0.226291
0.23301
0.23301
0.23301
0.23301
0.23301
0.23301
0.23301
0.23301
0.23301
0.23301
0.23301
0.23301
0.23301
0.23301
0.23301
0.233002
0.232947
0.232632
0.23209
0.232201
0.232568
0.232599
0.232535
0.232497
0.232419
0.232265
0.231969
0.231503
0.231086
0.231014
0.229628
0.230916
0.227733
0.228663
0.226388
0.226998
0.226063
0.226642
0.22519
0.225566
0.225095
0.225321
0.22515
0.22526
0.225342
0.225169
0.225784
0.225506
0.226464
0.226093
0.227484
0.227104
0.227974
0.22807
0.22809
0.228049
0.226989
0.227199
0.227471
0.22776
0.226292
0.226253
0.226341
0.226589
0.226018
0.225702
0.225152
0.225523
0.227033
0.227512
0.226958
0.226384
0.227488
0.227257
0.227016
0.227578
0.227475
0.227465
0.227456
0.226132
0.226742
0.226466
0.226177
0.226099
0.227327
0.232669
0.230655
0.226065
0.23301
0.23301
0.23301
0.23301
0.23301
0.23301
0.23301
0.23301
0.23301
0.23301
0.23301
0.23301
0.23301
0.23301
0.233007
0.232986
0.232826
0.232339
0.23215
0.232426
0.232582
0.232534
0.232512
0.232543
0.232603
0.232636
0.232579
0.232463
0.232441
0.232554
0.231146
0.23217
0.228991
0.230028
0.227309
0.228087
0.226994
0.227716
0.225773
0.226343
0.225565
0.226078
0.225547
0.225938
0.225353
0.225371
0.225832
0.225725
0.226745
0.226524
0.227954
0.227815
0.227679
0.227604
0.228018
0.228218
0.228312
0.22833
0.226563
0.226897
0.227299
0.227716
0.225595
0.225624
0.22582
0.225721
0.225128
0.224952
0.22437
0.224666
0.226246
0.226935
0.226184
0.225494
0.226961
0.227309
0.227117
0.227439
0.22702
0.227097
0.227372
0.226033
0.22686
0.226557
0.226205
0.225965
0.226189
0.227949
0.232504
0.230668
0.23301
0.23301
0.23301
0.23301
0.23301
0.23301
0.23301
0.23301
0.23301
0.23301
0.23301
0.23301
0.23301
0.233009
0.232999
0.232932
0.232616
0.232185
0.232264
0.232512
0.232515
0.232471
0.232517
0.232613
0.232741
0.232839
0.232882
0.232892
0.232924
0.23289
0.232978
0.232276
0.232734
0.230419
0.231466
0.228521
0.229422
0.228187
0.229005
0.226713
0.227424
0.226506
0.227178
0.226462
0.227061
0.225778
0.226029
0.226458
0.226519
0.227622
0.227625
0.228286
0.228196
0.228081
0.227963
0.228091
0.228388
0.228594
0.228683
0.226165
0.226628
0.227161
0.227705
0.224925
0.225058
0.225372
0.224808
0.224253
0.22428
0.2237
0.22387
0.225356
0.226196
0.225308
0.224573
0.226277
0.227258
0.227117
0.227163
0.226415
0.226587
0.227195
0.225994
0.226916
0.226623
0.226247
0.225953
0.226406
0.228298
0.232582
0.230934
0.23301
0.23301
0.23301
0.23301
0.23301
0.23301
0.23301
0.23301
0.23301
0.23301
0.23301
0.23301
0.23301
0.233005
0.23298
0.232817
0.232358
0.232224
0.23237
0.232475
0.232409
0.232404
0.232503
0.23266
0.232814
0.232927
0.232981
0.232996
0.233006
0.232984
0.233004
0.232771
0.23293
0.23172
0.232399
0.229885
0.230817
0.229486
0.2303
0.227915
0.228688
0.227747
0.228457
0.227793
0.22843
0.226793
0.227226
0.227729
0.227948
0.22866
0.228697
0.228893
0.228768
0.228705
0.228696
0.228662
0.228649
0.228195
0.228599
0.228899
0.229093
0.225848
0.226438
0.227098
0.227747
0.224338
0.224602
0.225049
0.223926
0.223457
0.223702
0.223155
0.223199
0.224436
0.225352
0.224399
0.223689
0.225488
0.227153
0.227048
0.226757
0.225701
0.22597
0.226891
0.225985
0.226883
0.226638
0.226272
0.225978
0.226602
0.228615
0.232782
0.231453
0.23301
0.23301
0.23301
0.23301
0.23301
0.23301
0.23301
0.23301
0.23301
0.23301
0.23301
0.23301
0.233009
0.232996
0.232927
0.23263
0.232259
0.232274
0.232392
0.232376
0.232306
0.232327
0.232441
0.232637
0.232848
0.232968
0.233003
0.233009
0.233009
0.23301
0.233004
0.233009
0.232937
0.232988
0.232455
0.232793
0.231109
0.231867
0.2306
0.231278
0.229183
0.2299
0.229067
0.229693
0.22936
0.22989
0.228355
0.228822
0.229057
0.229301
0.229953
0.229426
0.229509
0.229734
0.229609
0.229207
0.22927
0.229318
0.229366
0.228344
0.228854
0.229252
0.229538
0.225652
0.226367
0.22713
0.227882
0.223895
0.224282
0.224863
0.223132
0.222783
0.223248
0.222714
0.222674
0.223554
0.224469
0.223525
0.222897
0.22465
0.226954
0.226926
0.226249
0.224929
0.225286
0.226496
0.225977
0.226799
0.226592
0.226274
0.226003
0.226771
0.229018
0.232925
0.232027
0.23301
0.23301
0.23301
0.23301
0.23301
0.23301
0.23301
0.23301
0.23301
0.23301
0.23301
0.23301
0.233003
0.232977
0.232826
0.232426
0.232266
0.232307
0.232339
0.232263
0.23221
0.232254
0.232404
0.232623
0.232861
0.232987
0.233008
0.23301
0.23301
0.23301
0.233009
0.23301
0.232991
0.233005
0.232799
0.232943
0.231913
0.232453
0.231448
0.232009
0.230294
0.230876
0.230393
0.230891
0.231181
0.231551
0.230387
0.230761
0.229857
0.229927
0.231428
0.231627
0.230302
0.230453
0.230813
0.230623
0.229743
0.229899
0.230033
0.230162
0.228568
0.229164
0.229644
0.230014
0.225591
0.226409
0.227273
0.228101
0.223588
0.224099
0.224795
0.222459
0.222275
0.222953
0.222425
0.222263
0.222761
0.223609
0.222731
0.222227
0.22382
0.226673
0.226748
0.225669
0.224151
0.224577
0.226034
0.22596
0.226676
0.226505
0.226255
0.226015
0.22692
0.229529
0.232984
0.232448
0.23301
0.23301
0.23301
0.23301
0.23301
0.23301
0.23301
0.23301
0.23301
0.23301
0.23301
0.233008
0.232995
0.232932
0.232676
0.232318
0.232277
0.23229
0.232246
0.232159
0.23213
0.232213
0.232393
0.232647
0.232911
0.233001
0.23301
0.23301
0.23301
0.23301
0.23301
0.23301
0.23301
0.233006
0.233009
0.232954
0.232995
0.232511
0.232829
0.23232
0.232688
0.23137
0.231856
0.231877
0.232184
0.232391
0.232448
0.231809
0.232005
0.232286
0.231009
0.23121
0.232081
0.232167
0.231154
0.231346
0.231706
0.231533
0.230303
0.230543
0.230758
0.230957
0.228862
0.22952
0.230057
0.230484
0.225634
0.226562
0.227504
0.228402
0.223394
0.224007
0.224794
0.221955
0.221904
0.222764
0.22225
0.22197
0.222086
0.222823
0.222052
0.22171
0.223048
0.226332
0.226512
0.225057
0.223408
0.223891
0.225535
0.225928
0.22652
0.226372
0.226203
0.226007
0.227061
0.230062
0.232996
0.232583
0.23301
0.23301
0.23301
0.23301
0.23301
0.23301
0.23301
0.23301
0.23301
0.23301
0.233009
0.233002
0.232978
0.23285
0.232515
0.232293
0.23227
0.232243
0.232156
0.232074
0.232077
0.2322
0.232421
0.232724
0.232963
0.233007
0.23301
0.23301
0.23301
0.23301
0.23301
0.23301
0.23301
0.233009
0.23301
0.233
0.233007
0.232886
0.232971
0.232856
0.232947
0.232461
0.232693
0.232591
0.232708
0.23241
0.232416
0.232336
0.232231
0.232267
0.232387
0.232369
0.231855
0.231978
0.232301
0.232317
0.231775
0.231932
0.232155
0.232059
0.230827
0.231116
0.231367
0.231586
0.229207
0.229893
0.230449
0.230883
0.225721
0.226738
0.227764
0.228711
0.223273
0.223952
0.224792
0.221601
0.221623
0.222657
0.222142
0.221809
0.221545
0.222138
0.221487
0.221352
0.222362
0.225955
0.226239
0.224453
0.222746
0.223267
0.225041
0.225877
0.226331
0.226217
0.226112
0.225978
0.227123
0.230165
0.232966
0.232385
0.23301
0.23301
0.23301
0.23301
0.23301
0.23301
0.23301
0.23301
0.23301
0.23301
0.233007
0.232995
0.232942
0.232736
0.232392
0.232277
0.232243
0.232165
0.232069
0.232008
0.232055
0.232216
0.232497
0.232828
0.232993
0.233009
0.23301
0.23301
0.23301
0.23301
0.23301
0.23301
0.23301
0.23301
0.23301
0.23301
0.233008
0.23301
0.232988
0.233003
0.232968
0.232992
0.232832
0.232918
0.232468
0.232586
0.231919
0.232004
0.231045
0.231209
0.232335
0.232348
0.23189
0.231897
0.23222
0.232264
0.232145
0.232067
0.232001
0.232096
0.232204
0.232167
0.231224
0.231495
0.231707
0.231874
0.229539
0.230224
0.230759
0.231156
0.225786
0.226873
0.227957
0.228945
0.223194
0.223895
0.224752
0.221325
0.221434
0.222581
0.222033
0.221683
0.221162
0.221567
0.22105
0.221074
0.221792
0.225562
0.225936
0.223903
0.222188
0.222745
0.22456
0.225809
0.226099
0.226033
0.225987
0.225915
0.227034
0.229695
0.232016
0.230774
0.23301
0.23301
0.23301
0.23301
0.23301
0.23301
0.23301
0.23301
0.23301
0.233009
0.233002
0.232982
0.232881
0.232617
0.23233
0.232252
0.232186
0.232082
0.231996
0.231966
0.232057
0.232282
0.232613
0.232934
0.233005
0.23301
0.23301
0.23301
0.23301
0.23301
0.23301
0.23301
0.23301
0.23301
0.23301
0.23301
0.233009
0.23301
0.233003
0.233007
0.232953
0.232987
0.232753
0.232877
0.2314
0.231541
0.231558
0.230906
0.230935
0.229691
0.229893
0.231996
0.231933
0.230919
0.230972
0.232205
0.232186
0.231605
0.231435
0.231991
0.232021
0.23197
0.232008
0.231448
0.231657
0.231808
0.231921
0.229769
0.230417
0.230914
0.231275
0.225759
0.226872
0.227991
0.229001
0.223137
0.223832
0.224677
0.221085
0.221225
0.222488
0.22185
0.221487
0.220857
0.221104
0.220719
0.220806
0.22134
0.225158
0.225608
0.223399
0.22175
0.222296
0.224106
0.225715
0.225833
0.225804
0.225816
0.225793
0.226747
0.228249
0.23223
0.229223
0.23301
0.23301
0.23301
0.23301
0.23301
0.23301
0.23301
0.23301
0.23301
0.233007
0.232996
0.232956
0.2328
0.232506
0.23229
0.232209
0.232117
0.232008
0.231939
0.231953
0.232103
0.232392
0.232762
0.232985
0.233009
0.23301
0.23301
0.23301
0.23301
0.23301
0.23301
0.23301
0.23301
0.23301
0.23301
0.23301
0.233009
0.23301
0.233001
0.233006
0.232783
0.232928
0.23204
0.232487
0.230187
0.230577
0.230044
0.229539
0.229608
0.229602
0.228199
0.228389
0.231261
0.231101
0.229664
0.229819
0.231874
0.231749
0.230827
0.230569
0.231779
0.231738
0.231476
0.231626
0.231519
0.23167
0.231753
0.23179
0.229833
0.230487
0.230977
0.231302
0.225657
0.226753
0.227872
0.228909
0.223048
0.223716
0.224506
0.220823
0.220958
0.222291
0.22154
0.221208
0.220567
0.220726
0.220421
0.220518
0.220943
0.224759
0.225251
0.222972
0.221329
0.221868
0.223686
0.225579
0.225506
0.225526
0.225608
0.225631
0.226225
0.227092
0.232809
0.22972
0.23301
0.23301
0.23301
0.23301
0.23301
0.23301
0.23301
0.23301
0.233009
0.233002
0.232987
0.232913
0.232712
0.232421
0.232254
0.232155
0.232046
0.231946
0.231904
0.231974
0.232196
0.232546
0.232914
0.233004
0.23301
0.23301
0.23301
0.23301
0.23301
0.23301
0.23301
0.23301
0.23301
0.23301
0.23301
0.23301
0.23301
0.233007
0.23301
0.232985
0.233002
0.232269
0.232736
0.23038
0.231451
0.228687
0.229074
0.228792
0.22816
0.228176
0.228144
0.226738
0.22691
0.230302
0.230049
0.228312
0.228564
0.231295
0.231068
0.229844
0.229508
0.231405
0.231243
0.230777
0.231039
0.231487
0.231557
0.231558
0.231522
0.229791
0.230482
0.23097
0.231247
0.225416
0.226446
0.227538
0.228601
0.222817
0.223422
0.224124
0.220528
0.220659
0.221953
0.221204
0.220907
0.22029
0.220411
0.220191
0.22027
0.220573
0.224343
0.224843
0.222505
0.220848
0.221275
0.223205
0.225408
0.225135
0.225192
0.225368
0.225411
0.225745
0.226594
0.23289
0.229846
0.23301
0.23301
0.23301
0.23301
0.23301
0.23301
0.23301
0.23301
0.233007
0.232998
0.232969
0.232857
0.232629
0.232365
0.232208
0.232095
0.231978
0.231901
0.231898
0.232041
0.232338
0.232737
0.232983
0.233009
0.23301
0.23301
0.23301
0.23301
0.23301
0.23301
0.23301
0.23301
0.23301
0.23301
0.23301
0.23301
0.23301
0.233005
0.233009
0.23293
0.232992
0.231198
0.232278
0.228103
0.228945
0.229651
0.227218
0.22764
0.227451
0.226851
0.226795
0.226722
0.225448
0.225597
0.229174
0.228857
0.226992
0.227253
0.230491
0.230177
0.228651
0.228265
0.230806
0.230518
0.229829
0.230191
0.231325
0.23131
0.231241
0.231048
0.22955
0.230308
0.230812
0.230979
0.224905
0.22579
0.226765
0.227774
0.222409
0.222906
0.223448
0.220341
0.220529
0.221531
0.221043
0.220758
0.220149
0.220196
0.220098
0.220137
0.220245
0.223866
0.224378
0.221873
0.220416
0.220674
0.222592
0.225184
0.224671
0.224773
0.22507
0.225157
0.225343
0.226245
0.232331
0.228796
0.23301
0.23301
0.23301
0.23301
0.23301
0.23301
0.23301
0.233009
0.233003
0.232992
0.232941
0.232796
0.23256
0.232323
0.232162
0.232037
0.231922
0.231875
0.231935
0.232161
0.232531
0.232917
0.233004
0.23301
0.23301
0.23301
0.23301
0.23301
0.23301
0.23301
0.23301
0.23301
0.23301
0.23301
0.23301
0.23301
0.23301
0.233001
0.233008
0.232792
0.232961
0.229801
0.231515
0.227136
0.227894
0.228842
0.227824
0.2259
0.226326
0.226441
0.225822
0.225532
0.225452
0.224386
0.224539
0.2279
0.227561
0.225701
0.225926
0.229441
0.229049
0.227265
0.226873
0.229889
0.229471
0.228579
0.229031
0.230971
0.230878
0.230611
0.230276
0.228734
0.229544
0.230099
0.230236
0.224025
0.224651
0.225348
0.226107
0.221891
0.222267
0.22265
0.220205
0.220352
0.221333
0.220726
0.220553
0.220017
0.220078
0.21996
0.219984
0.220175
0.223273
0.22379
0.221122
0.220344
0.220498
0.221917
0.224914
0.224132
0.224262
0.2247
0.224853
0.224997
0.225518
0.227754
0.225604
0.23301
0.23301
0.23301
0.23301
0.23301
0.23301
0.23301
0.233008
0.232999
0.23298
0.232904
0.232737
0.232503
0.232285
0.23212
0.231982
0.231884
0.231879
0.232024
0.232338
0.232761
0.232987
0.233009
0.23301
0.23301
0.23301
0.23301
0.23301
0.23301
0.23301
0.23301
0.23301
0.23301
0.23301
0.23301
0.233009
0.23301
0.232991
0.233006
0.232527
0.232901
0.228152
0.228577
0.229627
0.230708
0.226358
0.227083
0.227355
0.224848
0.225285
0.22569
0.225085
0.224367
0.224346
0.223514
0.223744
0.226519
0.226199
0.224463
0.224617
0.228129
0.22769
0.225742
0.225385
0.228558
0.228046
0.227044
0.227537
0.230189
0.229934
0.229542
0.229071
0.22688
0.227578
0.22812
0.228379
0.223035
0.223404
0.223749
0.224049
0.221625
0.221891
0.221941
0.219998
0.220047
0.220852
0.220314
0.220226
0.219802
0.22
0.219732
0.21978
0.220025
0.222629
0.22315
0.220872
0.220217
0.220442
0.221339
0.224582
0.223462
0.223775
0.224288
0.224548
0.224594
0.22457
0.227951
0.224521
0.23301
0.23301
0.23301
0.23301
0.23301
0.23301
0.233009
0.233004
0.232995
0.232963
0.232864
0.232683
0.232458
0.232249
0.232079
0.231929
0.23187
0.231933
0.232175
0.232566
0.232936
0.233006
0.23301
0.23301
0.23301
0.23301
0.23301
0.23301
0.23301
0.23301
0.23301
0.23301
0.23301
0.23301
0.23301
0.23301
0.23301
0.233009
0.23301
0.232975
0.233003
0.232165
0.232809
0.227834
0.228489
0.229288
0.230424
0.225949
0.226621
0.227134
0.224078
0.22454
0.225311
0.22468
0.223308
0.223362
0.22278
0.223128
0.225084
0.22482
0.223307
0.223372
0.226576
0.226142
0.22416
0.223875
0.226759
0.226234
0.225272
0.225742
0.228384
0.228266
0.227818
0.227317
0.224327
0.224584
0.224775
0.224962
0.222282
0.22251
0.222747
0.222899
0.221046
0.221168
0.220659
0.2198
0.219848
0.220242
0.220109
0.219996
0.219644
0.21981
0.219616
0.219688
0.219989
0.221854
0.222362
0.2208
0.220296
0.220609
0.22117
0.224253
0.22298
0.223356
0.223911
0.22422
0.224136
0.224027
0.228676
0.2241
0.23301
0.23301
0.23301
0.23301
0.23301
0.23301
0.233008
0.233001
0.232989
0.23294
0.232822
0.232636
0.232419
0.232215
0.232031