/*--------------------------------*- C++ -*----------------------------------*\
  =========                 |
  \\      /  F ield         | OpenFOAM: The Open Source CFD Toolbox
   \\    /   O peration     | Website:  https://openfoam.org
    \\  /    A nd           | Version:  dev
     \\/     M anipulation  |
\*---------------------------------------------------------------------------*/
FoamFile
{
    version     2.0;
    format      ascii;
    class       volScalarField;
    location    "2500";
    object      omega;
}
// * * * * * * * * * * * * * * * * * * * * * * * * * * * * * * * * * * * * * //

dimensions      [0 0 -1 0 0 0 0];

internalField   nonuniform List<scalar> 
9842
(
1.19214
1.2131
1.15228
1.15924
1.27346
1.05729
1.07686
1.29235
1.20845
1.01343
1.03065
1.27057
1.27639
1.08523
1.00079
1.00581
1.20828
1.30172
1.19887
1.01812
0.99218
0.986848
1.12112
1.29838
1.26732
1.07752
0.992756
0.988994
0.973238
1.05614
1.27508
1.2933
1.1753
1.00982
0.978632
0.988206
0.964944
1.01133
1.22189
1.30128
1.24629
1.06425
0.981302
0.969447
0.988175
0.960463
0.979749
1.14738
1.29755
1.28065
1.14729
0.999337
0.965393
0.964783
0.988515
0.959386
0.960523
1.07086
1.27908
1.29391
1.21639
1.04872
0.969641
0.953811
0.963052
0.988926
0.959426
0.946958
1.0165
1.23732
1.30197
1.25993
1.11716
0.987956
0.953393
0.94662
0.962751
0.98933
0.959813
0.938971
0.979258
1.16964
1.29982
1.28343
1.18176
1.03065
0.95884
0.941664
0.942523
0.963193
0.989801
0.960167
0.934391
0.955933
1.09433
1.28555
1.29474
1.23062
1.0873
0.977243
0.94252
0.93278
0.940636
0.964059
0.990436
0.960551
0.93193
0.942148
1.0335
1.25045
1.30233
1.26309
1.14438
1.01268
0.948892
0.930896
0.926908
0.940376
0.965122
0.991215
0.961038
0.93127
0.934308
0.991985
1.19332
1.30188
1.28273
1.19474
1.05749
0.966623
0.932419
0.921688
0.923479
0.941005
0.96647
0.992063
0.961717
0.932096
0.930396
0.964763
1.12143
1.29211
1.29481
1.23269
1.10912
0.993952
0.939549
0.921228
0.91475
0.922065
0.942075
0.968227
0.993055
0.962753
0.934119
0.928342
0.948919
1.05663
1.26363
1.30444
1.26156
1.15722
1.03111
0.955879
0.923396
0.912026
0.910138
0.92205
0.943602
0.970305
0.99421
0.964144
0.936445
0.927685
0.94022
1.01127
1.21187
1.30666
1.28358
1.19856
1.07531
0.978027
0.931657
0.912187
0.904744
0.907678
0.922911
0.945649
0.972698
0.995515
0.965783
0.93893
0.927888
0.93531
0.981972
1.14482
1.30047
1.29695
1.23149
1.1224
1.00815
0.945809
0.915221
0.903423
0.89962
0.906951
0.924444
0.948331
0.975464
0.996684
0.967605
0.941559
0.928834
0.932642
0.963507
1.08119
1.27941
1.30817
1.26095
1.1644
1.04692
0.964772
0.924141
0.904177
0.896469
0.896484
0.907547
0.926754
0.951695
0.978792
0.997719
0.969576
0.94441
0.930835
0.931676
0.95222
1.03366
1.23461
1.31337
1.28463
1.20124
1.09025
0.990025
0.937602
0.908565
0.896109
0.891368
0.895201
0.909273
0.929949
0.955612
0.982596
0.998621
0.971697
0.947526
0.934045
0.932085
0.94591
1.00192
1.1733
1.30987
1.30007
1.23209
1.1338
1.02381
0.954265
0.918768
0.897838
0.889892
0.88827
0.895727
0.912151
0.933968
0.959999
0.986615
0.999377
0.973911
0.950834
0.937731
0.93328
0.942621
0.982097
1.11174
1.29482
1.31243
1.26071
1.17203
1.06402
0.977266
0.931516
0.904411
0.890381
0.885659
0.887262
0.897825
0.916227
0.93872
0.964745
0.990555
0.999934
0.976154
0.954186
0.94147
0.934906
0.941072
0.970138
1.06377
1.2593
1.32115
1.2866
1.20606
1.1065
1.00661
0.948196
0.915427
0.894112
0.885598
0.883695
0.88842
0.901652
0.921407
0.944181
0.969674
0.993773
1.00022
0.978348
0.957404
0.94511
0.93691
0.940888
0.962997
1.03125
1.20673
1.32085
1.30466
1.23523
1.14765
1.0439
0.969315
0.929228
0.903721
0.88793
0.883402
0.884326
0.891614
0.907067
0.927572
0.950146
0.97479
0.995924
1.00016
0.980433
0.960358
0.948475
0.939209
0.941551
0.958975
1.01098
1.15132
1.31313
1.31979
1.26406
1.18367
1.08575
0.997647
0.946958
0.916616
0.895943
0.885244
0.884125
0.88747
0.897099
0.913938
0.934579
0.956314
0.97951
0.996975
0.999716
0.98232
0.962918
0.951355
0.941831
0.942882
0.957062
0.998536
1.10429
1.29081
1.33476
1.29251
1.21634
1.12845
1.03223
0.970007
0.93371
0.909104
0.892361
0.886175
0.887669
0.893718
0.904784
0.921988
0.942103
0.962207
0.983219
0.996805
0.998927
0.984011
0.965078
0.953734
0.944657
0.944538
0.956222
0.99068
1.07087
1.2472
1.34167
1.31568
1.24616
1.16903
1.07399
0.998683
0.955462
0.926813
0.907018
0.893885
0.890582
0.894734
0.903465
0.915283
0.931
0.949036
0.966884
0.985017
0.99525
0.997624
0.985446
0.966944
0.955674
0.947356
0.946118
0.955678
0.985158
1.04966
1.19698
1.34096
1.33647
1.2761
1.20495
1.1191
1.03503
0.983123
0.950306
0.927413
0.910917
0.900007
0.899513
0.905829
0.916136
0.928849
0.942267
0.955198
0.968595
0.983449
0.992729
0.996233
0.986516
0.968407
0.95728
0.949608
0.947192
0.955278
0.980692
1.03623
1.15144
1.33238
1.35944
1.3082
1.23853
1.16418
1.07793
1.01788
0.981415
0.954763
0.935182
0.921148
0.912433
0.913664
0.921061
0.931722
0.943774
0.955305
0.963465
0.969711
0.97875
0.989321
0.995475
0.98725
0.969361
0.958386
0.951335
0.947729
0.954871
0.977531
1.02692
1.1166
1.30379
1.37788
1.33864
1.27053
1.20739
1.12736
1.0606
1.02083
0.992072
0.970184
0.953552
0.94078
0.932409
0.933632
0.940587
0.95021
0.95969
0.966528
0.970424
0.971398
0.973098
0.984706
0.99545
0.987658
0.969869
0.958719
0.952526
0.947798
0.95416
0.975214
1.01949
1.09309
1.25702
1.3867
1.36868
1.3039
1.24594
1.17891
1.11152
1.07019
1.04259
1.02093
1.0028
0.986438
0.971953
0.960818
0.959403
0.964633
0.971089
0.975767
0.976601
0.974452
0.971298
0.969548
0.982603
0.99662
0.987783
0.969867
0.95835
0.952842
0.947481
0.953049
0.972823
1.0134
1.07846
1.21072
1.38728
1.40144
1.34163
1.2822
1.22855
1.16745
1.12936
1.10975
1.09511
1.0791
1.05751
1.033
1.01028
0.995728
0.991073
0.992382
0.994954
0.992338
0.985728
0.97735
0.970803
0.970714
0.989569
1.00027
0.999794
0.987621
0.969345
0.957431
0.952169
0.946811
0.951633
0.970032
1.00841
1.06832
1.17192
1.37549
1.4318
1.38077
1.3177
1.27556
1.22651
1.19745
1.1962
1.20732
1.2156
1.20448
1.16332
1.11205
1.07054
1.04447
1.03303
1.02777
1.02365
1.01216
0.995719
0.980942
0.974589
0.981756
1.00035
1.00208
1.00232
1.00649
0.987102
0.968352
0.956108
0.950569
0.945551
0.950032
0.966698
1.00396
1.05928
1.14439
1.33521
1.45252
1.42099
1.35536
1.3172
1.28533
1.27282
1.30929
1.39157
1.49554
1.56635
1.53487
1.40638
1.26344
1.16365
1.11113
1.08487
1.07014
1.05484
1.03488
1.00628
0.988702
0.981801
0.984873
1.00569
0.987899
1.01048
1.01054
1.01652
1.00509
1.01654
0.98636
0.966915
0.954303
0.948296
0.943571
0.947745
0.962816
0.999059
1.04982
1.12538
1.28486
1.46135
1.46387
1.39878
1.35576
1.33937
1.35045
1.44874
1.68618
2.07504
2.46806
2.65441
2.42403
1.98169
1.5762
1.32304
1.20093
1.14867
1.11659
1.08861
1.05409
1.01744
0.993742
1.00813
0.994999
1.02458
1.02116
1.03543
1.02682
1.03763
1.00918
1.03033
0.985522
0.965089
0.951977
0.945552
0.940901
0.94444
0.958224
0.993141
1.0406
1.11055
1.23894
1.45887
1.50547
1.44591
1.39374
1.38785
1.42267
1.59919
2.06666
2.91033
3.94017
4.74091
4.94191
4.4074
3.29952
2.2138
1.60484
1.33947
1.23469
1.17745
1.1319
1.07384
1.03537
1.05607
1.0135
1.02915
1.03121
1.05137
1.04894
1.06901
1.05037
1.06899
1.01436
1.04853
0.984624
0.962957
0.949422
0.942452
0.937604
0.940551
0.952931
0.985978
1.03237
1.09714
1.2007
1.43257
1.5375
1.4955
1.43384
1.42781
1.4825
1.73303
2.45556
3.78081
5.35265
6.51713
6.98066
6.87526
6.2072
4.92682
3.28729
2.06454
1.56392
1.36236
1.26889
1.18703
1.09755
1.12969
1.06509
1.08861
1.05153
1.07258
1.06406
1.09067
1.08902
1.11592
1.08203
1.11198
1.02097
1.07244
0.983634
0.960678
0.946869
0.938937
0.934033
0.936505
0.947655
0.977381
1.02497
1.0836
1.17209
1.37237
1.55302
1.54748
1.48076
1.46159
1.52518
1.82236
2.7746
4.52388
6.44637
7.57287
8.00048
8.07712
7.85683
7.19392
5.99451
4.35451
2.71979
1.87
1.55363
1.39471
1.20063
1.263
1.13909
1.17562
1.10833
1.14126
1.08793
1.11971
1.11282
1.14287
1.14492
1.17897
1.12404
1.16701
1.02914
1.10419
0.982579
0.958591
0.944274
0.935371
0.930188
0.932211
0.942705
0.968082
1.01698
1.07015
1.15031
1.31149
1.55289
1.5969
1.53344
1.49434
1.55381
1.86307
2.96569
5.07229
7.11846
8.03009
8.35175
8.44565
8.41527
8.22706
7.67064
6.59959
5.1366
3.47771
2.283
1.81935
1.39403
1.515
1.24921
1.32392
1.18687
1.24498
1.15947
1.20246
1.14799
1.18513
1.18172
1.21053
1.2188
1.25663
1.17672
1.23608
1.0395
1.14455
0.981595
0.957011
0.941843
0.932349
0.925674
0.927945
0.937583
0.959921
1.00694
1.05774
1.13149
1.25828
1.53189
1.63408
1.58847
1.53062
1.57104
1.86147
3.02251
5.37021
7.41413
8.16446
8.38008
8.40677
8.36981
8.30398
8.17331
7.80305
6.93317
5.66037
4.23797
2.93747
1.75758
2.19634
1.43527
1.64544
1.33051
1.48465
1.27625
1.42656
1.2412
1.36557
1.22209
1.30584
1.26911
1.29026
1.31659
1.35839
1.23964
1.31449
1.05365
1.19082
0.980971
0.956191
0.940133
0.930234
0.92154
0.924485
0.932145
0.952108
0.994767
1.04614
1.11333
1.21655
1.46389
1.64976
1.64408
1.57653
1.58218
1.82914
2.99257
5.44599
7.4977
8.11385
8.24778
8.10803
7.92977
7.92456
8.02346
7.97434
7.7962
7.17418
6.22164
5.26323
3.21333
4.64399
2.08366
3.07573
1.81871
2.54011
1.75669
2.49107
1.66995
2.40179
1.52605
2.12441
1.39069
1.75983
1.48019
1.38714
1.55628
1.60267
1.31232
1.39278
1.06914
1.2486
0.981242
0.956879
0.940158
0.929556
0.919752
0.922001
0.927009
0.943642
0.981478
1.03402
1.0956
1.18438
1.38043
1.64717
1.69452
1.63085
1.59877
1.76311
2.83611
5.38668
7.48235
8.0028
7.94909
7.52014
7.24579
7.28408
7.48505
7.77903
7.88326
7.84905
7.57291
7.18008
6.0407
7.44657
4.75008
6.60051
4.13131
6.32015
4.05097
6.56629
3.92564
6.6757
3.51462
6.31198
2.81429
5.14265
2.04334
3.66063
2.3076
1.60467
2.49243
2.55026
1.36597
1.56205
1.08769
1.28056
0.983739
0.961466
0.943982
0.931328
0.920275
0.920465
0.922947
0.935026
0.967425
1.01996
1.07892
1.15801
1.30855
1.62147
1.72833
1.68587
1.62594
1.71281
2.52253
5.13185
7.42281
7.90784
7.6429
6.97888
6.77654
6.89943
7.1056
7.37248
7.71252
7.94782
8.21331
8.56408
8.31778
9.13706
8.06602
9.26056
8.30844
9.76486
9.01559
10.8503
9.68365
12.0234
9.85083
12.8008
9.17169
12.919
7.11193
11.9039
4.50715
9.09175
5.16316
2.46374
5.52682
5.55473
1.46031
2.24068
1.09644
1.27305
0.994325
0.975766
0.95491
0.937875
0.92354
0.920062
0.920375
0.927602
0.953769
1.00358
1.06292
1.13489
1.25151
1.54336
1.73748
1.73824
1.66777
1.6865
2.20553
4.55671
7.28541
7.84631
7.46809
6.57308
6.38121
6.58176
6.85368
7.19067
7.59548
8.01378
8.47315
9.2377
10.7263
10.0113
10.9213
10.8047
11.5166
12.0805
12.8571
13.5539
14.4695
14.7155
15.8447
15.3151
16.6867
15.166
16.9431
13.9163
16.5498
10.6392
15.0871
11.544
5.23835
11.8292
11.5913
1.92181
4.67583
1.04758
1.50093
1.01204
1.00791
0.977573
0.951136
0.929748
0.920384
0.917643
0.920059
0.941574
0.986866
1.04579
1.11329
1.20853
1.43848
1.72953
1.78295
1.72086
1.68141
1.95222
3.82955
6.99631
7.79526
7.43459
6.43775
6.10081
6.26348
6.58237
7.03371
7.58383
8.17089
8.81357
9.60398
11.0363
12.381
12.4328
12.0149
12.3019
13.3214
13.5939
14.9608
15.1879
16.4482
16.7383
17.4495
17.859
17.9439
18.4685
17.9663
18.7345
17.4001
18.5768
15.7394
17.804
16.0228
10.9104
16.0409
15.8317
3.9582
9.83997
1.14745
3.27563
1.07042
1.09056
1.03687
0.977632
0.94241
0.922186
0.914234
0.911453
0.929943
0.970805
1.027
1.09189
1.17487
1.3471
1.69332
1.80678
1.77163
1.69659
1.80129
3.08658
6.41103
7.73015
7.46054
6.44857
6.04717
6.03587
6.3383
6.8257
7.4862
8.20795
9.04617
9.97049
11.098
12.3719
12.2576
13.5467
13.3209
13.6719
13.6428
15.1917
15.1271
16.7358
16.6448
17.9407
17.8764
18.7524
18.8085
19.2538
19.6524
19.4691
20.2938
19.1375
20.4188
18.0408
19.6687
18.1436
15.3688
18.1455
17.9711
8.98284
14.7196
2.41178
9.33712
1.17291
1.23566
1.16367
1.04813
0.973475
0.931036
0.913489
0.903736
0.918805
0.955327
1.0079
1.07008
1.14565
1.27756
1.60289
1.80763
1.81589
1.73905
1.73807
2.44791
5.46148
7.60887
7.54589
6.51723
6.07758
6.00689
6.24942
6.75798
7.36142
8.08079
9.03435
10.1162
11.2868
12.1923
12.0306
13.0666
12.8741
14.2469
13.8879
14.942
14.6269
16.4173
16.043
17.695
17.3824
18.7693
18.6567
19.9838
20.2203
21.1963
22.0317
21.9389
23.4954
21.7156
24.0028
20.2452
22.9892
20.5899
17.6056
20.7518
20.541
14.2176
17.0955
6.5729
16.5543
1.18214
1.32478
1.31468
1.1973
1.0472
0.96021
0.916514
0.89754
0.908559
0.939457
0.989548
1.04778
1.1181
1.22269
1.48846
1.79234
1.84984
1.79084
1.72498
2.02282
4.27867
7.33773
7.63428
6.69327
6.16501
6.04057
6.28105
6.84985
7.38502
7.95387
8.75181
10.0166
11.3138
12.7622
12.8621
13.0792
13.6647
13.6569
14.7761
14.6088
15.6031
15.1576
16.9787
16.5455
18.4473
18.2088
20.3984
20.4509
22.7362
23.2457
24.8817
25.7117
26.125
27.1784
26.0343
27.9081
24.0374
27.4401
24.5043
19.9982
24.5198
24.069
16.834
19.1427
12.308
18.7013
1.22774
1.35762
1.33384
1.19745
1.03222
0.92984
0.893251
0.899295
0.923434
0.971393
1.02532
1.0924
1.17915
1.37958
1.74166
1.86047
1.83483
1.73799
1.81665
3.18129
6.66949
7.64703
6.95241
6.32554
6.13143
6.25993
6.87924
7.51068
8.0023
8.58364
9.54726
11.0861
12.7465
14.3144
14.4129
13.7559
14.0417
14.6354
14.8006
15.8501
15.938
16.1814
15.8934
17.9862
17.7805
20.4466
20.4364
23.5542
23.6577
25.8768
25.7635
27.3873
27.1728
28.4388
28.2819
28.9758
29.1721
28.1687
29.5751
28.4006
23.124
28.1789
27.4524
18.2125
21.8363
8.25709
17.0546
1.19098
1.34806
1.32472
1.17498
0.979986
0.892926
0.887002
0.90884
0.952818
1.00328
1.06749
1.14321
1.29154
1.64224
1.85478
1.86759
1.78418
1.74403
2.38952
5.3963
7.55851
7.21019
6.51826
6.24481
6.19164
6.59117
7.42508
8.07728
8.66857
9.40449
10.5401
12.2192
14.3458
13.9677
15.8574
15.774
15.2458
15.6675
16.2379
16.7919
17.8758
18.2908
17.6722
17.7073
20.4624
20.5069
23.6183
23.5302
25.5095
25.1977
26.763
26.2616
27.8867
27.1643
28.8766
28.1719
29.7108
29.239
29.8809
29.9924
30.0319
26.3266
29.9228
29.6651
28.2684
20.4913
24.9579
13.7429
22.4434
1.13255
1.31808
1.29634
1.1019
0.90923
0.874022
0.892982
0.932296
0.981844
1.04211
1.11243
1.22606
1.52335
1.82878
1.88565
1.83372
1.73124
1.95906
3.96055
7.19325
7.42692
6.71221
6.41102
6.21357
6.19489
6.85493
7.96082
8.79891
9.58736
10.543
11.9188
13.6569
15.3868
14.8648
17.3297
16.789
17.3325
17.4931
18.8898
19.2668
21.0633
21.138
20.5947
20.7627
23.3913
23.2462
24.8916
24.6103
25.7559
25.2964
26.3047
25.4385
27.0725
25.8539
28.4475
27.5711
29.5757
29.0989
30.1835
29.732
29.8593
30.2266
30.3219
29.3678
27.145
28.967
30.1561
30.3753
30.3984
30.0591
22.2241
23.9589
28.3948
27.7365
25.6945
19.4371
23.7501
30.7591
25.7848
1.0962
1.29219
1.23941
0.975564
0.869325
0.876838
0.91168
0.960054
1.01654
1.08524
1.1762
1.4081
1.76156
1.8855
1.86846
1.74861
1.77329
2.81084
6.13065
7.45003
6.90869
6.58884
6.32189
6.12176
6.19602
7.16892
8.57992
9.73058
10.8483
12.2288
13.8042
14.956
15.0258
16.0421
15.3336
17.9613
17.0994
19.1823
18.7664
21.0271
20.6676
22.695
22.2671
23.1035
22.938
24.3362
24.0621
24.8872
24.5034
24.7058
24.1414
24.7166
23.7116
26.4371
25.0382
28.6339
28.3695
28.0576
27.5946
29.6804
29.8393
29.41
30.5829
30.1492
29.9184
30.1147
30.0626
29.9624
30.2155
29.8542
29.5434
30.3071
30.3249
30.2987
30.2548
25.0623
29.0729
28.4424
26.805
37.4273
36.984
24.8244
27.6571
1.10118
1.28906
1.11634
0.888445
0.8636
0.890355
0.937217
0.990838
1.05995
1.13719
1.31033
1.65809
1.87197
1.88484
1.80311
1.71006
2.12482
4.54321
7.27944
7.13757
6.71686
6.5056
6.16388
6.03485
6.26632
7.29149
9.01247
10.4743
11.9646
13.5116
14.9844
15.5711
15.4707
16.3521
15.8331
18.0051
17.1053
19.9184
18.9978
21.6591
20.8244
22.8998
22.1875
23.7685
23.4051
24.122
23.7303
23.6834
23.2816
22.9548
22.4092
23.4306
22.0766
27.0306
26.2739
25.4208
24.4288
29.3067
29.0956
28.6396
30.3718
31.0229
30.8914
32.5765
31.8334
30.2381
30.1759
30.4252
30.8772
30.2881
30.1417
29.9305
30.3601
30.3517
30.4089
30.355
25.9213
29.5708
28.9988
27.577
41.5434
43.1712
25.447
47.5666
25.7209
28.9743
1.15907
1.26437
0.966476
0.861096
0.871021
0.914057
0.964918
1.03349
1.10762
1.23712
1.54782
1.83101
1.88634
1.84542
1.70768
1.80289
3.13566
6.52167
7.20786
6.81258
6.65848
6.33402
6.0717
6.01576
6.27514
7.15239
8.77479
10.6548
12.2824
13.6508
15.0184
14.711
15.7452
15.4774
16.4328
15.9887
17.6242
16.8209
19.7734
18.6469
21.2271
20.0827
21.9687
21.0102
23.2848
22.7216
22.8747
22.429
21.9423
21.5457
21.1693
20.6049
23.4585
22.5006
21.7055
20.9812
27.9441
27.0429
25.9659
24.7879
30.9658
30.7599
30.1824
31.8678
33.0568
33.0421
35.1304
34.2164
31.259
30.6186
31.5366
32.5735
30.7136
30.3002
30.1572
30.4626
30.7424
30.7415
30.466
26.5858
29.8822
29.4121
28.1677
29.9112
37.2174
26.7401
36.3971
26.5835
1.24845
1.1458
0.886276
0.862606
0.890468
0.94058
1.00808
1.08196
1.18791
1.44211
1.753
1.879
1.86702
1.73875
1.6725
2.24303
4.85724
7.09812
6.92945
6.73102
6.54485
6.24129
6.04431
6.01057
6.18953
6.67209
7.46308
8.59128
9.21883
8.93767
13.9997
11.3866
15.4789
14.9608
16.2524
15.8455
16.8719
16.1722
18.8839
17.7804
19.8739
18.6707
20.2693
19.1905
21.8889
21.2025
21.1151
20.6171
20.1437
19.7455
20.453
19.9696
19.6147
19.3217
23.5985
22.4817
21.5271
20.6895
29.2866
28.1439
26.8096
25.3855
33.1044
32.775
31.9717
34.1374
35.7159
35.5516
37.9871
37.0582
33.0864
31.7001
33.397
35.0125
31.7233
30.4348
30.3317
30.7245
31.6289
31.4636
30.6852
27.3051
30.129
29.8196
28.7659
27.8085
31.0553
33.3874
27.4004
31.2065
1.22901
1.0045
0.870316
0.876504
0.922009
0.984945
1.06138
1.15205
1.35615
1.66029
1.85484
1.86915
1.79409
1.64657
1.80574
3.29505
6.52086
6.96559
6.76972
6.66948
6.43171
6.21484
6.0493
6.01029
5.97879
5.85969
5.7638
5.37892
5.14359
6.2127
4.65937
10.9233
7.86639
14.3843
13.165
15.6085
15.0711
15.6848
14.9593
17.5218
16.5216
17.9925
16.8183
18.1315
16.9555
19.9982
19.148
19.2936
18.6704
18.7702
18.3464
20.0467
19.5222
19.1464
18.8859
23.9709
22.6625
21.5208
20.5953
30.789
29.3432
27.7215
26.0431
35.5169
34.9356
33.8135
36.9949
38.787
38.2621
41.0358
40.2003
35.6131
33.4986
35.9343
38.0004
33.3866
30.6243
30.5384
31.2842
33.0935
32.6968
31.1249
28.3942
30.4263
30.3587
29.553
29.3987
31.4757
31.7983
24.1738
30.0547
1.12414
0.936266
0.879304
0.911362
0.9706
1.0425
1.12842
1.2889
1.5679
1.79999
1.86282
1.8252
1.65889
1.61799
2.27589
4.91056
6.84789
6.78769
6.68189
6.57282
6.39353
6.24211
6.10712
5.98885
5.70199
5.11938
4.34835
3.77493
3.62015
4.68699
3.99681
7.51825
5.73232
12.0029
9.90228
14.2228
13.3257
13.8785
13.0021
15.7339
14.7697
15.7409
14.6067
15.9024
14.8076
17.919
16.9536
17.9546
17.3848
18.2551
18.0483
17.5875
17.8399
19.8759
19.3398
18.9339
18.5914
24.4193
22.9292
21.6286
20.572
32.273
30.4751
28.5448
26.6211
38.0693
37.1603
35.6326
40.2403
42.145
41.175
44.2634
43.579
38.6717
35.9545
38.9894
41.3669
35.6746
30.9835
30.8864
32.2769
35.1524
34.4728
31.9054
29.782
30.8779
31.0685
30.537
30.8803
31.9566
31.8361
19.9438
30.4691
1.05321
0.921568
0.911843
0.963687
1.03113
1.10951
1.24184
1.4813
1.72997
1.8443
1.83535
1.71126
1.56484
1.7667
3.28243
6.26965
6.77218
6.66199
6.61
6.51258
6.40213
6.33094
6.22712
5.9902
5.4177
4.43093
3.57993
3.10583
3.41537
3.11491
4.09437
3.65315
5.77088
4.69968
9.32516
7.38875
12.0622
10.9251
11.9017
11.1623
13.5728
12.6834
13.8147
12.9319
14.8127
13.8846
16.6372
15.7271
17.3924
17.1385
16.8954
18.0578
17.867
17.472
17.6832
19.7608
19.1506
18.6888
18.3249
24.8128
23.1728
21.7481
20.5855
33.6774
31.4756
29.2092
27.0364
40.696
39.4456
37.4606
43.7798
45.7555
44.266
47.73
47.1834
42.1015
38.9283
42.4082
45.0241
38.4836
31.6131
31.4609
33.7581
37.7246
36.7496
33.0974
31.2163
31.5317
31.8839
31.6146
32.2077
32.8485
33.0684
14.6818
31.0552
1.02604
0.936058
0.964993
1.02422
1.09766
1.20669
1.40887
1.65346
1.80667
1.83099
1.75796
1.56962
1.54279
2.21618
4.67702
6.59098
6.64233
6.58498
6.55005
6.49656
6.46783
6.45835
6.37039
6.05587
5.27391
3.84532
2.96308
2.77976
3.17121
2.94583
3.75507
3.44462
4.82115
4.18883
7.50457
5.91599
10.3227
9.14448
10.8598
10.1329
12.1596
11.4914
13.0218
12.2545
14.6651
13.7772
16.2671
15.5514
17.2784
17.1011
16.5992
16.3862
17.9493
17.7734
17.3823
17.5968
19.692
19.0318
18.5551
18.1951
25.0582
23.3029
21.8027
20.5821
35.0283
32.3677
29.7244
27.2794
43.5125
41.8605
39.4046
47.5799
49.6177
47.6249
51.5049
51.0314
45.807
42.267
46.088
48.9199
41.6642
32.5701
32.3015
35.6987
40.685
39.4058
34.6598
32.5674
32.2964
32.8196
32.7161
33.5085
34.268
35.1123
9.26243
31.655
1.02256
0.978748
1.02399
1.08968
1.18383
1.34945
1.57779
1.75663
1.81391
1.7811
1.60578
1.46882
1.68524
3.10377
5.8579
6.57225
6.52771
6.53049
6.52372
6.53107
6.57506
6.59945
6.48084
6.05313
4.88517
3.15078
2.59366
2.74126
2.5727
3.059
2.8633
3.56021
3.27353
4.33268
3.88953
6.05909
4.99295
9.10537
7.62518
10.049
8.97434
11.5721
10.8697
12.8169
11.8852
15.5911
14.7637
16.1992
16.0726
16.145
17.1659
16.9334
17.2583
17.1602
17.8418
17.6988
17.4683
17.5846
19.631
18.9319
18.4315
18.0681
25.1279
23.2881
21.7613
20.5468
36.4475
33.2678
30.1773
27.4192
46.6224
44.5928
41.7202
51.6124
53.7276
51.3519
55.7117
55.1711
49.722
45.8352
49.9287
53.0196
45.0811
33.8442
33.2554
37.9215
43.8308
42.1093
36.5
33.7693
33.3052
33.7665
33.7513
34.8203
36.1416
38.1285
6.84245
33.2681
1.03934
1.0319
1.08738
1.16731
1.30545
1.50751
1.69778
1.78484
1.78181
1.66254
1.46797
1.44951
2.07903
4.23288
6.27729
6.48191
6.44393
6.50493
6.54045
6.61183
6.71051
6.73639
6.52437
5.89431
4.13047
2.62146
2.41639
2.6443
2.51696
2.97097
2.79268
3.43583
3.18599
4.0897
3.73674
5.20242
4.56088
7.53175
6.11776
8.60788
7.32156
10.8568
9.78837
13.5351
12.2403
19.4455
19.2631
19.9776
16.9365
16.7369
19.5869
19.7707
17.3915
17.3371
19.5102
19.7704
18.2126
18.2483
18.6081
18.4118
19.616
18.9507
18.5172
18.2666
25.0949
23.237
21.8154
20.7866
38.2172
34.4468
30.8228
27.7075
50.2368
48.0434
44.8696
55.8484
58.0759
55.6148
60.4715
59.6429
53.7742
49.537
53.8531
57.2589
48.497
35.1725
34.636
40.2448
46.7095
44.6779
38.27
34.8592
34.3717
34.7263
34.6979
36.3203
38.5894
42.1512
11.2282
38.517
1.07613
1.09039
1.15904
1.27245
1.44927
1.63524
1.74948
1.77262
1.70067
1.49286
1.36574
1.57207
2.80568
5.25577
6.33522
6.38007
6.40146
6.5146
6.60768
6.73523
6.86536
6.85813
6.51576
5.47553
3.12749
2.35893
2.40416
2.30355
2.61112
2.48782
2.92785
2.75544
3.3666
3.12907
3.96479
3.64574
4.84648
4.36318
6.21967
5.42865
7.91894
6.70537
10.7669
9.29521
18.2749
15.7745
24.0688
23.0019
28.7706
27.5294
19.8603
19.8902
24.7309
24.9989
18.8833
19.2331
23.4768
24.1357
19.8194
20.2388
21.3593
20.7531
20.0848
19.6687
19.53
19.561
25.2561
23.5235
22.4133
21.8114
40.9049
36.5006
32.2734
28.7262
54.6391
52.5243
49.3276
60.2592
62.7037
60.5026
65.9274
64.6014
57.8928
53.0853
57.4706
61.5705
51.3412
37.1818
36.0402
42.395
49.3509
47.1778
41.0435
36.0318
35.7159
36.3185
35.8636
38.0183
40.8404
42.6879
39.2122
43.3428
1.11989
1.15915
1.25183
1.39891
1.57829
1.70601
1.74856
1.71808
1.54937
1.36054
1.34599
1.88974
3.69412
5.8383
6.28598
6.29714
6.39468
6.5638
6.72162
6.89641
7.02861
6.91721
6.36133
4.62267
2.50231
2.22436
2.37176
2.29032
2.59396
2.47166
2.90847
2.7395
3.33353
3.10456
3.90513
3.60178
4.70015
4.27482
5.81955
5.18894
8.32557
6.77822
13.086
10.4164
26.2587
24.7465
23.9488
30.2051
29.798
33.7051
32.7042
24.6433
24.9067
30.2661
30.1474
22.0515
22.7783
27.721
28.4964
22.7994
23.5434
25.1668
24.3209
21.5909
21.5987
21.7455
22.2453
26.1897
24.6632
24.0862
23.9888
45.1596
40.4159
35.6555
31.6262
60.0404
58.0932
55.2503
64.8205
67.6908
66.4079
72.2943
70.2448
61.5585
55.8181
60.1747
65.4299
54.1143
39.1029
38.2377
46.047
52.3812
51.8802
43.6895
37.4956
38.1756
38.3404
37.4165
39.4146
40.8055
40.267
65.6705
54.8128
1.17515
1.23994
1.36557
1.52244
1.66257
1.7176
1.71556
1.5945
1.37745
1.26229
1.44165
2.44875
4.50944
6.0142
6.21502
6.24465
6.41631
6.6594
6.87956
7.08819
7.17689
6.91321
5.92118
3.26598
2.23279
2.17027
2.3635
2.2779
2.58894
2.46607
2.90303
2.7349
3.32301
3.09739
3.88576
3.587
4.64361
4.24239
5.79734
5.13556
11.0813
8.08006
19.5644
15.0503
31.252
29.2175
30.0528
32.5587
34.4605
34.2756
37.7032
36.8667
29.1936
29.7879
34.4146
34.1947
26.0282
26.8957
31.7031
32.4559
26.5197
27.3738
29.1455
28.247
24.0937
24.5013
25.049
25.745
28.7799
27.2707
26.9573
27.039
51.283
46.5657
41.6297
37.0921
66.3134
65.2353
63.0987
69.1767
72.7979
73.7845
79.5378
76.3008
64.715
59.1507
64.7937
69.5327
58.1905
42.7041
41.8002
49.6399
58.6772
56.9315
49.0575
38.7439
40.6755
40.1493
38.7283
39.9409
39.6888
40.6206
47.9464
67.5898
1.24498
1.3373
1.4794
1.6149
1.68813
1.70268
1.62742
1.42876
1.25406
1.24024
1.68011
3.1184
5.14463
6.03253
6.15636
6.23474
6.48033
6.80765
7.07943
7.29056
7.24804
6.74137
4.94026
2.43641
2.11145
2.19636
2.27239
2.11576
2.36125
2.59879
2.469
2.92018
2.74911
3.33677
3.11419
3.89534
3.59436
4.63389
4.23773
6.2545
5.20586
16.7171
11.3214
28.3332
22.6241
35.778
34.3877
33.4772
35.5892
38.4303
38.2679
41.3953
40.4112
33.1346
33.7329
38.3515
38.1011
30.0259
30.892
35.8997
36.5784
30.6717
31.6106
33.4748
32.5459
27.5602
28.2199
28.9331
29.7699
33.5757
31.3563
30.9049
31.0643
59.829
55.591
50.8339
45.9679
74.3836
74.4075
73.5889
74.5545
79.863
82.4566
90.009
85.0474
71.2608
64.8344
72.5972
78.3392
66.7085
47.2187
44.9182
57.1544
65.8554
67.3121
54.6446
39.5966
43.7907
43.7048
40.4786
40.1794
39.4084
42.3233
37.8431
82.3645
1.32724
1.4442
1.5704
1.6565
1.68108
1.64236
1.4765
1.26609
1.16387
1.30938
2.0891
3.761
5.51283
6.00397
6.12319
6.26558
6.61353
7.01635
7.31038
7.45982
7.23668
6.21927
3.25178
2.13791
2.06172
2.27173
2.18776
2.12024
2.36789
2.6081
2.47821
2.93603
2.76188
3.36254
3.1363
3.93667
3.6259
4.73031
4.28197
7.62153
5.62934
23.1666
16.3224
34.3039
31.2757
29.014
39.1176
37.4795
36.3868
38.5816
42.1216
41.9634
44.8971
43.8396
37.1665
37.6959
42.1083
41.9422
34.3365
35.1567
40.4051
40.9267
35.5238
36.5296
38.3784
37.4777
31.8025
32.6611
33.5504
34.5067
41.6168
38.3038
37.1971
37.1723
71.6978
68.8988
65.4258
61.1883
84.9003
86.8814
87.9271
85.6189
92.7503
94.5485
108.819
100.11
81.1113
75.9515
86.2724
90.2955
76.642
51.9957
50.7302
64.8683
80.2716
79.4301
62.5858
41.4055
50.9479
50.5245
44.4784
40.7047
40.0343
47.4317
64.3008
84.6535
1.41477
1.53772
1.61901
1.65631
1.64036
1.51329
1.30732
1.15411
1.14034
1.47823
2.57995
4.29588
5.64424
5.98029
6.11873
6.35519
6.83985
7.27596
7.54669
7.53076
7.00423
4.98672
2.33781
2.01847
2.04132
2.2747
2.18541
2.11048
2.37237
2.62605
2.4876
2.96372
2.78463
3.4015
3.16734
4.00374
3.67718
5.02234
4.38291
10.3109
6.6191
26.9014
21.2929
35.7302
33.4397
29.5813
32.5255
42.4382
40.6577
38.32
40.8899
45.7618
45.4721
48.1609
46.9175
41.3223
41.6975
45.9494
45.9255
39.1436
39.8273
45.3231
45.6163
41.571
42.4669
44.0076
43.2834
37.5452
38.4816
39.5015
40.5008
56.8939
53.1037
50.3733
48.7039
88.1559
87.6407
86.2557
84.3707
98.7139
102.991
108.243
101.395
115.794
119.505
156.509
131.881
98.4655
89.178
104.719
115.969
95.7514
64.1988
63.1281
78.4477
98.563
102.143
85.3415
43.0002
59.7276
54.6641
47.3328
42.2776
41.7997
47.9552
93.8083
79.4848
1.49554
1.5956
1.62534
1.63229
1.53767
1.35271
1.16237
1.07517
1.18764
1.76671
3.06591
4.70338
5.68416
5.96905
6.15293
6.54235
7.1554
7.55041
7.71445
7.48043
6.29586
3.01103
2.03805
1.96978
2.02654
2.10609
2.27803
2.18452
2.37944
2.6383
2.49844
2.98232
2.79972
3.43922
3.19386
4.07979
3.73328
5.56153
4.53861
14.0506
8.2921
30.6334
29.0239
26.4662
23.4098
37.2568
34.6562
32.7912
45.2919
43.2554
40.0298
42.8463
49.5198
48.9633
51.4814
49.8253
45.7517
45.9069
50.0165
50.1772
44.5587
45.0064
50.7862
50.8194
49.5979
50.1296
50.6849
50.3577
48.1494
48.049
48.2721
48.9312
82.1881
79.7339
76.8482
73.1241
110.891
112.994
113.887
114.565
131.582
149.857
172.732
148.431
183.646
182.868
216.204
189.544
127.76
116.085
152.424
160.456
126.293
78.6941
72.069
114.466
147.368
158.772
97.0993
46.4757
65.4524
63.4872
53.1717
43.7199
42.8058
46.7343
86.0617
76.9831
1.55234
1.60765
1.61217
1.55733
1.38963
1.19147
1.0653
1.05263
1.30297
2.11389
3.49862
4.95096
5.69535
5.98001
6.26648
6.88328
7.49648
7.79752
7.76342
7.11779
4.60962
2.19574
1.92252
1.94765
2.03385
2.09989
2.09392
1.98484
2.27901
2.18377
2.38202
2.64736
2.50341
3.00275
2.81327
3.48294
3.22241
4.17969
3.79946
6.29611
4.7852
17.4538
10.32
30.797
28.6747
26.7773
23.6893
37.9871
35.2506
32.9197
47.8769
45.5152
41.0017
44.1717
53.6043
52.6378
54.9142
52.641
50.5869
50.5056
54.4635
54.8729
50.766
50.8574
57.0295
56.7873
61.4572
60.9372
59.1336
59.6588
69.2462
65.6709
63.809
62.4895
115.268
115.83
116.231
113.57
167.805
166.697
164.491
160.85
188.502
188.133
388.765
194.058
446.033
425.653
420.349
450.972
192.286
162.894
204.085
191.932
194.795
87.9545
80.8233
124.023
197.18
146.087
113.661
48.5985
79.6829
68.6843
56.5486
45.499
42.8673
45.3331
61.8341
80.6113
1.57223
1.59792
1.55901
1.41807
1.23326
1.07016
0.998847
1.08394
1.50048
2.46584
3.85242
5.07565
5.70256
6.03521
6.53418
7.33573
7.7979
7.93199
7.61576
6.08502
2.66475
1.93323
1.87198
1.92421
2.08693
2.0137
2.18211
1.97975
2.28006
2.38379
2.65102
2.50612
3.01198
2.81918
3.51421
3.23931
4.27605
3.85529
7.0432
5.07023
18.661
11.9259
30.577
28.3555
26.618
26.3107
24.1948
21.898
38.0792
35.3139
32.5888
50.1196
47.2755
41.2981
44.9495
58.1275
56.586
58.5539
55.4649
56.0182
55.6998
59.4285
60.17
58.1637
57.8373
64.3448
63.6268
80.4385
77.7215
70.8481
72.9047
108.322
97.8404
90.1725
87.2729
161.933
159.167
161.199
161.515
384.873
363.837
366.582
351.431
428.772
368.91
800.757
453.618
851.928
835.294
815.586
849.499
474.222
205.313
471.55
447.643
482.852
104.86
108.057
162.605
482.931
253.715
482.704
157.225
52.8244
87.7066
81.1558
63.8615
46.7224
43.4115
46.3283
211.374
95.9167
1.56813
1.55585
1.4412
1.26448
1.09147
0.98883
0.979583
1.16068
1.73344
2.80455
4.1243
5.13845
5.72338
6.19743
7.03654
7.73851
8.01751
7.91569
7.02906
3.84757
2.03209
1.82979
1.84221
1.88026
2.17687
2.07709
2.00517
2.2806
1.96558
2.38487
2.65528
2.5083
3.01959
2.82522
3.53697
3.25125
4.36109
3.8981
7.30335
5.265
18.5289
12.2688
30.0542
27.792
25.6685
23.4363
21.7818
37.5891
34.8546
31.8283
52.1535
48.6257
41.084
45.1714
63.2436
60.951
62.471
58.3308
62.2484
61.6631
64.9858
66.2306
67.5658
66.3513
73.254
71.6557
111.809
104.422
87.9187
92.4385
160.321
151.043
128.493
126.93
353.911
344.96
352.029
357.945
806.89
770.853
780.993
762.838
849.781
753.194
2478.32
847.855
2496.26
2498.07
2466.36
2467.28
893.523
483.163
878.982
841.796
898.561
161.549
117.373
227.619
904.723
488.715
901.673
214.942
55.3716
110.303
87.6905
68.008
49.2687
45.4551
55.6334
379.579