/*--------------------------------*- C++ -*----------------------------------*\
  =========                 |
  \\      /  F ield         | OpenFOAM: The Open Source CFD Toolbox
   \\    /   O peration     | Website:  https://openfoam.org
    \\  /    A nd           | Version:  dev
     \\/     M anipulation  |
\*---------------------------------------------------------------------------*/
FoamFile
{
    version     2.0;
    format      ascii;
    class       volScalarField;
    location    "2500";
    object      p_rgh;
}
// * * * * * * * * * * * * * * * * * * * * * * * * * * * * * * * * * * * * * //

dimensions      [1 -1 -2 0 0 0 0];

internalField   nonuniform List<scalar> 
9842
(
0.00472433
0.0063887
0.00534391
0.00653905
0.00929611
0.00492897
0.00656038
0.0110085
0.00921542
0.00376586
0.00564915
0.0117176
0.0122233
0.00861275
0.00318137
0.00543792
0.0121266
0.0136256
0.0113036
0.00735809
0.00292661
0.00552719
0.0118308
0.0147947
0.0139992
0.00999313
0.00575443
0.00231946
0.00554391
0.0109778
0.0147324
0.0157006
0.0130462
0.00890462
0.00546122
0.0021699
0.0049981
0.010431
0.0147131
0.0169794
0.0156861
0.0121271
0.00787104
0.00478679
0.00167313
0.00481955
0.0100746
0.0142172
0.017141
0.0169744
0.0142291
0.0105495
0.00718827
0.00430022
0.00148856
0.00469966
0.00961524
0.0136825
0.0169248
0.0179698
0.0165157
0.0131863
0.00909914
0.00632598
0.00373606
0.001221
0.00485007
0.00911183
0.0128202
0.0165062
0.0183666
0.0175632
0.0151563
0.0114012
0.0082881
0.00570812
0.00328691
0.000962062
0.00475247
0.00838824
0.0116695
0.01585
0.018327
0.0187745
0.01673
0.0134543
0.0103431
0.00750605
0.00510154
0.0028628
0.000572688
0.00460733
0.00821595
0.0112991
0.015086
0.0181783
0.0191017
0.0181349
0.0156175
0.0119894
0.00923986
0.00678922
0.00458515
0.00248489
0.000330827
0.00457391
0.00795364
0.0108897
0.0140071
0.0178991
0.01938
0.0190039
0.0170555
0.0138011
0.0107819
0.00828898
0.00608486
0.00405995
0.00200106
3.58878e-06
0.00430311
0.00768652
0.0104281
0.0131087
0.0173395
0.0192936
0.0197103
0.0181953
0.0155857
0.0123028
0.0096467
0.00740793
0.00541818
0.0035197
0.00161905
-0.000229623
0.0041952
0.00738171
0.0101258
0.0127423
0.0166083
0.0190272
0.020072
0.0192649
0.0170256
0.0138638
0.0109885
0.00863127
0.0066134
0.00477678
0.00289278
0.00110097
-0.000684458
0.00416992
0.0073352
0.00990339
0.0122876
0.015796
0.01864
0.0201687
0.0200601
0.018281
0.015454
0.0122558
0.00977537
0.00766889
0.00581131
0.0041261
0.00236771
0.000708994
-0.0009486
0.00408484
0.00707065
0.00949393
0.0117982
0.0150193
0.0180985
0.0200895
0.020522
0.0193217
0.0168008
0.0137766
0.0109736
0.00869186
0.0067582
0.00500265
0.0034333
0.00177219
6.43473e-05
-0.00135254
0.00402487
0.00688495
0.00918984
0.0115495
0.0142636
0.0173933
0.0198449
0.0208223
0.0201845
0.0181572
0.0151458
0.0122332
0.0097335
0.00764635
0.00588521
0.00426354
0.00276513
0.00114376
-0.000504047
-0.00179618
0.00389806
0.00669957
0.00893296
0.0112614
0.0137515
0.0167956
0.0194616
0.0209325
0.0208205
0.019186
0.0165846
0.013509
0.0107795
0.00850071
0.00662065
0.00489653
0.00342662
0.00205464
0.000470798
-0.000990077
-0.00230265
0.00373671
0.00651952
0.00875765
0.0109822
0.0132517
0.0161123
0.0190325
0.0208858
0.021305
0.0202422
0.0178789
0.0147897
0.0118967
0.00938302
0.00733233
0.00556099
0.00399794
0.00259403
0.00124274
-0.000212113
-0.00161592
-0.00286322
0.00362378
0.0063702
0.00859134
0.0106042
0.0129385
0.0155925
0.0185291
0.0207708
0.0216202
0.021044
0.0190793
0.0162192
0.013037
0.0103638
0.00801725
0.00614946
0.00450179
0.00310501
0.00177424
0.000404669
-0.000919874
-0.00223044
-0.0034912
0.0034734
0.00611618
0.00845411
0.0104919
0.0128022
0.015264
0.0180713
0.020575
0.0218468
0.0216921
0.0201875
0.0174504
0.0144454
0.011407
0.00887523
0.0066906
0.00494406
0.00340601
0.00214612
0.00086993
-0.000282067
-0.00156484
-0.00287214
-0.00398285
0.00326019
0.00598652
0.0083114
0.0103756
0.0124633
0.0149223
0.0175329
0.020307
0.0220013
0.0223196
0.0211653
0.0187826
0.0156746
0.0126008
0.00976271
0.00732993
0.00532552
0.00365598
0.00229495
0.00113516
-1.33325e-06
-0.0011115
-0.00233808
-0.00359932
-0.00460397
0.00321433
0.00584354
0.00819019
0.0102727
0.0122162
0.0146906
0.0171707
0.0200394
0.0220734
0.0227952
0.0221655
0.020202
0.0171869
0.013882
0.0107752
0.00807111
0.00576693
0.00389981
0.00231003
0.00106858
-8.17826e-06
-0.00100189
-0.00198022
-0.00315977
-0.00439455
-0.00525725
0.00306254
0.0057103
0.0080626
0.0102028
0.012189
0.014485
0.0168961
0.0197608
0.0220747
0.0232211
0.0229591
0.0214599
0.0186688
0.0153014
0.0119155
0.00884308
0.00624784
0.00407599
0.00235665
0.000963399
-0.000143344
-0.00106111
-0.00190338
-0.00285586
-0.00393293
-0.00508563
-0.00583433
0.00286742
0.00553323
0.0078821
0.00991048
0.0121428
0.0143706
0.0167131
0.019527
0.0220663
0.0235755
0.0237998
0.0226364
0.020161
0.0168658
0.0133097
0.00991015
0.00692256
0.00441262
0.00237569
0.00078137
-0.000444836
-0.00136311
-0.00209519
-0.00281659
-0.00364179
-0.00467025
-0.0057369
-0.00646525
0.00276783
0.00540219
0.00769864
0.00979483
0.0119969
0.01415
0.0165458
0.0193434
0.0220391
0.0239094
0.0245275
0.0237889
0.0217173
0.0185405
0.0148729
0.0111822
0.00780165
0.00488388
0.00247312
0.000560974
-0.00087312
-0.00187952
-0.00257281
-0.00311864
-0.00367095
-0.00439379
-0.00534611
-0.00626038
-0.00690782
0.00262403
0.0052093
0.00753287
0.00971063
0.0119718
0.0141972
0.0164539
0.0191564
0.0220312
0.0241509
0.0251969
0.0248939
0.0232581
0.0203119
0.016616
0.0126681
0.0089006
0.00554154
0.00267635
0.00035971
-0.00138498
-0.00258364
-0.00332086
-0.0037646
-0.00408556
-0.00447225
-0.00507973
-0.00588857
-0.00667852
-0.00719419
0.0024211
0.00494207
0.00728577
0.00960382
0.0118835
0.0141334
0.0164305
0.018965
0.0219117
0.0242987
0.0257932
0.0259942
0.0247771
0.0221877
0.0185043
0.0143966
0.0102465
0.00642542
0.00305299
0.000240848
-0.00192171
-0.0034319
-0.00432442
-0.00474763
-0.00489511
-0.00497697
-0.00518764
-0.00563514
-0.00630929
-0.00691266
-0.00726167
0.00228887
0.00483222
0.0071252
0.00948984
0.0117186
0.0140349
0.0163752
0.0188473
0.0216969
0.0244831
0.0263144
0.0270294
0.0262994
0.0241102
0.0206446
0.0163814
0.0119245
0.0075921
0.00366961
0.000255234
-0.00243623
-0.00437212
-0.00555111
-0.00606936
-0.00611589
-0.00593668
-0.00576507
-0.00576666
-0.00605502
-0.00653929
-0.00691694
-0.00713782
0.00205668
0.00459617
0.00696323
0.00928623
0.0114973
0.0139568
0.0162872
0.0187594
0.0216093
0.0244728
0.0267689
0.0279194
0.0278083
0.0260987
0.0229795
0.0187594
0.0139996
0.00919962
0.00461206
0.000501661
-0.00288165
-0.0053704
-0.00696197
-0.00771115
-0.0077683
-0.00738312
-0.0068507
-0.00639533
-0.00618608
-0.00628057
-0.00651864
-0.0066445
-0.00672648
0.00192163
0.00438216
0.006705
0.00902951
0.0113066
0.0138091
0.0161579
0.0186265
0.0214302
0.0245019
0.0270932
0.0287028
0.0291505
0.0281214
0.0254222
0.0214815
0.0165931
0.0113264
0.00607211
0.00112546
-0.00312594
-0.0063838
-0.00853244
-0.00964013
-0.00983951
-0.009352
-0.00849321
-0.00757886
-0.00683704
-0.00639866
-0.0062375
-0.00617116
-0.0060864
-0.0067104
-0.00640629
0.00169348
0.00409644
0.0064316
0.00868961
0.0110701
0.0135156
0.0160465
0.0184864
0.0213305
0.0243829
0.0272721
0.0293357
0.0303105
0.0299338
0.0278889
0.0242913
0.0195798
0.0140504
0.00824913
0.00244726
-0.00288092
-0.00720913
-0.0101857
-0.0118377
-0.0123199
-0.0118546
-0.010757
-0.00938981
-0.00809155
-0.00706677
-0.00635321
-0.00591242
-0.005637
-0.00607416
-0.00574688
-0.00626984
-0.0059018
0.00149913
0.00379046
0.00612344
0.00844918
0.0108612
0.0132344
0.0158422
0.0183547
0.0210585
0.0242552
0.0273743
0.0298525
0.0312786
0.0315296
0.0301752
0.0270864
0.022601
0.0173196
0.0113017
0.00497002
-0.00132243
-0.00696708
-0.0113377
-0.014027
-0.0151033
-0.0148629
-0.0136612
-0.0119025
-0.0100212
-0.00836059
-0.00704533
-0.00603177
-0.00608461
-0.00600026
-0.00548439
-0.00577907
-0.00522479
-0.00554708
-0.00519517
-0.00569699
-0.00525809
0.00128936
0.00354374
0.00582813
0.0081023
0.0104968
0.0128451
0.0155276
0.018088
0.0208059
0.0239882
0.0273048
0.0301741
0.0320945
0.0328878
0.0322422
0.0298152
0.0257518
0.0208679
0.0153628
0.00967253
0.00401048
-0.00223217
-0.00885182
-0.0143064
-0.0172837
-0.0180185
-0.0170999
-0.0151357
-0.0127169
-0.0103542
-0.00837423
-0.00674985
-0.00604577
-0.00618949
-0.00574136
-0.00487954
-0.00503826
-0.00460364
-0.00484988
-0.00444065
-0.00502459
-0.00450218
0.00108665
0.0032617
0.0054017
0.00771808
0.0100519
0.0125697
0.0151949
0.017755
0.020566
0.0236795
0.026981
0.0302439
0.0327044
0.0340242
0.0340297
0.0323912
0.0290244
0.0247343
0.0204923
0.0177048
0.0167952
0.0151078
0.00762162
-0.0039879
-0.0137438
-0.019047
-0.0202006
-0.0188504
-0.016183
-0.0131699
-0.010414
-0.0081508
-0.00655877
-0.00700043
-0.00577277
-0.00595984
-0.00493929
-0.00406969
-0.00439575
-0.00375437
-0.00402249
-0.00353707
-0.00426568
-0.00364418
0.000898962
0.00296243
0.00501503
0.00730495
0.00965319
0.0121386
0.0147351
0.0173687
0.0202121
0.0233003
0.0267446
0.0300949
0.0330112
0.0349314
0.0355601
0.0346737
0.0321271
0.0287336
0.0262471
0.0280967
0.035891
0.0451958
0.0467708
0.0344562
0.0119382
-0.00762208
-0.0181233
-0.0210226
-0.0198064
-0.016704
-0.0132721
-0.0102831
-0.00768433
-0.00850234
-0.00629192
-0.00679379
-0.00495345
-0.00513665
-0.00428885
-0.00308468
-0.00351642
-0.00271846
-0.00306845
-0.00248267
-0.00342635
-0.00268601
0.000727031
0.002649
0.0046746
0.00686841
0.00917009
0.0115509
0.0142365
0.0168969
0.0197792
0.0228869
0.0261621
0.0298182
0.0330305
0.0355269
0.0369155
0.0366571
0.0348869
0.0324703
0.0319139
0.0390295
0.056772
0.0775071
0.0895157
0.0856836
0.0657304
0.0331618
0.00160555
-0.015166
-0.0205046
-0.0198792
-0.0166441
-0.0130335
-0.00954874
-0.0108137
-0.0074559
-0.00830873
-0.00548593
-0.00602241
-0.00430379
-0.0044912
-0.00340698
-0.00195089
-0.00246475
-0.00153806
-0.00198681
-0.00129662
-0.0025145
-0.00163519
0.000541916
0.00231926
0.00427423
0.00637883
0.00858889
0.0110497
0.0137096
0.0163504
0.0191547
0.0223456
0.0256232
0.0292507
0.0328424
0.0357977
0.037806
0.0384684
0.0372975
0.0356921
0.0366704
0.048357
0.0755297
0.107483
0.129296
0.13539
0.12403
0.0952998
0.0534656
0.0111562
-0.0112438
-0.0190378
-0.0191316
-0.0159127
-0.012244
-0.0139273
-0.00934285
-0.0106201
-0.00674295
-0.00767385
-0.00486603
-0.00542381
-0.00345626
-0.00368525
-0.00236339
-0.000681823
-0.00125991
-0.000197018
-0.00079694
1.3125e-05
-0.00154669
-0.00051164
0.000380719
0.00201355
0.00383779
0.00583283
0.00798455
0.0104799
0.0129773
0.015647
0.0186243
0.0217434
0.0250024
0.0285828
0.0323447
0.0356897
0.0382408
0.0397373
0.0395266
0.0383954
0.0402835
0.0548139
0.0892185
0.131436
0.161785
0.176953
0.177584
0.161434
0.124095
0.0710921
0.0187075
-0.00735592
-0.0168721
-0.0172304
-0.0153688
-0.016783
-0.0120767
-0.0136795
-0.00878357
-0.0100575
-0.00615757
-0.00702172
-0.00409645
-0.00459567
-0.00243575
-0.0026328
-0.00113156
0.000741351
0.000165169
0.00137242
0.000486653
0.00145313
-0.000545303
0.000668014
0.000226315
0.00169974
0.00341873
0.00534107
0.00742334
0.00978413
0.0121859
0.0149397
0.0178863
0.0209779
0.0242079
0.0277854
0.0316402
0.0352599
0.0383057
0.040459
0.0411979
0.0407397
0.0429331
0.0584778
0.09688
0.146484
0.182405
0.201837
0.212494
0.213244
0.195697
0.150668
0.085381
0.0245566
-0.00333452
-0.0127599
-0.0169181
-0.0155457
-0.0150542
-0.0159971
-0.0112927
-0.012302
-0.00782134
-0.00813192
-0.00499356
-0.00465079
-0.00276676
-0.00213924
-0.00104879
-0.000505418
0.000611436
0.00236999
0.00221108
0.00359108
0.00185913
0.00305063
0.000459537
0.00188136
0.000122669
0.00143138
0.00295628
0.00474641
0.00675638
0.00908573
0.01143
0.0141248
0.0170365
0.0201534
0.023303
0.0268533
0.0307286
0.0345488
0.0379807
0.0406499
0.0422269
0.0424782
0.0445111
0.060046
0.100206
0.152963
0.185842
0.206592
0.22221
0.234694
0.240403
0.224111
0.172162
0.0955516
0.031581
0.00567539
-0.00916752
0.0015139
-0.015207
-0.00999536
-0.0124088
-0.0102605
-0.0072735
-0.00381282
-0.0024867
0.00342545
0.000771364
0.00878009
0.00203323
0.00993274
0.00216301
0.007816
0.00496146
0.00456235
0.00745303
0.00915405
0.00331644
0.00502547
0.00143569
0.00310356
6.41506e-05
0.00118398
0.00255044
0.00418938
0.00609124
0.00827348
0.0106744
0.0133122
0.0161285
0.019211
0.0223662
0.025785
0.0296384
0.0336073
0.0372561
0.0403715
0.042638
0.0435906
0.0452187
0.0584092
0.0991052
0.149472
0.178989
0.198813
0.215834
0.234075
0.250971
0.262643
0.248286
0.189541
0.107477
0.0516021
0.0225584
0.0377491
0.00094265
0.0230088
-0.00295099
0.0130618
0.0049012
0.0209495
0.0165148
0.0381809
0.0261984
0.0562653
0.0287787
0.066748
0.0239922
0.0596946
0.0148229
0.0422059
0.0216955
0.00972141
0.0271045
0.0295935
0.00495442
0.00912896
0.00233241
0.00434475
4.08087e-05
0.000978755
0.00217032
0.00364407
0.00537711
0.00738439
0.00980417
0.0122288
0.0151361
0.018206
0.0213177
0.0246321
0.0284671
0.0324252
0.0362614
0.0397126
0.042489
0.0441411
0.0455647
0.0550303
0.0919055
0.141119
0.164247
0.178927
0.19045
0.212952
0.243311
0.268408
0.286355
0.273227
0.211212
0.137874
0.113074
0.0430351
0.085761
0.0339414
0.0623731
0.0418422
0.0671259
0.0647364
0.093554
0.0937549
0.132666
0.118321
0.17199
0.125314
0.199004
0.102126
0.195997
0.0622507
0.147836
0.0798939
0.0284292
0.0919746
0.0955344
0.00776324
0.0240781
0.00306585
0.00595255
6.23901e-05
0.000811402
0.00181699
0.00312305
0.00470291
0.00658678
0.008874
0.0111673
0.0140601
0.0170731
0.0201637
0.0234276
0.0270707
0.031077
0.0349986
0.0386707
0.0418125
0.044113
0.0456031
0.0517436
0.0809782
0.130408
0.151085
0.155901
0.147483
0.160669
0.202038
0.253606
0.290259
0.315367
0.305551
0.250088
0.209252
0.170756
0.224331
0.0930435
0.133369
0.0958731
0.129412
0.123462
0.154705
0.170342
0.205654
0.223839
0.270324
0.270262
0.331773
0.290868
0.379477
0.27034
0.388876
0.191893
0.337616
0.225432
0.0894869
0.244113
0.245913
0.0177838
0.0758104
0.00347899
0.0109697
0.000105336
0.000686921
0.00150989
0.00263414
0.00405796
0.0057896
0.00792255
0.0101325
0.0128618
0.0158131
0.0189041
0.0221281
0.0256217
0.0295243
0.0335106
0.0373025
0.0407166
0.0435014
0.0453237
0.049097
0.0700527
0.117923
0.139923
0.137276
0.113057
0.121022
0.152206
0.201092
0.270009
0.319407
0.353073
0.352793
0.319953
0.268225
0.329176
0.252273
0.300818
0.166552
0.207476
0.187363
0.223604
0.238787
0.271438
0.310493
0.34492
0.386692
0.429178
0.448602
0.496789
0.483368
0.535747
0.475191
0.554971
0.397199
0.54236
0.437854
0.230075
0.456404
0.454553
0.0575171
0.200519
0.00435144
0.0373072
0.00011867
0.000570842
0.00124739
0.00219338
0.00343345
0.0049881
0.00692553
0.00905748
0.0116137
0.0145163
0.0175433
0.0206329
0.0240651
0.027878
0.0318366
0.0356903
0.0392994
0.0423973
0.0446636
0.0471627
0.0603977
0.102479
0.129702
0.126578
0.0922594
0.0939405
0.117903
0.157837
0.216789
0.296801
0.358633
0.402857
0.423311
0.376794
0.42562
0.3511
0.404362
0.347476
0.393423
0.262503
0.303644
0.304014
0.339063
0.375894
0.405267
0.461229
0.485865
0.522325
0.535778
0.557063
0.56211
0.583034
0.583651
0.601557
0.608996
0.586366
0.634329
0.615939
0.432839
0.632384
0.631644
0.165248
0.390367
0.0123787
0.125637
5.71619e-05
0.000394627
0.000969749
0.00177115
0.00279772
0.00414208
0.00596136
0.00806479
0.010444
0.0131547
0.0159857
0.0191315
0.0225226
0.0261491
0.0300094
0.0338722
0.0375733
0.0408719
0.0435399
0.0456287
0.0530462
0.0848704
0.119487
0.120358
0.0833333
0.0767001
0.0943378
0.136256
0.190893
0.25725
0.339138
0.408723
0.467401
0.521166
0.44845
0.504005
0.440281
0.484495
0.451032
0.489648
0.375618
0.41291
0.433502
0.462024
0.504774
0.521057
0.543954
0.550502
0.559898
0.557602
0.576343
0.563047
0.598694
0.576611
0.63217
0.607025
0.660883
0.651016
0.68479
0.608058
0.705805
0.719718
0.33596
0.56342
0.055459
0.274062
0.000121507
0.000615406
0.00130653
0.00219943
0.00336397
0.00504826
0.00692948
0.00913283
0.011698
0.0144585
0.0175264
0.0208223
0.0243227
0.0280833
0.0319094
0.0356086
0.0390396
0.0419661
0.0440981
0.0481225
0.068746
0.107688
0.115292
0.0818227
0.0667942
0.0763727
0.118536
0.179822
0.241547
0.310867
0.391823
0.468876
0.53997
0.575226
0.586537
0.524697
0.555868
0.526393
0.559829
0.544
0.570694
0.489944
0.517016
0.536772
0.552548
0.557372
0.56587
0.556408
0.557939
0.550466
0.539341
0.543823
0.515051
0.560163
0.514754
0.60944
0.54554
0.670622
0.614603
0.693791
0.721153
0.719584
0.743086
0.497537
0.693629
0.0421199
0.312755
0.000167428
0.000784708
0.00156798
0.0026162
0.00412807
0.00578284
0.00781662
0.0102015
0.0128606
0.0158065
0.0190001
0.0224248
0.0260154
0.0298087
0.0334922
0.0369888
0.0400635
0.0424656
0.0449201
0.0563596
0.0913288
0.109491
0.0822888
0.0618061
0.0639327
0.091694
0.156714
0.227932
0.29525
0.372052
0.454738
0.527423
0.584479
0.573461
0.610593
0.60684
0.58758
0.604552
0.596258
0.616688
0.603358
0.621837
0.568529
0.585225
0.576204
0.588322
0.563047
0.572302
0.534073
0.538346
0.500286
0.497467
0.491701
0.480934
0.510339
0.493059
0.549038
0.52248
0.626126
0.561204
0.649907
0.759904
0.682944
0.707527
0.741814
0.605373
0.75679
0.0482518
0.410936
0.000197654
0.000906705
0.0018115
0.00317043
0.0046582
0.00650612
0.00876151
0.0112955
0.0140932
0.0171304
0.0204448
0.0238952
0.0276017
0.0312379
0.0347395
0.0378964
0.0405119
0.0425093
0.0481385
0.0727824
0.100778
0.08678
0.0593539
0.0563108
0.0691885
0.104399
0.174614
0.256435
0.333782
0.413112
0.488981
0.551201
0.598183
0.581035
0.625871
0.616622
0.628404
0.630882
0.637317
0.646776
0.634255
0.649291
0.602292
0.617859
0.585018
0.600843
0.551408
0.568646
0.507877
0.526167
0.478491
0.487385
0.48297
0.477946
0.512354
0.516014
0.542693
0.562771
0.581805
0.565947
0.563078
0.6315
0.59958
0.72678
0.765857
0.746651
0.669334
0.630512
0.614592
0.687985
0.615378
0.720602
0.762673
0.775195
0.767062
0.0968282
0.674537
0.444441
0.636667
0.00021036
0.00100401
0.00212912
0.00352775
0.00521204
0.00730351
0.00970357
0.012368
0.0152469
0.0184263
0.0218222
0.025342
0.0289156
0.0323474
0.0355523
0.0382892
0.0402793
0.0431838
0.0572728
0.0872542
0.0895906
0.0586604
0.0515483
0.0555586
0.0692079
0.106279
0.172227
0.258281
0.348449
0.426685
0.491406
0.548387
0.517403
0.60005
0.576475
0.631657
0.61228
0.647054
0.641787
0.658043
0.659067
0.653087
0.663703
0.618102
0.636372
0.58901
0.610629
0.548817
0.575063
0.506204
0.532681
0.479386
0.489699
0.512896
0.499043
0.564212
0.578275
0.582298
0.579595
0.583624
0.613546
0.624751
0.67229
0.642101
0.581922
0.588453
0.594777
0.603773
0.600551
0.710847
0.734078
0.649668
0.62829
0.614092
0.670739
0.752932
0.755979
0.774724
0.779671
0.267509
0.562973
0.732649
0.717889
0.000203192
0.00109053
0.0024086
0.00390928
0.0058317
0.00809019
0.0106214
0.0133593
0.0163768
0.0195903
0.0230649
0.026529
0.0298914
0.0330867
0.0358871
0.0380689
0.0399292
0.0467078
0.0703684
0.0865959
0.0635128
0.0481573
0.0473387
0.0524676
0.0656942
0.0967342
0.147569
0.219784
0.301219
0.369326
0.398206
0.515423
0.450066
0.585879
0.552535
0.618832
0.587486
0.653831
0.641992
0.666251
0.661012
0.664833
0.668255
0.632801
0.651752
0.602086
0.627087
0.562671
0.591701
0.511751
0.541186
0.484078
0.485173
0.569061
0.551734
0.53027
0.505744
0.634584
0.63509
0.625634
0.639423
0.679463
0.689629
0.743666
0.715889
0.621913
0.60575
0.636176
0.663924
0.616882
0.694343
0.719347
0.643863
0.627655
0.638502
0.661395
0.777107
0.744574
0.768143
0.786051
0.711021
0.66624
-0.0138679
0.331629
0.773794
0.771004
0.000159958
0.00119582
0.00262485
0.00437163
0.00646511
0.00885966
0.0114628
0.0143089
0.0173738
0.0207819
0.0241121
0.0273844
0.0305238
0.0333622
0.0356684
0.0372355
0.0403774
0.0545626
0.0794061
0.0703624
0.0470057
0.0421941
0.0444563
0.0471604
0.0560805
0.0741511
0.105103
0.148605
0.186764
0.19819
0.307002
0.208932
0.449887
0.380081
0.550028
0.504762
0.582037
0.538564
0.646922
0.619001
0.662355
0.645082
0.664492
0.656658
0.647485
0.661711
0.617777
0.639427
0.572259
0.599779
0.502456
0.528365
0.48538
0.469643
0.462312
0.460471
0.606902
0.579452
0.546672
0.51247
0.696838
0.690986
0.673761
0.712106
0.75768
0.75922
0.817685
0.794117
0.683834
0.646883
0.697879
0.739712
0.654052
0.681888
0.705887
0.650448
0.659207
0.662756
0.664105
0.791839
0.732614
0.759336
0.787119
0.789729
0.661063
0.0455502
0.29527
0.796386
6.64824e-05
0.00135967
0.00293778
0.00486185
0.00709211
0.00956098
0.0122432
0.0151594
0.018381
0.0216954
0.024859
0.0279165
0.0307571
0.0331439
0.0348243
0.0364908
0.0432288
0.0643026
0.0701669
0.0514915
0.0388892
0.0387592
0.0394499
0.040005
0.0426433
0.0503991
0.0652141
0.0815605
0.0873556
0.0795244
0.191693
0.110191
0.359338
0.279153
0.488001
0.4287
0.519251
0.463412
0.611656
0.568843
0.634257
0.596123
0.641339
0.613025
0.652656
0.653118
0.620043
0.629559
0.554314
0.570918
0.464779
0.473122
0.48256
0.487188
0.481537
0.456502
0.442169
0.43564
0.644887
0.606278
0.561729
0.516081
0.758908
0.746144
0.718975
0.793882
0.839047
0.825025
0.885465
0.870276
0.760525
0.70605
0.773454
0.82332
0.708573
0.679302
0.698224
0.666762
0.706658
0.701807
0.674343
0.80059
0.722711
0.751549
0.784432
0.806883
0.786598
0.605192
0.0716989
0.299431
0.000183858
0.00158107
0.00330738
0.00535108
0.00766143
0.0101888
0.0129518
0.0159777
0.0192688
0.0223393
0.0253015
0.0281117
0.0305485
0.0323978
0.0335983
0.0364513
0.0489705
0.0660324
0.0571653
0.0393194
0.0349733
0.0352803
0.0333701
0.0318247
0.0324883
0.0374491
0.0443109
0.0489779
0.0477976
0.0501109
0.0423636
0.100996
0.0633587
0.250774
0.166776
0.400546
0.329718
0.432613
0.367243
0.547906
0.492853
0.570284
0.518377
0.57847
0.532914
0.627403
0.610172
0.576661
0.573718
0.483682
0.482936
0.435352
0.439823
0.447107
0.455094
0.474601
0.440805
0.416129
0.403072
0.678927
0.628847
0.572592
0.515568
0.816465
0.793856
0.755862
0.876977
0.916287
0.881765
0.941319
0.938636
0.844141
0.778671
0.85603
0.906982
0.776117
0.686216
0.699949
0.696719
0.766962
0.753206
0.693658
0.805609
0.719038
0.747202
0.781996
0.811969
0.770635
0.571532
0.0628047
0.269407
0.000350804
0.00184349
0.00365859
0.00578481
0.00815368
0.0107582
0.0136183
0.0167749
0.0198071
0.0227017
0.0254495
0.0279186
0.0298785
0.0310643
0.0324028
0.0381398
0.0557532
0.0572669
0.0441466
0.0333998
0.0333937
0.0327838
0.0296342
0.0263794
0.0270442
0.0309035
0.0354662
0.037801
0.0368494
0.0399844
0.0375672
0.0584021
0.0449405
0.146166
0.0896003
0.296317
0.220458
0.332503
0.265087
0.460124
0.397787
0.478915
0.421436
0.47821
0.427102
0.554424
0.522087
0.475736
0.46049
0.39267
0.388937
0.372981
0.383124
0.397147
0.394728
0.39493
0.394337
0.463881
0.420447
0.387137
0.364208
0.704177
0.642862
0.575453
0.509201
0.864703
0.830161
0.780174
0.95449
0.984099
0.928423
0.98479
0.994044
0.927679
0.858482
0.938591
0.984418
0.851218
0.697817
0.707801
0.738194
0.835476
0.813123
0.72557
0.809412
0.724155
0.748505
0.782263
0.813949
0.753554
0.538036
0.0378029
0.207367
0.000471936
0.00204715
0.00395161
0.00614532
0.00859353
0.0112956
0.0142463
0.0172874
0.0201063
0.0228019
0.0252762
0.027324
0.0287319
0.0295607
0.0317608
0.0419873
0.0542442
0.0473486
0.0350923
0.0309151
0.0321803
0.0319882
0.030448
0.0266686
0.0243866
0.0266283
0.0307806
0.0324424
0.0331142
0.0318352
0.0356188
0.0343897
0.0419554
0.0374252
0.0832475
0.0543438
0.197345
0.133332
0.241592
0.183411
0.361441
0.301153
0.374538
0.321508
0.349489
0.305057
0.429625
0.39316
0.359846
0.3401
0.284678
0.321534
0.313957
0.295778
0.305826
0.349659
0.340617
0.333923
0.327831
0.447808
0.394715
0.352146
0.32042
0.717188
0.644777
0.568364
0.492831
0.898996
0.853181
0.79121
1.02175
1.03924
0.962991
1.01796
1.03546
1.00491
0.938993
1.01522
1.05133
0.928132
0.719102
0.721227
0.788286
0.906972
0.877153
0.76519
0.813505
0.734213
0.755433
0.785005
0.814256
0.737111
0.493526
0.0197396
0.137853
0.000546725
0.00220623
0.0041981
0.00647511
0.00901933
0.0117972
0.014786
0.0175258
0.0201694
0.0226404
0.0247546
0.0263341
0.0271147
0.028021
0.0324147
0.0456804
0.0471354
0.0380946
0.0300288
0.0298188
0.0316837
0.0323769
0.0304961
0.0270109
0.0228641
0.0234171
0.0268344
0.0277793
0.0304248
0.0290973
0.0323838
0.0314405
0.0346297
0.0331971
0.051245
0.0387867
0.128411
0.081426
0.168171
0.118417
0.269564
0.218621
0.261678
0.217771
0.186017
0.15484
0.249982
0.220646
0.28646
0.282711
0.141635
0.126295
0.237024
0.223273
0.192358
0.208523
0.297115
0.279296
0.264415
0.250666
0.423332
0.362167
0.311648
0.271742
0.717004
0.63557
0.549715
0.467253
0.920331
0.86336
0.791012
1.07645
1.079
0.983038
1.03726
1.06617
1.07166
1.01452
1.08192
1.10541
1.00143
0.747879
0.740023
0.843444
0.976397
0.941296
0.810017
0.817933
0.747646
0.765814
0.789547
0.814345
0.721804
0.435841
0.0108771
0.0856365
0.000596097
0.00236389
0.00444786
0.00681845
0.00943045
0.0122416
0.014994
0.0175657
0.0200219
0.0221916
0.0239038
0.0249404
0.0254382
0.0269176
0.0343739
0.0445957
0.0396076
0.0313039
0.0274723
0.0292148
0.0318683
0.0321451
0.0298981
0.0253268
0.0186741
0.0202421
0.0229594
0.024932
0.0232813
0.027656
0.0264779
0.0292782
0.0285736
0.0303551
0.0298703
0.034826
0.031388
0.073871
0.0457647
0.0886803
0.0553328
0.174779
0.130714
0.126738
0.0993038
0.0703613
0.0696049
0.111865
0.0965022
0.0744527
0.17601
0.159537
0.0758971
0.0717606
0.151496
0.133657
0.102457
0.117022
0.240123
0.213957
0.19121
0.170685
0.390713
0.323434
0.267144
0.221576
0.70661
0.614598
0.521701
0.432362
0.931012
0.864718
0.783907
1.11538
1.10618
0.99327
1.04634
1.08588
1.12575
1.08078
1.13627
1.14481
1.06692
0.781891
0.764383
0.899709
1.04
1.0009
0.856897
0.822661
0.763923
0.779783
0.796476
0.815595
0.706435
0.374008
0.00190375
0.0648533
0.000646722
0.00252904
0.00471048
0.00715418
0.00978541
0.0125065
0.0150209
0.017439
0.0196424
0.0214731
0.0227468
0.0232397
0.023754
0.0267312
0.0362538
0.0397087
0.032941
0.0267955
0.0263821
0.0294994
0.0321826
0.0316706
0.0280717
0.0204207
0.0142847
0.0173091
0.0192164
0.0225557
0.0209069
0.0248677
0.0238831
0.0262602
0.0256719
0.0269153
0.0266354
0.0277297
0.0271173
0.037626
0.0301254
0.0371993
0.0287743
0.0738585
0.0523896
0.0589033
0.0491469
0.0654444
0.0676485
0.0787316
0.0698189
0.0706335
0.0644132
0.0623515
0.0907861
0.0821899
0.0516625
0.0546109
0.0859052
0.0716348
0.0543976
0.0610787
0.184507
0.153465
0.126943
0.104413
0.351469
0.281271
0.223043
0.176542
0.691563
0.591025
0.489732
0.395598
0.934783
0.862246
0.776317
1.14089
1.12483
0.996302
1.04889
1.09323
1.16654
1.13558
1.17834
1.16991
1.12211
0.818298
0.791513
0.953264
1.09373
1.05233
0.901689
0.828041
0.782848
0.794403
0.805774
0.817886
0.698127
0.359325
-0.00626286
0.0804391
0.000700993
0.00268714
0.00495466
0.0074359
0.0100209
0.0125317
0.0149066
0.0171252
0.019049
0.0205103
0.0212902
0.0215638
0.0224092
0.0273762
0.0363277
0.0344612
0.0279764
0.0252654
0.0266752
0.030501
0.032302
0.0308001
0.0240284
0.0140599
0.0113251
0.014588
0.0171222
0.0155892
0.020131
0.0187298
0.02205
0.0212675
0.0231983
0.022733
0.0235318
0.0234576
0.0235043
0.0235253
0.0250484
0.0237967
0.0235648
0.0208657
0.0375252
0.0288961
0.0685594
0.0579343
0.111202
0.106306
0.195189
0.180971
0.05761
0.0606823
0.110378
0.105856
0.0513647
0.0509365
0.0640092
0.0761581
0.0590417
0.0512331
0.0460637
0.0466857
0.139699
0.110437
0.087952
0.0709751
0.312205
0.241572
0.185155
0.142415
0.677286
0.569894
0.462916
0.364357
0.934834
0.859703
0.770851
1.15867
1.13346
0.995174
1.04904
1.0958
1.19231
1.17797
1.20722
1.18645
1.16427
0.854942
0.820306
0.999527
1.13533
1.09172
0.943023
0.83406
0.804545
0.810567
0.816968
0.82233
0.704561
0.407465
0.0648736
0.264112
0.000749653
0.00282304
0.0051398
0.00759512
0.0100447
0.0124356
0.0146462
0.0166442
0.0182652
0.0193376
0.0196715
0.0199265
0.0217076
0.0280629
0.0340223
0.0301422
0.025597
0.02541
0.028066
0.0318621
0.0325663
0.0281246
0.0182798
0.00769967
0.00946702
0.012064
0.0153273
0.0138265
0.0177889
0.0166049
0.019311
0.0186479
0.0201793
0.0198517
0.0201939
0.0202863
0.0197141
0.0199745
0.0197868
0.0195978
0.0205458
0.0167501
0.0415503
0.0287423
0.164118
0.150697
0.14746
0.203691
0.203663
0.313903
0.29664
0.0877226
0.0982477
0.199279
0.190597
0.0495726
0.0555987
0.113312
0.134125
0.0555621
0.0544094
0.0655768
0.0585225
0.110766
0.0882525
0.0724441
0.0614234
0.280901
0.213729
0.161328
0.122736
0.669255
0.559205
0.448691
0.347614
0.931205
0.854716
0.765902
1.17085
1.14155
0.992661
1.05175
1.10138
1.20917
1.20749
1.22304
1.1988
1.1924
0.890206
0.848996
1.03822
1.16231
1.11985
0.978437
0.840967
0.827776
0.82866
0.830273
0.830196
0.728156
0.56046
0.102668
0.460243
0.00078611
0.00291725
0.00523593
0.00761652
0.00999318
0.0122235
0.0142617
0.0160175
0.0173232
0.0179775
0.018143
0.0185559
0.0215942
0.0285082
0.0312657
0.0274567
0.0252112
0.0269076
0.0303564
0.0332213
0.0315262
0.0236928
0.0109079
0.00488963
0.00808153
0.00965689
0.0134999
0.012236
0.0155426
0.01462
0.0167827
0.0162047
0.0173388
0.0171739
0.0168776
0.017235
0.0156698
0.0163133
0.0154011
0.0151679
0.0300723
0.0163863
0.101287
0.0584804
0.270741
0.235666
0.2743
0.320624
0.317973
0.32049
0.438514
0.422494
0.155052
0.174546
0.310308
0.293114
0.0786838
0.0950065
0.183833
0.212298
0.07142
0.077778
0.109508
0.0915798
0.0962885
0.0801014
0.0715889
0.0685408
0.263097
0.196151
0.145065
0.110579
0.665086
0.555509
0.444477
0.341108
0.926729
0.851128
0.764582
1.18089
1.14906
0.994658
1.05652
1.10604
1.21911
1.22458
1.22997
1.20566
1.20948
0.921706
0.877964
1.0651
1.18122
1.13902
1.00591
0.849393
0.853061
0.847976
0.844107
0.839232
0.772862
0.683948
0.0253646
0.405045
0.000815642
0.00298695
0.00527345
0.00760095
0.00985682
0.0119217
0.0137717
0.0152696
0.0162349
0.0165442
0.0166989
0.0176692
0.0217159
0.0281578
0.0289262
0.0265531
0.0266023
0.0295091
0.0330622
0.0339429
0.0287029
0.0172038
0.00347659
0.00407161
0.00678591
0.00832622
0.0106703
0.00748339
0.0117602
0.0134118
0.0126955
0.0144687
0.0140019
0.0145369
0.0146656
0.0133125
0.0140776
0.0111784
0.0123035
0.0115276
0.0106894
0.0690912
0.0272094
0.240097
0.143174
0.39664
0.362426
0.375949
0.431053
0.438402
0.442457
0.553882
0.539541
0.241358
0.268532
0.42459
0.399966
0.130786
0.156641
0.270358
0.305098
0.101614
0.119828
0.170997
0.142609
0.0906028
0.0828318
0.0833612
0.0883642
0.252576
0.183372
0.132986
0.103734
0.6681
0.562924
0.454816
0.350151
0.928913
0.855901
0.774521
1.18538
1.14827
0.999209
1.05155
1.10378
1.22123
1.22899
1.22669
1.2049
1.21731