/*--------------------------------*- C++ -*----------------------------------*\
  =========                 |
  \\      /  F ield         | OpenFOAM: The Open Source CFD Toolbox
   \\    /   O peration     | Website:  https://openfoam.org
    \\  /    A nd           | Version:  dev
     \\/     M anipulation  |
\*---------------------------------------------------------------------------*/
FoamFile
{
    version     2.0;
    format      ascii;
    class       surfaceScalarField;
    location    "2500";
    object      phi;
}
// * * * * * * * * * * * * * * * * * * * * * * * * * * * * * * * * * * * * * //

dimensions      [1 0 -1 0 0 0 0];

internalField   nonuniform List<scalar> 
19515
(
1.64251e-07
1.00451e-07
1.47682e-07
2.42863e-07
4.35779e-07
8.80462e-08
1.25521e-07
3.23297e-07
4.4002e-07
2.38595e-07
6.13888e-07
7.06043e-08
1.04577e-07
3.70823e-07
4.22565e-07
3.40798e-07
6.40921e-07
2.11579e-07
7.41855e-07
5.64769e-08
8.85121e-08
3.94925e-07
3.87258e-07
4.06153e-07
6.53256e-07
3.2844e-07
7.76902e-07
1.76531e-07
8.48561e-07
4.74849e-08
7.67818e-08
4.03687e-07
3.4209e-07
4.40149e-07
6.42843e-07
4.16594e-07
8.12706e-07
2.92658e-07
8.77219e-07
1.47872e-07
9.42868e-07
4.21886e-08
6.74525e-08
4.04746e-07
2.94983e-07
4.50873e-07
6.09683e-07
4.73351e-07
8.3474e-07
3.94579e-07
9.18138e-07
2.51733e-07
9.61859e-07
1.28861e-07
1.02928e-06
3.78359e-08
5.93799e-08
3.99994e-07
2.53613e-07
4.46208e-07
5.59829e-07
5.00779e-07
8.35013e-07
4.73111e-07
9.61824e-07
3.5091e-07
9.98347e-07
2.15269e-07
1.04395e-06
1.14193e-07
1.10892e-06
3.44017e-08
5.34425e-08
3.88745e-07
2.22543e-07
4.31138e-07
5.01947e-07
5.04202e-07
8.10753e-07
5.25105e-07
9.93223e-07
4.41749e-07
1.04398e-06
3.05293e-07
1.06933e-06
1.89875e-07
1.11942e-06
1.03688e-07
1.1811e-06
3.2008e-08
5.03458e-08
3.72492e-07
2.00215e-07
4.11122e-07
4.41285e-07
4.91904e-07
7.63827e-07
5.51226e-07
1.00287e-06
5.15547e-07
1.09141e-06
3.94334e-07
1.10733e-06
2.67334e-07
1.13756e-06
1.71739e-07
1.18824e-06
9.65614e-08
1.24953e-06
3.04334e-08
4.95708e-08
3.53464e-07
1.8347e-07
3.89302e-07
3.84391e-07
4.68135e-07
7.01552e-07
5.54268e-07
9.87797e-07
5.66329e-07
1.13006e-06
4.76961e-07
1.15464e-06
3.47057e-07
1.16427e-06
2.40632e-07
1.20104e-06
1.58976e-07
1.25444e-06
9.1677e-08
1.31567e-06
2.95163e-08
4.94298e-08
3.33642e-07
1.6819e-07
3.68872e-07
3.36752e-07
4.37109e-07
6.31811e-07
5.37991e-07
9.48923e-07
5.93182e-07
1.14988e-06
5.46564e-07
1.20462e-06
4.27031e-07
1.20162e-06
3.09816e-07
1.22101e-06
2.20658e-07
1.26324e-06
1.50186e-07
1.31841e-06
8.89259e-08
1.38023e-06
2.9154e-08
4.89575e-08
3.11742e-07
1.55796e-07
3.4619e-07
3.03044e-07
4.02743e-07
5.60224e-07
5.08799e-07
8.92499e-07
5.94531e-07
1.14585e-06
5.97271e-07
1.24872e-06
5.02531e-07
1.24851e-06
3.80116e-07
1.24785e-06
2.83023e-07
1.27652e-06
2.07392e-07
1.32332e-06
1.45263e-07
1.38077e-06
8.83663e-08
1.44424e-06
2.9456e-08
4.84723e-08
2.87349e-07
1.468e-07
3.20876e-07
2.78955e-07
3.70407e-07
4.92158e-07
4.70946e-07
8.24048e-07
5.77375e-07
1.11947e-06
6.20983e-07
1.27844e-06
5.67595e-07
1.29964e-06
4.51465e-07
1.28317e-06
3.44881e-07
1.29543e-06
2.6417e-07
1.33087e-06
1.9989e-07
1.38228e-06
1.43757e-07
1.44326e-06
8.93013e-08
1.50965e-06
3.02601e-08
4.76579e-08
2.62534e-07
1.39666e-07
2.94637e-07
2.59036e-07
3.40975e-07
4.35156e-07
4.27621e-07
7.50334e-07
5.44827e-07
1.07297e-06
6.23969e-07
1.28527e-06
6.14221e-07
1.34769e-06
5.19611e-07
1.32778e-06
4.06903e-07
1.31999e-06
3.20385e-07
1.34161e-06
2.53468e-07
1.38506e-06
1.97137e-07
1.44147e-06
1.45546e-07
1.50676e-06
9.21931e-08
1.57708e-06
3.15947e-08
4.69213e-08
2.38234e-07
1.34727e-07
2.67646e-07
2.43001e-07
3.10875e-07
3.93102e-07
3.83267e-07
6.75841e-07
5.0228e-07
1.00884e-06
6.09066e-07
1.27064e-06
6.38649e-07
1.38505e-06
5.76924e-07
1.37786e-06
4.6959e-07
1.3513e-06
3.75645e-07
1.35664e-06
3.05431e-07
1.38953e-06
2.49049e-07
1.43974e-06
1.98907e-07
1.50208e-06
1.50203e-07
1.5725e-06
9.67394e-08
1.64765e-06
3.33733e-08
4.70312e-08
2.15033e-07
1.31974e-07
2.41177e-07
2.30867e-07
2.79984e-07
3.62718e-07
3.41461e-07
6.06858e-07
4.52408e-07
9.35093e-07
5.76177e-07
1.23737e-06
6.42414e-07
1.40424e-06
6.19529e-07
1.42769e-06
5.27149e-07
1.39082e-06
4.30152e-07
1.37624e-06
3.56113e-07
1.39608e-06
2.98944e-07
1.43832e-06
2.50522e-07
1.49597e-06
2.05036e-07
1.56497e-06
1.57718e-07
1.64199e-06
1.0237e-07
1.72207e-06
3.56319e-08
4.77531e-08
1.9392e-07
1.3029e-07
2.16915e-07
2.21366e-07
2.50899e-07
3.40063e-07
3.02872e-07
5.48782e-07
3.99745e-07
8.57478e-07
5.30186e-07
1.18507e-06
6.28573e-07
1.40273e-06
6.43973e-07
1.47096e-06
5.76323e-07
1.43711e-06
4.80907e-07
1.40194e-06
4.04566e-07
1.4058e-06
3.46481e-07
1.43735e-06
2.99967e-07
1.48866e-06
2.57882e-07
1.55476e-06
2.15256e-07
1.63206e-06
1.67616e-07
1.71545e-06
1.0894e-07
1.80165e-06
3.84024e-08
4.85958e-08
1.7613e-07
1.28769e-07
1.95641e-07
2.14053e-07
2.24461e-07
3.2323e-07
2.6798e-07
5.02445e-07
3.49449e-07
7.80273e-07
4.77145e-07
1.11696e-06
5.98414e-07
1.38251e-06
6.48856e-07
1.50053e-06
6.14451e-07
1.48621e-06
5.27308e-07
1.43523e-06
4.47682e-07
1.41916e-06
3.91285e-07
1.4375e-06
3.46429e-07
1.48042e-06
3.0827e-07
1.5422e-06
2.70487e-07
1.61816e-06
2.29149e-07
1.70352e-06
1.79529e-07
1.79376e-06
1.16766e-07
1.88684e-06
4.1405e-08
4.92552e-08
1.61927e-07
1.28329e-07
1.76776e-07
2.09179e-07
2.00753e-07
3.11165e-07
2.36763e-07
4.66315e-07
3.04354e-07
7.09613e-07
4.20329e-07
1.04193e-06
5.52333e-07
1.3452e-06
6.3582e-07
1.51199e-06
6.37476e-07
1.53275e-06
5.67978e-07
1.47583e-06
4.86792e-07
1.43778e-06
4.29154e-07
1.43942e-06
3.89452e-07
1.47149e-06
3.55444e-07
1.52734e-06
3.2319e-07
1.60023e-06
2.88447e-07
1.68606e-06
2.46581e-07
1.78028e-06
1.92954e-07
1.87781e-06
1.25723e-07
1.97828e-06
4.43826e-08
4.9558e-08
1.52067e-07
1.28686e-07
1.61788e-07
2.06792e-07
1.79399e-07
3.03039e-07
2.0912e-07
4.38819e-07
2.6452e-07
6.5084e-07
3.63363e-07
9.65048e-07
4.97395e-07
1.29038e-06
6.07273e-07
1.50762e-06
6.40249e-07
1.57151e-06
5.98784e-07
1.52189e-06
5.21982e-07
1.46281e-06
4.61856e-07
1.4444e-06
4.24275e-07
1.46256e-06
3.98455e-07
1.50983e-06
3.73037e-07
1.57836e-06
3.45126e-07
1.66345e-06
3.11082e-07
1.7603e-06
2.66547e-07
1.86301e-06
2.07679e-07
1.96898e-06
1.34935e-07
2.07574e-06
4.71584e-08
4.99645e-08
1.47044e-07
1.29844e-07
1.51129e-07
2.07087e-07
1.61737e-07
2.97317e-07
1.85376e-07
4.19757e-07
2.28447e-07
6.06117e-07
3.09516e-07
8.91341e-07
4.37282e-07
1.22571e-06
5.62213e-07
1.4868e-06
6.28198e-07
1.59657e-06
6.15265e-07
1.56979e-06
5.50962e-07
1.49532e-06
4.89548e-07
1.45372e-06
4.52639e-07
1.45469e-06
4.32281e-07
1.49015e-06
4.18235e-07
1.55261e-06
3.98854e-07
1.63542e-06
3.732e-07
1.73362e-06
3.37768e-07
1.84137e-06
2.88154e-07
1.9534e-06
2.2316e-07
2.06675e-06
1.43845e-07
2.1791e-06
4.95592e-08
5.0371e-08
1.48066e-07
1.31245e-07
1.45861e-07
2.09251e-07
1.49209e-07
2.95967e-07
1.63363e-07
4.09483e-07
1.95925e-07
5.74333e-07
2.60507e-07
8.26117e-07
3.74986e-07
1.15786e-06
5.053e-07
1.44997e-06
5.99156e-07
1.60899e-06
6.15858e-07
1.61438e-06
5.70752e-07
1.53531e-06
5.11076e-07
1.46931e-06
4.74058e-07
1.44912e-06
4.58326e-07
1.46947e-06
4.53088e-07
1.52254e-06
4.48419e-07
1.60166e-06
4.3269e-07
1.70023e-06
4.06635e-07
1.8121e-06
3.67037e-07
1.93085e-06
3.10662e-07
2.0518e-06
2.38016e-07
2.17147e-06
1.514e-07
2.2875e-06
5.13751e-08
5.05415e-08
1.55562e-07
1.3322e-07
1.46319e-07
2.13227e-07
1.42131e-07
2.99506e-07
1.45929e-07
4.03681e-07
1.69414e-07
5.52854e-07
2.17685e-07
7.73187e-07
3.13693e-07
1.09093e-06
4.42108e-07
1.40327e-06
5.52139e-07
1.6075e-06
6.00739e-07
1.65241e-06
5.77908e-07
1.58148e-06
5.24677e-07
1.4923e-06
4.88199e-07
1.44745e-06
4.7584e-07
1.44915e-06
4.78758e-07
1.48895e-06
4.86802e-07
1.56134e-06
4.88852e-07
1.65914e-06
4.73862e-07
1.77435e-06
4.44423e-07
1.90026e-06
3.97612e-07
2.03004e-06
3.32325e-07
2.15803e-06
2.51333e-07
2.28187e-06
1.56912e-07
2.4002e-06
5.22177e-08
5.10406e-08
1.69166e-07
1.36312e-07
1.52688e-07
2.18786e-07
1.41011e-07
3.05379e-07
1.36515e-07
4.01595e-07
1.483e-07
5.40596e-07
1.81939e-07
7.34494e-07
2.5669e-07
1.02899e-06
3.75875e-07
1.35124e-06
4.94288e-07
1.59296e-06
5.66784e-07
1.68291e-06
5.70306e-07
1.63072e-06
5.28767e-07
1.52453e-06
4.92586e-07
1.45221e-06
4.83564e-07
1.43017e-06
4.94944e-07
1.45303e-06
5.14777e-07
1.51517e-06
5.33094e-07
1.60922e-06
5.38857e-07
1.72674e-06
5.21539e-07
1.85951e-06
4.85196e-07
1.99912e-06
4.28495e-07
2.13806e-06
3.52205e-07
2.27152e-06
2.61548e-07
2.39729e-06
1.59699e-07
2.52398e-06
5.23427e-08
5.1628e-08
1.89351e-07
1.40029e-07
1.65671e-07
2.26015e-07
1.4571e-07
3.12722e-07
1.33928e-07
4.05448e-07
1.32956e-07
5.35456e-07
1.53719e-07
7.09337e-07
2.07405e-07
9.75965e-07
3.09978e-07
1.29789e-06
4.29409e-07
1.5684e-06
5.1898e-07
1.70362e-06
5.46176e-07
1.68036e-06
5.20742e-07
1.56677e-06
4.86611e-07
1.4647e-06
4.80226e-07
1.41435e-06
4.99527e-07
1.41546e-06
5.32679e-07
1.46324e-06
5.66833e-07
1.55017e-06
5.92265e-07
1.6679e-06
5.9778e-07
1.8071e-06
5.73991e-07
1.95741e-06
5.26906e-07
2.1093e-06
4.57189e-07
2.25541e-06
3.68179e-07
2.39149e-06
2.6715e-07
2.52451e-06
1.59011e-07
2.63944e-06
5.15425e-08
5.17495e-08
2.16349e-07
1.43688e-07
1.85907e-07
2.33539e-07
1.58387e-07
3.20541e-07
1.38143e-07
4.14269e-07
1.25379e-07
5.36074e-07
1.32622e-07
6.9592e-07
1.67476e-07
9.35667e-07
2.47995e-07
1.24719e-06
3.60909e-07
1.53861e-06
4.59352e-07
1.71535e-06
5.07362e-07
1.72802e-06
4.98609e-07
1.61907e-06
4.68555e-07
1.48804e-06
4.63378e-07
1.40503e-06
4.89685e-07
1.37871e-06
5.36425e-07
1.40659e-06
5.89478e-07
1.4824e-06
6.34736e-07
1.59723e-06
6.63043e-07
1.74117e-06
6.63795e-07
1.90266e-06
6.28777e-07
2.06937e-06
5.66814e-07
2.23148e-06
4.81034e-07
2.38173e-06
3.77823e-07
2.52482e-06
2.66665e-07
2.64495e-06
1.53345e-07
2.75174e-06
4.93062e-08
5.20064e-08
2.49404e-07
1.47401e-07
2.12849e-07
2.40412e-07
1.79272e-07
3.28911e-07
1.50289e-07
4.25324e-07
1.27354e-07
5.42002e-07
1.19744e-07
6.91825e-07
1.37003e-07
9.09306e-07
1.94146e-07
1.20203e-06
2.93416e-07
1.50661e-06
3.93096e-07
1.71966e-06
4.55172e-07
1.77315e-06
4.62306e-07
1.67886e-06
4.389e-07
1.5248e-06
4.3192e-07
1.40565e-06
4.62901e-07
1.34587e-06
5.22682e-07
1.34717e-06
5.96006e-07
1.40612e-06
6.65902e-07
1.51379e-06
7.18307e-07
1.6598e-06
7.44509e-07
1.83165e-06
7.34867e-07
2.01502e-06
6.83147e-07
2.1964e-06
6.01856e-07
2.36535e-06
4.973e-07
2.52307e-06
3.79396e-07
2.6545e-06
2.56911e-07
2.763e-06
1.41928e-07
2.85405e-06
4.47402e-08
5.23818e-08
2.88318e-07
1.51044e-07
2.45955e-07
2.46728e-07
2.06765e-07
3.38971e-07
1.69468e-07
4.38656e-07
1.3724e-07
5.53046e-07
1.16605e-07
6.95443e-07
1.16448e-07
8.955e-07
1.51131e-07
1.16608e-06
2.30385e-07
1.47544e-06
3.24812e-07
1.71886e-06
3.94032e-07
1.81495e-06
4.13477e-07
1.74448e-06
3.96779e-07
1.57713e-06
3.86692e-07
1.42002e-06
4.17697e-07
1.32086e-06
4.88078e-07
1.28809e-06
5.81926e-07
1.32235e-06
6.79943e-07
1.41726e-06
7.62579e-07
1.56166e-06
8.16567e-07
1.74206e-06
8.34184e-07
1.94241e-06
8.07518e-07
2.14632e-06
7.33215e-07
2.33888e-06
6.28244e-07
2.517e-06
5.03223e-07
2.66542e-06
3.68262e-07
2.7832e-06
2.3649e-07
2.87403e-06
1.21791e-07
2.94492e-06
3.51099e-08
5.21322e-08
3.33326e-07
1.53462e-07
2.8609e-07
2.51996e-07
2.40916e-07
3.50253e-07
1.95734e-07
4.53869e-07
1.5452e-07
5.67445e-07
1.23105e-07
7.06058e-07
1.06298e-07
8.91544e-07
1.20736e-07
1.14175e-06
1.75813e-07
1.44752e-06
2.5859e-07
1.71609e-06
3.27765e-07
1.85408e-06
3.55033e-07
1.81576e-06
3.42298e-07
1.64638e-06
3.27642e-07
1.45242e-06
3.54436e-07
1.30816e-06
4.30571e-07
1.23323e-06
5.43132e-07
1.23346e-06
6.70993e-07
1.30724e-06
7.9012e-07
1.44444e-06
8.79942e-07
1.63115e-06
9.27589e-07
1.84818e-06
9.28493e-07
2.0764e-06
8.77465e-07
2.29751e-06
7.74557e-07
2.50216e-06
6.42974e-07
2.67471e-06
4.93754e-07
2.80906e-06
3.4216e-07
2.90788e-06
2.02399e-07
2.97511e-06
9.14333e-08
3.01851e-06
2.21241e-08
5.17075e-08
3.82908e-07
1.55311e-07
3.31659e-07
2.57381e-07
2.80926e-07
3.61254e-07
2.30156e-07
4.67952e-07
1.81894e-07
5.83016e-07
1.39222e-07
7.21894e-07
1.07565e-07
8.9504e-07
1.0315e-07
1.13009e-06
1.32688e-07
1.42497e-06
1.98641e-07
1.71355e-06
2.61347e-07
1.89131e-06
2.90661e-07
1.89238e-06
2.7852e-07
1.73219e-06
2.56598e-07
1.50747e-06
2.72745e-07
1.31444e-06
3.48341e-07
1.18871e-06
4.75295e-07
1.14373e-06
6.33069e-07
1.18516e-06
7.93265e-07
1.30673e-06
9.28002e-07
1.49509e-06
1.01614e-06
1.72826e-06
1.0476e-06
1.98232e-06
1.02263e-06
2.23557e-06
9.39402e-07
2.47361e-06
8.03047e-07
2.67859e-06
6.38943e-07
2.83772e-06
4.64875e-07
2.95245e-06
2.97327e-07
3.02428e-06
1.52982e-07
3.05995e-06
4.98328e-08
3.07238e-06
4.81795e-09
5.08114e-08
4.36286e-07
1.56578e-07
3.81825e-07
2.622e-07
3.27051e-07
3.7032e-07
2.72091e-07
4.812e-07
2.17168e-07
6.00497e-07
1.64686e-07
7.39904e-07
1.21507e-07
9.05338e-07
9.76103e-08
1.12942e-06
1.04208e-07
1.40978e-06
1.48187e-07
1.71269e-06
1.99777e-07
1.92735e-06
2.25479e-07
1.97343e-06
2.09695e-07
1.83475e-06
1.7605e-07
1.58973e-06
1.74465e-07
1.34744e-06
2.3992e-07
1.16349e-06
3.73769e-07
1.06089e-06
5.58365e-07
1.05493e-06
7.63512e-07
1.14775e-06
9.52438e-07
1.32968e-06
1.09356e-06
1.57675e-06
1.16778e-06
1.8585e-06
1.1715e-06
2.14771e-06
1.11052e-06
2.42478e-06
9.88198e-07
2.67107e-06
8.10469e-07
2.86421e-06
6.12267e-07
3.00436e-06
4.12704e-07
3.0907e-06
2.30612e-07
3.12784e-06
8.48284e-08
3.11953e-06
2.51113e-09
3.09154e-06
-1.78265e-08
4.97013e-08
4.92274e-07
1.56809e-07
4.36222e-07
2.65347e-07
3.78876e-07
3.77596e-07
3.20007e-07
4.94001e-07
2.59553e-07
6.17635e-07
2.00281e-07
7.57148e-07
1.47729e-07
9.22299e-07
1.04885e-07
1.13531e-06
9.20814e-08
1.40397e-06
1.10404e-07
1.71394e-06
1.47194e-07
1.96303e-06
1.64311e-07
2.05758e-06
1.41444e-07
1.95288e-06
9.16256e-08
1.70132e-06
6.45553e-08
1.41459e-06
1.07459e-07
1.16782e-06
2.358e-07
9.95447e-07
4.39437e-07
9.24026e-07
6.89501e-07
9.69657e-07
9.41822e-07
1.1317e-06
1.15061e-06
1.3871e-06
1.28336e-06
1.6983e-06
1.32808e-06
2.02807e-06
1.29119e-06
2.34923e-06
1.18607e-06
2.6447e-06
1.0145e-06
2.88166e-06
7.9287e-07
3.05711e-06
5.59282e-07
3.16696e-06
3.36144e-07
3.21686e-06
1.41278e-07
3.20613e-06
-2.03633e-09
3.14784e-06
-5.39404e-08
3.04979e-06
-1.09929e-08
-2.96804e-08
4.83666e-08
5.49609e-07
1.55858e-07
4.93386e-07
2.66318e-07
4.35441e-07
3.82169e-07
3.74519e-07
5.04359e-07
3.09892e-07
6.31846e-07
2.45582e-07
7.74351e-07
1.83363e-07
9.43671e-07
1.26708e-07
1.14775e-06
9.28305e-08
1.40786e-06
8.86323e-08
1.71735e-06
1.07319e-07
1.99783e-06
1.12642e-07
2.14272e-06
7.93372e-08
2.08429e-06
1.00979e-08
1.84231e-06
-4.93273e-08
1.52117e-06
-4.194e-08
1.21224e-06
6.31953e-08
9.61783e-07
2.69686e-07
8.06123e-07
5.57586e-07
7.80086e-07
8.79315e-07
8.99473e-07
1.17427e-06
1.15058e-06
1.38731e-06
1.49107e-06
1.4907e-06
1.86839e-06
1.48783e-06
2.24339e-06
1.39706e-06
2.59629e-06
1.23444e-06
2.88729e-06
1.00876e-06
3.10953e-06
7.40266e-07
3.25515e-06
4.70829e-07
3.32395e-06
2.28723e-07
3.32372e-06
2.33606e-08
3.26079e-06
-1.15255e-07
3.13414e-06
-5.94278e-08
-7.90076e-08
1.47781e-06
-1.14178e-08
1.49262e-06
-4.45039e-08
4.63154e-08
6.07797e-07
1.53059e-07
5.52555e-07
2.65018e-07
4.94873e-07
3.84327e-07
4.33494e-07
5.12093e-07
3.66983e-07
6.44244e-07
2.9774e-07
7.91202e-07
2.28993e-07
9.65443e-07
1.61873e-07
1.16594e-06
1.08915e-07
1.41859e-06
8.24397e-08
1.72386e-06
8.253e-08
2.03035e-06
7.50822e-08
2.22582e-06
2.97579e-08
2.22383e-06
-6.0083e-08
2.01018e-06
-1.57724e-07
1.67031e-06
-1.98418e-07
1.30662e-06
-1.36208e-07
9.7678e-07
4.83998e-08
7.23323e-07
3.52736e-07
5.96475e-07
7.41458e-07
6.40579e-07
1.13844e-06
8.60494e-07
1.46453e-06
1.2171e-06
1.66141e-06
1.64255e-06
1.71661e-06
2.08406e-06
1.64719e-06
2.50954e-06
1.4838e-06
2.87384e-06
1.24782e-06
3.15991e-06
9.58231e-07
3.35509e-06
6.40088e-07
3.45527e-06
3.39191e-07
3.47147e-06
8.06168e-08
3.40342e-06
-5.15156e-08
-6.81015e-08
1.61813e-06
-1.10567e-07
1.63332e-06
-1.2227e-07
1.51025e-06
-7.70837e-08
1.54063e-06
-1.0943e-07
1.45258e-06
-1.23543e-08
1.46414e-06
-5.60686e-08
4.37153e-08
6.65143e-07
1.49553e-07
6.11427e-07
2.62178e-07
5.55567e-07
3.84372e-07
4.95016e-07
5.16097e-07
4.29691e-07
6.5348e-07
3.57995e-07
8.04299e-07
2.84887e-07
9.83881e-07
2.10836e-07
1.18544e-06
1.42706e-07
1.43568e-06
9.22041e-08
1.73423e-06
7.24959e-08
2.06073e-06
5.24745e-08
2.30448e-06
-3.3448e-09
2.36546e-06
-1.11716e-07
2.19888e-06
-2.48714e-07
1.86082e-06
-3.48163e-07
1.45767e-06
-3.49336e-07
1.05754e-06
-2.1676e-07
7.07078e-07
6.49252e-08
4.68623e-07
4.809e-07
4.09186e-07
9.73064e-07
5.66039e-07
1.43295e-06
9.17277e-07
1.76431e-06
1.36502e-06
1.9389e-06
1.85734e-06
1.9433e-06
2.34768e-06
1.809e-06
2.79703e-06
1.56052e-06
3.16911e-06
1.23849e-06
3.44218e-06
8.7094e-07
3.60053e-06
4.94554e-07
3.64626e-06
1.64044e-07
3.59518e-06
-5.22233e-08
-5.92963e-08
1.67151e-06
-1.04972e-07
1.71582e-06
-1.12507e-07
1.57209e-06
-1.42074e-07
1.67475e-06
-1.46485e-07
1.61738e-06
-1.6764e-07
1.48522e-06
-9.81832e-08
1.51515e-06
-1.394e-07
1.41903e-06
-1.23084e-08
1.42962e-06
-6.66706e-08
4.07332e-08
7.20258e-07
1.44841e-07
6.69994e-07
2.55964e-07
6.17808e-07
3.80449e-07
5.59673e-07
5.15192e-07
4.96124e-07
6.58741e-07
4.2464e-07
8.15112e-07
3.47447e-07
9.9822e-07
2.70836e-07
1.20572e-06
1.90918e-07
1.45366e-06
1.25118e-07
1.74564e-06
8.12311e-08
2.08685e-06
4.67738e-08
2.37765e-06
-2.04258e-08
2.50546e-06
-1.43135e-07
2.40153e-06
-3.14268e-07
2.08688e-06
-4.74748e-07
1.66499e-06
-5.55354e-07
1.21404e-06
-5.05513e-07
7.89121e-07
-2.98288e-07
4.67158e-07
6.6996e-08
3.30137e-07
5.60342e-07
4.11547e-07
1.12717e-06
7.09254e-07
1.63997e-06
1.15119e-06
1.97722e-06
1.66343e-06
2.13224e-06
2.18587e-06
2.10479e-06
2.68423e-06
1.92161e-06
3.13041e-06
1.59904e-06
3.49106e-06
1.18941e-06
3.73294e-06
7.38258e-07
3.83965e-06
3.00832e-07
3.81617e-06
-2.69369e-08
-3.03981e-08
1.76967e-06
-1.06169e-07
1.82367e-06
-1.13399e-07
1.72416e-06
-1.62007e-07
1.55208e-06
-1.79051e-07
1.66696e-06
-1.96146e-07
1.59933e-06
-2.14959e-07
1.45172e-06
-1.20298e-07
1.48334e-06
-1.71055e-07
1.37545e-06
-1.46633e-08
1.38645e-06
-7.76798e-08
3.75246e-08
7.7153e-07
1.3761e-07
7.27607e-07
2.4677e-07
6.79335e-07
3.73532e-07
6.24907e-07
5.11444e-07
5.63588e-07
6.59928e-07
4.95126e-07
8.22404e-07
4.17592e-07
1.00661e-06
3.3932e-07
1.22416e-06
2.52651e-07
1.47013e-06
1.74818e-07
1.75949e-06
1.11686e-07
2.10481e-06
6.37038e-08
2.43762e-06
-1.28898e-08
2.63578e-06
-1.50544e-07
2.61087e-06
-3.52303e-07
2.34318e-06
-5.70552e-07
1.92498e-06
-7.34623e-07
1.44681e-06
-7.87647e-07
9.82521e-07
-6.97754e-07
6.31104e-07
-4.60314e-07
4.93278e-07
-9.43486e-08
5.79971e-07
3.91584e-07
8.13068e-07
1.01992e-06
1.14042e-06
1.64619e-06
1.61285e-06
2.02423e-06
2.14228e-06
2.17381e-06
2.654e-06
2.13405e-06
3.12449e-06
1.92702e-06
3.5371e-06
1.55267e-06
3.85355e-06
1.0685e-06
4.03818e-06
5.39403e-07
4.06218e-06
2.50521e-08
2.93839e-08
1.89333e-06
-9.67038e-08
1.95317e-06
-9.03429e-08
1.78403e-06
-1.66137e-07
1.84564e-06
-1.75106e-07
1.72454e-06
-2.19685e-07
1.52449e-06
-2.20247e-07
1.65522e-06
-2.52126e-07
1.57584e-06
-2.66376e-07
1.40935e-06
-1.43216e-07
1.44325e-06
-2.04986e-07
1.3246e-06
-1.99403e-08
1.33544e-06
-8.85311e-08
3.39017e-08
8.17455e-07
1.28327e-07
7.80923e-07
2.35769e-07
7.38752e-07
3.63394e-07
6.89645e-07
5.03357e-07
6.33163e-07
6.54742e-07
5.68944e-07
8.23322e-07
4.94422e-07
1.01038e-06
4.14077e-07
1.23805e-06
3.25721e-07
1.48563e-06
2.37494e-07
1.77473e-06
1.59893e-07
2.11756e-06
9.93734e-08
2.48367e-06
1.80384e-08
2.74799e-06
-1.2488e-07
2.80928e-06
-3.4888e-07
2.61517e-06
-6.24179e-07
2.2296e-06
-8.75049e-07
1.75043e-06
-1.03761e-06
1.28019e-06
-1.08318e-06
9.53048e-07
-1.01535e-06
8.99019e-07
-8.60737e-07
1.07391e-06
-5.8549e-07
1.31958e-06
-1.17746e-07
1.55241e-06
5.99331e-07
1.81979e-06
1.42773e-06
2.22673e-06
1.93142e-06
2.73118e-06
2.09185e-06
3.20698e-06
2.04932e-06
3.63846e-06
1.82459e-06
3.99436e-06
1.41126e-06
4.24399e-06
8.62254e-07
4.3459e-06
1.20611e-07
1.34651e-07
2.03334e-06
-5.52357e-08
2.09309e-06
-3.0472e-08
1.9183e-06
-1.69475e-07
1.98981e-06
-1.6197e-07
1.7919e-06
-2.33606e-07
1.8633e-06
-2.46626e-07
1.71888e-06
-2.83437e-07
1.48769e-06
-2.64732e-07
1.63637e-06
-3.12739e-07
1.54372e-06
-3.22463e-07
1.3581e-06
-1.65892e-07
1.39319e-06
-2.40108e-07
1.25985e-06
-2.53599e-08
1.27383e-06
-1.02519e-07
2.95931e-08
8.56492e-07
1.17265e-07
8.28645e-07
2.21431e-07
7.95334e-07
3.49564e-07
7.52729e-07
4.89414e-07
7.03749e-07
6.44591e-07
6.43473e-07
8.18555e-07
5.73959e-07
1.0108e-06
4.94233e-07
1.24486e-06
4.07517e-07
1.49831e-06
3.13336e-07
1.78791e-06
2.2476e-07
2.1277e-06
1.50202e-07
2.51705e-06
6.64026e-08
2.8413e-06
-7.50024e-08
2.99e-06
-3.05534e-07
2.88511e-06
-6.18894e-07
2.55495e-06
-9.49346e-07
2.10439e-06
-1.22821e-06
1.66183e-06
-1.41603e-06
1.39988e-06
-1.52265e-06
1.47266e-06
-1.57937e-06
1.77179e-06
-1.55198e-06
2.06779e-06
-1.33368e-06
2.26354e-06
-8.36232e-07
2.41121e-06
-5.9733e-09
2.59526e-06
1.04067e-06
2.91837e-06
1.72961e-06
3.36017e-06
1.93048e-06
3.79481e-06
1.88896e-06
4.17793e-06
1.63913e-06
4.46924e-06
1.18503e-06
4.65679e-06
2.58882e-07
2.9184e-07
2.18463e-06
2.89581e-08
2.2505e-06
6.86684e-08
2.07178e-06
-1.37322e-07
2.14907e-06
-1.07882e-07
1.94353e-06
-2.49821e-07
2.02567e-06
-2.44225e-07
1.79256e-06
-3.07395e-07
1.87321e-06
-3.27388e-07
1.70661e-06
-3.53773e-07
1.43995e-06
-3.1153e-07
1.60866e-06
-3.77764e-07
1.49887e-06
-3.81451e-07
1.29718e-06
-1.89258e-07
1.33313e-06
-2.7609e-07
1.18823e-06
-3.10929e-08
1.2043e-06
-1.18599e-07
2.44845e-08
8.8682e-07
1.03822e-07
8.70032e-07
2.03109e-07
8.47085e-07
3.31418e-07
8.13666e-07
4.70122e-07
7.72158e-07
6.30093e-07
7.18405e-07
8.07516e-07
6.54704e-07
1.00614e-06
5.78828e-07
1.24394e-06
4.95361e-07
1.50646e-06
3.99648e-07
1.79805e-06
3.0356e-07
2.13613e-06
2.16789e-07
2.53665e-06
1.31038e-07
2.91383e-06
-5.79203e-09
3.14779e-06
-2.32616e-07
3.14343e-06
-5.63975e-07
2.88918e-06
-9.532e-07
2.4849e-06
-1.32895e-06
2.0852e-06
-1.64751e-06
1.91133e-06
-1.91717e-06
2.13978e-06
-2.1756e-06
2.56934e-06
-2.36646e-06
2.92805e-06
-2.4089e-06
3.10824e-06
-2.18287e-06
3.17509e-06
-1.61286e-06
3.23491e-06
-6.66678e-07
3.38796e-06
5.45103e-07
3.64224e-06
1.42597e-06
4.0171e-06
1.69658e-06
4.40768e-06
1.65327e-06
4.72696e-06
1.37852e-06
4.96695e-06
4.19461e-07
4.53869e-07
2.36009e-06
1.49167e-07
2.43796e-06
2.13793e-07
2.24128e-06
-6.33705e-08
2.33109e-06
-2.1259e-08
2.11475e-06
-2.26526e-07
2.20809e-06
-2.01344e-07
1.96121e-06
-3.37948e-07
2.05386e-06
-3.37003e-07
1.78802e-06
-3.88909e-07
1.87718e-06
-4.16663e-07
1.68615e-06
-4.3135e-07
1.38184e-06
-3.6029e-07
1.57041e-06
-4.49382e-07
1.44378e-06
-4.43447e-07
1.22681e-06
-2.11786e-07
1.26234e-06
-3.11653e-07
1.10667e-06
-3.51349e-08
1.12092e-06
-1.32858e-07
1.81072e-08
9.06578e-07
8.71827e-08
9.03545e-07
1.81402e-07
8.91822e-07
3.08432e-07
8.70223e-07
4.46674e-07
8.373e-07
6.08757e-07
7.93652e-07
7.902e-07
7.35843e-07
9.94866e-07
6.66137e-07
1.23584e-06
5.87101e-07
1.50879e-06
4.93296e-07
1.80414e-06
3.93865e-07
2.14188e-06
2.98216e-07
2.54311e-06
2.10783e-07
2.96338e-06
8.18804e-08
3.27588e-06
-1.33633e-07
3.37826e-06
-4.67434e-07
3.22048e-06
-8.95534e-07
2.87968e-06
-1.34727e-06
2.52753e-06
-1.76685e-06
2.43302e-06
-2.15665e-06
2.80006e-06
-2.55914e-06
3.39252e-06
-2.98449e-06
3.82361e-06
-3.25621e-06
3.97528e-06
-3.27654e-06
3.95847e-06
-2.97418e-06
3.92979e-06
-2.32606e-06
3.98291e-06
-1.29142e-06
4.16175e-06
-8.85949e-09
4.40029e-06
1.0151e-06
4.71426e-06
1.37522e-06
5.04426e-06
1.32805e-06
5.30524e-06
5.2741e-07
5.08599e-07
2.54546e-06
3.11654e-07
2.62817e-06
3.70646e-07
2.43375e-06
4.63635e-08
2.52439e-06
1.22949e-07
2.31221e-06
-1.67619e-07
2.41173e-06
-1.20926e-07
2.15754e-06
-3.30334e-07
2.2692e-06
-3.13141e-07
1.97505e-06
-4.35935e-07
2.08594e-06
-4.48022e-07
1.77554e-06
-4.78397e-07
1.87558e-06
-5.1681e-07
1.65409e-06
-5.15112e-07
1.31183e-06
-4.09826e-07
1.52043e-06
-5.26103e-07
1.37636e-06
-5.08026e-07
1.1444e-06
-2.3529e-07
1.17929e-06
-3.46574e-07
1.01867e-06
-3.78104e-08
1.03078e-06
-1.44976e-07
1.00439e-08
9.12974e-07
6.68827e-08
9.26939e-07
1.55666e-07
9.29378e-07
2.79549e-07
9.20838e-07
4.1824e-07
8.98712e-07
5.80401e-07
8.65769e-07
7.68226e-07
8.15789e-07
9.76933e-07
7.53967e-07
1.22213e-06
6.80085e-07
1.5037e-06
5.92403e-07
1.80485e-06
4.92909e-07
2.14305e-06
3.93071e-07
2.54012e-06
3.01652e-07
2.99031e-06
1.8428e-07
3.37133e-06
-1.32948e-08
3.57792e-06
-3.33198e-07
3.53118e-06
-7.78338e-07
3.27219e-06
-1.28763e-06
2.97308e-06
-1.78846e-06
2.93751e-06
-2.25768e-06
3.41271e-06
-2.74771e-06
4.14858e-06
-3.29746e-06
4.61063e-06
-3.76262e-06
4.69883e-06
-3.97564e-06
4.59803e-06
-3.91656e-06
4.52128e-06
-3.57392e-06
4.52812e-06
-2.89423e-06
4.67078e-06
-1.83999e-06
4.91046e-06
-5.63899e-07
5.20014e-06
4.95888e-07
5.48138e-06
9.19906e-07
5.76265e-06
4.73688e-07
3.85854e-07
2.74697e-06
4.07611e-07
2.87596e-06
3.77466e-07
2.63186e-06
2.03817e-07
2.75421e-06
2.47591e-07
2.51306e-06
-5.51703e-08
2.62742e-06
8.22453e-09
2.38327e-06
-2.81863e-07
2.50089e-06
-2.388e-07
2.20902e-06
-4.53544e-07
2.34156e-06
-4.45856e-07
1.99307e-06
-5.53531e-07
2.12953e-06
-5.84583e-07
1.75428e-06
-5.78671e-07
1.87619e-06
-6.38786e-07
1.61497e-06
-6.0971e-07
1.22904e-06
-4.59611e-07
1.46105e-06
-6.10821e-07
1.29837e-06
-5.77363e-07
1.05185e-06
-2.56375e-07
1.08434e-06
-3.79092e-07
9.25765e-07
-4.01526e-08
9.33247e-07
-1.52468e-07
7.74361e-11
9.01307e-07
4.31113e-08
9.36824e-07
1.24392e-07
9.58322e-07
2.43683e-07
9.65363e-07
3.82913e-07
9.5625e-07
5.46415e-07
9.32863e-07
7.43241e-07
8.90833e-07
9.54982e-07
8.37933e-07
1.20351e-06
7.72779e-07
1.49037e-06
6.93586e-07
1.80009e-06
5.97424e-07
2.13889e-06
4.97411e-07
2.53155e-06
4.02054e-07
2.99528e-06
2.97116e-07
3.43392e-06
1.22053e-07
3.73574e-06
-1.70932e-07
3.80674e-06
-6.08884e-07
3.64525e-06
-1.15121e-06
3.40518e-06
-1.71591e-06
3.40507e-06
-2.24184e-06
3.95688e-06
-2.77701e-06
4.80923e-06
-3.38823e-06
5.23939e-06
-3.91512e-06
5.18772e-06
-4.24278e-06
5.01412e-06
-4.38583e-06
4.90711e-06
-4.29879e-06
4.92553e-06
-3.97693e-06
5.07325e-06
-3.32316e-06
5.32806e-06
-2.30725e-06
5.68068e-06
-1.10036e-06
6.06134e-06
-1.24391e-07
6.39714e-06
1.84721e-07
7.58684e-08
3.03317e-06
3.1279e-07
3.22772e-06
1.8504e-07
2.91705e-06
2.43248e-07
3.10139e-06
1.89549e-07
2.78371e-06
4.67469e-08
2.98129e-06
4.83024e-08
2.65202e-06
-2.06808e-07
2.85723e-06
-1.98087e-07
2.50065e-06
-4.41247e-07
2.71553e-06
-4.54329e-07
2.29368e-06
-6.17809e-07
2.51767e-06
-6.70054e-07
2.02892e-06
-7.06261e-07
2.2393e-06
-7.94855e-07
1.73546e-06
-6.99152e-07
1.90624e-06
-8.09389e-07
1.57478e-06
-7.23361e-07
1.13507e-06
-5.10341e-07
1.39859e-06
-7.10883e-07
1.21512e-06
-6.57204e-07
9.49287e-07
-2.72431e-07
9.7747e-07
-4.0727e-07
8.2842e-07
-3.96093e-08
8.26985e-07
-1.51041e-07
-1.2031e-08
8.65671e-07
1.4914e-08
9.2957e-07
8.56968e-08
9.75599e-07
1.99928e-07
1.00217e-06
3.39089e-07
1.00928e-06
5.06071e-07
9.96785e-07
7.12971e-07
9.63239e-07
9.26082e-07
9.19883e-07
1.17652e-06
8.65049e-07
1.46845e-06
7.94835e-07
1.78751e-06
7.06366e-07
2.12837e-06
6.08177e-07
2.51829e-06
5.11033e-07
2.98101e-06
4.16742e-07
3.46486e-06
2.66566e-07
3.84862e-06
9.40048e-09
4.03605e-06
-4.0026e-07
3.98464e-06
-9.4831e-07
3.81164e-06
-1.55509e-06
3.82709e-06
-2.12386e-06
4.41185e-06
-2.67039e-06
5.36343e-06
-3.31282e-06
5.76538e-06
-3.90315e-06
5.57946e-06
-4.29738e-06
5.26789e-06
-4.48677e-06
5.09885e-06
-4.5671e-06
5.12941e-06
-4.4952e-06
5.32364e-06
-4.22982e-06
5.63611e-06
-3.66219e-06
6.03978e-06
-2.72754e-06
6.5444e-06
-1.65047e-06
7.07746e-06
-8.56927e-07
3.39256e-06
1.14956e-08
3.65635e-06
-1.98743e-07
3.31183e-06
9.62873e-08
3.53893e-06
-5.05178e-08
3.2081e-06
1.24839e-08
3.44599e-06
-5.45454e-08
3.10708e-06
-2.05631e-07
3.37746e-06
-2.26339e-07
2.99074e-06
-4.83533e-07
3.29878e-06
-5.08906e-07
2.8168e-06
-7.40904e-07
3.16514e-06
-8.04072e-07
2.54151e-06
-9.19869e-07
2.92401e-06
-1.05247e-06
2.169e-06
-9.68513e-07
2.54513e-06
-1.16983e-06
1.75743e-06
-8.81367e-07
2.0694e-06
-1.12019e-06
1.58395e-06
-9.08016e-07
1.03544e-06
-5.68089e-07
1.38893e-06
-8.83734e-07
1.18158e-06
-8.02243e-07
8.35288e-07
-2.8073e-07
8.65014e-07
-4.36809e-07
7.3106e-07
-3.19945e-08
7.1594e-07
-1.35922e-07
-2.58774e-08
8.01291e-07
-2.08582e-08
9.01504e-07
3.75653e-08
9.77779e-07
1.47207e-07
1.02841e-06
2.87226e-07
1.05415e-06
4.60647e-07
1.0548e-06
6.75589e-07
1.03424e-06
8.90467e-07
9.98946e-07
1.14256e-06
9.5384e-07
1.4391e-06
8.94468e-07
1.76514e-06
8.17368e-07
2.11246e-06
7.22546e-07
2.5001e-06
6.26658e-07
2.95282e-06
5.3962e-07
3.46632e-06
4.15673e-07
3.91778e-06
1.9769e-07
4.21302e-06
-1.67493e-07
4.27882e-06
-6.94628e-07
4.18355e-06
-1.31883e-06
4.20386e-06
-1.92065e-06
4.77529e-06
-2.45854e-06
5.8088e-06
-3.09931e-06
6.24988e-06
-3.78788e-06
5.98398e-06
-4.29822e-06
5.47617e-06
-4.49039e-06
5.19778e-06
-4.56111e-06
5.16892e-06
-4.58617e-06
5.40666e-06
-4.56719e-06
5.8352e-06
-4.42864e-06
6.29923e-06
-3.9595e-06
6.90736e-06
-3.16428e-06
7.61259e-06
-2.2617e-06
-3.98653e-06
8.38153e-06
-7.12527e-07
-9.47086e-07
3.76055e-06
-2.20843e-07
-4.38059e-07
3.69234e-06
-1.58514e-07
3.94118e-06
-3.09995e-07
3.6504e-06
-2.66504e-07
3.91762e-06
-3.29683e-07
3.61382e-06
-5.24731e-07
3.91943e-06
-5.37402e-07
3.52957e-06
-8.50247e-07
3.88611e-06
-8.68602e-07
3.33463e-06
-1.15186e-06
3.74234e-06
-1.21279e-06
2.98562e-06
-1.35923e-06
3.43797e-06
-1.5035e-06
2.49524e-06
-1.39216e-06
2.96586e-06
-1.63733e-06
1.91933e-06
-1.21484e-06
2.36991e-06
-1.56716e-06
1.72613e-06
-1.24259e-06
9.71897e-07
-6.73861e-07
1.49418e-06
-1.19317e-06
1.24272e-06
-1.06958e-06
7.1149e-07
-2.76161e-07
7.72973e-07
-4.97316e-07
6.38442e-07
-9.57792e-09
5.95172e-07
-9.26074e-08
-3.87344e-08
7.00248e-07
-6.23724e-08
8.42866e-07
-1.88391e-08
9.57982e-07
8.66436e-08
1.03842e-06
2.29463e-07
1.08627e-06
4.10716e-07
1.10413e-06
6.3047e-07
1.09999e-06
8.49927e-07
1.07488e-06
1.1019e-06
1.03976e-06
1.40145e-06
9.91671e-07
1.73358e-06
9.26128e-07
2.09013e-06
8.39897e-07
2.47522e-06
7.47709e-07
2.91645e-06
6.63391e-07
3.44208e-06
5.64251e-07
3.94699e-06
3.86799e-07
4.3348e-06
7.60812e-08
4.51818e-06
-4.0702e-07
4.51279e-06
-1.02326e-06
4.5415e-06
-1.64867e-06
5.05454e-06
-2.1737e-06
6.13943e-06
-2.77072e-06
6.70852e-06
-3.55119e-06
6.42484e-06
-4.22624e-06
5.69736e-06
-4.50947e-06
5.29224e-06
-4.55115e-06