/*--------------------------------*- C++ -*----------------------------------*\
  =========                 |
  \\      /  F ield         | OpenFOAM: The Open Source CFD Toolbox
   \\    /   O peration     | Website:  https://openfoam.org
    \\  /    A nd           | Version:  dev
     \\/     M anipulation  |
\*---------------------------------------------------------------------------*/
FoamFile
{
    version     2.0;
    format      ascii;
    class       volScalarField;
    location    "2500";
    object      qr;
}
// * * * * * * * * * * * * * * * * * * * * * * * * * * * * * * * * * * * * * //

dimensions      [1 0 -3 0 0 0 0];

internalField   uniform 0;

boundaryField
{
    lowerOutlet
    {
        type            calculated;
        value           nonuniform List<scalar> 
144
(
1071.51
1075.1
1079.1
1083.5
1088.31
1093.55
1099.21
1105.32
1111.89
1118.93
1126.48
1134.54
1143.14
1152.32
1162.1
1172.52
1183.62
1195.46
1208.07
1221.51
1235.87
1251.2
1267.6
1285.18
1304.09
1324.49
1346.54
1370.47
1396.53
1425.08
1456.58
1491.56
1530.72
1564.38
1613.52
1670.46
1737.26
1816.87
1913.86
2035.57
2196.32
2414.64
2780.89
3165.06
3838.34
4447.27
5187.16
5980.69
-9333.27
3428.08
2871.86
2523.66
2280.76
2080.53
1946.03
1839.6
1752.85
1681.06
1620.45
1568.43
1523.16
1483.3
1447.97
1408.5
1380.76
1355.52
1332.44
1311.25
1291.7
1273.58
1256.75
1241.07
1226.45
1212.77
1199.93
1187.86
1176.49
1165.77
1155.66
1146.1
1137.08
1128.54
1120.48
1112.85
1105.65
1098.84
1092.42
1086.37
1080.68
1075.33
1070.31
1065.62
1061.25
1057.2
1053.45
1050.01
1970.99
2109.59
2301.43
2605.84
2988.47
3678.36
4306.88
4877.86
5790.9
5919.68
3635.22
2984.21
2598.36
2334.38
2160.96
2009.04
1889.95
1794.1
1715.34
1649.55
1775.23
1862.81
4002.82
4587.43
5419.08
6771.82
4163.97
3257.23
2771.36
2455.3
2231.09
1593.5
1545.04
3535.6
4159.93
4734.76
5630.42
7222.79
3883.34
3111.39
2680.56
2392.39
1588.08
1640.9
1702.48
1502.61
1465.12
1431.77
)
;
    }
    top
    {
        type            calculated;
        value           nonuniform List<scalar> 
100
(
971.62
974.455
977.319
980.16
982.976
985.769
988.541
991.292
986.027
986.579
988.286
989.864
991.687
993.508
995.297
997.163
999.222
1001.28
1003.31
1005.4
1007.41
1009.43
1011.5
1013.46
1015.42
1017.38
1019.33
1021.28
1023.2
1025.12
1027.06
1028.99
1030.89
1032.7
1034.44
1036.09
1037.43
1037.81
1033.83
1019.74
1005.38
999.568
1002.46
1012.86
1029.02
1045.26
1052.15
1054.07
1054.95
1055.54
1055.96
1056.25
1056.42
1056.48
1056.45
1056.31
1056.08
1055.75
1055.33
1054.83
1054.23
1053.53
1052.7
1051.76
1050.68
1049.51
1048.15
1046.75
1045.17
1043.4
1041.62
1039.75
1037.9
1036.23
1034.79
1033.74
1043.82
1041.33
1038.78
1036.19
1033.54
1030.86
1028.13
1025.36
1022.55
1019.72
1016.86
1013.99
1011.1
1008.2
1002.76
998.762
994.821
990.836
987.014
983.755
981.015
978.84
977.317
976.972
)
;
    }
    sides
    {
        type            calculated;
        value           nonuniform List<scalar> 
100
(
1071.51
1074.34
1076.77
1078.82
1080.49
1081.79
1082.72
1083.29
1083.52
1083.41
1082.98
1082.24
1081.22
1079.92
1078.37
1076.57
1074.56
1072.34
1069.95
1067.38
1064.67
1061.83
1058.88
1055.82
1052.69
1049.48
1046.22
1042.91
1039.57
1036.2
1032.82
1029.42
1026.02
1022.63
1019.24
1015.87
1012.52
1009.19
1005.89
1002.61
999.359
996.141
992.954
989.801
986.681
983.595
980.544
977.528
974.546
971.637
1050.02
1052.87
1055.43
1057.69
1059.67
1061.35
1062.76
1063.88
1064.74
1065.33
1065.67
1065.76
1065.62
1065.25
1064.66
1063.86
1062.87
1061.69
1060.34
1058.83
1057.16
1055.34
1053.4
1051.33
1049.16
1046.87
1044.5
1042.04
1039.5
1036.89
1034.22
1031.5
1028.72
1025.91
1023.06
1020.18
1017.27
1014.35
1011.41
1008.46
1005.5
1002.54
999.57
996.604
993.641
990.682
987.729
984.783
981.844
978.948
)
;
    }
    front
    {
        type            empty;
    }
    back
    {
        type            empty;
    }
    roller
    {
        type            calculated;
        value           nonuniform List<scalar> 
144
(
5874.89
4410.71
3294.14
1665.72
1367.34
1302.25
1235.13
1202.37
1211.55
8915.84
9008.51
6637.18
7148.44
3468.19
2825.85
2197.17
2106.37
1701.33
1497.77
1325.16
1248.3
1287.1
1247.46
5801.52
6204.72
5241.65
2589.4
2443.65
2004.82
2601.07
2468.86
1641.71
1400.9
1386.64
1281.83
1200.11
8539.44
7239.61
4770.25
6663.47
4196.27
4665.75
3132.75
4099.59
3886.23
2775.67
2381.96
1815.12
1769.18
1739.17
1515.71
1430.89
1407.62
1355.53
1345.03
1211.97
1209.18
1225.34
1220.61
7699.65
9355.43
8377.27
2273.63
2167.55
1560.27
1480.51
1417.9
1478.84
1453.54
1193.92
1192.24
1198.49
9971.77
9939.38
5419.63
1880.83
2010.03
1926.46
1581.89
1867.53
1718.07
1499.06
1678.81
1590.68
1431.75
1568.27
1377.01
1298.46
1256.37
1204.19
1206.68
1208.5
1216.04
1195.49
1191.91
1196.26
8124.84
7834.85
3076.67
2096.92
1539.08
1463.04
1540.45
1316.59
1325.78
1265.95
1227.24
1235.61
1230.35
1192.76
1193.09
1201.06
9706.7
9888.3
9784.66
9513.45
5087.19
3772.75
3435.5
3668.92
2307.7
2916.31
1938.08
1611.27
1812.66
1762.57
1518.57
1644.81
1615.73
1446.78
1386.89
1335.22
1364.8
1345.35
1307.57
1263.88
1276.22
1220.7
1215.9
1204.77
1241.3
1197.39
1192.08
1194.44
)
;
    }
    burner
    {
        type            calculated;
        value           nonuniform List<scalar> 
16
(
-123843
-118034
-115319
-116613
-119192
-115694
-115759
-123462
-122183
-117063
-115179
-117997
-120566
-116280
-115308
-120128
)
;
    }
}


// ************************************************************************* //
