/*--------------------------------*- C++ -*----------------------------------*\
  =========                 |
  \\      /  F ield         | OpenFOAM: The Open Source CFD Toolbox
   \\    /   O peration     | Website:  https://openfoam.org
    \\  /    A nd           | Version:  dev
     \\/     M anipulation  |
\*---------------------------------------------------------------------------*/
FoamFile
{
    version     2.0;
    format      ascii;
    class       volScalarField;
    location    "2500";
    object      rAU;
}
// * * * * * * * * * * * * * * * * * * * * * * * * * * * * * * * * * * * * * //

dimensions      [-1 3 1 0 0 0 0];

internalField   nonuniform List<scalar> 
9842
(
0.00823007
0.00829821
0.00824964
0.00828991
0.00840541
0.00819401
0.00828209
0.00839854
0.00841036
0.0081509
0.00826992
0.0083994
0.00839624
0.00842151
0.0081126
0.00826689
0.00840019
0.00838751
0.0084055
0.0084294
0.00807828
0.00826909
0.00840647
0.00838609
0.00839138
0.00841858
0.00843271
0.00804727
0.00827402
0.00841464
0.00838893
0.00838225
0.0084041
0.00842823
0.00843453
0.00801914
0.00827937
0.00842313
0.0083966
0.00837766
0.00839032
0.00841846
0.00843313
0.00843509
0.00799351
0.0082869
0.00842903
0.00840707
0.00837769
0.00837957
0.0084048
0.00842799
0.00843552
0.00843552
0.00796944
0.00829461
0.00843377
0.00841669
0.00838196
0.00837308
0.00839127
0.0084189
0.00843319
0.00843639
0.00843583
0.00794621
0.00830228
0.00843635
0.00842423
0.00839056
0.00836809
0.00837923
0.00840708
0.00842779
0.00843609
0.00843698
0.00843612
0.00792359
0.0083107
0.00843689
0.0084293
0.00840155
0.00836906
0.00837126
0.00839371
0.00842007
0.00843345
0.0084375
0.00843748
0.00843629
0.00790115
0.00831979
0.0084375
0.00843308
0.00841192
0.00837549
0.0083454
0.00838156
0.00841007
0.0084284
0.00843664
0.00843824
0.00843797
0.00843635
0.00787848
0.00832668
0.00843775
0.00843542
0.00842001
0.00838448
0.00834275
0.00837155
0.00839817
0.00842192
0.00843356
0.00843841
0.00843874
0.00843836
0.0084362
0.00785516
0.00833128
0.00843784
0.00843671
0.00842608
0.00839598
0.00836429
0.00831261
0.00838557
0.0084136
0.00842945
0.00843687
0.00843935
0.00843921
0.0084386
0.00843607
0.00783103
0.00833561
0.00843779
0.0084375
0.00843054
0.00840712
0.0083693
0.00829655
0.00837408
0.00840297
0.00842422
0.00843409
0.008439
0.00843992
0.00843966
0.00843862
0.00843579
0.00780556
0.00833959
0.00843796
0.00843792
0.00843327
0.00841614
0.00837859
0.00834585
0.00824338
0.00839067
0.00841725
0.00843073
0.0084372
0.00844023
0.00844035
0.00844001
0.00843861
0.00843559
0.00777869
0.00834289
0.00843783
0.00843789
0.00843481
0.00842276
0.00839023
0.00835838
0.00817691
0.00837814
0.00840731
0.00842665
0.008435
0.00843945
0.00844093
0.00844074
0.00844018
0.00843843
0.00843518
0.00775008
0.0083455
0.00843771
0.00843782
0.00843586
0.0084272
0.00840158
0.0083633
0.00829062
0.00835335
0.00839581
0.00841992
0.00843242
0.00843802
0.00844094
0.00844139
0.00844112
0.00844023
0.00843819
0.00843481
0.00771964
0.00834716
0.00843752
0.00843768
0.00843638
0.00843015
0.00841106
0.00837244
0.00835012
0.00826227
0.00837709
0.00841136
0.00842808
0.00843619
0.00844026
0.00844181
0.00844167
0.00844133
0.00844011
0.00843785
0.00843451
0.00768743
0.00834333
0.00843729
0.00843756
0.00843663
0.00843188
0.00841795
0.00838398
0.0083525
0.0082539
0.00834774
0.00839439
0.00842221
0.00843314
0.00843891
0.00844192
0.00844227
0.00844196
0.00844139
0.00843979
0.00843748
0.00843415
0.00765347
0.00834057
0.00842537
0.00843737
0.00843655
0.00843306
0.0084228
0.00839541
0.00835709
0.00833148
0.00828749
0.00836086
0.00841479
0.008429
0.00839673
0.00844103
0.00844298
0.00844252
0.00844214
0.0084413
0.00843935
0.00843708
0.00843382
0.00761822
0.00834295
0.00841314
0.00843718
0.00843659
0.00843396
0.00842608
0.00840509
0.00836585
0.00834539
0.00826099
0.00834515
0.00840109
0.00842414
0.00841812
0.00839706
0.00844271
0.00844357
0.00844261
0.00844212
0.00844099
0.00843896
0.00843671
0.0084335
0.00758203
0.0083417
0.00842459
0.00843382
0.00843648
0.00843427
0.00842807
0.00841216
0.00837697
0.00834658
0.0083282
0.00831712
0.00836239
0.00841759
0.008375
0.00841346
0.00843871
0.00844388
0.00844378
0.00844254
0.00844187
0.00844055
0.00843842
0.00843627
0.00843314
0.00754582
0.00833733
0.00843624
0.00843359
0.00843633
0.00843443
0.00842945
0.0084172
0.00838812
0.00835042
0.00834196
0.00835121
0.00832857
0.00840942
0.00834108
0.00843345
0.00843079
0.00844222
0.00844453
0.00844369
0.00844217
0.00844129
0.00843988
0.00843785
0.00843586
0.00843305
0.00750956
0.0083316
0.00843605
0.00843648
0.0084362
0.00842578
0.00843043
0.00842058
0.00839787
0.00835813
0.00833905
0.00834668
0.0083461
0.00839359
0.0083897
0.00839342
0.00843575
0.00843982
0.00844304
0.00844468
0.00844338
0.00844157
0.00844053
0.00843916
0.00843726
0.00843587
0.00843292
0.00747339
0.00832455
0.00843584
0.0084362
0.00843576
0.0084259
0.00840985
0.00842288
0.00840531
0.0083688
0.00833946
0.0083402
0.00832412
0.00836718
0.00841187
0.00838898
0.00843258
0.00843725
0.0084406
0.00844341
0.00844444
0.00844277
0.0084407
0.00843953
0.00843825
0.00843701
0.00843591
0.00843273
0.00743976
0.00831239
0.00843576
0.00843598
0.00843563
0.00843477
0.00840543
0.00842448
0.00841064
0.00837942
0.00834231
0.00833508
0.00831998
0.00834049
0.00840249
0.00841946
0.00842848
0.00843411
0.00843794
0.00844071
0.00844316
0.00844379
0.00844183
0.00843958
0.00843837
0.00843752
0.00843656
0.00843612
0.00843262
0.00741072
0.00829555
0.00843565
0.00843587
0.00843564
0.00843492
0.00842742
0.00839856
0.00841424
0.00838924
0.00834801
0.00833091
0.00833968
0.00832919
0.00839155
0.0084121
0.00842326
0.00842987
0.00843449
0.00843766
0.00844009
0.00844231
0.00844264
0.00844051
0.00843823
0.00843745
0.00843684
0.00843617
0.00843644
0.00843264
0.00734925
0.00827689
0.00843547
0.00843572
0.00843571
0.00843504
0.00843272
0.0083998
0.00836543
0.00839701
0.00835774
0.00832946
0.00833202
0.00834248
0.00837387
0.00840281
0.00841665
0.00842443
0.00842966
0.0084336
0.00843644
0.00843864
0.00844069
0.00844096
0.00843884
0.00843731
0.00843739
0.00843673
0.00843612
0.00843691
0.00838783
0.00718073
0.00825696
0.00843571
0.00843577
0.00843587
0.00843507
0.00843312
0.00842805
0.00832499
0.00840267
0.00836844
0.00833125
0.00832544
0.00833363
0.00835732
0.00839185
0.00840833
0.00841728
0.00842324
0.00842775
0.00843125
0.00843394
0.0084361
0.00843906
0.00844101
0.00844044
0.00844079
0.0084412
0.00843913
0.00843768
0.00843769
0.00818808
0.00726061
0.00823564
0.00843583
0.00843599
0.00843596
0.00843511
0.00843354
0.0084289
0.00837744
0.00830741
0.00837812
0.00833539
0.00831985
0.00833021
0.00834675
0.00837973
0.00839842
0.00840843
0.00841457
0.00841938
0.0084234
0.00842686
0.00843111
0.00843593
0.00844337
0.00844818
0.00844936
0.00844958
0.00844942
0.00844688
0.00844104
0.00842407
0.00830132
0.00735679
0.00821392
0.00843599
0.00843621
0.00843609
0.00843532
0.008434
0.00842966
0.00842189
0.00828368
0.0082645
0.00834316
0.00831653
0.00832123
0.00834141
0.00836669
0.00838706
0.00839778
0.00840346
0.00840761
0.00841183
0.00841618
0.00842269
0.00843543
0.00844594
0.00845407
0.0084593
0.00846005
0.00845993
0.00845997
0.00845663
0.00845055
0.00843111
0.00842472
0.00633421
0.00818721
0.00819195
0.008436
0.0084365
0.00843623
0.00843557
0.00843433
0.00843063
0.00842335
0.00838507
0.00819497
0.00835425
0.0083161
0.00831274
0.00832961
0.00835401
0.00837453
0.0083856
0.00838967
0.00839252
0.00839646
0.00840231
0.00840863
0.0084254
0.00844312
0.0084563
0.00846468
0.00846922
0.00846943
0.00846946
0.00847033
0.00846795
0.00845283
0.00853462
0.00823658
0.0082624
0.00638629
0.00822259
0.00817042
0.008436
0.0084368
0.0084367
0.00843606
0.00843469
0.00843154
0.00842477
0.00841424
0.00831556
0.0082223
0.00831886
0.00830449
0.00831735
0.00834058
0.00836157
0.00837202
0.00837381
0.00837364
0.00837771
0.00838548
0.00839516
0.00840683
0.008422
0.00844374
0.00845993
0.0084719
0.0084771
0.00847739
0.00847805
0.0084794
0.00847145
0.0084892
0.00830263
0.00828559
0.00850397
0.00830913
0.00826575
0.00828772
0.00645245
0.00827328
0.00814976
0.00843621
0.00843723
0.0084371
0.00843645
0.008435
0.00843221
0.00842575
0.0084162
0.00839738
0.00819058
0.00832495
0.0082987
0.00830555
0.00832657
0.0083473
0.00835758
0.00835598
0.00832357
0.00834968
0.00831352
0.0082705
0.00829177
0.00837882
0.00841831
0.00843397
0.00845907
0.00847527
0.00848304
0.00848432
0.0084855
0.00848181
0.00833496
0.00835128
0.00831568
0.00830804
0.00832894
0.00833009
0.00830671
0.00831921
0.00651589
0.0083079
0.00813056
0.0084364
0.00843744
0.00843755
0.00843686
0.00843578
0.00843305
0.00842672
0.00841801
0.00840507
0.00833981
0.0083359
0.00829643
0.00829485
0.00831298
0.00833344
0.00834291
0.0083374
0.00832424
0.00828584
0.0083062
0.00822857
0.00812605
0.00820347
0.00825383
0.00822947
0.00820042
0.00845248
0.00847498
0.00848767
0.00849058
0.00848964
0.00836452
0.00836886
0.00834144
0.00835719
0.00834121
0.00833364
0.00834715
0.00835017
0.00833796
0.00834432
0.00657951
0.00833189
0.00811349
0.00843658
0.00843781
0.00843806
0.0084375
0.00843643
0.00843391
0.00842798
0.00841974
0.00840758
0.00838876
0.00834818
0.00829772
0.00828443
0.00829937
0.00832006
0.00833016
0.00832099
0.00829832
0.0082723
0.00824631
0.00822537
0.00818556
0.0081441
0.00809798
0.00799936
0.00795586
0.00814891
0.00843988
0.00847329
0.00849117
0.00850031
0.0083797
0.0083825
0.0083659
0.00836923
0.00835903
0.00837144
0.00835642
0.008354
0.00836311
0.00836546
0.0083614
0.00836418
0.00664824
0.0083487
0.00809913
0.00843671
0.00843836
0.00843862
0.00843808
0.00843689
0.00843487
0.00842947
0.00842153
0.00841028
0.00839341
0.00835952
0.0083025
0.00827561
0.0082853
0.00830609
0.00831833
0.00830871
0.00827833
0.0082369
0.0081948
0.00816188
0.00815283
0.00816489
0.00814185
0.00804573
0.00792934
0.00794234
0.00817933
0.00842867
0.00847171
0.00850769
0.00840015
0.00840564
0.00837275
0.00837373
0.00837755
0.00837954
0.00837091
0.00838247
0.00837082
0.00836997
0.00837662
0.00837758
0.00837819
0.00837952
0.00672906
0.00836126
0.00808797
0.00843679
0.00843874
0.00843907
0.00843849
0.00843768
0.00843592
0.00843109
0.00842313
0.00841298
0.00839755
0.00837019
0.00831366
0.00827121
0.00827128
0.00829143
0.00830656
0.00829931
0.00826445
0.00821319
0.00815885
0.00812941
0.00813258
0.00814516
0.00816302
0.00816698
0.00804944
0.00798245
0.00799441
0.00828032
0.00842442
0.00849033
0.00841689
0.00840136
0.00838002
0.00837978
0.00838238
0.00838252
0.00838644
0.00838802
0.00838161
0.00839116
0.00838305
0.00838264
0.00838708
0.00838766
0.0083897
0.0083915
0.00682135
0.00837097
0.00808084
0.00843687
0.00843898
0.00843934
0.00843888
0.00843844
0.00843657
0.00843249
0.00842518
0.00841563
0.00840133
0.00837877
0.00833008
0.00827265
0.0082588
0.00827596
0.00829513
0.008292
0.00825647
0.00819821
0.00813837
0.00812985
0.00814952
0.00817954
0.00820437
0.00821979
0.00821935
0.00810064
0.00804844
0.00809624
0.00833354
0.00844427
0.00835928
0.0082749
0.00836757
0.00832481
0.0083802
0.00835712
0.00838573
0.00836761
0.00839257
0.0083824
0.00838877
0.00839196
0.00839146
0.00839307
0.00839365
0.00839422
0.00839741
0.00840072
0.0069266
0.00837932
0.00807281
0.00843672
0.00843913
0.00843965
0.0084394
0.00843896
0.00843718
0.00843395
0.00842709
0.00841793
0.00840477
0.00838559
0.00834544
0.00827939
0.00824987
0.0082608
0.00828262
0.0082866
0.00825339
0.00819121
0.00812744
0.00811658
0.00810985
0.00818874
0.00828138
0.00830073
0.00830345
0.00828071
0.00817818
0.00813342
0.00816224
0.00833742
0.00821048
0.00812297
0.00826045
0.00817076
0.00831315
0.00824261
0.00832537
0.00826212
0.00834104
0.00827508
0.00837201
0.0083065
0.00838429
0.00834875
0.00838403
0.00840007
0.00838193
0.00838253
0.00840369
0.00840711
0.00704162
0.00838654
0.00805808
0.00843103
0.00843883
0.00843942
0.00843945
0.00843944
0.00843799
0.00843527
0.00842908
0.00842015
0.00840807
0.00839112
0.00835946
0.00829294
0.00824625
0.00824651
0.00826911
0.00828117
0.00825405
0.00819072
0.00812468
0.00807897
0.00807021
0.00807129
0.00826317
0.00839021
0.00839242
0.00838158
0.00833696
0.00827567
0.00816435
0.00822559
0.00796326
0.0077807
0.00808388
0.00793678
0.0081711
0.00806621
0.00818889
0.00809865
0.00818615
0.00810044
0.00820451
0.0081112
0.00826985
0.00815343
0.00832137
0.00822393
0.00831001
0.00839159
0.00830487
0.00831031
0.00840819
0.00840118
0.00716046
0.00839284
0.00802392
0.00840995
0.00843828
0.00843913
0.00843939
0.00843947
0.00843879
0.00843665
0.00843116
0.00842236
0.00841124
0.00839586
0.00837066
0.00831385
0.00824891
0.00823393
0.00825376
0.00827424
0.00825855
0.00819532
0.00812432
0.00806795
0.00805636
0.0080286
0.00791799
0.00841223
0.00846035
0.00845661
0.00843893
0.00837799
0.00830155
0.00825881
0.00760426
0.00722376
0.00774637
0.0075694
0.00790553
0.00771873
0.00795948
0.00778762
0.00797444
0.00781237
0.00798804
0.00783108
0.00802602
0.00787629
0.00810689
0.00795358
0.00818337
0.00806003
0.00817682
0.00832755
0.00817451
0.00817604
0.00840615
0.00834582
0.00727432
0.00839569
0.00811882
0.00834597
0.0084368
0.00843846
0.00843894
0.00843914
0.00843925
0.00843717
0.00843302
0.00842478
0.0084141
0.0084001
0.00837946
0.00833413
0.00825836
0.00822576
0.00823787
0.00826414
0.00826335
0.00820789
0.00812636
0.00806455
0.00814962
0.00813454
0.0078924
0.00776832
0.00807203
0.00850154
0.00850422
0.00848569
0.00841581
0.00832946
0.00794855
0.00742565
0.0070054
0.00754477
0.00741423
0.00761023
0.00745762
0.00763797
0.00747849
0.00766247
0.00750734
0.0077035
0.0075442
0.00777362
0.00761069
0.00789644
0.00770747
0.0080271
0.00785535
0.00801896
0.00818046
0.00801168
0.00801317
0.00836707
0.0082215
0.0073704
0.00837345
0.00815306
0.00842889
0.00842084
0.00843675
0.00843831
0.00843905
0.00843955
0.00843765
0.00843452
0.00842699
0.00841683
0.00840419
0.0083862
0.00835142
0.00827596
0.00822402
0.00822369
0.00825061
0.00826462
0.00822485
0.00813878
0.00807113
0.00813927
0.00837529
0.0080202
0.00751159
0.00734896
0.00807256
0.00803891
0.00854892
0.00853036
0.00845333
0.00826059
0.00723965
0.00724972
0.00730854
0.00723346
0.00733674
0.00726896
0.00734858
0.0072581
0.00737646
0.00728169
0.00742432
0.00729133
0.00744699
0.00727926
0.00750299
0.00730936
0.00767397
0.00742644
0.00783491
0.00758667
0.00784086
0.0080631
0.00782865
0.00786424
0.00827981
0.0081043
0.00726487
0.00809265
0.0081999
0.00841916
0.00842414
0.00843202
0.0084368
0.0084386
0.0084397
0.00843823
0.00843562
0.00842887
0.00841946
0.00840807
0.00839206
0.00836477
0.00830116
0.00822883
0.0082124
0.00823472
0.00826069
0.00824129
0.00816147
0.00806059
0.00813689
0.00835027
0.00814526
0.00780577
0.00732159
0.00763923
0.00760165
0.00828398
0.00859198
0.00857636
0.00835848
0.0072685
0.00729302
0.00722936
0.00720998
0.00721934
0.00720146
0.00720469
0.00721127
0.00722152
0.00715357
0.00716874
0.0070845
0.0071364
0.00696714
0.0072468
0.00729928
0.00744867
0.00731191
0.00758359
0.00740383
0.00765965
0.00752911
0.00772384
0.00792831
0.0077215
0.00775925
0.00807665
0.00793409
0.00720616
0.00795986
0.00826354
0.00840475
0.00840826
0.00842086
0.0084324
0.00843712
0.0084393
0.00843857
0.00843655
0.00843071
0.00842193
0.00841141
0.00839729
0.00837513
0.00832597
0.00824176
0.00820619
0.00821877
0.00825201
0.00825222
0.00818948
0.00809539
0.00811022
0.00832487
0.00823619
0.00796719
0.00771087
0.00766899
0.00757569
0.00799541
0.00860621
0.00795016
0.00764465
0.00726235
0.00661215
0.00719778
0.00700698
0.00704719
0.00695972
0.00719008
0.00715329
0.00707068
0.00702409
0.0069986
0.00697918
0.00688317
0.0071863
0.00719041
0.00708212
0.00729854
0.00743122
0.00748524
0.00744604
0.0075601
0.00748096
0.00761318
0.00756097
0.00767576
0.00781791
0.00770182
0.00773631
0.00788535
0.00782759
0.00694379
0.0079505
0.0082454
0.00839785
0.00839055
0.00840146
0.00842069
0.00843271
0.0084382
0.00843905
0.00843773
0.0084325
0.00842395
0.00841475
0.00840252
0.00838318
0.00834611
0.00826398
0.00820701
0.00820566
0.00823794
0.00825681
0.00821641
0.00813048
0.00806687
0.00828832
0.0083343
0.00815221
0.00809526
0.00794602
0.00762919
0.00802738
0.00808148
0.00785283
0.00725612
0.00797391
0.00699525
0.0067503
0.00691206
0.00704611
0.00686426
0.00714816
0.00702288
0.00698707
0.00693228
0.00689627
0.0071164
0.00715589
0.00706335
0.00743844
0.00741599
0.00739577
0.00732502
0.00725954
0.00668516
0.00652896
0.00697177
0.00680293
0.00729562
0.00717787
0.00744386
0.00776158
0.00756624
0.00764244
0.00770635
0.00777933
0.00684458
0.00775631
0.00831878
0.00838595
0.00838399
0.0084005
0.00842224
0.00843547
0.00843872
0.00843812
0.00843401
0.00842622
0.00841782
0.00840717
0.00839006
0.00836112
0.00829239
0.00821448
0.00819692
0.00822075
0.00825366
0.00823818
0.00815715
0.00801733
0.00817777
0.00830439
0.00833235
0.00839314
0.00822288
0.00806874
0.00810567
0.00780003
0.0081072
0.00809592
0.00830767
0.007603
0.00760218
0.00718436
0.00767536
0.00716106
0.00753105
0.00723586
0.00761505
0.00719809
0.00721975
0.0072081
0.00604157
0.00744129
0.00746058
0.00736506
0.00732917
0.0072587
0.00719667
0.0071048
0.00714178
0.00716754
0.00716959
0.00733122
0.00723806
0.00731604
0.00733265
0.00742782
0.00772182
0.00750291
0.00740294
0.00771966
0.00779947
0.00672984
0.00773769
0.00830612
0.00838107
0.00838362
0.00840354
0.00842798
0.00843766
0.00843829
0.00843543
0.00842834
0.00842056
0.00841121
0.00839615
0.00837249
0.00832044
0.00823095
0.00819354
0.00820576
0.00824511
0.00825111
0.00819244
0.0081073
0.00806983
0.00824899
0.00828567
0.00832126
0.00820324
0.0081355
0.00824912
0.00790716
0.00752659
0.00868295
0.00876794
0.00759267
0.00728626
0.00766126
0.00763268
0.00766638
0.0076756
0.00763535
0.00763902
0.00674905
0.0074568
0.00533803
0.00576846
0.00749377
0.00751168
0.00730586
0.00730648
0.00714035
0.00709599
0.00709083
0.00704557
0.00711643
0.00707793
0.00718696
0.00717642
0.00725845
0.00726618
0.00736973
0.00707388
0.00720599
0.00738131
0.00710531
0.0050497
0.00529871
0.00771206
0.0074873
0.00678549
0.00775972
0.00829699
0.00836688
0.00838665
0.00841252
0.00843397
0.00843828
0.00843705
0.0084308
0.00842338
0.00841488
0.0084014
0.00838092
0.00834302
0.00825751
0.00819672
0.00819474
0.00823109
0.00825553
0.00822383
0.00813991
0.00806622
0.00820477
0.00821323
0.00826985
0.00818342
0.00763122
0.00774036
0.00841269
0.00780516
0.00846873
0.00872825
0.00833542
0.00760145
0.00731479
0.0075691
0.00753119
0.00763138
0.00760412
0.00758417
0.00755957
0.00750229
0.0074799
0.00751216
0.00750928
0.00731618
0.00731677
0.00707934
0.0070942
0.00700665
0.0069911
0.00704396
0.0070119
0.00716659
0.0071541
0.00703332
0.00708779
0.00711891
0.00704301
0.00699982
0.00491768
0.00498501
0.00499568
0.00489803
0.00513234
0.00544265
0.00519414
0.00498869
0.00500761
0.00497353
0.00492115
0.00590968
0.00560535
0.00526057
0.00537432
0.00547801
0.00630173
0.00569456
0.00665737
0.00617588
0.00828742
0.00836142
0.00839411
0.00842259
0.00843746
0.0084383
0.00843357
0.00842633
0.00841851
0.00840614
0.00838758
0.00835897
0.00828746
0.00820725
0.00818915
0.00821296
0.0082528
0.00824543
0.00817434
0.00811898
0.00810619
0.00815747
0.00816539
0.00826448
0.00753589
0.00695425
0.00795832
0.00855252
0.00858136
0.00865916
0.00867821
0.00741778
0.00721546
0.00749533
0.00746425
0.00743667
0.00739811
0.00752274
0.00748012
0.00745107
0.00742605
0.00733351
0.0073326
0.00731691
0.00732617
0.00711496
0.00713726
0.00699918
0.00703294
0.0070063
0.00705653
0.0071322
0.00713898
0.0071196
0.00711712
0.00508382
0.00500246
0.0050506
0.00507167
0.00501102
0.00511551
0.0051908
0.0052641
0.00520311
0.00501505
0.00496298
0.00507522
0.00501018
0.00488193
0.00497276
0.00503198
0.00488833
0.00492406
0.00491686
0.00494232
0.00540786
0.0051039
0.00520281
0.00530283
0.00525178
0.00643934
0.0055206
0.00563234
0.00827023
0.00838034
0.00840565
0.00843223
0.00843885
0.00843645
0.00842967
0.00842206
0.00841033
0.00839245
0.00837017
0.00831569
0.00822666
0.00818852
0.00819948
0.00824423
0.00825767
0.00821311
0.00813097
0.00813431
0.00813337
0.00808823
0.00812475
0.008143
0.00715851
0.00731431
0.00842074
0.00843516
0.00852154
0.00855284
0.00823405
0.00730864
0.0071577
0.00736499
0.00733377
0.00731208
0.00728163
0.00738855
0.00734956
0.00732963
0.00731756
0.00723581
0.00725333
0.00717086
0.00720787
0.00706683
0.00710221
0.00712483
0.00718757
0.00720627
0.00729218
0.00709339
0.00713708
0.0050747
0.00507606
0.00505894
0.00502237
0.00514614
0.00518724
0.00520125
0.00511859
0.00523188
0.00527129
0.0053847
0.00531976
0.00508493
0.00497971
0.00511877
0.00518786
0.00500054
0.00498079
0.00503068
0.00495716
0.00501801
0.00502762
0.00498084
0.00537663
0.00510582
0.00520245
0.0052875
0.00590913
0.0061217
0.00396261
0.0056207
0.00521355
0.00565163
0.00824515
0.00839071
0.00841955
0.00843764
0.00843842
0.00843306
0.00842548
0.008414
0.0083966
0.00837781
0.00833894
0.00825399
0.0081935
0.00819088
0.00822971
0.00826228
0.00824222
0.00816631
0.00813215
0.00812733
0.00805696
0.00801835
0.00809563
0.0079795
0.00748247
0.00830765
0.00834379
0.00837002
0.00838532
0.00837768
0.00738898
0.00743043
0.0072365
0.00726257
0.00725773
0.00724034
0.00722633
0.00720734
0.00729108
0.00725656
0.00725916
0.00724333
0.00720511
0.00722558
0.00714321
0.00718287
0.00722728
0.00725416
0.00736067
0.0074176
0.00724782
0.0073494
0.00497962
0.00496608
0.00498497
0.00511977
0.0051891
0.00517693
0.0051395
0.00508423
0.00530691
0.00534025
0.00534318
0.00528988
0.00539421
0.00542081
0.00550459
0.0054635
0.00525478
0.00513241
0.00527927
0.00535795
0.00514649
0.0050106
0.00505463
0.00504767
0.00514823
0.00515669
0.00504358
0.005373
0.00513329
0.00521208
0.00529075
0.00603111
0.00642431
0.00517228
0.00650484
0.00517229
0.0082453
0.00839933
0.00843024
0.00843858
0.00843551
0.00842836
0.00841705
0.00840028
0.00838267
0.00835595
0.00828282
0.00820591
0.00818869
0.00821164
0.00825909
0.00826209
0.00820884
0.00813288
0.00805952
0.00806679
0.00797543
0.00796926
0.00798167
0.00787559
0.00822023
0.00825658
0.00828801
0.00831894
0.00834201
0.00818005
0.00756548
0.00764775
0.00728378
0.00740619
0.0072039
0.00722373
0.00719709
0.00721523
0.00722008
0.00720188
0.00722693
0.00721939
0.00719877
0.00719888
0.00727279
0.00728254
0.00743642
0.00743838
0.00759295
0.00763432
0.0051415
0.00522752
0.00523745
0.00578367
0.00502331
0.00504838
0.00513407
0.00524044
0.00532095
0.00529622
0.00524747
0.00518127
0.00543666
0.00545187
0.00544099
0.00544882
0.00552916
0.00552494
0.00559244
0.00557233
0.00541675
0.00528644
0.00543108
0.00551579
0.00529528
0.00506458
0.00510365
0.00514512
0.00528758
0.00528568
0.00513229
0.0053738
0.00517144
0.00523163
0.0052989
0.00539026
0.00619203
0.00651142
0.00588136
0.0065317
0.00840383
0.0084113
0.00843444
0.00843624
0.00842986
0.00841909
0.00840312
0.00838628
0.00836726
0.00830933
0.00822641
0.00819035
0.00819974
0.00824899
0.00827366
0.00824401
0.0081643
0.00812565
0.00796662
0.00798422
0.00791185
0.00791828
0.00792051
0.00805114
0.00796835
0.00823534
0.00829761
0.00834316
0.00837534
0.00789432
0.00780395
0.0074587
0.00782157
0.00748803
0.00740431
0.00726324
0.0073541
0.00728343
0.00735537
0.00722381
0.0072421
0.00726139
0.00728659
0.00746181
0.00743061
0.00746133
0.00747561
0.00766612
0.00768207
0.00748194
0.00738802
0.00526681
0.00531667
0.00467988
0.00507774
0.00515171
0.00526772
0.00541562
0.00550928
0.00540942
0.0053779
0.00532482
0.00527028
0.00552242
0.00552246
0.00549924
0.00558105
0.00563046
0.00559499
0.00566329
0.00565568
0.00555844
0.00544053
0.0055743
0.00564431
0.00544193
0.00513644
0.00517188
0.00525324
0.0054273
0.0054134
0.00523082
0.00535419
0.00521058
0.00525457
0.00529662
0.00549886
0.00607552
0.00611062
0.00632031
0.00659536
0.00839156
0.0084199
0.00843346
0.00842974
0.00841959
0.00840476
0.0083889
0.00837437
0.00833111
0.00825103
0.00819709
0.00819397
0.00823226
0.00827686
0.00827072
0.00821152
0.00813782
0.00810418
0.00796154
0.0079118
0.00785827
0.00786383
0.00788335
0.00768734
0.0077236
0.00825746
0.00833515
0.00837876
0.00823316
0.00799045
0.00792743
0.00795791
0.0079838
0.00761955
0.00774296
0.00745892
0.0075954
0.00748008
0.0075853
0.0073329
0.00739557
0.00738487
0.0074339
0.00766999
0.0076108
0.0076927
0.00768804
0.00768976
0.00787027
0.00561316
0.00481174
0.00585549
0.00490696
0.00558418
0.00563669
0.00569337
0.00563592
0.00532593
0.00551782
0.00568067
0.0057839
0.0054609
0.00542574
0.00537187
0.00534132
0.00558034
0.00557062
0.00553829
0.00568437
0.00571087
0.00565136
0.00572784
0.00572755
0.00568054
0.00558833
0.00570181
0.00574873
0.00558036
0.00522527
0.0052436
0.00536485
0.00557353
0.00553764
0.0053374
0.00534977
0.00525193
0.00528905
0.00531099
0.00562231
0.00587316
0.00592577
0.00643757
0.00677318
0.00836785
0.00841459
0.00842665
0.00841845
0.00840493
0.00839045
0.008378
0.00834717
0.00827567
0.00820933
0.00819385
0.0082163
0.00827153
0.00828865
0.00825329
0.00817526
0.00812076
0.00799698
0.00793926
0.00784989
0.00780322
0.00780783
0.0077254
0.00728669
0.00779007
0.0082894
0.00836758
0.00841166
0.00792999
0.00786709
0.00802088
0.00802996
0.00800891
0.00801516
0.0079232
0.0079878
0.00761918
0.007726
0.0076818
0.00777763
0.0075085
0.00759135
0.00754225
0.00758447
0.00784266
0.00778275
0.00788255
0.00787221
0.00585546
0.00647025
0.00811044
0.00457356
0.0048516
0.00600536
0.00598204
0.00585639
0.00590083
0.00593007
0.00555941
0.00551138
0.00574663
0.00591877
0.00602899
0.00549511
0.00545763
0.00540641
0.00541199
0.00562873
0.00561224
0.0055739
0.00577338
0.00578627
0.00571004
0.00579849
0.00580043
0.00578651
0.00571791
0.00581163
0.00584362
0.00571786
0.00532229
0.00530873
0.00548697
0.00571334
0.00566809
0.00544488
0.00550693
0.00530312
0.00538182
0.00544568
0.00572383
0.00578074
0.00600572
0.00613442
0.00702891
0.00833536
0.00839793
0.00841431
0.00840384
0.00839072
0.0083794
0.00835728
0.00829747
0.00822707
0.00819738
0.0082064
0.00825977
0.00829796
0.00828508
0.00822563
0.00814769
0.00809285
0.00793225
0.00786717
0.00778932
0.00774619
0.00775142
0.00751493
0.0073429
0.00787996
0.00832405
0.00840416
0.00824934
0.00805981
0.00800857
0.00805223
0.0080589
0.00802964
0.00804059
0.0080014
0.00802076
0.00787449
0.00795503
0.0078132
0.00788852
0.00765962
0.00773589
0.0077086
0.00769788
0.00794697
0.0078957
0.00782669
0.00798396
0.00602084
0.00671555
0.00653464
0.00650927
0.00564158
0.00622624
0.00634657
0.0063004
0.00610345
0.00613907
0.00617197
0.00565041
0.00566763
0.00593089
0.00611443
0.00623974
0.00552751
0.00548885
0.00544796
0.00549946
0.00568079
0.00565984
0.0056183
0.00586638
0.00587359
0.00578023
0.00588486
0.00588547
0.00588351
0.0058384
0.00592129
0.00593812
0.00584786
0.0054174
0.0053798
0.00561425
0.00584564
0.00579882
0.00555816
0.00569488
0.00536389
0.00552724
0.00564065
0.00579028
0.00586074
0.00622586
0.00517971
0.00722548
0.00829283
0.00837636
0.00840046
0.00839001
0.00837949
0.00836254
0.00831466
0.00824674
0.0082052
0.0082034
0.00824195
0.00829803
0.00830778
0.00826702
0.00819522
0.00812236
0.00803565
0.00791981
0.00780069
0.00773049
0.00769024
0.00770305
0.00750597
0.00745163
0.00799986
0.00836787
0.00842249
0.00792979
0.00788082
0.00808199
0.00807769
0.00808381
0.00808439
0.00806254
0.00807709
0.0080243
0.00804369
0.00795272
0.00799786
0.00789339
0.0079571
0.00775546
0.00782387
0.00784136
0.00781446
0.00778828
0.00796999
0.00652352
0.0071616
0.00813776
0.00639449
0.00647492
0.00665404
0.00663755
0.00640659
0.00644344
0.00654986
0.00650828
0.00632465
0.00635813
0.00639008
0.00641028
0.0057894
0.00606184
0.00625256
0.00638847
0.00556869
0.005529
0.00548876
0.00554264
0.00575158
0.00572571
0.00568055
0.00597014
0.0059814
0.00587051
0.00600034
0.00599823
0.00599093
0.00595633
0.00604368
0.00605218
0.00597704
0.00551426
0.00544822
0.00573904
0.00596987
0.00592399
0.00568188
0.00580862
0.0054413
0.0056353
0.00575791
0.00588662
0.00604362
0.00650395
0.0040068
0.00671153
0.00824477
0.00835637
0.00838787
0.00837869
0.00836482
0.0083274
0.00826478
0.00821574
0.0082049
0.00822682
0.00828769
0.00832006
0.0083004
0.00824084
0.00816761
0.0080871
0.00797864
0.00784879
0.00774157
0.00767611
0.00764078
0.00767447
0.00754504
0.00762902
0.00829118
0.00840045
0.00824901
0.00808921
0.00804606
0.00810575
0.00809976
0.00810842
0.00810797
0.00810225
0.00810766
0.00806633
0.00808809
0.00800841
0.00804071
0.00800122
0.00804862
0.00786512
0.00793437
0.00795241
0.00795119
0.00647035
0.00699295
0.00788489
0.00660589
0.00732624
0.00644034
0.00648752
0.00658279
0.00664501
0.00663198
0.00661717
0.00646857
0.00640017
0.00639888
0.00637758
0.00648005
0.00650868
0.00652827
0.00653058
0.00583194
0.00610823
0.00630574
0.0064506
0.00562843
0.00558662
0.0055347
0.00554179
0.00585277
0.00581809
0.005693
0.0060961
0.00612107
0.0059965
0.00616003
0.00614858
0.00612204
0.00608225
0.00618568
0.00619698
0.00611272
0.00559978
0.00552535
0.00586686
0.00609261
0.00604872
0.00579109
0.00587762
0.00552151
0.00569067
0.00580476
0.00601129
0.00625159
0.00670258
0.00363952
0.00603467
0.00819588
0.00833812
0.00837707
0.0083643
0.00833507
0.00827988
0.00822713
0.00820801
0.00821815
0.00827037
0.00832086
0.00832517
0.00828139
0.00821744
0.00813993
0.00804838
0.00793245
0.00778967
0.00768921
0.00762666
0.00760121
0.00766688
0.00764552
0.0079869
0.00834853
0.00841032
0.00790279
0.00786078
0.00810245
0.00808794
0.00812345
0.00811485
0.00813065
0.00812869
0.00813084
0.00813129
0.00811413
0.00812616
0.00807725
0.00809615
0.00808216
0.00811228
0.0079871
0.00803584
0.00767609
0.00796856
0.00630528
0.00688175
0.00596312
0.00599502
0.00661469
0.00660877
0.00627043
0.0062792
0.00641093
0.00652542
0.00613747
0.00613394
0.00615853
0.00607505
0.00602596
0.00602256
0.00654339
0.00655869
0.00641024
0.00629847
0.00576313
0.00604226
0.00626816
0.00638081
0.00561802
0.00563837
0.00560957
0.0055716
0.00582955
0.00564693
0.00548544
0.00625734
0.00630121
0.00594278
0.00604189
0.00629828
0.00628339
0.00623034
0.00635582
0.00637933
0.00625215
0.005693
0.00559427
0.00598057
0.00621743
0.00615672
0.00589866
0.00594137
0.00560393
0.00574347
0.0058404
0.0061222
0.006334
0.00655024
0.00438273
0.00531206
0.00814581
0.00831992
0.00836209
0.0083375
0.00829075
0.00823825
0.00821213
0.00821395
0.00825229
0.00831307
0.00833914
0.00831692
0.00825972
0.00819718
0.00807581
0.00800943
0.00788036