/*--------------------------------*- C++ -*----------------------------------*\
  =========                 |
  \\      /  F ield         | OpenFOAM: The Open Source CFD Toolbox
   \\    /   O peration     | Website:  https://openfoam.org
    \\  /    A nd           | Version:  dev
     \\/     M anipulation  |
\*---------------------------------------------------------------------------*/
FoamFile
{
    version     2.0;
    format      ascii;
    class       volScalarField;
    location    "2500";
    object      rDeltaT;
}
// * * * * * * * * * * * * * * * * * * * * * * * * * * * * * * * * * * * * * //

dimensions      [0 0 -1 0 0 0 0];

internalField   nonuniform List<scalar> 
9842
(
100
100
100
100
100
100
100
100
100
100
100
100
100
100
100
100
100
100
100
100
100
100
100
100
100
100
100
100
100
100
100
100
100
100
100
100
100
100
100
100
100
100
100
100
100
100
100
100
100
100
100
100
100
100
100
100
100
100
100
100
100
100
100
100
100
100
100
100
100
100
100
100
100
100
100
100
100
100
100
100
100
100
100
100
100
100
100
100
100
100
100
100
100
100
100
100
100
100
100
100
100
100
100
100
100
100
100
100
100
100
100
100
100
100
100
100
100
100
100
100
100
100
100
100
100
100
100
100
100
100
100
100
100
100
100
100
100
100
100
100
100
100
100
100
100
100
100
100
100
100
100
100
100
100
100
100
100
100
100
100
100
100
100
100
100
100
100
100
100
100
100
100
100
100
100
100
100
100
100
100
100
100
100
100
100
100
100
100
100
100
100
100
100
100
100
100
100
100
100
100
100
100
100
100
100
100
100
100
100
100
100
100
100
100
100
100
100
100
100
100
100
100
100
100
100
100
100
100
100
100
100
100
100
100
100
100
100
100
100
100
100
100
100
100
100
100
100
100
100
100
100
100
100
100
100
100
100
100
100
100
100
100
100
100
100
100
100
100
100
100
100
100
100
100
100
100
100
100
100
100
100
100
100
100
100
100
100
100
100
100
100
100
100
100
100
100
100
100
100
100
100
100
100
100
100
100
100
100
100
100
100
100
100
100
100
100
100
100
100
100
100
100
100
100
100
100
100
100
100
100
100
100
100
100
100
100
100
100
100
100
100
100
100
100
100
100
100
100
100
100
100
100
100
100
100
100
100
100
100
100
100
100
100
100
100
100
100
100
100
100
100
100
100
100
100
100
100
100
100
100
100
100
100
100
100
100
100
100
100
100
100
100
100
100
100
100
100
100
100
100
100
100
100
100
100
100
100
100
100
100
100
100
100
100
100
100
100
100
100
100
100
100
100
100
100
100
100
100
100
100
100
100
100
100
100
100
100
100
100
100
100
100
100
100
100
100
100
100
100
100
100
100
100
100
100
100
100
100
100
100
100
100
100
100
100
100
100
100
100
100
100
100
100
100
100
100
100
100
100
100
100
100
100
100
100
100
100
100
100
100
100
100
100
100
100
100
100
100
100
100
100
100
100
100
100
100
100
100
100
100
100
100
100
100
100
100
100
100
100
100
100
100
100
100
100
100
100
100
100
100
100
100
100
100
100
100
100
100
100
100
100
100
100
100
100
100
100
100
100
100
100
100
100
100
100
100
100
100
100
100
100
100
100
100
100
100
100
100
100
100
100
100
100
100
100
100
100
100
100
100
100
100
100
100
100
100
100
100
100
100
100
100
100
100
100
100
100
100
100
100
100
100
100
100
100
100
100
100
100
100
100
100
100
100
100
100
100
100
100
100
100
100
100
100
100
100
100
100
100
100
100
100
100
100
100
100
100
100
100
100
100
100
100
100
100
100
100
100
100
100
100
100
100
100
100
100
100
100
100
100
100
100
100
100
100
100
100
100
100
100
100
100
100
100
100
100
100
100
100
100
100
100
100
100
100
100
100
100
100
100
100
100
100
100
100
100
100
100
100
100
100
100
100
100
100
100
100
100
100
100
100
100
100
100
100
100
100
100
100
100
100
100
100
100
100
100
100
100
100
100
100
100
100
100
100
100
100
100
100
100
100
100
100
100
100
100
100
100
100
100
100
100
100
100
100
100
100
100
100
100
100
100
100
100
100
100
100
100
100
100
100
100
100
100
100
100
100
100
100
100
100
100
100
100
100
100
100
100
100
100
100
100
100
100
100
100
100
100
100
100
100
100
100
100
100
100
100
100
100
100
100
100
100
100
100
100
100
100
100
100
100
100
100
100
100
100
100
100
100
100
100
100
100
100
100
100
100
100
100
100
100
100
100
100
100
100
100
100
100
100
100
100
100
100
100
100
100
100
100
100
100
100
100
100
100
100
100
100
100
100
100
100
100
100
100
100
100
100
100
100
100
100
100
100
100
100
100
100
100
100
100
100
100
100
100
100
100
100
100
100
100
100
100
100
100
100
100
100
100
100
100
100
100
100
100
100
100
100
100
100
100
100
100
100
100
100
100
100
100
100
100
100
100
100
100
100
100
100
100
100
100
100
100
100
100
100
100
100
100
100
100
100
100
100
100
100
100
100
100
100
100
100
100
100
100
100
100
100
100
100
100
100
100
100
100
100
100
100
100
100
100
100
100
100
100
100
100
100
100
100
100
100
100
100
100
100
100
100
100
100
100
100
100
100
100
100
100
100
100
100
100
100
100
100
100
100
100
100
100
100
100
100
100
100
100
100
100
100
100
100
100
100
100
100
100
100
100
100
100
100
100
100
100
100
100
100
100
100
100
100
100
100
100
100
100
100
100
100
100
100
100
100
100
100
100
100
100
100
100
100
100
100
100
100
100
100
100
100
100
100
100
100
100
100
100
100
100
100
100
100
100
100
100
100
100
100
100
100
100
100
100
100
100
100
100
100
100
100
100
100
100
100
100
100
100
100
100
100
100
100
100
100
100
100
100
100
100
100
100
100
100
100
100
100
100
100
100
100
100
100
100
100
100
100
100
100
100
100
100
100
100
100
100
100
100
100
100
100
100
100
100
100
100
100
100
100
100
100
100
100
100
100
100
100
100
100
100
100
100
100
100
100
100
100
100
100
100
100
100
100
100
100
100
100
100
100
100
100
100
100
100
100
100
100
100
100
100
100
100
100
100
100
100
100
100
100
100
100
100
100
100
100
100
100
100
100
100
100
100
100
100
100
100
100
100
100
100
100
100
100
100
100
100
100
100
100
100
100
100
100
100
100
100
100
100
100
100
100
100
100
100
100
100
100
100
100
100
100
100
100
100
100
100
100
100
100
100
100
100
100
100
100
100
100
100
100
100
100
100
100
100
100
100
100
100
100
100
100
100
100
100
100
100
100
100
100
100
100
100
100
100
100
100
100
100
100
100
100
100
100
100
100
100
100
100
100
100
100
100
100
100
100
100
100
100
100
100
100
100
100
100
100
100
100
100
100
100
100
100
100
100
100
100
100
100
100
100
100
100
100
100
100
100
100
100
100
100
100
100
100
100
100
100
100
100
100
100
100
100
100
100
100
100
100
100
100
100
100
100
100
100
100
100
100
100
100
100
100
100
100
100
100
100
100
100
100
100
100
100
100
100
100
100
100
100
100
100
100
100
100
100
100
100
100
100
100
100
100
100
100
100
100
100
100
100
100
100
100
100
100
100
100
100
100
100
100
100
100
100
100
100
100
100
100
100
100
100
100
100
100
100
100
100
100
100
100
100
100
100
100
100
100
100
100
100
100
100
100
100
100
100
100
100
100
100
100
100
100
100
100
100
100
100
100
100
100
100
100
100
100
100
100
100
100
100
100
100
100
100
100
100
100
100
100
100
100
100
100
100
100
100
100
100
100
100
100
100
100
100
100
100
100
100
100
100
100
100
100
100
100
100
100
100
100
100
100
100
100
100
100
100
100
100
100
100
100
100
100
100
100
100
100
100
100
100
100
100
100
100
100
100
100
100
100
100
100
100
100
100
100
100
100
100
100
100
100
100
100
100
100
100
100
100
100
100
100
100
100
100
100
100
100
100
100
100
100
100
100
100
100
100
100
100
100
100
100
100
100
100
100
100
100
100
100
100
100
100
100
100
100
100
100
100
100
100
100
100
100
100
100
100
100
100
100
100
100
100
100
100
100
100
100
100
100
100
100
100
100
100
100
100
100
100
100
100
100
100
100
100
100
100
100
100
100
100
100
100
100
100
100
100
100
100
100
100
100
100
100
100
100
100
100
100
100
100
100
100
100
100
100
100
100
100
100
100
100
100
100
100
100
100
100
100
100
100
100
100
100
100
100
100
100
100
100
100
100
100
100
100
100
100
100
100
100
100
100
100
100
100
100
100
100
100
100
100
100
100
100
100
100
100
100
100
100
100
100
100
100
100
100
100
100
100
100
100
100
100
100
100
100
100
100
100
100
100
100
100
100
100
100
100
100
100
100
100
100
100
100
100
100
100
100
100
100
100
100
100
100
100
100
100
100
100
100
100
100
100
100
100
100
100
100
100
100
100
100
100
100
100
100
100
100
100
100
100
100
100
100
100
100
100
100
100
100
100
100
100
100
100
100
100
100
100
100
100
100
100
100
100
100
100
100
100
100
100
100
100
100
100
100
100
100
100
100
100
100
100
100
100
100
100
100
100
100
100
100
100
100
100
100
100
100
100
100
100
100
100
100
100
100
100
100
100
100
100
100
100
100
100
100
100
100
100
100
100
100
100
100
100
100
100
100
100
100
100
100
100
100
100
100
100
100
100
100
100
100
100
100
100
100
100
100
100
100
100
100
100
100
100
100
100
100
100
100
100
100
100
100
100
100
100
100
100
100
100
100
100
100
100
100
100
100
100
100
100
100
100
100
100
100
100
100
100
100
100
100
100
100
100
100
100
100
100
100
100
100
100
100
100
100
100
100
100
100
100
100
100
100
100
100
100
100
100
100
100
100
100
100
100
100
100
100
100
100
100
100
100
100
100
100
100
100
100
100
100
100
100
100
100
100
100
100
100
100
100
100
100
100
100
100
100
100
100
100
100
100
100
100
100
100
100
100
100
100
100
100
100
100
100
100
100
100
100
100
100
100
100
100
100
100
100
100
100
100
100
100
100
100
100
100
100
100
100
100
100
100
100
100
100
100
100
100
100
100
100
100
100
100
100
100
100
100
100
100
100
100
100
100
100
100
100
100
100
100
100
100
100
100
100
100
100
100
100
100
100
100
100
100
100
100
100
100
100
100
100
100
100
100
100
100
100
100
100
100
100
100
100
100
100
100
100
100
100
100
100
100
100
100
100
100
100
100
100
100
100
100
100
100
100
100
100
100
100
100
100
100
100
100
100
100
100
100
100
100
100
100
100
100
100
100
100
100
100
100
100
100
100
100
100
100
100
100
100
100
100
100
100
100
100
100
100
100
100
100
100
100
100
100
100
100
100
100
100
100
100
100
100
100
100
100
100
100
100
100
100
100
100
100
100
100
100
100
100
100
100
100
100
100
100
100
100
100
100
100
100
100
100
100
100
100
100
100
100
100
100
100
100
100
100
100
100
100
100
100
100
100
100
100
100
100
100
100
100
100
100
100
100
100
100
100
100
100
100
100
100
100
100
100
100
100
100
100
100
100
100
100
100
100
100
100
100
100
100
100
100
100
100
100
100
100
100
100
100
100
100
100
100
100
100
100
100
100
100
100
100
100
100
100
100
100
100
100
100
100
100
100
100
100
100
100
100
100
100
100
100
100
100
100
100
100
100
100
100
100
100
100
100
100
100
100
100
100
100
100
100
100
100
100
100
100
100
100
100
100
100
100
100
100
100
100
100
100
100
100
100
100
100
100
100
100
100
100
100
100
100
100
100
100
100
100
100
100
100
100
100
100
100
100
100
100
100
100
100
100
100
100
100
100
100
100
100
100
100
100
100
100
100
100
100
100
100
100
100
100
100
100
100
100
100
100
100
100
100
100
100
100
100
100
100
100
100
100
100
100
100
100
100
100
100
100
100
100
100
100
100
100
100
100
100
100
100
100
100
100
100
100
100
100
100
100
100
100
100
100
100
100
100
100
100
100
100
100
100
100
100
100
100
100
100
100
100
100
100
100
100
100
100
100
100
100
100
100
100
100
100
100
100
100
100
100.73
102.303
103.562
103.526
100
100
100
100
100
100
100
100
100
100
100
100
100
100.112
102.216
100
100
100
100
100
100
100
100
100
100
100
100
100
100
100
100
100
100
100
100
100
100
100
100
100
100
100
100
100
100
100
100
100
100
100
100
100
100
100
100
100
100
100
100
100
100
100
100
100
100
100
100
100
100
100
100
100
100
100
100
100
100
100
100
100
100
100
100
100
100
100
100
100
100
100
100
100
100
100
103.726
102.12
105.523
104.737
106.418
107.999
109.443
109.407
100
100
102.762
104.427
100
100
100
101.166
102.831
100.877
100
100
104.374
108.676
112.049
100
100
105.899
108.3
101.025
100
100
100
100
100
100
100
100
100
100
100
100
100
100
100
100
100
100
100
100
100
100
100
100
100
100
100
100
100
100
100
100
100
100
100
100
100
100
100
100
100
100
100
100
100
100
100
100
100
100
100
100
100
100
100
100
100
100
100
100
100
100
100
100
100
100
100
100
100
100
100
101.925
100
100
101.025
109.107
107.121
111.301
109.804
111.503
112.967
114.742
114.313
101.459
103.911
107.591
109.624
101.974
106.489
108.998
109.957
113.55
112.018
108.925
108.597
111.997
117.969
122.988
102.243
109.994
115.475
125.956
118.356
103.515
100
107.844
111.874
102.7
100
100
100
104.98
106.715
100
100
100
100
100
100
100
100
100
100
100
100
100
100
100
100
100
100
100
100
100
100
100
100
100
100
100
100
100
100
100
100
100
100
100
100
100
100
100
100
100
100
100
100
100
100
100
100
100
100
100
100
100
100
100
100
100
100
100
100
100
100
106.168
103.238
101.007
105.786
114.022
111.988
116.958
114.759
117.244
118.455
120.353
119.584
108.983
109.02
112.558
115.429
113.775
117.029
118.634
118.745
125.888
125.729
123.57
123.811
122.065
129.343
134.829
120.473
129.702
133.517
148.554
139.163
116.475
110.282
119.856
125.738
113.364
100
100
108.15
116.721
118.015
108.58
100
100
100
100
100
100
100
100
100
100
100
100
100
100
100
100
100
100
100
100
100
100
100
100
100
100
100
100
100
100
100
100
100
100
100
100
100
100
100
100
100
100
100
100
100
100
100
100
100
100
100
100
100
100
100
100
100
100
100.155
100
100
100
110.868
108.7
105.091
110.329
119.186
117.322
123.14
120.224
124.038
125.117
126.419
125.939
116.787
115.401
118.79
122.336
127.168
129.204
129.754
128.525
139.751
142.097
142.042
142.036
141.312
149.913
155.14
135.337
145.536
158.133
169.133
156.739
130.807
123.727
137.021
143.845
128.607
107.449
104.682
120.062
131.057
133.901
119.98
100
102.553
100.023
100
100
100
100
108.96
100
100
100
100
100
100
100
100
100
100
100
100
100
100
100
100
100
100
100
100
100
100
100
100
100
100
100
100
100
100
100
100
100
100
100
100
100
100
100
100
100
100
100
100
100
100
100
100
100
100
100
106.527
101.047
100.04
100
116.535
114.362
111.071
115.676
124.965
123.671
129.861
126.213
131.777
133.051
133.263
133.539
124.799
123.888
126.803
130.013
143.441
143.928
142.426
138.476
159.606
162.608
164.239
164.407
168.694
179.348
185.043
158.791
174.179
182.291
206.56
190.668
153.097
143.54
161.878
173.083
147.287
117.982
116.412
135.162
152.297
155.946
135.095
100
114.997
112.11
100
100
100
100
113.514
116.714
100
100
100
100
100
100
100
100
100
100
100
100
100
100
100
100
100
100
100
100
100
100
100
100
100
100
100
100
100
100
100
100
100
100
100
100
100
100
100
100
100
100
100
100
100
100
100
100
100
100
100
114.162
107.651
107.663
100
123.224
120.519
119.236
123.112
132.025
131.262
137.324
133.9
140.784
142.14
141.409
142.469
132.507
134.381
136.559
139.072
163.25
161.401
156.541
149.817
186.955
187.744
189.189
191.28
196.854
211.735
217.952
193.909
208.948
221.646
229.211
221.6
182.66
168.332
192.102
207.383
175.028
134.602
132.856
158.701
183.342
188.876
158.815
100
129.027
123.542
108.318
100
100
110.153
239.229
153.546
100
100
100
100
100
100
100
100
100
100
100
100
100
100
100
100
100
100
100
100
100
100
100
100
100
100
100
100
100
100
100
100
100
100
100
100
100
100
100
100
100
100
100
100
100
100
100
100
100
100
100
100
122.197
115.403
116.919
107.209
131.635
128.077
128.101
131.9
140.509
139.823
145.641
143.274
151.213
152.412
151.227
152.658
145.131
147.235
148.543
149.94
189.981
187.018
181.56
175.047
216.779
216.404
217.393
220.744
234.783
248.356
248.283
227.718
226.005
237.19
248.787
242.327
215.206
201.928
224.88
235.295
210.556
154.386
148.551
188.086
221.125
221.187
178.807
105.994
141.801
136.236
119.734
104.114
111.431
128.74
100
105.913
100
100
100
100
100
100
100
100
100
100
100
100
100
100
100
100
100
100
100
100
100
100
100
100
100
100
100
100
100
100
100
100
100
100
100
100
100
100
100
100
100
100
100
100
100
100
100
100
100
100
100
100
100
100
131.889
125.189
127.056
116.7
140.723
136.345
138.24
142.77
150.374
149.136
156.167
154.945
164.016
164.606
162.978
164.207
170.537
166.905
165.29
164.138
222.981
221.422
220.089
217.732
248.987
244.675
247.072
247.877
260.738
275.246
280.403
238.635
269.34
272.122
159.538
296.286
235.221
231.34
233.851
252.473
229.537
170.887
163.738
206.823
225.436
227.926
196.567
115.689
156.743
146.17
129.437
116.103
124.948
123.047
113.756
123.517
100
100
100
100
100
100
100
100
100
100
100
100
100
100
100
100
100
100
100
100
100
100
100
100
100
100
100
100
100
100
100
100
100
100
100
100
100
100
100
100
100
100
100
100
100
100
100
100
100
100
100
105.525
100
100
100
143.475
136.211
138.175
127.29
151.254
146.883
149.896
154.784
161.571
159.789
168.678
167.617
182.294
181.445
178.177
179.373
213.012
201.116
191.782
185.908
252.115
253.009
255.982
258.885
291.746
277.393
283.432
278.185
319.639
169.138
309.903
153.351
313.185
311.648
186.038
340.736
291.46
248.508
150.225
164.311
280.186
190.189
181.509
223.769
149.331
245.979
281.229
220.05
125.312
167.959
156.989
139.019
126.071
126.988
122.325
460.656
165.521
100
100
100
100
100
100
100
100
100
100
100
100
100
100
100
100
100
100
100
100
100
100
100
100
100
100
100
100
100
100
100
100
100
100
100
100
100
100
100
100
100
100
100
100
100
100
100
100
100
100
115.312
101.664
100
100
156.218
147.955
151.348
139.885
162.651
159.35
163.336
168.642
174.732
172.26
184.471
182.69
213.892
208.957
199.324
202.24
257.111
249.058
230.21
219.543
281.191
282.41
287.6
293.156
318.212
304.401
309.449
305.144
355.829
193.273
345.671
180.863
363.265
355.578
212.736
387.885
343.168
162.425
181.932
195.289
337.671
211.105
194.106
235.019
180.18
160.156
336.259
222.261
133.763
180.034
164.788
146.379
128.941
123.361
117.299
210.223
100
100
100
100
100
100
100
100
100
100
100
100
100
100
100
100
100
100
100
100
100
100
100
100
100
100
100
100
100
100
100
100
100
100
100
100
100
100
100
100
100
100
100
100
100
100
100
100
100
100
100
126.896
112.143
100
107.33
170.924
161.58
166.522
153.607
177.051
174.759
179.298
185.433
191.867
188.87
203.834
201.084
243.939
249.192
228.3
236.318
294.198
311.501
278.57
254.948
307.628
308.142
313.347
318.412
349.382
336.19
340.453
337.649
392.262
216.781
383.63
210.808
415.08
403.353
239.317
438.762
397.018
195.451
213.575
226.88
398.749
215.511
203.83
152.348
213.742
192.008
400.061
147.799
137.667
189.43
173.329
152.441
126.346
114.208
100
100
100
100
100
100
100
100
100
100
100
100
100
100
100
100
100
100
100
100
100
100
100
100
100
100
100
100
100
100
100
100
100
100
100
100
100
100
100
100
100
100
100
100
100
100
100
100
100
100
100
100
100
100
100
139.15
123.525
100.723
118.116
187.883
177.54
183.517
168.072
194.683
192.588
197.501
205.291
215.337
210.74
229.379
224.275
281.746
287.241
261.094
266.844
324.246
189.294
311.741
289.06
340.43
342.496
348.816
355.239
380.92
366.917
368.396
365.588
433.43
239.421
240.072
450.504
230.131
243.535
257.334
455.477
224.13
271.743
210.864
184.361
244.208
228.42
458.856
178.213
137.292
197.005
179.776
154.831
119.874
101.471
100
100
100
100
100
100
100
100
100
100
100
100
100
100
100
100
100
100
100
100
100
100
100
100
100
100
100
100
100
100
100
100
100
100
100
100
100
100
100
100
100
100
100
100
100
100
100
100
100
100
100
100
100
100
100
152.152
135.426
111.222
129.065
208.381
196.687
202.262
183.846
215.971
212.903
218.614
227.586
246.34
239.906
258.499
251.904
315.296
179.192
291.046
308.406
363.885
204.338
347.423
326.779
367.146
371.218
378.523
387.328
261.739
150.894
326.466
218.557
270.151
219.966
262.049
212.706
133.433
202.341
179.138
153.09
113.095
100
100
100
100
100
100
100
100
100
100
100
100
100
100
100
100
100
100
100
100
100
100
100
100
100
100
100
100
100
100
100
100
100
100
100
100
100
100
100
100
100
100
100
100
100
100
100
100
100
100
100
100
100
100
100
100
106.163
100
100
165.936
147.17
121.992
140.182
232.822
219.004
223.518
201.333
240.755
235.016
243.322
252.13
272.4
269.936
280.001
283.463
359.983
199.742
177.218
348.02
395.104
225.961
392.966
375.262
181.244
389.692
146.351
323.642
251.72
243.887
129.117
203.905
261.719
172.143
150.331
102.922
100
100
100
112.631
100
100
100
100
100
100
100
100
100
100
100
100
100
100
100
100
100
100
100
100
100
100
100
100
100
100
100
100
100
100
100
100
100
100
100
100
100
100
100
100
100
100
100
100
100
100
100
100
100
100
100
100
116.846
104.613
106.208
180.088
158.846
133.589
152.335
259.604
243.59
248.513
221.919
268.685
258.998
270.194
276.823
316.725
295.596
331.552
298.421
399.082
224.272
201.223
393.686
243.2
432.827
414.889
215.979
447.142
177.872
384.916
122.865
141.786
316.548
167.766
238.926
144.935
100
100
100
100
138.099
100
100
100
100
100
100
100
100
100
100
100
100
100
100
100
100
100
100
100
100
100
100
100
100
100
100
100
100
100
100
100
100
100
100
100
100
100
100
100
100
100
100
100
100
100
100
100
100
100
100
107.523
107.19
107.143
103.514
126.831
115.678
117.038
196.164
171.656
144.18
163.736
286.08
270.069
276.319
244.919
298.814
284.387
295.645
301.673
354.468
182.652
193.065
366.425
246.459
227.584
437.089
247.66
213.659
441.269
117.75
172.959
378.867
166.671
222.991
286.668
141.388
100
100
104.742
100
154.528
100
100
100
100
100
100
100
100
100
100
100
100
100
100
100
100
100
100
100
100
100
100
100
100
100
100
100
100
100
100
100
100
100
100
100
100
100
100
100
100
100
100
100
100
100
100
100
100
100
100.617
100
100
116.524
116.671
113.061
109.4
137.21
127.169
125.917
213.019
184.17
154.061
173.602
310.555
297.838
305.688
271.167
310.725
310.141
318.602
325.517
396.622
204.937
196.261
212.235
403.306
252.132
246.501
117.402
207.453
436.409
179.619
222.897
273.303
339.5
145.142
100
100
129.328
100
165.647
100
100
100
100
100
100
100
100
100
100
100
100
100
100
100
100
100
100
100
100
100
100
100
100
100
100
100
100
100
100
100
100
100
100
100
100
100
100
100
100
100
100
100
100
100
100
100
100
100
100
104.297
100
126.028
123.469
118.303
113.562
148.363
137.512
135.009
232.002
196.335
165.952
184.846
333.965
324.304
334.251
299.116
322.794
339.746
338.808
440.292
228.061
214.683
207.444
229.93
444.081
120.97
238.895
200.532
234.473
274.776
331.269
389.3
155.293
100
103.218
153.911
100
171.293
100
100
100
100
100
100
100
100
100
100
100
100
100
100
100
100
100
100
100
100
100
100
100
100
100
100
100
100
100
100
100
100
100
100
100
100
100
100
100
100
100
100
100
100
100
100
100
100
100
100
100
100
100
105.404
134.001
128.148
123.019
114.84
157.508
146.546
144.408
252.692
209.217
176.281
195.123
355.659
347.701
357
325.037
353.129
216.686
252.307
232.752
223.289
250.089
127.591
139.394
292.125
333.886
386.497
161.209
104.115
120.902
175.336
100
172.091
100
100
100
100
100
100
100
100
100
100
100
100
100
100
100
100
100
100
100
100
100
100
100
100
100
100
100
100
100
100
100
100
100
100
100
100
100
100
100
100
100
100
100
100
100
100
100
100
100
104.821
100
100
100
138.905
132.881
124.841
114.138
166.889
156.399
150.96
273.414
221.814
185.598
204.041
362.78
366.795
375.002
346.977
223.202
231.28
252.93
236.481
126.197
169.451
225.656
353.862
390.728
159.491
114.282
140.606
192.663
100
170.76
100
100
100
100
100
100
100
100
100
100
100
100
100
100
100
100
100
100
100
100
100
100
100
100
100
100
100
100
100
100
100
100
100
100
100
100
100
100
100
100
100
100
100
100
100
100
100
100
100
100.505
102.833
100
100
100
100
143.252
135.613
123.872
111.603
175.307
164.185
155.009
293.792
234.022
193.889
212.115
225.027
378.321
382.128
366.327
236.241
242.697
252.925
126.564
203.649
274.706
226.15
412.5
155.849
127.292
158.367
203.288
100
167.035
100
100
100
100
100
100
100
100
100
100
100
100
100
100
100
100
100
100
100
100
100
100
100
100
100
100
100
100
100
100
100
100
100
100
100
100
100
100
100
100
100
100
100
100
100
100
100
100
100
108.58
100
100
100
100
100
100
147.122
134.66
121.055
180.642
168.155
159.179
315.393
246.716
199.699
218.842
237.25
421.312
390.469
393.106
379.503
245.503
256.293
136.547
235.657
330.953
274.118
219.36
164.504
140.483
175.28
207.055
100
163.09
100
100
100
100
100
100
100
100
100
100
100
100
100
100
100
100
100
100
100
100
100
100
100
100
100
100
100
100
100
100
100
100
100
100
100
100
100
100
100
100
100
100
100
100
100
100
100
100
100
104.77
117.72
100
100
100
100
100
100
100
100
146.795
131.759
184.939
172.057
159.308
334.558
260.512
202.04
222.624
244.658
445.994
233.328
411.257
421.343
386.17
255.999
147.647
385.289
330.081
266.873
221.627
174.223
151.466
185.884
202.801
100
150.631
100
100
100
100
100
100
100
100
100
100
100
100
100
100
100
100
100
100
100
100
100
100
100
100
100
100
100
100
100
100
100
100
100
100
100
100
100
100
100
100
100
100
100
100
100
100
100
100
113.926
128.105
100
100
100
100
100
100
100
100
100
100
143.794
188.013
173.194
156.338
349.113
272.845
203.978
225.487
251.797
460.364
247.828
233.877
447.313
387.501
156.576
383.249
322.978
268.411
228.275
179.868
159.325
189.178
181.248
139.932
160.902
100
100
100
100
100
100
100
100
100
100
100
100
100
100
100
100
100
100
100
100
100
100
100
100
100
100
100
100
100
100
100
100
100
100
100
100
100
100
100
100
100
100
100
100
100
108.267
100
100
100
124.114
139.65
100
100
100
100
100
100
100
100
100
100
100
100
186.258
170.665
152.259
356.957
283.052
203.14
229.137
469.753
257.204
246.963
401.286
465.199
407.071
161.01
374.831
324.062
276.263
231.784
181.688
161.837
176.063
175.411
336.878
214.347
100
100
100
100
100
100
100
100
100
100
100
100
100
100
100
100
100
100
100
100
100
100
100
100
100
100
100
100
100
100
100
100
100
100
100
100
100
100
100
100
100
100
100
100
100
118.495
103.68
100
100
135.29
100
100
100
100
100
100
100
100
100
100
100
100
100
182.631
166.923
147.716
360.218
295.449
201.178
232.05
260.994
257.66
428.916
234.459
469.626
158.472
375.238
332.835
281.132
143.957
220.943
172.956
153.864
159.064
188.847
805.899
296.454
100
100
100
100
100
100
100
100
100
100
100
100
100
100
100
100
100
100
100
100
100
100
100
100
100
100
100
100
100
100
100
100
100
100
100
100
100
100
100
100
100
100
100
100
100
130.155
114.238
100.414
100
100
100
100
100
100
100
100
100
100
100
100
100
100
100
100
178.832
162.162
143.42
348.239
303.054
200.731
238.175
261.756
455.239
244.972
369.816
151.408
384.553
337.278
174.917
256.42
203.111
162.297
141.526
143.075
146.196
168.487
100
100
100
100
100
100
100
100
100
100
100
100
100
100
100
100
100
100
100
100
100
100
100
100
100
100
100
100
100
100
100
100
100
100
100
100
100
100
100
100
100
100
100
100
100
100
126.498
111.579
103.569
100
100
100
100
100
100
100
100
100
100
100
100
100
100
102.615
105.596
108.277
177.441
158.746
140.6
356.352
309.352
203.272
248.52
465.289
254.609
389.165
377.467
145.508
388.237
208.815
310.15
231.716
185.552
155.605
127.661
109.789
100
100
100
100
100
100
100
100
100
100
100
100
100
100
100
100
100
100
100
100
100
100
100
100
100
100
100
100
100
100
100
100
100
100
100
100
100
100
100
100
100
100
100
100
100
100
100
100
124.411
112.248
100
100
100
100
100
100
100
100
100
100
100
100
100
100
107.442
107.951
112.766
116.896
117.865
176.834
156.799
139.177
374.143
311.713
204.799
249.518
257.823
413.779
405.464
215.601
139.476
238.633
368.564
283.849
232.744
179.498
153.077
111.186
100
100
100
100
100
100
100
100
100
100
100
100
100
100
100
100
100
100
100
100
100
100
100
100
100
100
100
100
100
100
100
100
100
100
100
100
100
100
100
100
100
100
100
100
100
100
100
100
100
123.042
100
100
100
100
100
100
100
100
100
100
100
100
100
107.077
104.613
119.963
121.723
123.285
128.629
127.813
177.063
156.313
137.306
294.528
204.927
244.181
431.843
437.104
226.662
314.944
130.108
420.227
343.43
282.219
225.817
175.266
146.625
100
100
100
100
100
100
100
100
100
100
100
100
100
100
100
100
100
100
100
100
100
100
100
100
100
100
100
100
100
100
100
100
100
100
100
100
100
100
100
100
100
100
100
100
100
100
100
100
100
100
100
100
100
100
100
100
100
100
100
100
100
100
100
100
122.143
120.761
133.103
136.346
134.323
140.905
138.219
175.557
154.514
284.038
202.671
238.317
456.823
238.519
338.253
305.802
122.018
396.46
338.68
276.735
141.778
177.692
139.782
100
100
100
100
100
100
100
100
100
100
100
100
100
100
100
100
100
100
100
100
100
100
100
100
100
100
100
100
100
100
100
100
100
100
100
100
100
100
100
100
100
100
100
100
100
100
100
100
100
100
100
100
100
100
100
100
100
100
100
100
100
100
100
100
115.225
107.694
138.387
138.645
146.828
151.674
146.123
153.906
152.647
173.683
272.687
200.79
233.123
247.737
366.397
329.657
294.325
119.751
389.694
335.573
171.67
200.342
248.308
169.418
133.654
100
100
100
100
100
100
100
100
100
100
100
100
100
100
100
100
100
100
100
100
100
100
100
100
100
100
100
100
100
100
100
100
100
100
100
100
100
100
100
100
100
100
100
100
100
100
100
100
100
100
100
100
100
100
100
100
100
100
100
100
100
100
100
100
100
134.376
127.34
155.426
157.621
161.238
167.638
159.502
168.359
176.025
262.544
199.561
230.19
392.398
358.979
318.779
285.742
124.961
388.193
206.008
306.237
192.941
141.611
157.027
131.46
100
100
100
100
100
100
100
100
100
100
100
100
100
100
100
100
100
100
100
100
100
100
100
100
100
100
100
100
100
100
100
100
100
100
100
100
100
100
100
100
100
100
100
100
100
100
100
100
100
100
100
100
100
100
100
100
100
100
100
100
100
100
100
100
100
118.267
108.025
155.413
149.916
173.041
177.281
176.876
184.726
185.722
257.465
207.1
232.954
385.983
347.783
310.493
282.317
119.215
237.615
372.179
173.587
185.758
204.147
249.537
147.466
138.554
100
100
100
100
100
100
100
100
100
100
100
100
100
100
100
100
100
100
100
100
100
100
100
100
100
100
100
100
100
100
100
100
100
100
100
100
100
100
100
100
100
100
100
100
100
100
100
100
100
100
100
116.148
100
100
100
100
100
100
100
100
100
100
100
100
100
100
104.964
141.486
130.077
177.984
174.632
191.781
198.161
194.785
203.585
257.813
215.613
238.97
374.935
338.844
306.083
286.154
105.804
433.317
210.036
308.821
177.387
198.822
146.598
144.603
135.608
100
100
100
100
100
100
100
100
100
100
100
100
100
100
100
100
100
100
100
100
100
100
100
100
100
100
100
100
100
100
100
100
100
100
100
100
100
100
100
100
100
100
100
100
100
100
100
100
100
100
100
100
100
141.836
100
100
100
100
100
100
100
100
100
101.518
103.013
100
100
100
125.96
167.701
156.677
202.198
201.56
212.124
220.546
224.278
260.981
246.218
365.883
333.235
308.864
286.412
100
244.471
374.952
177.497
165.551
194.876
217.086
257.406
151.273
123.404
100
100
100
100
100
100
100
100
100
100
100
100
100
100
100
100
100
100
100
100
100
100
100
100
100
100
100
100
100
100
100
100
100
100
100
100
100
100
100
100
100
100
100
100
100
100
100
100
100
100
100
100
100
100
173.723
100.094
100
100
100
100
100
102.051
102.841
102.383
102.28
106.08
106.677
103.033
108.484
114.09
156.201
197.04