/*--------------------------------*- C++ -*----------------------------------*\
  =========                 |
  \\      /  F ield         | OpenFOAM: The Open Source CFD Toolbox
   \\    /   O peration     | Website:  https://openfoam.org
    \\  /    A nd           | Version:  dev
     \\/     M anipulation  |
\*---------------------------------------------------------------------------*/
FoamFile
{
    version     2.0;
    format      ascii;
    class       volScalarField;
    location    "2500";
    object      rho;
}
// * * * * * * * * * * * * * * * * * * * * * * * * * * * * * * * * * * * * * //

dimensions      [1 -3 0 0 0 0 0];

internalField   nonuniform List<scalar> 
9842
(
1.1717
1.17151
1.17162
1.17147
1.17118
1.17164
1.17145
1.17097
1.17117
1.17174
1.17153
1.17086
1.17081
1.1712
1.17178
1.17154
1.17078
1.17062
1.17088
1.17131
1.17178
1.17152
1.17077
1.17044
1.17054
1.17099
1.17145
1.17182
1.1715
1.17084
1.1704
1.1703
1.17061
1.17107
1.17145
1.17182
1.17155
1.17087
1.17036
1.17011
1.17027
1.17067
1.17115
1.1715
1.17185
1.17156
1.17088
1.17038
1.17003
1.17006
1.17039
1.17081
1.17119
1.17152
1.17185
1.17156
1.17091
1.1704
1.17001
1.16989
1.17007
1.17046
1.17093
1.17125
1.17155
1.17185
1.17153
1.17095
1.17047
1.17001
1.16979
1.16989
1.17018
1.17062
1.17098
1.17128
1.17157
1.17186
1.17153
1.17102
1.17058
1.17004
1.16974
1.16969
1.16994
1.17033
1.17069
1.17102
1.17131
1.17158
1.17187
1.17154
1.17103
1.1706
1.1701
1.1697
1.16959
1.16971
1.17002
1.17044
1.17077
1.17106
1.17133
1.17159
1.17187
1.17153
1.17104
1.17063
1.1702
1.16969
1.1695
1.16955
1.16979
1.17017
1.17053
1.17082
1.17109
1.17134
1.17161
1.17188
1.17156
1.17106
1.17067
1.17029
1.16971
1.16945
1.1694
1.16959
1.1699
1.17029
1.1706
1.17086
1.17111
1.17136
1.17161
1.17188
1.17156
1.17109
1.17069
1.17031
1.16977
1.16944
1.1693
1.1694
1.16967
1.17004
1.17038
1.17065
1.17089
1.17113
1.17138
1.17163
1.17189
1.17156
1.17109
1.17071
1.17036
1.16985
1.16945
1.16924
1.16924
1.16945
1.16979
1.17016
1.17045
1.17069
1.17092
1.17114
1.17138
1.17162
1.17189
1.17156
1.17112
1.17076
1.17042
1.16994
1.16949
1.1692
1.16913
1.16927
1.16957
1.16992
1.17024
1.1705
1.17072
1.17094
1.17115
1.17139
1.17165
1.17189
1.17156
1.17114
1.1708
1.17045
1.17004
1.16957
1.1692
1.16905
1.16911
1.16935
1.16969
1.17002
1.1703
1.17053
1.17074
1.17095
1.17116
1.1714
1.17166
1.1719
1.17157
1.17116
1.17084
1.17049
1.17011
1.16964
1.16923
1.169
1.16899
1.16917
1.16946
1.16981
1.17011
1.17035
1.17056
1.17077
1.17096
1.17117
1.17141
1.17165
1.1719
1.17159
1.17119
1.17087
1.17053
1.17018
1.16974
1.16928
1.16899
1.16889
1.169
1.16926
1.1696
1.16991
1.17017
1.17039
1.17058
1.17077
1.17097
1.17118
1.17142
1.17166
1.17191
1.17159
1.17121
1.1709
1.1706
1.17024
1.16982
1.16935
1.16899
1.16883
1.16887
1.16907
1.16938
1.16972
1.16999
1.17022
1.17041
1.1706
1.17077
1.17097
1.17119
1.17142
1.17167
1.17192
1.17161
1.17125
1.17092
1.17063
1.17028
1.16989
1.16943
1.16902
1.16879
1.16877
1.16891
1.1692
1.1695
1.1698
1.17004
1.17025
1.17043
1.1706
1.17077
1.17097
1.17118
1.17142
1.17167
1.17192
1.17164
1.17127
1.17095
1.17067
1.17036
1.16997
1.16954
1.16908
1.16878
1.16868
1.16877
1.16901
1.16933
1.16962
1.16987
1.17009
1.17027
1.17044
1.1706
1.17077
1.17097
1.17119
1.17143
1.17168
1.17192
1.17163
1.17129
1.17098
1.1707
1.17043
1.17004
1.16963
1.16915
1.16879
1.16863
1.16865
1.16883
1.16913
1.16944
1.16971
1.16993
1.17012
1.17028
1.17045
1.17061
1.17078
1.17098
1.1712
1.17144
1.1717
1.17193
1.17165
1.17131
1.17101
1.17073
1.17046
1.17011
1.16972
1.16923
1.16883
1.1686
1.16857
1.16868
1.16895
1.16925
1.16954
1.16978
1.16998
1.17014
1.17029
1.17045
1.17061
1.17078
1.17098
1.17121
1.17145
1.17171
1.17193
1.17168
1.17134
1.17105
1.17081
1.1705
1.17017
1.1698
1.16932
1.16888
1.16859
1.16849
1.16856
1.16879
1.16908
1.16937
1.16962
1.16983
1.17
1.17015
1.17029
1.17044
1.1706
1.17078
1.17098
1.17121
1.17147
1.17173
1.17195
1.17168
1.17135
1.17109
1.17085
1.17056
1.17026
1.16988
1.16941
1.16894
1.1686
1.16844
1.16846
1.16863
1.16891
1.1692
1.16947
1.16969
1.16986
1.17001
1.17015
1.17029
1.17044
1.17059
1.17077
1.17098
1.17122
1.17148
1.17173
1.17195
1.17169
1.17138
1.17112
1.17087
1.17059
1.17029
1.16996
1.16951
1.16902
1.16864
1.16842
1.16839
1.1685
1.16875
1.16904
1.16932
1.16955
1.16973
1.16988
1.17001
1.17015
1.17028
1.17042
1.17058
1.17077
1.17098
1.17122
1.17149
1.17174
1.17195
1.17171
1.17142
1.17116
1.1709
1.17063
1.17034
1.17002
1.16962
1.16912
1.1687
1.16842
1.16832
1.16839
1.1686
1.16889
1.16917
1.16941
1.1696
1.16975
1.16988
1.17001
1.17014
1.17027
1.17041
1.17057
1.17076
1.17098
1.17123
1.1715
1.17174
1.17195
1.17171
1.17142
1.17118
1.17092
1.17068
1.17039
1.17008
1.16971
1.16924
1.16876
1.16844
1.16827
1.1683
1.16847
1.16874
1.16904
1.16929
1.16948
1.16963
1.16976
1.16988
1.17
1.17012
1.17025
1.1704
1.17056
1.17076
1.17098
1.17124
1.1715
1.17175
1.17195
1.17174
1.17144
1.17119
1.17095
1.17073
1.17043
1.17014
1.1698
1.16935
1.16887
1.16847
1.16825
1.16821
1.16834
1.16859
1.16889
1.16916
1.16936
1.16952
1.16965
1.16976
1.16987
1.16999
1.17011
1.17024
1.17038
1.17056
1.17076
1.17099
1.17125
1.17151
1.17175
1.17195
1.17173
1.17145
1.17122
1.17099
1.17077
1.17048
1.1702
1.16988
1.16946
1.16896
1.16853
1.16826
1.16815
1.16822
1.16844
1.16872
1.16901
1.16924
1.16941
1.16954
1.16965
1.16975
1.16985
1.16997
1.17009
1.17022
1.17037
1.17055
1.17075
1.17099
1.17125
1.17151
1.17175
1.17203
1.17195
1.17175
1.17148
1.17124
1.17104
1.1708
1.17054
1.17025
1.16996
1.16955
1.16908
1.16861
1.16828
1.16812
1.16813
1.1683
1.16858
1.16886
1.16911
1.16928
1.16941
1.16952
1.16962
1.16972
1.16983
1.16994
1.17007
1.1702
1.17036
1.17054
1.17075
1.17099
1.17125
1.17152
1.17185
1.17174
1.17203
1.17195
1.17176
1.1715
1.17126
1.17104
1.17081
1.17058
1.17029
1.17001
1.16966
1.16918
1.16869
1.16831
1.16811
1.16806
1.16819
1.16846
1.16875
1.16897
1.16913
1.16921
1.16929
1.16939
1.16952
1.16966
1.16978
1.16991
1.17004
1.17018
1.17034
1.17053
1.17075
1.17099
1.17138
1.17124
1.17163
1.17139
1.1715
1.17185
1.17174
1.17203
1.17194
1.17177
1.1715
1.17127
1.17107
1.17084
1.17064
1.17035
1.17008
1.16975
1.1693
1.1688
1.16837
1.16811
1.16802
1.1681
1.16835
1.16865
1.16885
1.16891
1.1688
1.16862
1.16858
1.16883
1.16919
1.16949
1.1697
1.16986
1.17001
1.17016
1.17033
1.17052
1.17074
1.17111
1.17097
1.17126
1.17162
1.17136
1.17149
1.17184
1.17173
1.17203
1.17193
1.17177
1.17151
1.17131
1.17109
1.17088
1.17064
1.17038
1.17014
1.16981
1.16941
1.16894
1.16846
1.16813
1.168
1.16804
1.16824
1.16854
1.16872
1.1686
1.16799
1.16692
1.16601
1.16615
1.1672
1.16834
1.16912
1.16954
1.16979
1.16996
1.17013
1.17031
1.17051
1.17085
1.17071
1.17112
1.17098
1.17122
1.1716
1.17135
1.17147
1.17182
1.1717
1.17202
1.17192
1.17177
1.17151
1.17133
1.1711
1.17089
1.17067
1.17043
1.17018
1.16988
1.1695
1.16903
1.16856
1.16817
1.16798
1.16798
1.16816
1.16843
1.16858
1.16825
1.16687
1.16433
1.16159
1.16022
1.1612
1.16398
1.16673
1.16841
1.16926
1.16966
1.16991
1.1701
1.17029
1.17059
1.17047
1.17085
1.17072
1.17108
1.17093
1.17121
1.17157
1.17132
1.17143
1.1718
1.17167
1.17202
1.1719
1.17176
1.17152
1.17132
1.17111
1.17091
1.17072
1.17046
1.17022
1.16993
1.16957
1.16917
1.16867
1.16825
1.16798
1.16791
1.16807
1.16835
1.16847
1.16792
1.16569
1.16149
1.15685
1.1538
1.15342
1.15571
1.16012
1.16477
1.16752
1.16887
1.1695
1.16984
1.17006
1.17035
1.17024
1.17059
1.17046
1.1708
1.17066
1.17106
1.17091
1.17117
1.17153
1.17128
1.17138
1.17178
1.17164
1.17201
1.17188
1.17176
1.17153
1.17132
1.17112
1.17094
1.17072
1.17047
1.17025
1.17
1.16964
1.16927
1.1688
1.16833
1.168
1.16787
1.16795
1.16825
1.16839
1.16771
1.16477
1.15896
1.15245
1.14785
1.14595
1.14689
1.15062
1.15656
1.16288
1.16663
1.16846
1.16931
1.16973
1.17013
1.17002
1.17034
1.17023
1.17053
1.17041
1.17077
1.17063
1.17102
1.17087
1.17112
1.17149
1.17123
1.17133
1.17174
1.17159
1.172
1.17186
1.17176
1.17154
1.17133
1.17114
1.17097
1.17072
1.17052
1.1703
1.17001
1.16969
1.16935
1.16892
1.16844
1.16806
1.16786
1.16786
1.16811
1.16833
1.16765
1.16429
1.1572
1.14892
1.14296
1.13971
1.13888
1.14068
1.1458
1.15354
1.16141
1.16586
1.16805
1.16904
1.16985
1.16963
1.17011
1.16998
1.17028
1.17016
1.17049
1.17034
1.17072
1.17056
1.17097
1.1708
1.17106
1.17143
1.17115
1.17125
1.1717
1.17154
1.17199
1.17183
1.17177
1.17155
1.17133
1.17113
1.17096
1.17074
1.17057
1.17032
1.17004
1.16975
1.16943
1.16903
1.16855
1.16813
1.16787
1.1678
1.16797
1.16822
1.16767
1.16422
1.15637
1.14671
1.13984
1.136
1.13369
1.13297
1.13509
1.14149
1.15115
1.16036
1.16518
1.16748
1.16923
1.16858
1.1698
1.16953
1.17001
1.1698
1.17017
1.16992
1.17037
1.17006
1.17061
1.1703
1.17088
1.17061
1.17095
1.17135
1.17102
1.17111
1.17166
1.17147
1.17197
1.17179
1.17177
1.17154
1.17135
1.17116
1.17098
1.17074
1.17058
1.17034
1.17008
1.16978
1.1695
1.16912
1.16867
1.16822
1.1679
1.16777
1.16786
1.16812
1.16778
1.16443
1.15618
1.1458
1.13949
1.13546
1.13241
1.12992
1.12849
1.13053
1.13808
1.14949
1.15932
1.16396
1.16727
1.16534
1.169
1.16786
1.16946
1.16878
1.16949
1.16871
1.16951
1.16848
1.16969
1.16845
1.17009
1.16891
1.17058
1.16972
1.17054
1.17122
1.17054
1.1706
1.1716
1.17136
1.17195
1.17175
1.17175
1.17153
1.17134
1.17116
1.17098
1.17077
1.17056
1.17033
1.17009
1.16981
1.16954
1.16921
1.16878
1.16832
1.16796
1.16777
1.16777
1.16801
1.16793
1.16517
1.1567
1.14656
1.14082
1.13695
1.1337
1.13031
1.12717
1.12489
1.12674
1.13544
1.14775
1.1566
1.16201
1.15944
1.16594
1.1625
1.1674
1.16485
1.16723
1.16476
1.16651
1.16342
1.16602
1.16199
1.16639
1.16152
1.16759
1.16313
1.16923
1.16587
1.16877
1.17077
1.16848
1.16849
1.17152
1.17101
1.17193
1.17169
1.17174
1.1715
1.17132
1.17115
1.17099
1.17083
1.17056
1.1704
1.17011
1.16982
1.16957
1.16929
1.16886
1.16843
1.16803
1.16778
1.16771
1.16789
1.16801
1.16615
1.15834
1.14817
1.14354
1.14057
1.13828
1.13408
1.1287
1.12432
1.12119
1.12302
1.13238
1.14362
1.14831
1.15927
1.15298
1.16159
1.15727
1.16158
1.15776
1.15962
1.15542
1.15692
1.15154
1.15488
1.14779
1.15503
1.14574
1.15866
1.14733
1.16399
1.15397
1.16243
1.16886
1.1615
1.16148
1.1713
1.16952
1.17191
1.17158
1.1717
1.17145
1.17128
1.17112
1.17097
1.17081
1.17056
1.17043
1.17012
1.16984
1.16959
1.16933
1.16897
1.16852
1.16812
1.16781
1.16769
1.16778
1.168
1.167
1.16073
1.15019
1.14593
1.14483
1.14619
1.14347
1.13594
1.12697
1.12087
1.11683
1.11842
1.12708
1.13397
1.14091
1.13306
1.15259
1.14656
1.15341
1.14836
1.15097
1.14626
1.14615
1.14094
1.14072
1.13411
1.13646
1.12806
1.13553
1.12412
1.13944
1.12493
1.14958
1.13258
1.14647
1.16244
1.14502
1.14538
1.17032
1.16413
1.17187
1.1711
1.17165
1.17137
1.1712
1.17105
1.17092
1.17077
1.17055
1.17042
1.17014
1.16986
1.1696
1.16935
1.16904
1.16863
1.16821
1.16787
1.16769
1.16769
1.16792
1.16757
1.16309
1.15257
1.14788
1.1483
1.15274
1.15086
1.14483
1.13604
1.12434
1.11644
1.11138
1.11194
1.11762
1.12646
1.11751
1.12998
1.12279
1.14277
1.13664
1.1413
1.13583
1.13591
1.13088
1.12814
1.12279
1.12025
1.1138
1.11469
1.10751
1.1128
1.10523
1.11602
1.10561
1.12678
1.10955
1.1232
1.14756
1.12206
1.12307
1.16622
1.15106
1.1717
1.16837
1.1716
1.17126
1.17108
1.17093
1.17083
1.17072
1.17054
1.1704
1.17016
1.16987
1.16961
1.1694
1.1691
1.16872
1.16831
1.16794
1.1677
1.16764
1.16781
1.16785
1.16516
1.15567
1.14957
1.15014
1.1568
1.15605
1.15114
1.14363
1.13331
1.12016
1.11065
1.10436
1.10233
1.11036
1.10317
1.11533
1.10742
1.11724
1.11042
1.12996
1.12378
1.12581
1.12042
1.11785
1.11313
1.10855
1.10422
1.10291
1.09975
1.10112
1.09885
1.10085
1.0991
1.10158
1.09923
1.10586
1.09933
1.10381
1.12609
1.10316
1.10426
1.15501
1.13112
1.17051
1.15907
1.17163
1.1712
1.17096
1.17078
1.17073
1.17068
1.17047
1.17029
1.1701
1.16986
1.16967
1.16941
1.16911
1.16878
1.1684
1.16802
1.16774
1.16761
1.16769
1.1679
1.16666
1.15933
1.15122
1.151
1.15852
1.1595
1.15562
1.14733
1.13759
1.12653
1.11365
1.10345
1.09555
1.08905
1.10082
1.09244
1.10343
1.09674
1.10345
1.09761
1.11485
1.1092
1.10857
1.104
1.10067
1.09755
1.09729
1.09517
1.09743
1.09608
1.09817
1.09792
1.09872
1.09944
1.09813
1.09935
1.09779
1.09764
1.09654
1.10762
1.0955
1.09507
1.13715
1.11296
1.16341
1.14321
1.17145
1.17097
1.17071
1.17059
1.17055
1.17032
1.17022
1.17008
1.16987
1.16968
1.16942
1.16914
1.16883
1.16848
1.16811
1.1678
1.16761
1.16762
1.16784
1.16749
1.16276
1.15332
1.15148
1.15854
1.16141
1.15908
1.1505
1.13918
1.12871
1.11788
1.10579
1.0949
1.08559
1.08222
1.08006
1.09051
1.08553
1.09195
1.0867
1.09106
1.08689
1.09956
1.09528
1.09462
1.0918
1.09315
1.09109
1.09474
1.09325
1.09763
1.0973
1.10142
1.10298
1.103
1.10644
1.10087
1.1065
1.09702
1.10202
1.09591
1.09579
1.09435
1.09285
1.12018
1.09933
1.16727
1.13957
1.17145
1.17084
1.17054
1.17035
1.17012
1.17012
1.17003
1.16987
1.16968
1.16945
1.16918
1.16887
1.16856
1.16819
1.16786
1.16763
1.16756
1.16771
1.1678
1.16536
1.15665
1.15201
1.15793
1.16212
1.16139
1.1554
1.14292
1.1306
1.1198
1.10833
1.09652
1.08673
1.07988
1.08111
1.07773
1.07772
1.08218
1.07917
1.08281
1.07936
1.0833
1.08035
1.08902
1.08622
1.08897
1.08676
1.09153
1.0895
1.09649
1.09476
1.10296
1.10168
1.10724
1.10665
1.10876
1.10888
1.10797
1.1093
1.10232
1.10833
1.10111
1.09187
1.0987
1.09679
1.09333
1.109
1.09281
1.1667
1.12958
1.17148
1.17073
1.17031
1.1699
1.16995
1.16994
1.16979
1.16963
1.16943
1.1692
1.16891
1.16862
1.16827
1.16793
1.16767
1.16754
1.1676
1.16782
1.16692
1.16065
1.15325
1.15619
1.16209
1.16249
1.15949
1.15242
1.13973
1.12592
1.11402
1.10255
1.09212
1.08417
1.07846
1.0805
1.07619
1.07693
1.07709
1.0761
1.07771
1.07579
1.07942
1.07698
1.08443
1.08197
1.08723
1.08474
1.09218
1.0893
1.09901
1.09563
1.10516
1.10248
1.10813
1.10683
1.10858
1.10617
1.10895
1.10484
1.10764
1.10769
1.10857
1.10357
1.10676
1.09517
1.09151
1.09337
1.10064
1.1046
1.10581
1.09909
1.10811
1.09695
1.09199
1.09089
1.09194
1.16049
1.10197
1.12567
1.10585
1.1715
1.17053
1.16986
1.16973
1.16978
1.16969
1.16954
1.16937
1.16919
1.16892
1.16863
1.16833
1.168
1.16772
1.16754
1.16753
1.16774
1.16759
1.16406
1.15586
1.15469
1.16153
1.16275
1.16161
1.15866
1.15191
1.14057
1.12647
1.11268
1.10152
1.0929
1.08578
1.09028
1.07882
1.08189
1.07599
1.07821
1.07511
1.0752
1.0753
1.0746
1.07704
1.07529
1.08218
1.07953
1.08624
1.08318
1.09197
1.08809
1.09884
1.09452
1.10489
1.10209
1.10452
1.10426
1.10302
1.10041
1.09891
1.09812
1.10488
1.10063
1.09616
1.09178
1.09635
1.10687
1.10747
1.10626
1.10361
1.10687
1.09701
1.09485
1.10296
1.10499
1.10602
1.1011
1.0936
1.09279
1.09102
1.09064
1.13111
1.11266
1.09577
1.09703
1.17145
1.1702
1.16948
1.16959
1.16955
1.16944
1.16929
1.16914
1.16892
1.16868
1.16835
1.16805
1.16777
1.16756
1.16748
1.1676
1.16775
1.16626
1.15957
1.15459
1.15957
1.16262
1.16238
1.16107
1.15874
1.15381
1.14586
1.13472
1.12231
1.11249
1.10932
1.09153
1.1015
1.0816
1.08619
1.07848
1.08253
1.07471
1.07574
1.07453
1.07475
1.07562
1.07493
1.08013
1.07752
1.08431
1.08094
1.09003
1.08589
1.09813
1.09352
1.10436
1.1028
1.09835
1.09935
1.101
1.10301
1.09386
1.09268
1.09265
1.09871
1.0932
1.08863
1.08359
1.08796
1.10252
1.10577
1.10178
1.09697
1.10525
1.09891
1.09653
1.10375
1.10469
1.10402
1.10224
1.09101
1.09408
1.09177
1.08998
1.09529
1.09991
1.17197
1.13628
1.09128
1.09103
1.1713
1.16968
1.16934
1.16937
1.16931
1.16919
1.16907
1.1689
1.16869
1.16835
1.16809
1.16781
1.16759
1.16746
1.1675
1.16773
1.16731
1.16325
1.15566
1.15704
1.16199
1.16242
1.16153
1.16109
1.16023
1.15845
1.15474
1.14879
1.14351
1.14259
1.12497
1.14125
1.10239
1.11326
1.08765
1.09416
1.08447
1.09044
1.07617
1.07961
1.07541
1.0774
1.07594
1.07686
1.07825
1.07636
1.08233
1.07949
1.08897
1.0851
1.09955
1.0955
1.10469
1.10584
1.10613
1.10577
1.09378
1.096
1.09897
1.1022
1.08659
1.08607
1.08689
1.0906
1.08438
1.08056
1.07511
1.07907
1.09572
1.10139
1.09507
1.08857
1.10132
1.10036
1.09805
1.10317
1.10138
1.10151
1.10206
1.08939
1.09542
1.09274
1.08987
1.08919
1.10267
1.16749
1.14173
1.08876
1.17087
1.16918
1.16916
1.16914
1.16906
1.16897
1.16886
1.16868
1.16838
1.16809
1.16785
1.16762
1.16746
1.16743
1.1676
1.16764
1.16581
1.15917
1.15639
1.16002
1.16212
1.16144
1.16118
1.16168
1.16269
1.1634
1.16288
1.16151
1.16132
1.1629
1.1442
1.15773
1.11719
1.12994
1.09768
1.1065
1.09429
1.10228
1.0817
1.08743
1.07972
1.08478
1.07949
1.08335
1.07782
1.07786
1.08238
1.08122
1.09168
1.08935
1.10478
1.10332
1.10185
1.10105
1.10516
1.10752
1.1087
1.109
1.08917
1.09271
1.09707
1.10171
1.07932
1.07952
1.08145
1.08147
1.07524
1.07295
1.06738
1.07045
1.08729
1.095
1.08682
1.07933
1.09547
1.10073
1.09894
1.10151
1.09631
1.09737
1.10104
1.08846
1.09653
1.09365
1.09021
1.08785
1.09032
1.1098
1.16529
1.14193
1.16945
1.16895
1.16892
1.1689
1.16885
1.16878
1.16864
1.16841
1.16807
1.16785
1.16764
1.16747
1.16739
1.16748
1.16767
1.16709
1.16299
1.15692
1.15785
1.16109
1.16106
1.16047
1.16118
1.16264
1.16457
1.16612
1.16693
1.16727
1.16785
1.16751
1.16869
1.15913
1.16538
1.1348
1.14832
1.11157
1.12239
1.10765
1.11726
1.09134
1.09902
1.08917
1.09633
1.08866
1.09503
1.08169
1.08419
1.08864
1.08926
1.10129
1.10137
1.1086
1.10767
1.10643
1.10514
1.10599
1.10949
1.11199
1.11315
1.08499
1.08986
1.09562
1.10165
1.07258
1.07384
1.07696
1.07223
1.0666
1.06641
1.06105
1.06275
1.07811
1.08712
1.07781
1.0701
1.08817
1.10006
1.09883
1.09835
1.08982
1.09185
1.09903
1.08815
1.09701
1.09427
1.09066
1.08785
1.0928
1.1139
1.16631
1.14527
1.16876
1.16866
1.16869
1.1687
1.16867
1.16858
1.16839
1.16806
1.16784
1.16765
1.16748
1.16737
1.16739
1.16759
1.16754
1.16566
1.15936
1.15737
1.15918
1.16043
1.15944
1.1594
1.16088
1.16324
1.16559
1.16734
1.1683
1.1687
1.16902
1.16886
1.16908
1.16591
1.16812
1.1516
1.16077
1.128
1.13979
1.12298
1.13308
1.1045
1.11342
1.10258
1.11067
1.1031
1.11037
1.09215
1.09683
1.10256
1.10502
1.11332
1.11379
1.11614
1.11465
1.11351
1.11351
1.11325
1.11315
1.10723
1.11197
1.1156
1.11804
1.08181
1.08797
1.09506
1.10223
1.06692
1.06948
1.07391
1.06365
1.05907
1.06104
1.05618
1.05659
1.06896
1.07845
1.06881
1.06161
1.08003
1.09887
1.09805
1.09392
1.08241
1.08539
1.09564
1.08814
1.09659
1.09435
1.09092
1.08824
1.09506
1.11767
1.16895
1.15184
1.16846
1.16846
1.16853
1.16855
1.16849
1.16834
1.16808
1.16781
1.16765
1.16748
1.16736
1.16733
1.16745
1.16762
1.167
1.16313
1.1579
1.15796
1.15931
1.15891
1.15789
1.1582
1.15988
1.1628
1.16602
1.16794
1.16866
1.16894
1.16916
1.16909
1.16917
1.16919
1.16828
1.16898
1.16153
1.16625
1.14348
1.15352
1.13682
1.14563
1.11924
1.128
1.11786
1.12544
1.12153
1.12803
1.10966
1.1151
1.11811
1.12106
1.12906
1.12253
1.12359
1.12639
1.12483
1.11953
1.12042
1.12109
1.12176
1.10904
1.11503
1.11986
1.12346
1.08003
1.08746
1.09562
1.10393
1.06289
1.06667
1.07241
1.05627
1.05302
1.0571
1.0525
1.05205
1.06054
1.0697
1.06047
1.05432
1.07168
1.09664
1.09671
1.08853
1.07466
1.07846
1.0914
1.08815
1.09567
1.09384
1.09095
1.08864
1.09706
1.12249
1.17087
1.15918
1.16814
1.16831
1.16837
1.16836
1.16825
1.16805
1.16775
1.16762
1.16748
1.16735
1.16729
1.16735
1.16757
1.16748
1.16573
1.16027
1.15791
1.15825
1.15843
1.15722
1.15646
1.15709
1.15929
1.16255
1.16617
1.16825
1.16879
1.16901
1.1692
1.16913
1.16927
1.16926
1.16909
1.16926
1.16639
1.16842
1.15413
1.16154
1.14793
1.1555
1.13294
1.1404
1.13435
1.14074
1.14475
1.14963
1.13453
1.1393
1.12791
1.12877
1.14808
1.15072
1.13343
1.13539
1.14004
1.13758
1.1261
1.12815
1.12992
1.13162
1.11177
1.11881
1.12469
1.12937
1.07976
1.08821
1.09747
1.10663
1.06039
1.06536
1.0722
1.05032
1.04873
1.05485
1.05042
1.04873
1.05329
1.06148
1.05322
1.04846
1.06371
1.0936
1.0948
1.08258
1.06711
1.07149
1.08659
1.08804
1.09439
1.09294
1.09076
1.08891
1.09886
1.12865
1.17167
1.16463
1.1679
1.1681
1.16815
1.1681
1.16795
1.16773
1.16756
1.16746
1.16734
1.16726
1.16727
1.16743
1.16757
1.16701
1.16371
1.15869
1.15796
1.15791
1.1571
1.15576
1.15528
1.15648
1.15911
1.16287
1.16692
1.16848
1.16887
1.16912
1.16905
1.16924
1.16917
1.16935
1.1693
1.16936
1.16937
1.16866
1.16922
1.16243
1.16688
1.15986
1.16498
1.14702
1.15354
1.15398
1.15814
1.16113
1.16195
1.15317
1.1558
1.15966
1.14259
1.14522
1.15687
1.15804
1.14438
1.14694
1.15177
1.14945
1.13312
1.13628
1.13912
1.14177
1.11538
1.12322
1.12988
1.13533
1.08066
1.09029
1.10036
1.11036
1.05914
1.06508
1.07281
1.04616
1.04586
1.05375
1.0495
1.04664
1.04742
1.05427
1.04731
1.04424
1.05656
1.09
1.09229
1.07648
1.06016
1.06497
1.08155
1.0878
1.09278
1.09161
1.09024
1.08896
1.1006
1.13513
1.17186
1.1664
1.16768
1.16782
1.16785
1.16778
1.16764
1.16746
1.16741
1.16732
1.16724
1.16722
1.16731
1.16753
1.16746
1.166
1.16147
1.15825
1.15777
1.15716
1.15574
1.1545
1.1545
1.15627
1.15948
1.164
1.16772
1.16864
1.16895
1.16916
1.1691
1.16929
1.16922
1.1694
1.16935
1.16946
1.16944
1.16937
1.16946
1.16776
1.16897
1.16744
1.16872
1.16195
1.16515
1.1639
1.16549
1.16157
1.16167
1.16065
1.15893
1.15942
1.16126
1.16099
1.15379
1.15546
1.15995
1.16022
1.1526
1.15476
1.15786
1.15652
1.13983
1.14368
1.14705
1.15003
1.11967
1.12792
1.13487
1.14049
1.08209
1.09264
1.10365
1.11423
1.05869
1.06525
1.07345
1.04347
1.04388
1.05346
1.04924
1.04589
1.043
1.04827
1.04268
1.04154
1.05049
1.08613
1.08945
1.07065
1.05422
1.05931
1.0767
1.0874
1.09086
1.09013
1.08937
1.08882
1.1015
1.13648
1.17145
1.16386
1.16745
1.16755
1.16755
1.16748
1.16738
1.16732
1.16727
1.16721
1.16717
1.16722
1.16739
1.16754
1.16709
1.16449
1.1597
1.15793
1.15727
1.15592
1.15446
1.15353
1.15418
1.15649
1.1606
1.16555
1.16823
1.16876
1.16908
1.16899
1.16921
1.16915
1.16936
1.16928
1.16946
1.16941
1.16953
1.1695
1.16956
1.16956
1.1693
1.16951
1.16913
1.16946
1.16721
1.16842
1.16242
1.16402
1.15518
1.1563
1.14385
1.14595
1.16048
1.16068
1.15479
1.15488
1.15879
1.15943
1.15802
1.15705
1.15568
1.15704
1.15862
1.15805
1.14501
1.14868
1.15159
1.1539
1.12385
1.13215
1.13889
1.14408
1.0834
1.09466
1.10627
1.11729
1.05864
1.06538
1.07378
1.04154
1.0429
1.05352
1.04909
1.04555
1.04015
1.04355
1.03941
1.03966
1.04576
1.08221
1.0864
1.06557
1.04956
1.05489
1.0722
1.08682
1.08857
1.0884
1.08821
1.08835
1.1007
1.13099
1.15935
1.14401
1.16725
1.16731
1.16732
1.16729
1.16727
1.1672
1.16717
1.16713
1.16715
1.16726
1.1675
1.16746
1.16636
1.16284
1.15874
1.15747
1.15634
1.15468
1.15339
1.15293
1.1542
1.15743
1.16228
1.16716
1.1685
1.16886
1.16912
1.16904
1.16927
1.1692
1.16942
1.16935
1.16951
1.16947
1.16958
1.16955
1.16963
1.16961
1.1696
1.16963
1.16901
1.16948
1.16628
1.16797
1.1484
1.15023
1.15044
1.14211
1.14247
1.12677
1.12922
1.15614
1.15534
1.14227
1.14296
1.15871
1.15851
1.15106
1.14888
1.15564
1.15616
1.15564
1.15607
1.148
1.15087
1.15299
1.1546
1.12686
1.13471
1.14097
1.1457
1.08386
1.09529
1.10721
1.11838
1.05888
1.06565
1.0739
1.04004
1.04179
1.05356
1.04839
1.04464
1.03814
1.04014
1.03742
1.03805
1.0425
1.07839
1.08329
1.06127
1.04642
1.05167
1.06828
1.08605
1.08604
1.08638
1.08673
1.08737
1.09786
1.11467
1.16216
1.12589
1.16713
1.16718
1.1672
1.16721
1.16714
1.16711
1.16709
1.16709
1.16716
1.16736
1.16752
1.16721
1.16531
1.16126
1.1581
1.15679
1.15528
1.15358
1.15257
1.15273
1.15485
1.15901
1.16448
1.168
1.16866
1.16897
1.16917
1.1691
1.16932
1.16925
1.16947
1.16941
1.16955
1.16951
1.16962
1.16958
1.16971
1.16967
1.16966
1.16973
1.16679
1.16878
1.15679
1.16277
1.13286
1.13779
1.13092
1.12467
1.12582
1.12572
1.10871
1.11088
1.14667
1.14461
1.12653
1.12847
1.15447
1.15289
1.14116
1.13791
1.15297
1.15254
1.14934
1.1512
1.14903
1.15115
1.15239
1.15302
1.12796
1.1358
1.14192
1.14619
1.08369
1.09485
1.10662
1.11791
1.05901
1.06552
1.0733
1.03859
1.04051
1.05279
1.04706
1.04353
1.03671
1.03802
1.03636
1.03684
1.04035
1.0749
1.0801
1.05818
1.04411
1.04931
1.06512
1.085
1.0832
1.08414
1.0851
1.08609
1.09272
1.10216
1.16948
1.13183
1.16702
1.16707
1.16711
1.16708
1.16703
1.16704
1.16704
1.16708
1.16722
1.16747
1.16748
1.16672
1.16411
1.16
1.15753
1.15595
1.15421
1.15269
1.15206
1.15301
1.15616
1.16125
1.16678
1.16838
1.16878
1.16911
1.16915
1.169
1.16922
1.16938
1.1693
1.16949
1.16944
1.16959
1.16954
1.16971
1.16965
1.16982
1.16977
1.16954
1.16977
1.15984
1.16621
1.13512
1.14894
1.11437
1.119
1.11543
1.1079
1.10855
1.10813
1.09179
1.09361
1.13454
1.13137
1.11022
1.11329
1.14707
1.14421
1.12901
1.12487
1.14831
1.14635
1.14061
1.14383
1.14876
1.14986
1.15001
1.14966
1.1279
1.13606
1.1421
1.14574
1.08232
1.0927
1.10398
1.11532
1.05802
1.06399
1.07092
1.03754
1.03989
1.05123
1.04626
1.04279
1.03606
1.03718
1.03625
1.03637
1.03914
1.07168
1.07696
1.05544
1.04241
1.04697
1.06225
1.08377
1.08044
1.08179
1.08334
1.0844
1.08814
1.09718
1.17051
1.13343
1.16691
1.16699
1.16698
1.16696
1.16695
1.16698
1.16702
1.16711
1.16732
1.16751
1.16733
1.16602
1.16294
1.15918
1.15682
1.15503
1.15321
1.15204
1.15197
1.15395
1.15821
1.16406
1.16787
1.16856
1.16888
1.16919
1.16915
1.16906
1.16927
1.16941
1.16934
1.16953
1.16947
1.16967
1.1696
1.16981
1.16974
1.16986
1.16987
1.16887
1.1697
1.14551
1.15995
1.10699
1.11709
1.12571
1.09703
1.10184
1.09942
1.0926
1.09259
1.09169
1.07748
1.07894
1.12075
1.11687
1.09495
1.09807
1.13704
1.13314
1.11482
1.11017
1.14101
1.13752
1.1291
1.13352
1.14692
1.14688
1.14614
1.14391
1.12579
1.13448
1.14054
1.14271
1.07866
1.08744
1.09724
1.1076
1.05583
1.06087
1.06636
1.0377
1.04015
1.05002
1.04722
1.04337
1.03623
1.03741
1.03699
1.0368
1.03952
1.06877
1.07406
1.05297
1.04265
1.04665
1.05965
1.08223
1.07755
1.07917
1.08136
1.08243
1.08462
1.09376
1.16311
1.12109
1.16684
1.16687
1.1669
1.16687
1.16691
1.16695
1.16702
1.16718
1.16744
1.16749
1.16703
1.16522
1.16195
1.15853
1.1561
1.15416
1.15239
1.15167
1.15246
1.15565
1.16098
1.16674
1.1683
1.16869
1.16898
1.16924
1.16919
1.16911
1.16931
1.16945
1.16938
1.1696
1.16952
1.16975
1.16967
1.16988
1.16982
1.16986
1.16993
1.16701
1.16935
1.12739
1.14962
1.09564
1.1044
1.11558
1.1034
1.08214
1.08677
1.08783
1.08106
1.07865
1.07764
1.06618
1.06759
1.10579
1.10174
1.08068
1.08334
1.12438
1.11962
1.09905
1.09446
1.13021
1.12522
1.11458
1.11996
1.14276
1.14177
1.13872
1.13479
1.11773
1.12653
1.13275
1.13436
1.07207
1.07822
1.08497
1.0923
1.05404
1.05812
1.06217
1.03873
1.04242
1.05161
1.05304
1.04734
1.0382
1.03854
1.03901
1.04052
1.04106
1.06585
1.07095
1.05147
1.04447
1.04822
1.05735
1.08047
1.07461
1.07678
1.07931
1.08034
1.08184
1.08674
1.11121
1.08798
1.16675
1.1668
1.16681
1.16681
1.16688
1.16694
1.16706
1.16728
1.16749
1.16742
1.16659
1.16441
1.16113
1.15794
1.15545
1.15333
1.15184
1.15171
1.15371
1.15817
1.16435
1.16787
1.16849
1.16879
1.16907
1.16916
1.16928
1.16924
1.16935
1.16951
1.16942
1.16967
1.16959
1.16981
1.16974
1.16993
1.16987
1.16978
1.16996
1.16337
1.16857
1.10717
1.11214
1.1251
1.13887
1.08675
1.09486
1.09787
1.07072
1.0753
1.07949
1.07307
1.06636
1.06595
1.05722
1.05937
1.0903
1.08655
1.06762
1.0695
1.10924
1.10405
1.08266
1.07857
1.11525
1.10933
1.09772
1.10343
1.13388
1.13103
1.12656
1.12117
1.09985
1.10673
1.11214
1.11465
1.06573
1.06915
1.07229
1.07511
1.05627
1.06108
1.06324
1.04383
1.05033
1.05729
1.05521
1.05327
1.04138
1.04127
1.04406
1.04428
1.04464
1.06344
1.06847
1.05255
1.04824
1.05149
1.05728
1.0787
1.07233
1.07486
1.07741
1.07845
1.07888
1.07875
1.11458
1.0784
1.16669
1.16674
1.16673
1.16678
1.16687
1.16696
1.16713
1.1674
1.1675
1.16725
1.16609
1.16364
1.16045
1.15738
1.15482
1.15254
1.15162
1.15245
1.15583
1.16146
1.16698
1.16827
1.16861
1.16889
1.1692
1.1692
1.16924
1.1691
1.16932
1.16929
1.16939
1.16957
1.16949
1.16972
1.16965
1.16986
1.16979
1.16998
1.16992
1.16962
1.16997
1.15838
1.16732
1.10332
1.11102
1.12078
1.1351
1.08221
1.08957
1.09527
1.06268
1.0674
1.07543
1.06886
1.05574
1.056
1.04999
1.05323
1.07505
1.07195
1.05604
1.05705
1.09231
1.0873
1.06678
1.0635
1.09645
1.09059
1.07965
1.08499
1.11459
1.1132
1.10819
1.10265
1.07756
1.0797
1.08115
1.0824
1.06632
1.06797
1.06895
1.06953
1.05934
1.06051
1.08205
1.0473
1.07794
1.08028
1.0783
1.07811
1.04874
1.04641
1.04935
1.04818
1.04927
1.06222
1.06691
1.05381
1.05119
1.052
1.05809
1.07708
1.07089
1.07367
1.07588
1.07669
1.07597
1.07469
1.12004
1.07537
1.16665
1.16667
1.16667
1.16678
1.16687
1.16701
1.16723
1.16747
1.16747
1.167
1.16552
1.16297
1.15985
1.15685
1.15409
1.15198
1.15186
1.15407
1.15885
1.16519
1.16795
1.16844
1.16871
1.16897
1.16928
1.16924
1.16933
1.16914
1.16936
1.16945
1.16962
1.16954
1.16976
1.16969
1.1699
1.16983
1.17002
1.16997
1.16939
1.16998
1.15531
1.16612
1.10262
1.11127
1.12015
1.12107
1.13156
1.14238
1.0813
1.08809
1.09528
1.05751
1.0628
1.07483
1.06799
1.04652
1.0478
1.04435
1.04874
1.06087
1.05863
1.04618
1.04634
1.07493
1.07055
1.05227
1.04995
1.07428
1.07004
1.06167
1.06623
1.0835
1.08405
1.08332
1.07848
1.06963
1.06942
1.06837
1.06737
1.0817
1.08045
1.08041
1.07881
1.08069
1.07962
1.10187
1.07668
1.10181
1.1026
1.10175
1.10202
1.07508
1.04926
1.07472
1.07296
1.07439
1.06226
1.06694
1.05693
1.0755
1.05969
1.07696
1.06
1.07572
1.07062
1.07312
1.07475
1.075
1.07393
1.07248
0.885059
1.06787
1.16659
1.16661
1.16666
1.16678
1.1669
1.16709
1.16734
1.16749
1.16739
1.16667
1.16497
1.16235
1.15929
1.15624
1.15309
1.15187
1.1529
1.15668
1.16266
1.16735
1.16826
1.16855
1.1688
1.16905
1.16937
1.16933
1.16928
1.1694
1.16918
1.16951
1.16966
1.16958
1.16981
1.16973
1.16995
1.16988
1.17008
1.17003
1.16932
1.17
1.1556
1.16597
1.10385
1.11344
1.12393
1.13558
1.1434
1.0827
1.08875
1.09769
1.05429
1.06086
1.07603
1.0687
1.03913
1.04118
1.0402
1.04575
1.0483
1.04705
1.03786
1.03745
1.05839
1.05493
1.03983
1.03868
1.05282
1.05019
1.04563
1.0489
1.06476
1.06126
1.06041
1.05613
1.07853
1.07623
1.0758
1.07438
1.10086
1.09891
1.09853
1.09579
1.10294
1.10065
1.12864
1.10143
1.12973
1.12982
1.12954
1.12965
1.10096
1.07309
1.10057
1.09992
1.10035
1.06506
1.0675
1.06087
1.10069
1.07761
1.10104
1.06487
1.07451
1.07118
1.0732
1.07408
1.07359
1.07229
1.07071
0.487035
1.03372
1.16654
1.16657
1.16667
1.16681
1.16695
1.16718
1.16744
1.16749
1.16724
1.16631
1.16442
1.16177
1.15874
1.15513
1.15234
1.15234
1.15501
1.16023
1.16624
1.16803
1.1684
1.16865
1.16888
1.16911
1.16921
1.16947
1.16941
1.16937
1.16932
1.16955
1.1697
1.16962
1.16985
1.16978
1.17001
1.16993
1.17011
1.17008
1.1694
1.17002
1.15857
1.1667
1.10729
1.11754
1.12869
1.13993
1.1468
1.0868
1.09227
1.10237
1.05267
1.06075
1.08024
1.07151
1.03339
1.03613
1.03739
1.04414
1.03803
1.03753
1.0315
1.03052
1.04366
1.04168
1.03231
1.03148
1.04713
1.04316
1.03785
1.04063
1.07258
1.05873
1.05521
1.05093