/*--------------------------------*- C++ -*----------------------------------*\
  =========                 |
  \\      /  F ield         | OpenFOAM: The Open Source CFD Toolbox
   \\    /   O peration     | Website:  https://openfoam.org
    \\  /    A nd           | Version:  dev
     \\/     M anipulation  |
\*---------------------------------------------------------------------------*/
FoamFile
{
    version     2.0;
    format      ascii;
    class       volScalarField;
    location    "2500";
    object      T;
}
// * * * * * * * * * * * * * * * * * * * * * * * * * * * * * * * * * * * * * //

dimensions      [0 0 0 1 0 0 0];

internalField   nonuniform List<scalar> 
9842
(
300.103
300.151
300.124
300.159
300.235
300.118
300.165
300.289
300.239
300.093
300.143
300.317
300.33
300.23
300.083
300.14
300.337
300.379
300.312
300.203
300.082
300.146
300.337
300.423
300.398
300.284
300.167
300.072
300.15
300.32
300.432
300.458
300.38
300.263
300.166
300.073
300.136
300.311
300.442
300.508
300.468
300.364
300.243
300.155
300.065
300.133
300.307
300.438
300.526
300.519
300.437
300.329
300.232
300.148
300.066
300.132
300.298
300.431
300.532
300.563
300.517
300.418
300.298
300.217
300.14
300.064
300.139
300.288
300.413
300.532
300.589
300.563
300.489
300.378
300.286
300.209
300.136
300.063
300.138
300.269
300.383
300.522
300.602
300.614
300.55
300.451
300.359
300.275
300.202
300.132
300.058
300.136
300.268
300.378
300.507
300.61
300.639
300.608
300.531
300.422
300.34
300.266
300.198
300.13
300.058
300.137
300.263
300.37
300.48
300.613
300.662
300.65
300.589
300.491
300.4
300.326
300.258
300.194
300.126
300.056
300.129
300.256
300.358
300.456
300.605
300.672
300.687
300.64
300.56
300.461
300.382
300.314
300.252
300.19
300.125
300.057
300.127
300.248
300.352
300.449
300.589
300.675
300.712
300.688
300.619
300.524
300.438
300.368
300.307
300.248
300.185
300.121
300.053
300.128
300.249
300.346
300.437
300.568
300.672
300.728
300.727
300.673
300.588
300.493
300.42
300.358
300.3
300.245
300.183
300.122
300.055
300.127
300.241
300.333
300.422
300.545
300.661
300.735
300.755
300.72
300.644
300.555
300.473
300.407
300.35
300.295
300.241
300.181
300.116
300.054
300.126
300.235
300.322
300.414
300.52
300.641
300.735
300.775
300.76
300.7
300.611
300.528
300.457
300.398
300.345
300.293
300.24
300.179
300.114
300.053
300.123
300.228
300.312
300.402
300.501
300.621
300.727
300.787
300.791
300.745
300.67
300.582
300.506
300.444
300.391
300.339
300.289
300.238
300.176
300.114
300.051
300.118
300.221
300.304
300.39
300.48
300.596
300.714
300.79
300.814
300.789
300.722
300.635
300.556
300.49
300.435
300.385
300.337
300.288
300.235
300.174
300.112
300.049
300.115
300.215
300.296
300.371
300.464
300.573
300.694
300.788
300.83
300.821
300.769
300.69
300.605
300.536
300.477
300.429
300.382
300.337
300.288
300.232
300.173
300.111
300.046
300.11
300.204
300.288
300.363
300.454
300.555
300.673
300.78
300.839
300.846
300.811
300.737
300.659
300.582
300.522
300.469
300.425
300.38
300.337
300.287
300.234
300.173
300.11
300.048
300.102
300.198
300.279
300.353
300.433
300.534
300.645
300.765
300.842
300.868
300.845
300.784
300.704
300.63
300.564
300.51
300.464
300.421
300.38
300.337
300.287
300.233
300.171
300.106
300.046
300.103
300.192
300.271
300.343
300.415
300.516
300.621
300.746
300.839
300.881
300.876
300.83
300.755
300.676
300.607
300.55
300.502
300.461
300.419
300.378
300.334
300.285
300.23
300.167
300.101
300.044
300.098
300.186
300.263
300.335
300.405
300.496
300.598
300.724
300.829
300.888
300.897
300.867
300.8
300.722
300.648
300.587
300.538
300.496
300.458
300.419
300.379
300.335
300.285
300.228
300.164
300.099
300.043
300.091
300.179
300.253
300.315
300.395
300.48
300.576
300.7
300.815
300.889
300.916
300.897
300.841
300.767
300.692
300.627
300.575
300.532
300.494
300.458
300.42
300.38
300.336
300.285
300.227
300.161
300.096
300.04
300.09
300.174
300.242
300.305
300.379
300.457
300.554
300.675
300.797
300.886
300.927
300.923
300.879
300.809
300.735
300.667
300.612
300.567
300.529
300.494
300.459
300.422
300.383
300.338
300.285
300.225
300.158
300.094
300.039
300.086
300.167
300.234
300.297
300.371
300.448
300.534
300.649
300.777
300.876
300.933
300.942
300.912
300.849
300.775
300.705
300.647
300.601
300.563
300.529
300.495
300.461
300.425
300.385
300.339
300.285
300.223
300.156
300.092
300.038
300.08
300.155
300.222
300.29
300.36
300.434
300.518
300.621
300.75
300.859
300.932
300.958
300.94
300.886
300.812
300.741
300.68
300.633
300.595
300.562
300.53
300.498
300.465
300.428
300.388
300.34
300.284
300.221
300.154
300.091
300.038
300.079
300.155
300.216
300.284
300.347
300.42
300.501
300.596
300.718
300.842
300.927
300.97
300.965
300.92
300.851
300.776
300.712
300.663
300.625
300.592
300.562
300.532
300.501
300.468
300.432
300.39
300.341
300.284
300.219
300.152
300.09
300.038
300.071
300.149
300.213
300.275
300.332
300.41
300.485
300.574
300.691
300.815
300.918
300.974
300.987
300.952
300.889
300.814
300.745
300.692
300.652
300.621
300.592
300.565
300.536
300.505
300.472
300.436
300.392
300.342
300.282
300.217
300.151
300.091
300.039
300.072
300.145
300.205
300.265
300.323
300.398
300.468
300.552
300.661
300.79
300.902
300.973
301.001
300.984
300.927
300.855
300.782
300.723
300.68
300.647
300.62
300.595
300.569
300.541
300.51
300.477
300.439
300.395
300.342
300.282
300.216
300.151
300.091
300.018
300.039
300.066
300.138
300.199
300.252
300.314
300.381
300.457
300.532
300.637
300.76
300.881
300.966
301.009
301.007
300.962
300.892
300.82
300.756
300.712
300.679
300.652
300.627
300.602
300.575
300.547
300.516
300.482
300.443
300.397
300.343
300.282
300.217
300.148
300.064
300.091
300.017
300.04
300.064
300.13
300.192
300.249
300.31
300.369
300.444
300.517
300.607
300.732
300.858
300.957
301.01
301.023
300.99
300.923
300.847
300.792
300.752
300.729
300.711
300.686
300.653
300.619
300.587
300.555
300.522
300.487
300.447
300.399
300.344
300.283
300.184
300.217
300.121
300.181
300.153
300.065
300.092
300.018
300.042
300.061
300.129
300.19
300.243
300.301
300.354
300.43
300.5
300.584
300.7
300.83
300.941
301.009
301.032
301.012
300.95
300.872
300.822
300.807
300.833
300.881
300.891
300.828
300.736
300.661
300.608
300.567
300.531
300.493
300.45
300.401
300.346
300.251
300.286
300.214
300.122
300.188
300.155
300.067
300.096
300.02
300.044
300.059
300.127
300.179
300.237
300.29
300.352
300.42
300.484
300.567
300.673
300.794
300.918
301.004
301.038
301.027
300.976
300.901
300.854
300.883
301.039
301.308
301.54
301.506
301.238
300.95
300.754
300.648
300.587
300.542
300.499
300.454
300.404
300.319
300.353
300.249
300.283
300.224
300.127
300.191
300.162
300.071
300.101
300.021
300.047
300.059
300.125
300.174
300.233
300.287
300.345
300.408
300.471
300.55
300.647
300.769
300.89
300.991
301.042
301.041
300.997
300.927
300.889
300.973
301.321
301.965
302.665
303.016
302.765
302.057
301.358
300.933
300.72
300.618
300.556
300.506
300.459
300.384
300.415
300.318
300.351
300.26
300.296
300.228
300.135
300.199
300.171
300.076
300.109
300.022
300.051
300.06
300.123
300.176
300.23
300.282
300.331
300.399
300.46
300.536
300.628
300.732
300.863
300.971
301.041
301.06
301.018
300.949
300.917
301.056
301.62
302.69
303.879
304.667
304.767
304.176
303.043
301.856
301.158
300.817
300.659
300.574
300.517
300.444
300.472
300.384
300.416
300.331
300.365
300.265
300.303
300.237
300.145
300.209
300.183
300.083
300.119
300.024
300.056
300.059
300.119
300.175
300.226
300.273
300.33
300.395
300.452
300.517
300.609
300.707
300.828
300.95
301.035
301.07
301.049
300.972
300.936
301.107
301.853
303.337
305.016
306.214
306.712
306.468
305.496
303.957
302.338
301.385
300.923
300.707
300.601
300.5
300.529
300.447
300.476
300.398
300.43
300.339
300.375
300.275
300.313
300.248
300.157
300.223
300.197
300.091
300.13
300.027
300.062
300.059
300.118
300.171
300.22
300.265
300.33
300.381
300.439
300.514
300.596
300.686
300.797
300.922
301.02
301.071
301.072
301.009
300.952
301.122
301.975
303.789
305.935
307.498
308.359
308.58
308.103
306.754
304.736
302.714
301.58
301.026
300.776
300.571
300.625
300.505
300.537
300.461
300.494
300.41
300.447
300.351
300.391
300.288
300.33
300.264
300.171
300.241
300.217
300.101
300.144
300.03
300.07
300.057
300.115
300.171
300.222
300.268
300.324
300.368
300.433
300.505
300.581
300.663
300.768
300.892
301
301.069
301.087
301.044
300.978
301.117
301.992
304.002
306.512
308.323
309.346
309.964
310.156
309.588
307.89
305.356
302.983
301.754
301.169
300.728
300.891
300.583
300.652
300.531
300.583
300.491
300.555
300.441
300.518
300.379
300.458
300.311
300.378
300.294
300.191
300.275
300.253
300.113
300.162
300.034
300.079
300.057
300.116
300.165
300.214
300.262
300.323
300.365
300.427
300.495
300.572
300.644
300.742
300.861
300.976
301.06
301.094
301.072
301.005
301.089
301.937
304.049
306.751
308.416
309.487
310.306
310.975
311.36
310.812
308.792
305.79
303.248
302.063
301.223
301.711
300.786
301.073
300.671
300.842
300.661
300.858
300.656
300.917
300.61
300.924
300.51
300.808
300.385
300.604
300.395
300.225
300.397
300.381
300.128
300.19
300.039
300.09
300.059
300.119
300.167
300.213
300.261
300.314
300.369
300.429
300.49
300.564
300.634
300.718
300.831
300.951
301.043
301.094
301.093
301.032
301.052
301.75
303.914
306.549
308.063
309.09
309.96
310.87
311.718
312.337
311.832
309.493
306.242
303.947
302.559
303.217
301.559
302.433
301.19
301.837
301.233
301.859
301.414
302.199
301.538
302.564
301.444
302.682
301.14
302.272
300.727
301.577
300.842
300.339
300.916
300.913
300.15
300.277
300.044
300.104
300.063
300.125
300.172
300.216
300.256
300.3
300.368
300.411
300.487
300.561
300.626
300.699
300.809
300.922
301.025
301.091
301.108
301.062
301.032
301.501
303.492
306.128
307.345
308.129
308.737
309.857
311.302
312.492
313.344
312.843
310.311
307.323
306.093
303.258
304.878
302.665
303.771
302.667
303.645
303.169
304.248
303.861
305.251
304.386
306.225
304.346
306.761
303.413
306.347
302.054
304.621
302.452
300.82
302.688
302.693
300.205
300.654
300.051
300.132
300.07
300.136
300.182
300.223
300.26
300.303
300.367
300.401
300.483
300.556
300.62
300.689
300.781
300.896
301.002
301.081
301.114
301.091
301.034
301.287
302.881
305.601
306.716
307.004
306.648
307.362
309.36
311.772
313.431
314.538
314.098
311.735
309.881
308.034
310.124
304.978
306.55
304.767
306.079
305.398
306.626
306.653
308.024
308.084
309.838
309.213
311.462
309.459
312.53
308.422
312.309
305.759
310.249
306.571
302.448
306.951
306.857
300.452
302.017
300.06
300.255
300.083
300.155
300.2
300.239
300.274
300.312
300.37
300.403
300.475
300.548
300.616
300.682
300.762
300.868
300.977
301.065
301.113
301.112
301.053
301.14
302.276
304.981
306.203
306.096
304.939
305.43
307.006
309.332
312.483
314.646
316.046
315.887
314.312
311.901
314.342
310.947
312.895
307.543
309.167
307.93
309.382
309.359
310.705
311.441
312.892
313.585
315.359
315.113
317.109
315.637
317.746
314.747
317.642
311.809
316.54
312.781
306.289
313.092
312.818
301.487
305.378
300.102
300.943
300.097
300.183
300.232
300.269
300.296
300.325
300.373
300.408
300.47
300.546
300.613
300.668
300.745
300.845
300.951
301.046
301.109
301.126
301.083
301.07
301.749
304.18
305.761
305.614
303.891
304.084
305.355
307.32
310.062
313.623
316.247
318.006
318.575
316.32
318.334
314.941
317.138
314.413
316.3
310.952
312.625
312.072
313.539
314.243
315.546
316.818
318.03
318.399
319.292
318.904
319.547
318.982
319.477
318.775
319.441
317.572
319.413
318.146
312
318.329
318.022
304.355
310.643
300.403
303.309
300.089
300.198
300.262
300.306
300.321
300.335
300.388
300.437
300.485
300.547
300.597
300.665
300.742
300.828
300.926
301.024
301.099
301.131
301.111
301.057
301.371
303.237
305.333
305.392
303.45
303.199
304.194
306.347
308.917
311.886
315.414
318.262
320.502
322.365
318.995
321.385
318.256
320.152
318.249
319.904
315.069
316.637
316.813
318.093
319.032
319.917
319.991
320.597
319.951
320.336
319.742
319.814
319.586
319.381
319.752
319.408
319.848
319.891
320.203
317.08
320.5
320.622
309.033
315.594
302.199
307.431
300.133
300.256
300.324
300.357
300.368
300.426
300.453
300.49
300.544
300.595
300.661
300.734
300.813
300.906
301.002
301.083
301.131
301.131
301.073
301.16
302.361
304.786
305.265
303.443
302.707
303.305
305.521
308.494
311.296
314.247
317.605
320.687
323.369
324.347
324.98
321.938
323.381
321.52
323.037
321.777
322.981
319.348
320.566
320.752
321.562
321.173
321.765
320.72
321.147
319.898
319.992
318.825
318.387
318.377
317.416
318.977
317.398
320.069
318.652
320.382
320.419
320.828
321.257
313.607
319.413
301.219
308.385
300.134
300.291
300.368
300.417
300.479
300.478
300.502
300.544
300.593
300.654
300.724
300.803
300.884
300.98
301.066
301.126
301.144
301.106
301.083
301.699
303.926
305.127
303.6
302.527
302.714
304.249
307.504
310.784
313.72
316.892
320.225
323.039
325.034
324.676
325.664
325.668
324.354
325.237
324.168
325.179
324.021
324.887
322.363
323.174
322.378
323.017
321.639
322.225
320.223
320.718
318.393
318.757
317.194
317.362
316.767
316.739
316.985
316.619
318.568
316.887
318.907
321.539
319.588
320.131
321.119
316.691
321.268
301.363
311.052
300.125
300.32
300.428
300.535
300.521
300.525
300.563
300.606
300.659
300.718
300.793
300.867
300.959
301.047
301.116
301.149
301.134
301.077
301.305
302.898
304.804
304.046
302.535
302.432
303.2
305.021
308.346
312.05
315.311
318.516
321.485
323.785
325.451
324.855
326.117
325.902
325.85
326.143
325.664
326.232
325.159
325.876
323.694
324.411
322.881
323.604
321.457
322.285
319.513
320.475
317.78
318.535
316.951
317.314
316.822
317.5
316.717
317.872
317.078
317.071
316.82
318.215
317.324
320.592
321.641
321.108
319.042
317.929
317.588
319.48
316.939
320.084
321.502
321.818
321.517
302.94
318.66
312.107
317.57
300.122
300.369
300.543
300.576
300.564
300.589
300.627
300.672
300.72
300.788
300.865
300.944
301.029
301.102
301.148
301.152
301.099
301.135
302.028
304.128
304.432
302.676
302.365
302.656
303.412
305.153
308.124
311.898
315.679
318.805
321.262
323.314
322.013
325.348
324.449
326.178
325.524
326.433
326.41
326.374
326.586
325.859
326.379
324.349
325.126
323.172
324.061
321.521
322.638
319.565
320.794
317.859
318.648
317.966
318.04
318.387
319.126
319.551
319.776
317.859
319.06
320.332
321.586
320.278
317.298
317.129
317.469
318.218
317.294
320.068
320.684
318.388
317.819
317.531
318.911
321.041
321.273
321.779
321.888
310.634
315.671
320.42
320.059
300.133
300.454
300.64
300.614
300.623
300.653
300.692
300.731
300.788
300.852
300.936
301.014
301.088
301.144
301.164
301.133
301.095
301.469
303.174
304.457
303.177
302.398
302.461
302.795
303.392
304.661
306.731
309.676
313.028
315.728
316.611
321.653
318.808
324.531
323.195
325.446
324.259
326.554
326.251
326.606
326.541
326.281
326.487
324.952
325.72
323.734
324.717
322.084
323.28
319.769
321.083
318.013
318.451
319.711
319.428
318.962
318.393
320.991
321.332
321.339
319.604
321.178
322.495
323.958
322.688
318.522
317.605
318.73
320.098
317.75
319.528
320.205
318.167
317.907
318.092
318.59
321.782
320.902
321.565
322.079
320.556
319.242
300.035
309.25
321.705
321.777
300.173
300.587
300.676
300.668
300.686
300.718
300.749
300.792
300.848
300.936
301.005
301.076
301.135
301.169
301.158
301.1
301.205
302.235
304.18
303.826
302.56
302.45
302.678
302.79
303.009
303.466
304.418
305.964
307.346
307.588
312.303
307.942
318.559
315.516
322.771
320.898
323.694
321.966
326.123
325.112
326.348
325.762
326.192
325.922
325.509
326.067
324.316
325.147
322.392
323.511
319.368
320.52
317.92
317.596
317.515
317.614
321.017
320.381
319.537
318.622
323.087
323.24
323
321.924
323.724
324.845
326.448
325.28
320.453
318.84
320.637
322.507
318.859
319.12
319.772
318.332
318.842
318.802
318.642
322.248
320.521
321.285
322.111
322.306
318.459
301.161
307.809
322.43
300.283
300.718
300.723
300.729
300.75
300.774
300.804
300.85
300.927
301.004
301.067
301.126
301.168
301.175
301.133
301.121
301.583
303.277
303.992
303.063
302.525
302.701
302.767
302.64
302.383
302.2
302.333
302.68
302.73
302.328
307.166
303.651
314.431
310.961
319.894
317.401
320.86
318.59
324.502
322.835
325.082
323.604
325.148
324.022
325.638
325.629
324.304
324.643
321.612
322.284
317.89
318.302
318.715
318.941
317.788
317.124
316.794
316.711
322.342
321.324
320.076
318.761
325.209
325.15
324.586
324.573
326.408
327.091
328.752
327.833
322.877
320.656
323.011
325.201
320.523
319.017
319.521
318.801
320.281
319.978
318.931
322.515
320.204
321.025
322.012
322.692
321.98
316.46
301.717
307.756
300.648
300.777
300.786
300.791
300.805
300.823
300.859
300.92
301.009
301.064
301.119
301.165
301.185
301.164
301.114
301.259
302.3
303.856
303.616
302.788
302.797
302.95
302.766
302.394
301.904
301.511
301.304
301.22
301.072
301.157
300.859
303.292
301.698
309.657
306.087
315.986
313.008
317.082
314.413
321.706
319.512
322.331
320.279
322.482
320.651
324.508
323.777
322.487
322.309
318.871
318.85
316.821
317.079
317.425
317.788
317.555
316.575
315.878
315.555
323.552
322.143
320.489
318.776
327.201
326.828
325.906
327.3
328.984
329.045
330.659
330.144
325.557
322.924
325.645
327.932
322.62
319.209
319.556
319.697
322.142
321.555
319.502
322.605
320.07
320.849
321.883
322.691
321.263
315.322
301.46
306.876
300.825
300.85
300.843
300.842
300.85
300.874
300.924
301.009
301.066
301.117
301.161
301.19
301.185
301.134
301.145
301.622
303.226
303.739
303.278
302.959
303.213
303.224
302.844
302.243
301.645
301.201
300.959
300.857
300.777
300.818
300.761
301.563
301.003
305.234
302.871
311.485
308.332
312.849
310.119
317.966
315.475
318.507
316.239
318.362
316.324
321.478
320.139
318.513
317.821
315.506
315.376
314.724
315.138
315.456
315.456
315.527
315.554
317.208
315.885
314.879
314.206
324.48
322.686
320.648
318.612
328.891
328.125
326.804
329.87
331.26
330.662
332.142
332.017
328.272
325.455
328.316
330.486
324.989
319.546
319.775
320.961
324.291
323.421
320.468
322.607
320.19
320.827
321.806
322.577
320.615
314.281
300.794
305.165
300.901
300.901
300.886
300.882
300.897
300.937
301.003
301.074
301.117
301.16
301.192
301.2
301.169
301.127
301.282
302.264
303.603
303.588
303.244
303.35
303.612
303.533
303.103
302.354
301.537
301.049
300.866
300.797
300.74
300.758
300.739
300.733
300.964
300.787
302.678
301.478
307.359
304.738
309.121
306.794
313.873
311.488
314.253
312.181
313.246
311.48
316.521
315.011
314.183
313.375
311.203
312.973
312.684
311.925
312.346
313.796
313.553
313.367
313.186
316.702
315.038
313.707
312.724
325.001
322.833
320.489
318.133
330.103
328.965
327.248
332.114
333.111
331.861
333.267
333.407
330.81
328.049
330.828
332.71
327.456
320.18
320.158
322.51
326.57
325.447
321.682
322.605
320.452
320.972
321.797
322.462
320.044
312.961
300.31
303.274
300.985
300.94
300.925
300.929
300.959
301.011
301.089
301.122
301.16
301.194
301.21
301.196
301.139
301.16
301.603
302.994
303.6
303.514
303.471
303.782
303.98
303.819
303.254
302.419
301.497
300.971
300.835
300.779
300.731
300.749
300.712
300.716
300.76
300.716
301.442
300.928
304.581
302.676
306.193
304.226
310.16
308.173
309.78
308.081
307.026
305.747
309.734
308.464
311.513
311.281
306.153
305.465
310.028
309.504
308.269
308.921
312.005
311.45
310.973
310.514
315.94
313.995
312.39
311.122
325.077
322.615
319.959
317.372
330.858
329.355
327.305
333.941
334.431
332.545
333.904
334.429
333.025
330.52
333.042
334.514
329.845
321.048
320.702
324.239
328.82
327.509
323.07
322.634
320.818
321.23
321.854
322.383
319.533
311.292
300.108
301.884
301.046
300.995
300.983
300.997
301.036
301.094
301.138
301.164
301.196
301.217
301.214
301.176
301.137
301.279
302.116
303.399
303.588
303.603
303.812
304.16
304.284
303.976
303.301
302.339
301.308
300.912
300.814
300.751
300.767
300.721
300.739
300.693
300.705
300.691
300.689
300.868
300.727
302.45
301.317
303.105
301.799
306.43
304.733
304.618
303.547
302.781
302.573
304.831
304.15
303.157
307.595
306.903
303.875
303.573
307.124
306.453
305.194
305.799
310.115
309.269
308.515
307.812
314.94
312.789
310.985
309.524
324.809
322.01
319.134
316.328
331.234
329.433
327.121
335.228
335.321
332.876
334.184
335.075
334.836
332.72
334.87
335.827
332.015
322.081
321.422
326.029
330.917
329.46
324.539
322.702
321.278
321.611
322.004
322.366
319.038
309.553
300.062
301.436
301.104
301.066
301.06
301.079
301.116
301.163
301.177
301.201
301.223
301.228
301.206
301.147
301.165
301.535
302.687
303.512
303.638
303.797
304.164
304.485
304.486
304.03
303.204
302.05
301.105
300.872
300.793
300.741
300.756
300.707
300.726
300.68
300.692
300.665
300.669
300.689
300.665
301.095
300.789
301.176
300.852
302.573
301.756
302.075
301.669
302.668
302.643
302.902
303.346
303.22
302.748
302.816
304.671
304.239
303.083
303.015
304.978
304.421
303.621
303.966
308.327
307.311
306.425
305.649
313.759
311.514
309.648
308.153
324.387
321.333
318.203
315.254
331.362
329.375
326.924
336.063
335.935
332.962
334.259
335.304
336.213
334.57
336.31
336.666
333.879
323.2
322.238
327.757
332.729
331.172
325.962
322.819
321.829
322.036
322.251
322.405
318.781
309.194
300.164
302.079
301.162
301.138
301.138
301.156
301.183
301.198
301.212
301.229
301.239
301.228
301.183
301.144
301.257
301.916
303.14
303.596
303.767
304.117
304.495
304.736
304.568
303.972
302.919
301.655
300.975
300.842
300.759
300.783
300.727
300.743
300.69
300.711
300.665
300.676
300.646
300.655
300.639
300.641
300.705
300.653
300.75
300.665
301.234
300.929
302.45
302.044
304.307
304.018
307.257
306.706
302.949
302.896
304.408
304.385
303.382
303.218
303.577
303.826
304.182
303.833
303.425
303.572
306.96
305.999
305.243
304.643
312.617
310.374
308.577
307.206
323.999
320.749
317.465
314.408
331.373
329.331
326.821
336.666
336.234
332.935
334.299
335.403
337.103
336.035
337.334
337.252
335.345
324.341
323.119
329.277
334.162
332.517
327.292
322.985
322.489
322.533
322.585
322.541
319.007
310.659
303.227
307.202
301.213
301.198
301.197
301.205
301.212
301.229
301.238
301.249
301.245
301.216
301.155
301.164
301.442
302.335
303.386
303.713
304.007
304.438
304.771
304.892
304.563
303.731
302.488
301.246
300.908
300.815
300.75
300.771
300.712
300.729
300.673
300.692
300.651
300.661
300.633
300.642
300.621
300.626
300.63
300.621
300.778
300.661
301.47
301.042
306.064
305.588
305.533
307.715
307.62
311.813
311.151
304.061
304.267
307.673
307.492
303.401
303.452
305.374
305.94
304.193
304.058
304.191
304.082
306.177
305.429
304.879
304.463
311.798
309.689
308.025
306.78
323.858
320.563
317.197
314.104
331.294
329.242
326.78
337.13
336.577
332.915
334.507
335.678
337.732
337.102
337.953
337.754
336.358
325.458
324.021
330.569
335.131
333.5
328.458
323.209
323.22
323.116
323.013
322.822
319.811
315.1
302.51
312.031
301.246
301.231
301.228
301.227
301.245
301.252
301.259
301.26
301.242
301.192
301.149
301.226
301.709
302.739
303.551
303.889
304.28
304.721
304.984
304.944
304.396
303.325
301.926
301.033
300.868
300.788
300.736
300.756
300.698
300.717
300.662
300.676
300.642
300.651
300.623
300.633
300.602
300.612
300.614
300.597
301.338
300.837
303.891
302.36
310.172
308.858
310.693
312.385
312.071
312.097
316.781
316.177
306.518
307.058
311.879
311.353
304.493
304.9
307.965
308.826
304.881
304.993
305.821
305.339
305.91
305.356
305.033
304.869
311.5
309.397
307.773
306.651
323.902
320.684
317.357
314.229
331.246
329.274
326.949
337.58
336.969
333.144
334.908
336.012
338.174
337.758
338.277
338.125
337.02
326.485
324.952
331.504
335.837
334.218
329.398
323.51
324.041
323.761
323.483
323.189
321.275
318.587
300.658
310.432
301.273
301.261
301.251
301.26
301.274
301.272
301.272
301.261
301.226
301.162
301.16
301.35
302.012
303.061
303.697
304.107
304.557
304.953
305.116
304.872
304.056
302.751
301.344
300.939
300.837
300.752
300.743
300.778
300.723
300.684
300.704
300.656
300.667
300.631
300.644
300.6
300.616
300.572
300.585
300.643
300.586
303.108
301.485
309.57
305.924
315.208
313.931
314.915
317.008
316.825
316.942
321.576
321.056
309.723
310.574
316.358
315.505
306.414
307.163
311.207
312.328
306.092
306.603
308.113
307.262
305.979
305.691
305.651
305.74
311.513
309.325
307.725
306.767
324.294
321.292
318.092
314.938
331.537
329.725
327.646
337.899
337.145
333.612
335.135
336.227
338.361
338.008
338.294
338.26
337.382
327.434
325.868
332.326
336.348
334.917
330.249
323.864
324.841
324.44
323.988
323.677
322.59
319.996
300.399
310.002
301.3
301.283
301.285
301.291
301.293
301.286
301.278
301.255
301.201
301.153
301.197
301.527
302.311
303.274
303.882
304.344
304.816
305.12
305.141
304.628
303.53
302.035
301.066
300.891
300.81
300.732
300.742
300.765
300.711
300.675
300.693
300.645
300.661
300.61
300.628
300.576
300.593
300.561
300.561
300.811
300.604
306.82
303.079
317.263
314.457
312.102
320.076
318.713
319.4
321.347
321.346
321.607
325.749
325.32
313.449
314.516
320.668
319.778
309.059
310.097
315.08
316.37
308.005
308.929
311.181
309.995
306.457
306.467
306.66
307.244
312.079
309.744
308.135
307.562
325.355
322.796
319.986
317.068
332.193
330.654
328.994
337.832
337.052
333.961
334.815
336.029
338.297
337.915
338.043
338.11
337.234
328.289
326.711
333.056
336.235
334.972
331.012
324.307
325.676
325.194
324.559
324.244
323.605
320.97
302.269
313.336
301.319
301.312
301.306
301.315
301.305
301.295
301.276
301.237
301.17
301.156
301.272
301.732
302.564
303.441
304.066
304.57
305.029
305.219
305.013
304.189
302.818
301.353
300.958
300.859
300.784
300.719
300.73
300.751
300.7
300.666
300.683
300.628
300.647
300.591
300.609
300.557
300.573
300.563
300.545
301.281
300.691
311.649
305.746
320.478
317.991
314.874
318.275
324.381
323.03
322.724
324.699
325.402
325.699
329.117
328.694
317.596
318.738
324.803
324.025
312.459
313.757
319.494
320.803
310.883
312.228
315.141
313.662
307.546
307.806
308.612
309.655
314.268
311.873
310.202
309.771
327.287
325.468
323.497
321.383
332.716
331.464
330.23
337.487
336.303
333.44
332.94
334.739
337.644
337.537
337.375
336.888
336.729
329.142
327.613
333.472
335.643
334.454
331.679
324.813
326.523
325.877
325.147
324.848
324.409
322.987
316.044
322.627
301.342
301.329
301.328
301.33
301.312
301.296
301.266
301.212
301.156
301.174
301.383
301.936
302.773
303.591
304.235
304.784
305.173
305.207
304.689
303.54
301.96
301.066
300.91
300.831
300.761
300.739
300.709
300.718
300.69
300.65
300.674
300.611
300.63
300.575
300.593
300.544
300.559
300.582
300.537
302.205
300.888
317.215
315.828
312.269
308.573
323.039
320.699
319.843
327.757
326.394
325.161
327.058
329.061
329.186
331.838
331.182
322.001
323.086
328.679
328.114
316.625
318.08
324.213
325.415
314.95
316.593
319.865
318.247
309.899
310.66
311.863
313.327
319.234
317.302
315.8
315.108
329.154
328.132
327.197
326.36
331.993
330.507
329.84
335.821
333.745
331.61
332.222
332.827
336.595
336.646
335.724
335.659
335.564
329.835
328.325
333.11
334.425
333.409
331.654
325.322
327.167
326.422
325.689
325.394
325.267
325.305
315.102
325.41
301.358
301.345
301.349
301.338
301.315
301.292
301.247
301.18
301.154
301.216
301.511
302.132
302.947
303.735
304.398
304.99
305.23
305.016
304.141
302.697
301.291
300.965
300.878
300.807
300.728
300.728
300.717
300.753
300.698
300.706
300.681
300.635
300.655
300.597
300.616
300.562
300.579
300.532
300.546
300.623
300.534
303.48
301.203
318.299
316.14
313.446
309.577
324.363
322.224
320.585
330.175
328.753
326.359
328.315
332.287
332.21
334.064
333.063
326.458
327.382
332.192
331.88
321.412
322.861
328.916
329.909
320.215
321.895
325.083
323.519
315.125
315.509
316.903
318.457
325.641
325.016
324.593
324.234
328.913
328.422
328.14
327.973
330.985
330.628
324.006
334.692
325.18
324.508
325.094
325.142
334.219
334.977
334.025
334.402
334.078
330.153
328.743
332.706
333.493
333.261
331.39
325.784
327.569
326.75
326.123
325.903
326.113
326.494
313.62
326.293
301.369
301.364
301.364
301.338
301.314
301.279
301.223
301.16
301.161
301.278
301.654
302.304
303.1
303.874
304.587
305.136
305.168
304.596
303.363
301.746
301.046
300.921
300.852
300.785
300.706
300.719
300.696
300.743
300.687
300.665
300.622
300.642
300.585
300.604
300.551
300.568
300.52
300.533
300.679
300.532
304.271
301.505
318.495
316.073
313.622
313.369
310.526
307.645
324.628
322.652
320.582
331.75
330.14
326.536
328.575
335.138
334.743
335.82
334.453
330.709
331.394
335.238
335.185
326.476
327.782
333.326
334.05
326.64
327.906
330.434
329.051
323.918
323.762
323.979
325.397
327.95
328.018
328.34
328.643
324.132
324.519
324.531
325.026
324.394
324.737
318.129
325.551
318.116
317.906
318.147
318.063
326.022
334.07
326.127
326.677
326.23
330.119
328.709
331.726
325.896
330.834
325.461
330.794
326.173
327.612
326.879
326.431
326.386
326.71
327.141
395.019
328.532
301.384
301.379
301.368
301.336
301.306
301.259
301.194
301.155
301.181
301.362
301.793
302.461
303.244
304.03
304.847
305.164
304.897
303.921
302.39
301.198
300.967
300.892
300.829
300.766
300.685
300.695
300.708
300.678
300.733
300.649
300.611
300.631
300.575
300.593
300.538
300.556
300.506
300.518
300.698
300.526
304.198
301.543
318.15
315.47
312.588
309.449
307.376
324.217
322.459
319.894
332.737
330.726
326.18
328.36
337.455
336.812
337.123
335.382
334.565
334.96
337.851
337.974
331.438
332.5
337.192
337.563
333.097
333.911
335.346
334.317
329.432
330.498
330.766
332.074
325.107
325.8
325.924
326.342
318.427
318.993
319.105
319.903
317.812
318.485
310.545
318.22
310.24
310.22
310.297
310.267
318.346
326.624
318.454
318.656
318.512
329.247
328.526
330.493
318.414
325.274
318.315
329.283
326.508
327.429
326.843
326.609
326.789
327.187
327.659
704.776
339.163
301.397
301.39
301.366
301.329
301.293
301.235
301.168
301.156
301.217
301.455
301.934
302.608
303.385
304.317
305.042
305.042
304.353
303.009
301.479
301.025
300.93
300.868
300.808
300.75
300.725
300.66
300.674
300.685
300.698
300.64
300.601
300.621
300.562
300.582
300.523
300.543
300.497
300.505
300.677
300.519
303.432
301.358
317.184
314.337
311.3
308.293
306.483
323.022
321.443
318.567
333.234
330.761
324.938
327.52
339.274
338.406
338.008
335.886
337.775
337.941
339.868
340.174
335.973
336.6
339.562
339.835
334.827
336.071
337.763
336.882
326.87
331.23
332.321
333.649
320.002
320.484
320.726