/*--------------------------------*- C++ -*----------------------------------*\
  =========                 |
  \\      /  F ield         | OpenFOAM: The Open Source CFD Toolbox
   \\    /   O peration     | Website:  https://openfoam.org
    \\  /    A nd           | Version:  dev
     \\/     M anipulation  |
\*---------------------------------------------------------------------------*/
FoamFile
{
    version     2.0;
    format      ascii;
    class       volVectorField;
    location    "2500";
    object      U;
}
// * * * * * * * * * * * * * * * * * * * * * * * * * * * * * * * * * * * * * //

dimensions      [0 1 -1 0 0 0 0];

internalField   nonuniform List<vector> 
9842
(
(0.00416283 0.00719279 0)
(0.00967587 0.00663577 -5.23416e-29)
(0.00403768 0.0181537 0)
(0.0128654 0.00581788 0)
(0.0104466 0.018721 -1.57469e-27)
(0.00333392 0.0255648 0)
(0.0149376 0.00482599 0)
(0.0143602 0.0185583 -1.70439e-27)
(0.00970781 0.0267719 0)
(0.00263517 0.0311811 7.33109e-29)
(0.0161701 0.00410723 8.64903e-28)
(0.0166001 0.0174913 0)
(0.0145414 0.0278153 -2.0122e-27)
(0.00820902 0.0323344 -1.8294e-27)
(0.00218131 0.0359647 -1.55819e-27)
(0.0167249 0.00351913 7.79102e-28)
(0.0176169 0.0156006 0)
(0.017843 0.0279513 -2.26501e-27)
(0.013387 0.0340336 -2.15025e-27)
(0.00676387 0.0367796 -1.96237e-27)
(0.00189607 0.0401573 0)
(0.0168732 0.00305604 0)
(0.0179204 0.0135563 0)
(0.0197143 0.0269862 0)
(0.0175972 0.0354264 -2.23587e-28)
(0.0115369 0.0383228 0)
(0.00579938 0.0406724 -2.1276e-27)
(0.00170032 0.0438967 -2.01867e-27)
(0.0167201 0.00268216 0)
(0.017841 0.0116568 0)
(0.0203842 0.0251441 1.18989e-28)
(0.0205774 0.0360015 2.50254e-27)
(0.0160385 0.040287 -1.15518e-28)
(0.00983152 0.0418269 -2.13359e-27)
(0.00513302 0.044308 -2.36397e-27)
(0.0015368 0.047344 -2.32208e-27)
(0.0163291 0.00240437 0)
(0.0174647 0.0101139 -2.34339e-28)
(0.0201859 0.022784 -1.18027e-27)
(0.022261 0.0354534 2.67709e-27)
(0.0198228 0.0420212 0)
(0.0139372 0.0436516 -1.18881e-28)
(0.00856089 0.0451373 -2.29087e-27)
(0.00461227 0.0476611 -5.24805e-27)
(0.00141272 0.0504762 0)
(0.015755 0.0022173 0)
(0.0168608 0.00899831 1.17738e-28)
(0.0194752 0.0201813 -1.24205e-27)
(0.0227736 0.0338976 -1.29804e-28)
(0.0226019 0.0430238 0)
(0.0179331 0.0457725 0)
(0.0120979 0.0465238 -2.77654e-27)
(0.00764943 0.0482381 -2.48336e-27)
(0.0042401 0.0507088 -3.70511e-28)
(0.00132862 0.0534425 -3.12479e-27)
(0.0150417 0.00214079 0)
(0.016105 0.00819712 0)
(0.0185044 0.0176101 1.23094e-28)
(0.0224052 0.0315366 1.48969e-28)
(0.0242633 0.0428814 0)
(0.0214418 0.0477409 0)
(0.0157369 0.0483951 0)
(0.0107445 0.0492296 0)
(0.00700822 0.0510888 2.25639e-28)
(0.00398979 0.0536052 -4.00029e-27)
(0.00127548 0.0562969 -3.50572e-27)
(0.014222 0.00212603 0)
(0.015281 0.00753358 0)
(0.017389 0.0153601 0)
(0.021381 0.0286404 1.37257e-28)
(0.0247833 0.0417283 1.64606e-28)
(0.024109 0.049083 -1.98256e-27)
(0.0193326 0.0505621 0)
(0.0139071 0.050618 2.83256e-27)
(0.0097807 0.0518166 0)
(0.00656534 0.0538361 -3.23164e-27)
(0.00383265 0.0564116 -7.59838e-27)
(0.00124713 0.0590863 -3.92251e-27)
(0.0132737 0.002117 2.4498e-28)
(0.0143887 0.00694771 0)
(0.0162593 0.0136439 -1.13131e-28)
(0.0200006 0.0255328 -9.88648e-28)
(0.0244012 0.0396535 1.54983e-28)
(0.0258066 0.0494794 -1.20711e-27)
(0.0225741 0.0526904 1.4201e-27)
(0.0171259 0.0524401 2.86616e-27)
(0.0125709 0.0528385 0)
(0.00909289 0.0543516 -3.23215e-27)
(0.0062754 0.0564983 -3.0627e-27)
(0.00376209 0.0591545 -8.00375e-27)
(0.00124502 0.0618505 -4.37235e-27)
(0.012232 0.00209719 4.63615e-28)
(0.0133989 0.00648356 -8.5746e-29)
(0.0151456 0.012432 0)
(0.0184246 0.0224823 -9.85467e-28)
(0.0232963 0.0369111 0)
(0.0263002 0.0487693 1.47952e-27)
(0.02513 0.0543582 2.02645e-27)
(0.02033 0.0546023 6.58303e-28)
(0.0153706 0.0541766 -1.63095e-28)
(0.0116152 0.0550673 0)
(0.00865479 0.0568132 0)
(0.00614078 0.0590994 -3.40104e-27)
(0.00377031 0.0618838 -3.99762e-27)
(0.00126923 0.0646712 0)
(0.0111598 0.00206814 4.38307e-28)
(0.0123313 0.00613844 0)
(0.0140252 0.0115091 -9.00264e-29)
(0.0168002 0.0197825 0)
(0.0216417 0.0338079 0)
(0.0260076 0.0472715 6.31016e-28)
(0.0267525 0.0553114 6.39005e-28)
(0.0232654 0.0568215 8.58951e-28)
(0.0181935 0.0558957 -1.4392e-27)
(0.01412 0.055996 -1.74132e-28)
(0.0110017 0.0572416 0)
(0.0084398 0.0592381 0)
(0.00615187 0.0617038 -3.77383e-27)
(0.00385204 0.0646736 -4.91427e-27)
(0.00131332 0.0675786 0)
(0.0101269 0.00203192 4.13138e-28)
(0.0112371 0.00588605 0)
(0.0128497 0.0107459 -7.33338e-29)
(0.0152588 0.017671 5.83451e-28)
(0.0196939 0.0305648 0)
(0.0248974 0.0448017 0)
(0.0273642 0.0549816 -1.86862e-27)
(0.0256549 0.0587942 8.63061e-28)
(0.020977 0.0579746 -2.69677e-27)
(0.016573 0.0571998 0)
(0.0132993 0.0577851 0)
(0.0106887 0.0594401 0)
(0.00842649 0.0616774 -4.25101e-27)
(0.00628739 0.0643637 -8.97195e-27)
(0.00401679 0.067568 -5.09745e-28)
(0.00137767 0.0706163 0)
(0.00917244 0.00201666 2.01011e-28)
(0.0101555 0.00572132 0)
(0.011631 0.0101469 -5.24596e-29)
(0.0137861 0.0161479 7.4178e-28)
(0.0176318 0.0274303 -1.10098e-28)
(0.0231334 0.0417988 0)
(0.0271375 0.0540369 3.3787e-35)
(0.0272724 0.0600582 -6.94247e-28)
(0.0235806 0.0602225 -6.0492e-28)
(0.0189981 0.0587347 1.73833e-28)
(0.015509 0.0585281 0)
(0.012857 0.0596708 0)
(0.0106321 0.0616633 0)
(0.00859756 0.0641791 -3.97111e-27)
(0.00655243 0.0671233 -4.63e-27)
(0.00423767 0.0706051 1.10093e-27)
(0.00146423 0.0738212 -5.67715e-27)
(0.00829707 0.0020356 1.92681e-28)
(0.00912923 0.0056238 2.25874e-28)
(0.0104617 0.00969542 0)
(0.0123516 0.0150382 5.335e-28)
(0.0156003 0.0246853 -1.8385e-28)
(0.0209371 0.0384995 -2.43043e-28)
(0.0261308 0.0522196 9.64152e-28)
(0.0279082 0.060478 -1.25821e-27)
(0.025746 0.0622999 -7.72063e-28)
(0.0213756 0.0606121 -6.84379e-28)
(0.0176294 0.0595125 2.82749e-34)
(0.0149059 0.060015 1.65863e-27)
(0.0127431 0.0616099 -4.38966e-28)
(0.0108231 0.0639583 0)
(0.0089467 0.0667774 -4.40196e-27)
(0.00693203 0.0700602 -5.80188e-27)
(0.00449257 0.0738141 -4.17031e-27)
(0.00156966 0.0772436 8.88159e-27)
(0.00754357 0.0020704 2.5798e-28)
(0.0082059 0.00555747 3.6311e-28)
(0.00939007 0.00934142 6.37388e-32)
(0.011014 0.0142001 1.73795e-28)
(0.0137241 0.0224693 2.9949e-28)
(0.0185708 0.0351267 3.6764e-28)
(0.024335 0.0495121 6.52475e-28)
(0.0276629 0.0599422 -1.23098e-27)
(0.0272344 0.0639563 3.24579e-37)
(0.0235644 0.062721 8.60936e-28)
(0.0196539 0.0607962 3.13387e-27)
(0.0168156 0.0605194 1.50815e-27)
(0.0147072 0.0615897 0)
(0.0129447 0.0636249 -8.01475e-37)
(0.0112529 0.0663695 0)
(0.00946331 0.0695644 -5.71067e-27)
(0.00739455 0.073195 7.95705e-32)
(0.00479795 0.0772313 7.1433e-27)
(0.00169125 0.0808984 9.89287e-28)
(0.00693057 0.00210412 0)
(0.00741672 0.00551678 4.32373e-28)
(0.00842844 0.00907418 3.10184e-29)
(0.00980682 0.013585 9.64936e-29)
(0.0120561 0.0207284 1.58001e-28)
(0.0162321 0.0319036 3.836e-28)
(0.0220847 0.0464084 2.39057e-28)
(0.0268655 0.0588074 0)
(0.0279568 0.0648575 -3.60519e-28)
(0.0254088 0.0648561 2.14607e-28)
(0.0215468 0.0623993 2.18829e-27)
(0.0185661 0.0612267 2.06114e-27)
(0.0164976 0.0616454 2.33695e-27)
(0.014901 0.0632455 -1.98619e-27)
(0.0134482 0.0657836 1.03794e-27)
(0.0119063 0.068978 0)
(0.0101349 0.0725545 0)
(0.00793017 0.0765233 -7.92259e-28)
(0.00515649 0.0809053 -1.38167e-27)
(0.0018159 0.0848098 -1.0837e-27)
(0.00649532 0.00212453 1.84131e-28)
(0.0067875 0.005514 2.23706e-28)
(0.00757279 0.00891614 1.29679e-28)
(0.00873653 0.0131553 5.76745e-29)
(0.0105819 0.0193798 3.17305e-29)
(0.014039 0.0290915 0)
(0.0195628 0.0431016 -9.67131e-29)
(0.0251359 0.0567232 5.53157e-28)
(0.0276254 0.0650129 6.54644e-28)
(0.0266893 0.0667617 0)
(0.0232534 0.0643003 1.1263e-27)
(0.0201412 0.0621731 -2.17094e-27)
(0.0180834 0.061812 1.75412e-28)
(0.0166519 0.0628697 -1.5647e-27)
(0.0154717 0.0650742 -2.34212e-27)
(0.0142383 0.0681379 9.91674e-37)
(0.0127749 0.071792 5.10841e-27)
(0.0109372 0.0757783 -9.48205e-28)
(0.00853204 0.0801133 -9.24701e-27)
(0.0055402 0.084864 0)
(0.00193782 0.0889714 -1.17905e-27)
(0.00628571 0.00213865 3.60778e-28)
(0.00634467 0.00554655 0)
(0.00687557 0.00887212 9.40954e-29)
(0.00779227 0.0128628 -5.94284e-29)
(0.00926065 0.018387 -7.12183e-29)
(0.0120609 0.0268597 1.18942e-28)
(0.0169793 0.0398062 2.87003e-28)
(0.0228697 0.0540975 2.26391e-28)
(0.0268883 0.0644864 1.18434e-27)
(0.0272376 0.0681628 3.90238e-28)
(0.0246487 0.0663766 4.79072e-28)
(0.0215079 0.0634214 5.0823e-30)
(0.0194262 0.0621287 0)
(0.0181561 0.0625308 -2.36974e-27)
(0.0172577 0.0642882 2.50046e-28)
(0.0163954 0.0670952 -2.55626e-27)
(0.0153063 0.0707264 5.31604e-27)
(0.0138323 0.0748886 -1.11773e-27)
(0.011826 0.0792877 -7.57516e-27)
(0.00917653 0.084011 0)
(0.00592316 0.0890938 8.91678e-27)
(0.00204639 0.0933796 -9.24069e-27)
(0.00633015 0.00215689 0)
(0.00611435 0.00560143 3.56153e-28)
(0.00638477 0.00892546 9.63921e-29)
(0.00696351 0.0127207 9.66332e-29)
(0.00808666 0.0177505 -3.08222e-28)
(0.0102892 0.0252367 -1.54951e-28)
(0.0144579 0.03677 1.66354e-28)
(0.0202602 0.0512106 4.34005e-28)
(0.0252715 0.0632253 7.15227e-28)
(0.0270056 0.0690128 -3.49617e-28)
(0.0255775 0.068443 4.63516e-43)
(0.0226261 0.0649991 1.63659e-27)
(0.0204869 0.0626681 6.32603e-28)
(0.0193716 0.0622665 1.42115e-28)
(0.0187651 0.063457 -2.6465e-27)
(0.0183068 0.0659058 0)
(0.0176633 0.0693749 -2.80904e-27)
(0.0166228 0.0736294 0)
(0.0150334 0.0783107 0)
(0.0127681 0.0831398 1.04975e-27)
(0.00982398 0.0882221 8.78977e-27)
(0.00626928 0.093606 -9.44892e-27)
(0.00213161 0.097987 -9.64579e-27)
(0.00664066 0.0021692 -1.84421e-28)
(0.00613362 0.005675 2.16057e-28)
(0.00612697 0.0090581 1.76731e-28)
(0.00633011 0.0127635 1.35644e-28)
(0.00707338 0.0174066 9.071e-29)
(0.0087259 0.0241323 -3.17739e-28)
(0.0120802 0.034218 -3.85261e-29)
(0.0174527 0.0482882 5.15479e-29)
(0.0229551 0.0613605 0)
(0.0261661 0.0692336 1.21144e-27)
(0.0258088 0.0702294 -4.20944e-28)
(0.0234085 0.0668863 -1.40966e-28)
(0.0212451 0.0635053 6.44486e-28)
(0.0202116 0.0621091 -8.60984e-28)
(0.019934 0.0625829 1.54649e-27)
(0.0199232 0.0645666 3.1903e-27)
(0.0198042 0.067802 -8.58476e-27)
(0.0192641 0.0720068 0)
(0.0181465 0.0769089 -1.37975e-27)
(0.0163175 0.0821168 -9.55131e-27)
(0.0137093 0.0873563 0)
(0.010423 0.0927605 9.3718e-27)
(0.00654079 0.0983413 -1.16092e-26)
(0.00218222 0.102769 -9.95286e-27)
(0.00723531 0.00218329 -1.9072e-28)
(0.00642263 0.00578252 2.54138e-28)
(0.00610914 0.00926081 -2.15545e-28)
(0.00597587 0.0129604 3.50803e-28)
(0.00627317 0.0172599 -3.75537e-28)
(0.00742086 0.0234266 -4.43854e-28)
(0.00995422 0.0322643 0)
(0.0146395 0.0454854 -7.80864e-28)
(0.0202699 0.0592049 2.24625e-28)
(0.0244016 0.0688783 -2.25984e-28)
(0.0253598 0.0717665 1.45837e-27)
(0.0238238 0.0689954 -1.5776e-28)
(0.0216511 0.0647048 4.72445e-29)
(0.0206764 0.062185 7.45118e-28)
(0.0206715 0.0617533 1.65627e-27)
(0.0211291 0.0630944 1.62989e-27)
(0.0216135 0.0659675 2.62231e-27)
(0.0217038 0.0700558 -6.48219e-27)
(0.0211537 0.0750553 0)
(0.0198327 0.0806371 -9.74769e-27)
(0.0176347 0.0863632 -1.2733e-27)
(0.0145984 0.0919334 -2.20881e-27)
(0.010918 0.0975821 0)
(0.00670314 0.103279 -1.20077e-26)
(0.00218384 0.107626 0)
(0.00810089 0.00220824 1.23168e-28)
(0.00698385 0.00592353 -2.9126e-28)
(0.00634089 0.0095359 5.7131e-28)
(0.00589999 0.0132535 -4.3126e-28)
(0.00575976 0.01731 3.466e-28)
(0.006385 0.0230524 -3.36017e-29)
(0.0081748 0.0309169 -5.9882e-28)
(0.0119699 0.0429694 -6.61542e-28)
(0.0173595 0.056922 -5.09836e-28)
(0.0220891 0.0680005 3.03208e-28)
(0.0242826 0.0728677 -5.33383e-28)
(0.0236404 0.0711666 3.70446e-28)
(0.0216523 0.0663164 8.37514e-28)
(0.0206872 0.0625479 0)
(0.0208979 0.0610036 7.78771e-43)
(0.0218722 0.0615313 2.13133e-27)
(0.0230135 0.0638858 5.90525e-27)
(0.0238517 0.0677531 -7.45021e-27)
(0.0240098 0.0727765 0)
(0.0232911 0.0786151 7.49602e-27)
(0.0216001 0.0848706 -1.49583e-27)
(0.0189066 0.091035 -9.94717e-27)
(0.0153621 0.0968715 -2.2033e-27)
(0.0112433 0.102657 0)
(0.00671876 0.108321 -3.36561e-27)
(0.00212024 0.112455 5.62042e-27)
(0.00923387 0.00222361 1.38989e-28)
(0.00783317 0.00607938 2.06215e-28)
(0.00687849 0.00985428 -7.96567e-28)
(0.00609797 0.0135881 4.9479e-28)
(0.00555529 0.0175725 1.31354e-27)
(0.00562459 0.0229685 -1.28378e-27)
(0.00676243 0.0301042 -7.18957e-28)
(0.00957586 0.0409375 2.75245e-28)
(0.0143645 0.0546622 -1.54565e-28)
(0.0193692 0.0668122 0)
(0.0224893 0.0735532 -8.15466e-28)
(0.0226691 0.0732604 -8.79705e-28)
(0.0211786 0.0683702 0)
(0.0202007 0.0633238 9.0656e-28)
(0.0206359 0.0604563 -8.17278e-29)
(0.0220781 0.0599257 -1.01935e-27)
(0.0239342 0.0615673 -1.0869e-27)
(0.0255966 0.0650606 8.80393e-27)
(0.0266154 0.0700337 -4.25259e-27)
(0.0266537 0.0760744 -3.83086e-27)
(0.0255787 0.0827741 3.51433e-27)
(0.0233489 0.0896417 -1.51876e-27)
(0.0200314 0.0961655 0)
(0.0159053 0.102138 -1.08937e-26)
(0.0113273 0.107916 -3.64352e-27)
(0.00653112 0.113365 -5.00791e-28)
(0.00196987 0.117113 5.24686e-27)
(0.0106503 0.00223017 0)
(0.00896823 0.00623911 2.03336e-28)
(0.00774293 0.0101667 6.54603e-28)
(0.00662863 0.0139404 -7.52432e-28)
(0.00569792 0.0180009 8.47945e-28)
(0.00520948 0.0231181 4.29856e-28)
(0.00570009 0.0297304 1.22437e-28)
(0.00758069 0.0395081 -4.6839e-28)
(0.0115141 0.0525709 2.64642e-28)
(0.0164061 0.0654525 -1.31482e-28)
(0.0200761 0.0739037 -1.28135e-27)
(0.0211166 0.0752803 -1.21819e-27)
(0.0202465 0.0708281 -3.23011e-28)
(0.0191804 0.064629 -2.3239e-27)
(0.0197257 0.0602688 -1.44861e-27)
(0.0215721 0.0584334 2.12331e-27)
(0.0241551 0.0590755 1.80031e-27)
(0.0267851 0.0619777 0)
(0.0288303 0.0667594 4.87194e-27)
(0.029843 0.0729575 -4.58425e-27)
(0.0295531 0.0800762 -7.68494e-27)
(0.0279067 0.0876025 0)
(0.0249549 0.094994 0)
(0.0208883 0.101729 -9.08442e-27)
(0.0161251 0.107688 0)
(0.011081 0.113268 9.80612e-29)
(0.00607659 0.118265 0)
(0.00171781 0.1214 0)
(0.0123173 0.00224601 -8.24543e-28)
(0.010364 0.00639986 3.99527e-28)
(0.00890125 0.0104497 -7.17048e-28)
(0.00748967 0.0143317 8.18234e-28)
(0.00617225 0.0185232 -2.15454e-28)
(0.00520355 0.023473 -1.22458e-27)
(0.00499972 0.0297439 8.30365e-28)
(0.00603861 0.0386636 9.76709e-28)
(0.00898376 0.0507886 1.08112e-27)
(0.0134127 0.0640763 2.73447e-28)
(0.0173053 0.0739413 -2.68139e-27)
(0.0190668 0.0771873 -1.85273e-27)
(0.0187389 0.0735601 -1.72652e-27)
(0.0176293 0.0665482 -1.74199e-27)
(0.0180763 0.0605975 -4.62575e-27)
(0.0202419 0.0572038 -7.78633e-28)
(0.0235443 0.0565387 5.16526e-28)
(0.0272251 0.0585543 0)
(0.0304901 0.0629144 0)
(0.0327106 0.0691502 0)
(0.0334687 0.0766815 -4.28626e-27)
(0.0325888 0.0848832 6.74571e-28)
(0.0301338 0.0931587 -9.46097e-27)
(0.0262745 0.100923 0)
(0.0213477 0.107707 2.31694e-27)
(0.0158979 0.11344 -7.41876e-28)
(0.0104056 0.118566 -4.28098e-27)
(0.00529959 0.122834 -4.59284e-27)
(0.00134325 0.125105 0)
(0.0142122 0.00225388 4.33053e-28)
(0.0120244 0.00653479 -3.25082e-28)
(0.0103307 0.0107006 0)
(0.0086426 0.014782 -7.26206e-28)
(0.0069619 0.0191365 0)
(0.00557517 0.0240266 -1.1147e-27)
(0.00471799 0.0300351 -3.72007e-27)
(0.00500107 0.0382926 1.01945e-27)
(0.00688721 0.0494639 -5.02563e-28)
(0.0105393 0.0627919 0)
(0.0143708 0.0738386 -2.77869e-28)
(0.0165811 0.0788996 0)
(0.0166049 0.0764971 0)
(0.0155553 0.0691691 0)
(0.0157721 0.061599 -5.12102e-28)
(0.0180573 0.0563924 2.20626e-27)
(0.0219712 0.0540953 -6.98538e-28)
(0.0267298 0.054861 -2.45953e-27)
(0.0313812 0.0584944 -1.93831e-27)
(0.0350747 0.0645577 3.08865e-27)
(0.0371827 0.0724322 5.74667e-27)
(0.0373699 0.0813577 6.90443e-28)
(0.0355996 0.0905924 -5.40205e-27)
(0.0320856 0.0994712 -3.48675e-27)
(0.0271323 0.107437 0)
(0.0212451 0.114023 -7.38541e-27)
(0.0150811 0.119256 1.546e-27)
(0.00918571 0.123631 1.11891e-30)
(0.00413244 0.126861 -3.04543e-27)
(0.000810258 0.128047 0)
(0.0163029 0.00224169 -1.43786e-26)
(0.0139375 0.00662854 4.3235e-28)
(0.0120259 0.0109369 3.30003e-27)
(0.0100961 0.0152576 3.05454e-27)
(0.00810221 0.0197827 -2.96134e-27)
(0.00628784 0.0246737 0)
(0.00490796 0.0306113 1.47783e-27)
(0.00443925 0.0383222 -4.27856e-27)
(0.00531257 0.0486837 -2.44336e-27)
(0.00800247 0.0616867 7.12348e-28)
(0.0114644 0.0737129 4.98644e-27)
(0.0137996 0.0805319 -4.97743e-28)
(0.0140536 0.0796829 0)
(0.0130266 0.0725183 0)
(0.0128119 0.0634722 -5.7636e-27)
(0.0149544 0.0562408 -2.53665e-27)
(0.0192958 0.0519562 3.78672e-27)
(0.0250891 0.0510251 -4.35218e-28)
(0.0312604 0.0535265 2.38374e-27)
(0.0367003 0.0591068 2.79529e-27)
(0.0405095 0.0671711 4.33288e-27)
(0.0421259 0.0768234 1.21747e-26)
(0.0413704 0.08714 -4.37665e-27)
(0.0383936 0.0972761 8.74377e-28)
(0.0335692 0.106581 -7.17117e-27)
(0.0273622 0.114475 -1.77208e-27)
(0.0204377 0.120567 6.77126e-31)
(0.0135727 0.124985 7.73676e-28)
(0.00736397 0.128278 1.39329e-27)
(0.00246953 0.130032 -4.01494e-26)
(0.000323404 0.130305 0)
(0.0185444 0.00221568 -1.40322e-26)
(0.016042 0.00669181 -1.58663e-26)
(0.0139707 0.0111562 0)
(0.0118397 0.0156962 -4.45479e-27)
(0.00958754 0.0203791 9.62385e-27)
(0.00740967 0.0253853 -1.69198e-27)
(0.00557051 0.0313614 2.52749e-27)
(0.00435647 0.0386011 -5.03364e-27)
(0.00437523 0.0484251 -2.21888e-27)
(0.00598477 0.0608435 0)
(0.00879137 0.0736282 3.48014e-27)
(0.0109694 0.0821101 0)
(0.0112951 0.083099 0)
(0.0101155 0.0765799 0)
(0.00928161 0.0664016 -1.26214e-34)
(0.0109262 0.0570511 -7.33403e-27)
(0.01539 0.0504333 -8.27785e-27)
(0.0220469 0.047303 0)
(0.0298182 0.0481174 0)
(0.0372883 0.0527567 2.03372e-27)
(0.0432081 0.0607377 7.93848e-27)
(0.0466872 0.0710586 -5.57174e-27)
(0.0473488 0.082554 -6.78758e-27)
(0.0452302 0.0941499 -7.02537e-27)
(0.0406874 0.105011 -7.85409e-27)
(0.0342873 0.114446 9.76404e-28)
(0.0266758 0.121933 4.11761e-27)
(0.0186696 0.127158 8.66931e-28)
(0.0111114 0.130427 0)
(0.00473752 0.132229 -4.44154e-26)
(0.000458603 0.131865 0)
(-0.000680591 0.130942 -2.63052e-26)
(0.0209135 0.00217531 1.57799e-26)
(0.0183087 0.00671773 -1.6528e-26)
(0.0161231 0.0113218 8.98763e-28)
(0.0138521 0.0160587 -1.06068e-27)
(0.0113823 0.0209258 2.03845e-32)
(0.00893097 0.0261272 7.28908e-27)
(0.00669043 0.0321222 1.91149e-27)
(0.00483583 0.039191 0)
(0.00402957 0.048573 -9.6276e-27)
(0.00456584 0.0603297 -1.14012e-26)
(0.00650284 0.073623 0)
(0.00830602 0.0836273 0)
(0.0085037 0.0866548 0)
(0.00696861 0.0813272 0)
(0.00532746 0.0705594 2.56313e-27)
(0.00604913 0.0591633 0)
(0.0101626 0.0499414 0)
(0.017357 0.0440844 0)
(0.0266494 0.0424987 0)
(0.0364275 0.0455395 0)
(0.0449488 0.0529794 -1.38276e-27)
(0.0508337 0.0637934 -1.02452e-27)
(0.0533846 0.0765148 -3.19218e-27)
(0.0525595 0.0897641 1.73696e-27)
(0.0486646 0.102466 -9.97834e-27)
(0.0422415 0.113757 1.08879e-27)
(0.0340712 0.122967 0)
(0.0249728 0.129692 3.13765e-27)
(0.0158935 0.133681 1.60555e-27)
(0.00768969 0.135462 -6.23012e-28)
(0.00116267 0.135242 3.99393e-27)
(-0.00150779 0.132715 -3.61125e-26)
(-0.0014842 0.129164 -1.24563e-26)
(0.0233516 0.0021264 0)
(0.0207014 0.00669575 3.09588e-26)
(0.0184534 0.011407 -9.35621e-27)
(0.0161032 0.0163162 4.55364e-27)
(0.013478 0.0214222 0)
(0.0108098 0.0268069 6.96411e-27)
(0.0082367 0.032856 -1.1431e-27)
(0.00588778 0.0400069 0)
(0.00422258 0.0489377 -1.78481e-30)
(0.00387392 0.0602839 -1.03429e-26)
(0.00476521 0.0736803 1.33313e-26)
(0.00603466 0.0851157 0)
(0.00591848 0.0902866 -3.55426e-27)
(0.00390971 0.0866989 -1.73087e-27)
(0.00124822 0.0759773 1.8746e-26)
(0.000592745 0.0628684 -2.42746e-27)
(0.00369352 0.0509392 0)
(0.0108287 0.0419005 6.86843e-27)
(0.0213184 0.0371026 -2.83957e-27)
(0.0335234 0.0376233 1.00168e-26)
(0.0452052 0.0437608 4.7287e-27)
(0.0542157 0.0547191 0)
(0.0592931 0.0687379 -4.74706e-27)
(0.0602293 0.0838923 3.98034e-27)
(0.0573883 0.0987132 -9.58509e-27)
(0.0513095 0.112152 1.22465e-27)
(0.0427239 0.123353 0)
(0.032609 0.131808 -7.83206e-27)
(0.0220337 0.137181 0)
(0.011915 0.13952 4.32233e-28)
(0.00324254 0.139261 1.46513e-26)
(-0.00291121 0.136598 1.04905e-26)
(-0.00432823 0.131755 -1.49523e-26)
(-0.00113225 0.125949 0)
(-0.00346484 0.12699 3.93463e-28)
(0.0258063 0.00205715 0)
(0.0231696 0.00661074 1.16879e-27)
(0.0209215 0.0113977 2.50222e-26)
(0.0185374 0.0164529 1.0598e-31)
(0.0158556 0.0218108 -1.965e-32)
(0.0130013 0.0273768 -3.23028e-27)
(0.0101917 0.0335712 -1.49836e-26)
(0.0074334 0.0409255 0)
(0.00510151 0.0496155 3.0267e-27)
(0.00376993 0.0605769 0)
(0.00376839 0.0738467 2.44322e-26)
(0.00433161 0.0865578 -1.1073e-26)
(0.00378289 0.0938997 0)
(0.00121397 0.092537 -3.47859e-27)
(-0.00259173 0.082603 1.53986e-26)
(-0.00502393 0.0683171 2.76143e-27)
(-0.00364453 0.0538527 7.39957e-27)
(0.00252042 0.0414027 -2.35938e-26)
(0.0134149 0.0326496 4.46928e-27)
(0.0277839 0.0295021 -2.298e-27)
(0.0430624 0.0331696 1.3707e-26)
(0.0561864 0.0434525 0)
(0.0648062 0.0585946 0)
(0.0681314 0.0759184 -4.96829e-27)
(0.0666065 0.0933954 -1.06278e-26)
(0.061123 0.10959 1.3867e-27)
(0.0524724 0.123435 0)
(0.0414871 0.134173 0)
(0.0294202 0.141404 -5.19152e-27)
(0.0173018 0.144889 -4.19506e-27)
(0.00632869 0.144968 1.48322e-26)
(-0.00243539 0.142014 -2.41111e-27)
(-0.0078393 0.136337 1.04926e-26)
(-0.00585484 0.128324 -4.483e-28)
(-0.00830711 0.130261 1.59662e-27)
(-0.00149121 0.123561 0)
(-0.00448858 0.124713 0)
(0.0282327 0.00195646 0)
(0.0256672 0.00647051 0)
(0.0234704 0.0112928 -2.83841e-27)
(0.0211022 0.0164819 1.23827e-26)
(0.0184332 0.0220548 9.94376e-27)
(0.0154947 0.0278438 -5.18177e-27)
(0.0124871 0.0342177 0)
(0.0094657 0.0418121 -1.49736e-26)
(0.00658807 0.0504247 0)
(0.0043316 0.0611497 7.03529e-27)
(0.00348599 0.0741732 -2.85685e-27)
(0.00326521 0.0878872 -1.28772e-26)
(0.00225058 0.0973511 6.84171e-27)
(-0.0008785 0.0986015 0)
(-0.00584839 0.090273 3.56709e-26)
(-0.0103244 0.0755734 -4.5673e-30)
(-0.0113418 0.0590263 0)
(-0.00716731 0.0433228 -1.78575e-26)
(0.00284366 0.0303238 0)
(0.0181989 0.0223001 2.40267e-26)
(0.0370226 0.0217923 2.88161e-26)
(0.0551031 0.0297919 0)
(0.0689865 0.0450188 0)
(0.076804 0.0643503 -1.23011e-26)
(0.0779818 0.0850513 2.33633e-26)
(0.0734071 0.104823 -3.78766e-27)
(0.0642808 0.122247 0)
(0.0521054 0.136184 0)
(0.03815 0.145893 0)
(0.024 0.151171 -4.81642e-27)
(0.0104159 0.152192 0)
(-0.000848604 0.149376 3.48097e-27)
(-0.00743601 0.140862 7.79775e-27)
(-0.00843255 0.144325 3.62143e-27)
(-0.0108926 0.132687 0)
(-0.0101932 0.141171 0)
(-0.0129633 0.136074 0)
(-0.00768507 0.126142 3.05439e-27)
(-0.0108238 0.128033 4.16322e-27)
(-0.00177635 0.120524 0)
(-0.00559331 0.121723 0)
(0.0305678 0.001837 0)
(0.0281401 0.00628998 0)
(0.0260436 0.0110856 1.61866e-27)
(0.0237625 0.0163929 -3.3087e-27)
(0.021142 0.0221261 3.07744e-27)
(0.0182383 0.0281631 0)
(0.015081 0.0347422 1.96279e-27)
(0.0119282 0.0425293 0)
(0.00864023 0.0512727 0)
(0.0058074 0.0619425 -2.41364e-26)
(0.00384039 0.0745535 6.70461e-27)
(0.00288468 0.089073 -2.60438e-26)
(0.00141835 0.100553 -2.62492e-26)
(-0.00217349 0.104647 -3.66137e-26)
(-0.00819109 0.0986924 3.32675e-26)
(-0.014801 0.084517 0)
(-0.0187464 0.066657 -9.30716e-27)
(-0.0175973 0.0483003 0)
(-0.010165 0.0313926 0)
(0.0039497 0.0189454 5.49582e-26)
(0.023672 0.0141187 1.99656e-29)
(0.0457358 0.0185961 3.37843e-26)
(0.0661117 0.0326105 1.17734e-26)
(0.0802792 0.051832 2.03031e-26)
(0.0872589 0.073619 1.29266e-26)
(0.0864688 0.0957485 0)
(0.0793888 0.116705 2.9905e-28)
(0.0670337 0.134697 8.63521e-28)
(0.051097 0.14857 -2.76415e-27)
(0.033807 0.15711 0)
(0.0167228 0.160258 -9.802e-27)
(0.00202976 0.158381 -4.6643e-28)
(-0.00727105 0.148691 1.78947e-26)
(-0.00788858 0.153303 1.73638e-26)
(-0.011599 0.144987 4.56795e-27)
(-0.0139985 0.130781 -5.33029e-27)
(-0.0150715 0.140178 0)
(-0.0168856 0.134449 -9.94842e-27)
(-0.00955728 0.123274 2.68321e-27)
(-0.0134666 0.125266 -9.91428e-28)
(-0.00211666 0.116733 0)
(-0.00670833 0.11797 1.53326e-26)
(0.0327447 0.00170633 0)
(0.0305261 0.00603363 0)
(0.0285997 0.010766 1.64179e-26)
(0.026465 0.0161628 -1.49981e-26)
(0.0239395 0.0220178 -1.16099e-26)
(0.0211336 0.0282891 4.44878e-27)
(0.01798 0.0351252 0)
(0.0147072 0.0430153 -1.79652e-27)
(0.0112211 0.0521141 4.06187e-27)
(0.00788638 0.0627046 -1.67335e-27)
(0.0051283 0.0751298 -1.2748e-26)
(0.00330948 0.0899932 -8.69499e-27)
(0.00139438 0.103414 1.31965e-26)
(-0.00256355 0.110449 -8.19121e-26)
(-0.00943066 0.107522 -4.29343e-26)
(-0.0180069 0.0948704 -1.80509e-26)
(-0.0251151 0.076657 0)
(-0.0278156 0.0566183 -1.03544e-26)
(-0.0243874 0.0373073 7.64339e-26)
(-0.0143468 0.0224139 7.14537e-26)
(0.00138972 0.0154818 -5.19213e-26)
(0.0219516 0.0177676 1.96129e-26)
(0.0472766 0.0279043 5.92354e-27)
(0.070658 0.0443234 5.20637e-26)
(0.0856626 0.0667549 2.98927e-26)
(0.0924154 0.0898673 1.52983e-26)
(0.0913064 0.111931 1.61235e-26)
(0.0828484 0.1322 -1.60021e-26)
(0.0674489 0.149342 1.23554e-26)
(0.0481025 0.161874 -6.99054e-28)
(0.0270166 0.168285 -1.16384e-26)
(0.00703728 0.16809 1.7035e-27)
(-0.00521325 0.158991 -5.02815e-27)
(-0.00527834 0.164271 -4.64643e-27)
(-0.0118534 0.14973 -7.33223e-27)
(-0.0122922 0.154998 -1.20931e-26)
(-0.0167417 0.144846 0)
(-0.0173318 0.128222 -7.30113e-27)
(-0.0195075 0.138939 7.79054e-27)
(-0.0210124 0.132235 -8.69687e-27)
(-0.011522 0.119643 8.73121e-27)
(-0.0162662 0.121761 -1.07524e-27)
(-0.00245748 0.112191 0)
(-0.00783197 0.113447 1.70219e-26)
(0.034688 0.00156166 1.33093e-26)
(0.0327497 0.00568074 0)
(0.0310899 0.0103371 1.42238e-26)
(0.0291408 0.0157835 -8.76933e-31)
(0.0267984 0.0217491 -2.14895e-26)
(0.0241194 0.0281944 -2.35735e-26)
(0.0211163 0.035302 8.06945e-27)
(0.0177706 0.0432697 -1.00018e-27)
(0.0142484 0.0528278 0)
(0.0105239 0.0634084 8.41983e-27)
(0.00717736 0.0757921 0)
(0.00465785 0.0906451 5.62818e-27)
(0.00221146 0.105758 9.47418e-27)
(-0.00200613 0.115703 0)
(-0.00943576 0.116325 -5.72373e-26)
(-0.0196554 0.106223 2.66602e-26)
(-0.0298489 0.0887096 -1.19613e-25)
(-0.036755 0.0681103 -6.86653e-27)
(-0.0384618 0.0478763 8.16337e-26)
(-0.034666 0.0329894 0)
(-0.026328 0.028406 0)
(-0.012865 0.0336553 -1.37895e-26)
(0.00731997 0.0434385 -6.55634e-26)
(0.0364127 0.0540128 5.28975e-26)
(0.0672897 0.068628 -3.26186e-26)
(0.0852573 0.0904263 7.37319e-26)
(0.0918002 0.113122 -1.78848e-27)
(0.0898253 0.133942 0)
(0.0805933 0.152048 1.32409e-26)
(0.0637169 0.166568 1.83834e-26)
(0.0415781 0.176436 0)
(0.0171021 0.179153 1.89972e-27)
(-0.00107744 0.170666 3.93282e-27)
(-0.000127358 0.176292 4.523e-32)
(-0.0113324 0.160898 -2.63059e-27)
(-0.0107082 0.167067 -8.61505e-28)
(-0.0177032 0.150226 0)
(-0.0182901 0.156192 -2.07873e-27)
(-0.0217765 0.144122 -3.5236e-27)
(-0.0209496 0.124923 -2.41488e-27)
(-0.0244329 0.137143 1.34161e-26)
(-0.0255099 0.129256 -5.77704e-27)
(-0.0135559 0.115216 8.75193e-27)
(-0.0192164 0.117454 8.84103e-27)
(-0.00280247 0.106892 0)
(-0.00897033 0.108137 8.71001e-27)
(0.0363252 0.00139291 -2.46775e-28)
(0.0347513 0.00524746 8.29472e-28)
(0.0334188 0.00978753 0)
(0.0317488 0.0152623 1.67324e-26)
(0.0296696 0.0212822 -1.49134e-26)
(0.0271776 0.0278646 -1.03355e-26)
(0.02438 0.0352198 -8.0226e-27)
(0.0211028 0.0433389 0)
(0.0175898 0.0532725 1.05928e-27)
(0.0136891 0.0640088 0)
(0.00991245 0.0764272 5.27365e-27)
(0.00675335 0.0910942 -8.1374e-28)
(0.00380438 0.107484 4.45121e-27)
(-0.000528983 0.120173 5.24579e-27)
(-0.00815508 0.124621 0)
(-0.019504 0.11798 -1.69133e-26)
(-0.0324442 0.102265 -1.39053e-25)
(-0.0435564 0.0822084 6.81959e-27)
(-0.0507201 0.0624961 -1.62253e-25)
(-0.0538709 0.0499519 1.36586e-25)
(-0.053937 0.0503794 0)
(-0.0503083 0.0610795 4.488e-26)
(-0.0400336 0.0729557 2.0861e-30)
(-0.0194531 0.0824249 -6.52685e-26)
(0.0138255 0.0901358 7.02578e-26)
(0.0546427 0.099772 -3.3396e-27)
(0.079419 0.117492 -3.47132e-26)
(0.0866233 0.13866 -9.47245e-31)
(0.0847607 0.157689 9.57539e-27)
(0.0746148 0.173292 1.31107e-26)
(0.056347 0.184931 -8.8249e-28)
(0.0316237 0.191525 1.77765e-27)
(0.00589987 0.183098 -4.56355e-27)
(0.00869655 0.189342 0)
(-0.00827504 0.173719 -6.35333e-27)
(-0.00608805 0.180572 -1.3692e-27)
(-0.0180941 0.162738 3.84262e-27)
(-0.0173988 0.169742 4.03373e-27)
(-0.0234973 0.150031 8.78744e-27)
(-0.0246849 0.156658 0)
(-0.0274665 0.142794 0)
(-0.024834 0.12082 0)
(-0.0298347 0.13456 2.86467e-26)
(-0.0303401 0.125413 5.92676e-27)
(-0.0156293 0.109955 6.42398e-27)
(-0.0222869 0.112319 9.5131e-27)
(-0.00314865 0.10085 -7.60025e-27)
(-0.0100969 0.10203 1.93426e-26)
(0.0375835 0.00119218 -2.31626e-28)
(0.0364689 0.00473187 1.6815e-27)
(0.035525 0.00908603 2.22859e-27)
(0.0342541 0.0145861 2.63722e-27)
(0.0324684 0.0205654 -5.74741e-27)
(0.0302797 0.0273212 0)
(0.0276926 0.0348627 5.9612e-27)
(0.024606 0.0432349 -8.21115e-27)
(0.0211579 0.0533868 -9.13521e-27)
(0.0172771 0.0644555 -1.6319e-27)
(0.0132435 0.0769307 2.76846e-27)
(0.0095191 0.0914585 4.48325e-27)
(0.0061611 0.108605 0)
(0.00183275 0.123757 1.22421e-26)
(-0.00566975 0.132018 0)
(-0.0175426 0.129524 9.7682e-27)
(-0.0325949 0.116634 -6.2334e-26)
(-0.0474836 0.0980906 -7.60836e-26)
(-0.0598401 0.079899 -7.77938e-26)
(-0.0694892 0.0708532 1.13655e-25)
(-0.0773903 0.077836 -1.29059e-28)
(-0.0833615 0.0944088 0)
(-0.0846885 0.109299 5.61447e-30)
(-0.0755126 0.117834 3.75119e-26)
(-0.0522892 0.122673 -1.53598e-26)
(-0.0138412 0.127218 0)
(0.0351406 0.133581 -2.42519e-26)
(0.068824 0.146416 -1.13975e-27)
(0.0784389 0.164964 5.79071e-27)
(0.0765264 0.182128 0)
(0.0657069 0.195002 -2.60026e-27)
(0.0457728 0.204396 -1.65296e-28)
(0.0169667 0.19722 1.18415e-33)
(0.0220397 0.20501 -7.39462e-27)
(-0.00173084 0.187666 2.56535e-27)
(0.00213849 0.195604 0)
(-0.0155999 0.177156 -1.05893e-30)
(-0.0130351 0.184856 -1.33522e-27)
(-0.0251717 0.163962 1.98899e-27)
(-0.0247818 0.171781 0)
(-0.0300304 0.149322 1.17623e-26)
(-0.0319573 0.1567 -5.02933e-27)
(-0.0337476 0.140736 5.54823e-30)
(-0.0289138 0.115846 1.24527e-27)
(-0.0356662 0.131108 3.99715e-26)
(-0.0354467 0.120645 -1.53112e-27)
(-0.0177139 0.10385 -1.97495e-26)
(-0.0254157 0.106321 1.97747e-27)
(-0.00347253 0.0941015 -7.91386e-27)
(-0.01117 0.0951419 0)
(0.0383756 0.000944499 1.08012e-26)
(0.0378298 0.00409555 -1.07911e-26)
(0.0373541 0.00823451 1.45641e-26)
(0.0365565 0.0137166 1.58444e-26)
(0.0351481 0.0196368 -1.38513e-26)
(0.0333464 0.0265508 0)
(0.0310094 0.0342396 -8.07384e-28)
(0.0281882 0.0429065 -1.4799e-26)
(0.0248826 0.0531857 -1.4707e-26)
(0.0211545 0.0646861 -4.33701e-27)