/*--------------------------------*- C++ -*----------------------------------*\
  =========                 |
  \\      /  F ield         | OpenFOAM: The Open Source CFD Toolbox
   \\    /   O peration     | Website:  https://openfoam.org
    \\  /    A nd           | Version:  dev
     \\/     M anipulation  |
\*---------------------------------------------------------------------------*/
FoamFile
{
    version     2.0;
    format      ascii;
    class       volScalarField;
    location    "2500";
    object      a;
}
// * * * * * * * * * * * * * * * * * * * * * * * * * * * * * * * * * * * * * //

dimensions      [0 -1 0 0 0 0 0];

internalField   nonuniform List<scalar> 
9846
(
0.100011
0.100011
0.100011
0.100011
0.100011
0.100011
0.100011
0.100011
0.100011
0.100011
0.10001
0.100011
0.100011
0.100011
0.100011
0.10001
0.10001
0.100011
0.100011
0.100011
0.100011
0.10001
0.10001
0.10001
0.100011
0.100011
0.100011
0.100011
0.10001
0.10001
0.10001
0.10001
0.100011
0.100011
0.100011
0.100011
0.100009
0.10001
0.10001
0.10001
0.10001
0.100011
0.100011
0.100011
0.100011
0.100009
0.100009
0.10001
0.10001
0.10001
0.10001
0.100011
0.100011
0.100011
0.100011
0.100009
0.100009
0.100009
0.10001
0.10001
0.10001
0.10001
0.100011
0.100011
0.100011
0.100011
0.100009
0.100009
0.100009
0.100009
0.10001
0.10001
0.10001
0.10001
0.100011
0.100011
0.100011
0.100011
0.100009
0.100009
0.100009
0.100009
0.100009
0.10001
0.10001
0.10001
0.10001
0.100011
0.100011
0.100011
0.100011
0.100008
0.100009
0.100009
0.100009
0.100009
0.100009
0.10001
0.10001
0.10001
0.10001
0.100011
0.100011
0.100011
0.100011
0.100008
0.100008
0.100009
0.100009
0.100009
0.100009
0.100009
0.10001
0.10001
0.10001
0.10001
0.100011
0.100011
0.100011
0.100011
0.100008
0.100008
0.100008
0.100009
0.100009
0.100009
0.100009
0.100009
0.10001
0.10001
0.10001
0.10001
0.100011
0.100011
0.100011
0.100011
0.100008
0.100008
0.100008
0.100008
0.100009
0.100009
0.100009
0.100009
0.100009
0.10001
0.10001
0.10001
0.10001
0.100011
0.100011
0.100011
0.100011
0.100007
0.100008
0.100008
0.100008
0.100008
0.100008
0.100009
0.100009
0.100009
0.100009
0.10001
0.10001
0.10001
0.10001
0.100011
0.100011
0.100011
0.100011
0.100007
0.100007
0.100008
0.100008
0.100008
0.100008
0.100008
0.100009
0.100009
0.100009
0.100009
0.10001
0.10001
0.10001
0.10001
0.100011
0.100011
0.100011
0.100011
0.100007
0.100007
0.100007
0.100008
0.100008
0.100008
0.100008
0.100008
0.100009
0.100009
0.100009
0.100009
0.10001
0.10001
0.10001
0.10001
0.100011
0.100011
0.100011
0.100011
0.100007
0.100007
0.100007
0.100007
0.100008
0.100008
0.100008
0.100008
0.100008
0.100009
0.100009
0.100009
0.100009
0.10001
0.10001
0.10001
0.10001
0.100011
0.100011
0.100011
0.100011
0.100006
0.100007
0.100007
0.100007
0.100007
0.100008
0.100008
0.100008
0.100008
0.100008
0.100009
0.100009
0.100009
0.100009
0.10001
0.10001
0.10001
0.10001
0.100011
0.100011
0.100011
0.100011
0.100006
0.100006
0.100007
0.100007
0.100007
0.100007
0.100008
0.100008
0.100008
0.100008
0.100008
0.100009
0.100009
0.100009
0.100009
0.10001
0.10001
0.10001
0.10001
0.100011
0.100011
0.100011
0.100011
0.100006
0.100006
0.100006
0.100007
0.100007
0.100007
0.100007
0.100008
0.100008
0.100008
0.100008
0.100008
0.100009
0.100009
0.100009
0.100009
0.10001
0.10001
0.10001
0.10001
0.100011
0.100011
0.100011
0.100011
0.100006
0.100006
0.100006
0.100006
0.100007
0.100007
0.100007
0.100007
0.100008
0.100008
0.100008
0.100008
0.100008
0.100009
0.100009
0.100009
0.100009
0.10001
0.10001
0.10001
0.10001
0.100011
0.100011
0.100011
0.100011
0.100006
0.100006
0.100006
0.100006
0.100006
0.100007
0.100007
0.100007
0.100007
0.100008
0.100008
0.100008
0.100008
0.100008
0.100009
0.100009
0.100009
0.100009
0.10001
0.10001
0.10001
0.10001
0.100011
0.100011
0.100011
0.100011
0.100005
0.100006
0.100006
0.100006
0.100006
0.100006
0.100007
0.100007
0.100007
0.100007
0.100008
0.100008
0.100008
0.100008
0.100009
0.100009
0.100009
0.100009
0.100009
0.10001
0.10001
0.10001
0.10001
0.100011
0.100011
0.100011
0.100011
0.100005
0.100005
0.100006
0.100006
0.100006
0.100006
0.100006
0.100007
0.100007
0.100007
0.100007
0.100008
0.100008
0.100008
0.100009
0.100009
0.100009
0.100009
0.100009
0.100009
0.10001
0.10001
0.10001
0.10001
0.100011
0.100011
0.100011
0.100011
0.100005
0.100005
0.100005
0.100006
0.100006
0.100006
0.100006
0.100006
0.100007
0.100007
0.100008
0.100008
0.10001
0.10001
0.10001
0.10001
0.10001
0.10001
0.10001
0.100009
0.10001
0.10001
0.10001
0.10001
0.10001
0.100011
0.100011
0.100011
0.100011
0.100005
0.100005
0.100005
0.100005
0.100006
0.100006
0.100006
0.100006
0.100007
0.100007
0.100009
0.100012
0.100017
0.10002
0.100021
0.100022
0.100021
0.100018
0.100014
0.100012
0.10001
0.10001
0.10001
0.10001
0.10001
0.10001
0.100011
0.100011
0.100011
0.100011
0.100004
0.100005
0.100005
0.100005
0.100005
0.100006
0.100006
0.100006
0.100007
0.100008
0.100012
0.100024
0.10004
0.100055
0.100079
0.100097
0.100096
0.100078
0.100053
0.100032
0.100019
0.100013
0.100011
0.10001
0.10001
0.10001
0.10001
0.100011
0.100011
0.100011
0.100011
0.100004
0.100004
0.100005
0.100005
0.100005
0.100005
0.100006
0.100006
0.100007
0.10001
0.100021
0.10005
0.100089
0.100167
0.100307
0.100445
0.100496
0.100438
0.100307
0.100175
0.100086
0.10004
0.100021
0.100014
0.100011
0.10001
0.10001
0.10001
0.100011
0.100011
0.100011
0.100011
0.100004
0.100004
0.100004
0.100005
0.100005
0.100005
0.100005
0.100006
0.100008
0.100013
0.100037
0.100096
0.100191
0.100461
0.100944
0.101571
0.102068
0.102109
0.101659
0.10102
0.10051
0.10022
0.100089
0.100038
0.100019
0.100013
0.100011
0.100011
0.10001
0.100011
0.100011
0.100011
0.100011
0.100004
0.100004
0.100004
0.100004
0.100005
0.100005
0.100005
0.100006
0.100009
0.100017
0.100056
0.100142
0.100354
0.101002
0.10226
0.104093
0.106053
0.107225
0.106738
0.104867
0.102757
0.101253
0.100495
0.100185
0.100071
0.10003
0.100017
0.100013
0.100011
0.100011
0.100011
0.100011
0.100011
0.100011
0.100011
0.100004
0.100004
0.100004
0.100004
0.100004
0.100005
0.100005
0.100006
0.100009
0.100024
0.100075
0.100198
0.100594
0.101747
0.104128
0.107916
0.112402
0.116188
0.117618
0.11564
0.110838
0.105788
0.102544
0.100963
0.100346
0.100125
0.100049
0.100024
0.100016
0.100012
0.100011
0.100011
0.100011
0.100011
0.100011
0.100011
0.100011
0.100003
0.100004
0.100004
0.100004
0.100004
0.100004
0.100005
0.100005
0.100009
0.100027
0.100089
0.100258
0.100866
0.102608
0.106283
0.112299
0.119731
0.126496
0.130605
0.130563
0.126287
0.118407
0.109635
0.104182
0.101582
0.100563
0.100203
0.100081
0.100038
0.100022
0.100015
0.100011
0.100011
0.100011
0.100011
0.100011
0.100011
0.100011
0.100011
0.100011
0.100011
0.100003
0.100003
0.100004
0.100004
0.100004
0.100004
0.100004
0.100005
0.100009
0.100029
0.100098
0.100306
0.101113
0.103468
0.108425
0.116472
0.126637
0.136458
0.143518
0.14612
0.143389
0.13593
0.12535
0.11381
0.105881
0.102264
0.100827
0.100316
0.100134
0.100066
0.100035
0.100018
0.100011
0.100012
0.100011
0.100011
0.100011
0.100011
0.100011
0.100011
0.100011
0.100011
0.100003
0.100003
0.100003
0.100004
0.100004
0.100004
0.100004
0.100005
0.100009
0.100029
0.100105
0.100342
0.101292
0.104139
0.110324
0.120009
0.132173
0.144518
0.154464
0.160257
0.160299
0.154311
0.143625
0.130482
0.117274
0.107447
0.102977
0.101167
0.100496
0.100245
0.100132
0.100062
0.100015
0.100025
0.100011
0.100014
0.100011
0.100011
0.100011
0.100011
0.100011
0.100011
0.100011
0.100011
0.100003
0.100003
0.100003
0.100003
0.100004
0.100004
0.100004
0.100005
0.100008
0.100028
0.100105
0.100349
0.10137
0.104538
0.111522
0.122849
0.136125
0.149686
0.161549
0.170159
0.174096
0.171266
0.16238
0.149152
0.13415
0.119794
0.108874
0.103838
0.101734
0.100915
0.100577
0.100335
0.100054
0.100142
0.100023
0.100052
0.100014
0.100023
0.100014
0.100011
0.100014
0.100013
0.100011
0.100011
0.100011
0.100011
0.100002
0.100003
0.100003
0.100003
0.100003
0.100004
0.100004
0.100004
0.100007
0.100025
0.100102
0.100346
0.101373
0.104639
0.112009
0.124249
0.138832
0.152261
0.164342
0.174241
0.181368
0.183021
0.178414
0.168058
0.153737
0.137725
0.122174
0.110744
0.105503
0.103274
0.102487
0.102146
0.100392
0.10121
0.100141
0.100419
0.100055
0.100156
0.100023
0.100057
0.100023
0.100013
0.100021
0.100019
0.100011
0.100012
0.100011
0.100011
0.100002
0.100002
0.100003
0.100003
0.100003
0.100003
0.100004
0.100004
0.100006
0.100022
0.100092
0.100335
0.101345
0.104575
0.111905
0.124122
0.137294
0.149412
0.16205
0.173515
0.182076
0.186705
0.187139
0.182525
0.172883
0.159595
0.143594
0.126715
0.115069
0.110303
0.109015
0.109842
0.103669
0.110664
0.101318
0.104175
0.10048
0.101545
0.10017
0.10054
0.100057
0.100175
0.100053
0.100017
0.100047
0.100038
0.100012
0.100015
0.100011
0.100011
0.100002
0.100002
0.100002
0.100003
0.100003
0.100003
0.100003
0.100004
0.100005
0.100018
0.100078
0.100305
0.101263
0.104416
0.111584
0.123224
0.133359
0.141921
0.152554
0.165999
0.177877
0.185609
0.18859
0.188837
0.185679
0.179117
0.168976
0.154322
0.137384
0.126519
0.125532
0.129049
0.121284
0.138061
0.111577
0.125107
0.104894
0.11351
0.101769
0.105641
0.10058
0.101952
0.10017
0.100585
0.100155
0.10003
0.100129
0.100099
0.100013
0.100022
0.100011
0.100012
0.100002
0.100002
0.100002
0.100002
0.100003
0.100003
0.100003
0.100003
0.100004
0.100014
0.100061
0.100269
0.101112
0.104107
0.110937
0.121414
0.129104
0.135166
0.141638
0.149382
0.163551
0.178803
0.18649
0.189029
0.189643
0.189395
0.18803
0.183178
0.171922
0.159274
0.154581
0.163947
0.15357
0.175979
0.141941
0.161258
0.128481
0.146953
0.115494
0.132047
0.106298
0.117397
0.102046
0.106774
0.100557
0.102011
0.100491
0.100069
0.100393
0.100283
0.100016
0.100043
0.100011
0.100013
0.100001
0.100002
0.100002
0.100002
0.100002
0.100003
0.100003
0.100003
0.100004
0.10001
0.10005
0.100232
0.100937
0.103626
0.11003
0.119382
0.125415
0.129742
0.132299
0.133832
0.139996
0.156495
0.176137
0.18513
0.18838
0.190351
0.194341
0.200084
0.202519
0.198399
0.195966
0.203243
0.194727
0.22187
0.182854
0.206138
0.168144
0.191335
0.152155
0.175086
0.135685
0.157657
0.118972
0.139364
0.106936
0.120029
0.101858
0.106664
0.101582
0.100179
0.101224
0.100841
0.100025
0.100098
0.100011
0.100015
0.100001
0.100001
0.100002
0.100002
0.100002
0.100002
0.100003
0.100003
0.100003
0.100007
0.100037
0.100181
0.100758
0.103116
0.109001
0.117414
0.122338
0.12536
0.125006
0.1213
0.121318
0.130942
0.148944
0.168743
0.179829
0.18586
0.1927
0.202787
0.216889
0.229005
0.237089
0.25156
0.243985
0.266601
0.230867
0.257859
0.216204
0.24244
0.200168
0.226612
0.182364
0.209189
0.163443
0.190275
0.142755
0.169556
0.120185
0.145685
0.105992
0.119147
0.10495
0.100497
0.10375
0.102521
0.100046
0.100244
0.100012
0.100021
0.100001
0.100001
0.100001
0.100002
0.100002
0.100002
0.100002
0.100003
0.100003
0.100005
0.100025
0.100138
0.100596
0.102583
0.107905
0.115616
0.119774
0.121805
0.119521
0.113032
0.110869
0.115154
0.125757
0.139802
0.154685
0.168091
0.181417
0.197627
0.217324
0.241387
0.26598
0.291431
0.324409
0.281655
0.313602
0.269626
0.296955
0.254097
0.282449
0.237466
0.266285
0.218855
0.248596
0.198759
0.229481
0.175539
0.207806
0.147421
0.181264
0.117246
0.146826
0.114398
0.101438
0.110978
0.107414
0.100095
0.100657
0.100012
0.100029
0.100001
0.100001
0.100001
0.100001
0.100002
0.100002
0.100002
0.100002
0.100003
0.100004
0.100016
0.100096
0.100447
0.102062
0.106771
0.113993
0.117656
0.118898
0.115344
0.10799
0.105519
0.10693
0.1118
0.119719
0.130501
0.143217
0.157308
0.177331
0.2073
0.240449
0.276223
0.313445
0.337143
0.349915
0.349814
0.323837
0.342819
0.310768
0.337198
0.295177
0.324202
0.278955
0.308558
0.260716
0.291434
0.240764
0.27331
0.216876
0.252427
0.185485
0.225684
0.143457
0.187661
0.136861
0.104237
0.129179
0.120667
0.100215
0.101874
0.100013
0.100045
0.100001
0.100001
0.100001
0.100001
0.100001
0.100002
0.100002
0.100002
0.100002
0.100003
0.10001
0.100061
0.100335
0.101556
0.105633
0.112495
0.115907
0.11663
0.112238
0.105254
0.102904
0.103095
0.10515
0.109537
0.117145
0.127606
0.139721
0.154504
0.177937
0.22508
0.274329
0.313601
0.334122
0.347766
0.34189
0.355247
0.350773
0.351457
0.356142
0.347167
0.357817
0.336367
0.354281
0.321446
0.345539
0.304454
0.332234
0.285847
0.315806
0.263385
0.297087
0.232213
0.272895
0.186905
0.236409
0.180423
0.112236
0.168487
0.150548
0.100556
0.105595
0.100013
0.100101
0.1
0.100001
0.100001
0.100001
0.100001
0.100001
0.100002
0.100002
0.100002
0.100003
0.100006
0.100039
0.10024
0.101136
0.104544
0.111056
0.114459
0.114909
0.110199
0.10373
0.101648
0.101393
0.102231
0.104483
0.109128
0.118238
0.130937
0.143664
0.159191
0.190238
0.256756
0.308388
0.325224
0.333631
0.324509
0.340134
0.324667
0.349651
0.332604
0.359786
0.357669
0.36165
0.362171
0.358903
0.363789
0.350721
0.360398
0.338509
0.352817
0.323035
0.340493
0.304266
0.325047
0.278527
0.305881
0.236837
0.279555
0.231709
0.132261
0.220181
0.199632
0.101722
0.116051
0.100032
0.100491
0.1
0.1
0.100001
0.100001
0.100001
0.100001
0.100001
0.100002
0.100002
0.100002
0.100004
0.100021
0.100155
0.100827
0.103499
0.109563
0.113233
0.113658
0.10892
0.103014
0.101101
0.100675
0.100949
0.102019
0.104594
0.1123
0.1289
0.146242
0.159309
0.177436
0.221099
0.291836
0.315726
0.298293
0.310155
0.291833
0.310966
0.289583
0.321593
0.293721
0.357985
0.345459
0.362762
0.355527
0.364044
0.361243
0.359808
0.361565
0.351345
0.357414
0.338958
0.347705
0.323168
0.334189
0.304115
0.318176
0.276415
0.299793
0.270026
0.170848
0.258955
0.240789
0.10608
0.1394
0.101121
0.107181
0.1
0.1
0.100001
0.100001
0.100001
0.100001
0.100001
0.100002
0.100002
0.100003
0.100011
0.100089
0.100529
0.102526
0.107993
0.112163
0.112708
0.108306
0.10267
0.100925
0.100494
0.100471
0.100869
0.102151
0.107059
0.124143
0.150322
0.170435
0.179909
0.206788
0.263102
0.300627
0.293471
0.250959
0.247712
0.271269
0.258129
0.266393
0.243291
0.274975
0.242135
0.337631
0.308361
0.350236
0.326785
0.356391
0.341298
0.356255
0.34815
0.351952
0.348371
0.341947
0.343599
0.327929
0.333537
0.312032
0.319255
0.293821
0.304915
0.287028
0.214327
0.278436
0.265893
0.128922
0.18844
0.12392
0.15582
0.1
0.1
0.100001
0.100001
0.100001
0.100001
0.100001
0.100002
0.100002
0.100006
0.100047
0.100336
0.101697
0.106334
0.11121
0.111997
0.108004
0.10263
0.100866
0.100397
0.100334
0.100445
0.100954
0.103376
0.114615
0.147104
0.179636
0.19804
0.208635
0.24752
0.282748
0.288599
0.248473
0.251778
0.21356
0.214445
0.226564
0.216936
0.214353
0.194353
0.21839
0.186209
0.293209
0.255328
0.312912
0.27605
0.328437
0.296271
0.3361
0.31142
0.337383
0.320206
0.332163
0.322392
0.321457
0.317576
0.308475
0.306682
0.297206
0.297521
0.290389
0.250183
0.284307
0.27857
0.270272
0.192911
0.241428
0.117407
0.178305
0.1
0.1
0.100001
0.100001
0.100001
0.100001
0.100001
0.100002
0.100003
0.100024
0.10021
0.101069
0.104705
0.110214
0.111437
0.108058
0.102726
0.100898
0.100379
0.100249
0.100302
0.100517
0.101413
0.106919
0.129795
0.175942
0.206964
0.223029
0.245823
0.27051
0.279581
0.24183
0.217563
0.219037
0.179498
0.18273
0.182794
0.178718
0.163383
0.150181
0.163604
0.143792
0.235049
0.195346
0.256605
0.214391
0.276428
0.235196
0.290555
0.252421
0.299789
0.264969
0.302592
0.274582
0.298591
0.280848
0.290797
0.277391
0.287017
0.277805
0.284672
0.285221
0.280696
0.274975
0.261404
0.272407
0.281134
0.277325
0.278416
0.279322
0.232619
0.270809
0.26826
0.255016
0.109399
0.169957
0.1
0.1
0.100001
0.100001
0.100001
0.100001
0.100002
0.100002
0.100011
0.100109
0.100742
0.103272
0.10893
0.111017
0.108324
0.103129
0.101101
0.100445
0.100247
0.100198
0.100323
0.100639
0.102753
0.113362
0.148525
0.197231
0.223917
0.243389
0.261568
0.270286
0.24223
0.196293
0.199951
0.187863
0.192588
0.148789
0.153406
0.145198
0.145804
0.131843
0.124912
0.140618
0.130803
0.179202
0.155574
0.199657
0.17579
0.218628
0.196832
0.23255
0.212603
0.241484
0.221043
0.249431
0.222405
0.255357
0.250577
0.234726
0.270543
0.260977
0.23837
0.250648
0.270744
0.274191
0.264868
0.262037
0.270924
0.277958
0.277465
0.277594
0.269804
0.269473
0.277858
0.265289
0.227087
0.253786
0.277077
0.276043
0.104629
0.228988
0.186359
0.143196
0.1
0.1
0.100001
0.100001
0.100001
0.100001
0.100002
0.100006
0.100051
0.100446
0.102081
0.107153
0.110625
0.109013
0.104227
0.101706
0.100714
0.100338
0.100194
0.100171
0.100387
0.100951
0.105035
0.120247
0.156227
0.205749
0.233167
0.250444
0.258455
0.23574
0.179796
0.163963
0.163059
0.158066
0.161922
0.122168
0.125028
0.121404
0.120632
0.123797
0.11852
0.141448
0.136569
0.159391
0.148295
0.181951
0.175568
0.202599
0.205058
0.216763
0.22793
0.218464
0.235982
0.223824
0.218704
0.219383
0.229422
0.226859
0.217751
0.223352
0.217564
0.252302
0.240703
0.218465
0.229279
0.254907
0.261116
0.249508
0.244283
0.258619
0.278504
0.279638
0.271507
0.25823
0.259828
0.274054
0.271496
0.257628
0.280464
0.280098
0.137182
0.100427
0.105095
0.228794
0.183063
0.1
0.1
0.100001
0.100001
0.100001
0.100001
0.100003
0.100024
0.100226
0.101199
0.105239
0.110047
0.109863
0.105893
0.103201
0.101403
0.100613
0.100261
0.100137
0.100186
0.100466
0.101586
0.106877
0.122668
0.157167
0.201315
0.226341
0.234832
0.214016
0.160507
0.125727
0.120809
0.130123
0.128429
0.127782
0.12969
0.109325
0.108776
0.114346
0.111132
0.130556
0.123091
0.179919
0.175718
0.176528
0.179423
0.219267
0.238014
0.25493
0.290992
0.277741
0.327096
0.246445
0.271319
0.297875
0.328403
0.21698
0.222974
0.238441
0.262183
0.213959
0.214802
0.215017
0.218829
0.232676
0.221243
0.211881
0.213335
0.237793
0.246097
0.233066
0.225892
0.244539
0.276814
0.279734
0.263211
0.245251
0.248141
0.267855
0.274984
0.259276
0.28202
0.281932
0.130208
0.100148
0.102674
0.227084
0.177197
0.1
0.1
0.100001
0.100001
0.100001
0.100002
0.100011
0.100112
0.100769
0.103504
0.108887
0.110336
0.107655
0.105124
0.102991
0.101286
0.100532
0.100174
0.100113
0.100241
0.10056
0.101936
0.107428
0.122852
0.150273
0.174122
0.182826
0.165002
0.132591
0.108562
0.106543
0.104659
0.108918
0.107977
0.108949
0.109152
0.10652
0.104233
0.115862
0.110243
0.164713
0.149099
0.258392
0.249287
0.253471
0.260264
0.322488
0.347896
0.369984
0.408262
0.355212
0.383296
0.404175
0.425895
0.29155
0.323549
0.355193
0.384699
0.230459
0.251603
0.280277
0.313462
0.216391
0.223119
0.228311
0.239863
0.215016
0.210096
0.21852
0.210776
0.220651
0.230278
0.216893
0.210586
0.22966
0.273114
0.278127
0.253256
0.231399
0.235631
0.25994
0.276649
0.25938
0.282014
0.282685
0.121928
0.100038
0.100959
0.223557
0.167619
0.1
0.1
0.100001
0.100001
0.100001
0.100005
0.100053
0.100494
0.102102
0.107096
0.110388
0.10934
0.107092
0.105172
0.102937
0.101231
0.100384
0.100132
0.100103
0.100273
0.100594
0.102057
0.107182
0.118144
0.129183
0.132277
0.125739
0.112864
0.103453
0.100824
0.100658
0.101189
0.100782
0.102031
0.101625
0.102981
0.1024
0.109332
0.104305
0.132641
0.118761
0.229116
0.201685
0.355874
0.340035
0.361128
0.362557
0.430397
0.438312
0.465576
0.475852
0.410654
0.432668
0.450628
0.462855
0.347586
0.380093
0.409384
0.43454
0.265872
0.298854
0.334405
0.369492
0.233736
0.249678
0.259888
0.280605
0.207869
0.210218
0.239086
0.220424
0.207808
0.214995
0.206019
0.205958
0.215221
0.267417
0.27491
0.242396
0.217819
0.223355
0.250921
0.277503
0.258922
0.280955
0.282916
0.112767
0.100017
0.10036
0.218469
0.153302
0.1
0.1
0.100001
0.100001
0.100003
0.100025
0.100232
0.101154
0.105053
0.110013
0.11053
0.108995
0.107532
0.105887
0.102894
0.101035
0.10028
0.100099
0.100095
0.100273
0.100552
0.101811
0.104865
0.107899
0.109091
0.107372
0.103702
0.101067
0.100137
0.100093
0.100059
0.100198
0.100113
0.100605
0.100343
0.10207
0.101084
0.122753
0.109797
0.171616
0.143891
0.311584
0.273762
0.415649
0.399042
0.435363
0.427779
0.474172
0.465194
0.493497
0.49495
0.488619
0.492938
0.455135
0.471207
0.483234
0.490718
0.401855
0.430213
0.453923
0.47277
0.316497
0.353588
0.388819
0.420525
0.269415
0.294646
0.307285
0.332859
0.210495
0.221818
0.277546
0.243935
0.204503
0.205084
0.203285
0.209769
0.205227
0.260596
0.270382
0.231375
0.207095
0.212209
0.241567
0.278123
0.258359
0.278899
0.282693
0.106934
0.100012
0.100109
0.211283
0.139576
0.1
0.1
0.100001
0.100002
0.100011
0.100109
0.100743
0.10321
0.108647
0.110921
0.110693
0.109835
0.108991
0.106244
0.102742
0.100788
0.100189
0.100066
0.100083
0.100233
0.10046
0.101038
0.101646
0.101996
0.101663
0.100869
0.100254
0.100055
0.100014
0.100012
0.100019
0.100013
0.100078
0.100033
0.100508
0.100203
0.10359
0.101224
0.149483
0.12333
0.230596
0.186888
0.375789
0.34201
0.428834
0.41422
0.454376
0.441779
0.484314
0.477267
0.463394
0.501932
0.499044
0.488736
0.494639
0.48695
0.496571
0.501496
0.502978
0.447613
0.469632
0.486572
0.498654
0.370588
0.405644
0.43634
0.462014
0.317825
0.347144
0.359239
0.385527
0.222716
0.247584
0.326196
0.283879
0.208509
0.202275
0.206745
0.222196
0.202141
0.25321
0.265365
0.220823
0.20273
0.205474
0.232502
0.27863
0.257519
0.276272
0.28232
0.103153
0.100012
0.100044
0.20315
0.127129
0.1
0.1
0.100001
0.100005
0.100052
0.100476
0.101803
0.106529
0.110796
0.111808
0.111909
0.111906
0.110286
0.106278
0.102208
0.100559
0.100106
0.100038
0.100067
0.100177
0.10028
0.100331
0.100371
0.100307
0.100169
0.100069
0.100019
0.100007
0.100008
0.100007
0.100014
0.100009
0.100086
0.10003
0.100795
0.100318
0.108954
0.102856
0.188829
0.146336
0.295402
0.241328
0.396176
0.371462
0.417177
0.407173
0.445637
0.429248
0.481089
0.472376
0.445846
0.429539
0.503773
0.498979
0.482861
0.492016
0.505711
0.508692
0.509033
0.507156
0.482278
0.497347
0.507243
0.512181
0.420009
0.449706
0.473853
0.492433
0.368966
0.398041
0.408276
0.432237
0.249295
0.287768
0.376511
0.3322
0.220207
0.204162
0.21657
0.248126
0.202564
0.245983
0.260344
0.21222
0.201986
0.203249
0.224444
0.279013
0.256135
0.273693
0.281892
0.101543
0.100011
0.10003
0.192792
0.11881
0.1
0.100001
0.100002
0.100023
0.100214
0.101009
0.104347
0.110037
0.112078
0.113415
0.11443
0.114071
0.110809
0.105878
0.101676
0.100327
0.100053
0.100024
0.100038
0.100082
0.100117
0.100117
0.100088
0.10005
0.100023
0.100009
0.100006
0.100007
0.100006
0.100008
0.100007
0.100019
0.100011
0.10016
0.100051
0.101778
0.100504
0.119294
0.106354
0.231448
0.176139
0.336034
0.288375
0.394642
0.375429
0.374082
0.373167
0.417701
0.405159
0.380998
0.47166
0.458889
0.424161
0.405869
0.503021
0.495739
0.474158
0.486198
0.513891
0.513547
0.511516
0.508051
0.505614
0.513462
0.516919
0.517806
0.460859
0.483645
0.500581
0.51198
0.416511
0.442301
0.450489
0.470184
0.288483
0.335141
0.42289
0.381688
0.243999
0.211467
0.236484
0.28496
0.206671
0.239561
0.256016
0.207909
0.203543
0.204168
0.218585
0.279257
0.253881
0.271541
0.281598
0.10096
0.100012
0.100037
0.182928
0.114524
0.1
0.100001
0.10001
0.100096
0.100705
0.102553
0.107926
0.111936
0.11395
0.116222
0.117276
0.115543
0.110886
0.104776
0.101094
0.100159
0.100028
0.100012
0.100016
0.100022
0.100026
0.100023
0.100015
0.100009
0.100006
0.100006
0.100006
0.100007
0.100006
0.100009
0.100007
0.100028
0.100013
0.100258
0.10008
0.10336
0.100847
0.134617
0.11192
0.255436
0.199423
0.34661
0.306358
0.369686
0.359009
0.330077
0.331409
0.32496
0.389073
0.377983
0.329607
0.334153
0.45956
0.442668
0.402156
0.378918
0.500106
0.491157
0.464978
0.479609
0.51724
0.5152
0.511874
0.506946
0.518033
0.520412
0.520848
0.520339
0.491677
0.507139
0.516888
0.521491
0.457207
0.477854
0.48419
0.498333
0.334222
0.383739
0.462623
0.427327
0.276686
0.225608
0.262612
0.327778
0.21488
0.234843
0.252729
0.207105
0.207267
0.205694
0.215665
0.279466
0.251642
0.269846
0.281498
0.100898
0.100015
0.100128
0.176883
0.113744
0.100001
0.100005
0.100045
0.100406
0.101348
0.105381
0.111202
0.11393
0.116852
0.119576
0.119628
0.116121
0.110329
0.103348
0.100594
0.100077
0.100014
0.100007
0.100007
0.100007
0.100007
0.100006
0.100006
0.100005
0.100006
0.100006
0.100006
0.100006
0.100007
0.100006
0.10001
0.100008
0.100037
0.100016
0.100381
0.100116
0.105187
0.101306
0.14971
0.118107
0.257136
0.20415
0.337129
0.302904
0.327469
0.32362
0.302438
0.30755
0.284031
0.288018
0.358762
0.34328
0.300306
0.301827
0.446879
0.425521
0.379715
0.351095
0.497494
0.487384
0.457253
0.474256
0.518587
0.515524
0.511171
0.505272
0.523274
0.523667
0.523417
0.521528
0.512511
0.520721
0.524394
0.52567
0.489718
0.503926
0.509048
0.517035
0.38147
0.428843
0.494657
0.466603
0.313783
0.245082
0.29355
0.371604
0.228321
0.231548
0.249999
0.208805
0.215605
0.2104
0.216044
0.27979
0.250894
0.268254
0.28159
0.101511
0.100061
0.100894
0.175841
0.115141
0.100003
0.10002
0.100173
0.100888
0.103232
0.109092
0.113589
0.116828
0.120561
0.12267
0.121082
0.116134
0.108658
0.102056
0.100275
0.100036
0.100008
0.100005
0.100005
0.100005
0.100005
0.100005
0.100005
0.100005
0.100006
0.100006
0.100006
0.100006
0.100007
0.100006
0.100011
0.100008
0.100046
0.100019
0.100426
0.10015
0.105731
0.101469
0.153737
0.119797
0.238891
0.192553
0.307152
0.278383
0.289143
0.288161
0.272477
0.273804
0.27857
0.256644
0.261185
0.327218
0.310124
0.271232
0.27193
0.435495
0.408841
0.359452
0.324284
0.49442
0.48313
0.449456
0.468473
0.518774
0.514943
0.509809
0.503125
0.526235
0.525916
0.524096
0.521616
0.523944
0.52703
0.528305
0.528799
0.514229
0.521352
0.524844
0.527125
0.425331
0.467626
0.517764
0.498477
0.353873
0.270701
0.329691
0.413157
0.248301
0.229755
0.248378
0.212141
0.230713
0.219856
0.217966
0.280447
0.251869
0.267534
0.281905
0.104649
0.100641
0.106079
0.178738
0.124643
0.100009
0.100074
0.100606
0.101739
0.106246
0.112527
0.116521
0.120589
0.124375
0.125068
0.121547
0.115102
0.106206
0.101024
0.100123
0.100017
0.100005
0.100004
0.100004
0.100004
0.100005
0.100005
0.100005
0.100005
0.100006
0.100006
0.100006
0.100006
0.100007
0.100007
0.100012
0.100009
0.10005
0.100021
0.100412
0.100162
0.105144
0.101399
0.147153
0.117191
0.202929
0.165629
0.259501
0.235644
0.263953
0.26596
0.218717
0.226341
0.246278
0.251249
0.226416
0.229338
0.296383
0.278268
0.243646
0.244036
0.424949
0.394491
0.340922
0.301336
0.491145
0.478723
0.441345
0.46251
0.518224
0.513783
0.508042
0.50069
0.528083
0.526411
0.524146
0.521101
0.529524
0.530709
0.531005
0.530139
0.527676
0.530035
0.532192
0.531999
0.462421
0.498293
0.529583
0.518786
0.393474
0.302008
0.366697
0.449444
0.273678
0.229864
0.248206
0.21731
0.248108
0.22992
0.221652
0.282127
0.256865
0.26769
0.283282
0.117511
0.106854
0.138344
0.192911
0.159418
0.100032
0.100282
0.101023
0.10378
0.109945
0.115688
0.120285
0.12468
0.127637
0.126353
0.121318
0.112787
0.103578
0.10044
0.100052
0.100008
0.100004
0.100004
0.100004
0.100004
0.100005
0.100005
0.100005
0.100005
0.100006
0.100006
0.100006
0.100006
0.100006
0.100007
0.100007
0.100012
0.100009
0.10005
0.100022
0.100361
0.100159
0.103489
0.101059
0.130529
0.110954
0.157873
0.132188
0.196849
0.181503
0.230174
0.229847
0.197065
0.198107
0.218526
0.222243
0.19523
0.197124
0.268125
0.24945
0.217086
0.218162
0.413878
0.379869
0.322343
0.279479
0.487868
0.474396
0.433476
0.45672
0.517243
0.512341
0.506108
0.498155
0.528538
0.526335
0.523631
0.520215
0.533174
0.533172
0.532138
0.530571
0.534027
0.533944
0.535728
0.535227
0.493048
0.517578
0.535277
0.531043
0.429246
0.334495
0.401882
0.482766
0.297986
0.23159
0.24865
0.223364
0.265062
0.243172
0.226645
0.285629
0.274005
0.268741
0.286145
0.190064
0.250295
0.254279
0.255036
0.260463
0.100112
0.100723
0.102059
0.106846
0.113713
0.119444
0.124472
0.128642
0.129977
0.126662
0.119654
0.10949
0.101598
0.100179
0.100021
0.100005
0.100004
0.100004
0.100004
0.100004
0.100005
0.100005
0.100005
0.100005
0.100006
0.100006
0.100006
0.100006
0.100006
0.100007
0.100007
0.100012
0.100009
0.100045
0.100021
0.100285
0.100138
0.101793
0.100657
0.112991
0.104947
0.119743
0.109298
0.151612
0.143684
0.128513
0.198179
0.198419
0.156723
0.160427
0.19193
0.193071
0.16543
0.165073
0.244667
0.224499
0.19225
0.194448
0.403025
0.365386
0.304501
0.258363
0.484777
0.470366
0.42622
0.451349
0.516039
0.510797
0.504188
0.4957
0.528478
0.525903
0.522807
0.519126
0.535337
0.534334
0.53255
0.530575
0.53772
0.537434
0.539939
0.53775
0.513683
0.531072
0.540067
0.535152
0.468185
0.365917
0.447715
0.508365
0.327545
0.235964
0.251718
0.233524
0.293292
0.26653
0.235343
0.294546
0.301145
0.271386
0.293604
0.296768
0.336246
0.335056
0.308156
0.326155
0.100378
0.101136
0.104147
0.11053
0.117613
0.123723
0.128625
0.131967
0.131023
0.125906
0.116622
0.105525
0.100638
0.100068
0.100009
0.100004
0.100004
0.100004
0.100004
0.100004
0.100005
0.100005
0.100005
0.100005
0.100006
0.100006
0.100006
0.100006
0.100006
0.100007
0.100007
0.100011
0.100009
0.100036
0.100018
0.100201
0.100097
0.100746
0.100359
0.104002
0.101711
0.10388
0.102272
0.131765
0.129883
0.106679
0.109735
0.164162
0.162665
0.133241
0.134725
0.166771
0.16595
0.140717
0.139333
0.222377
0.201881
0.168518
0.172188
0.392951
0.351709
0.28812
0.238492
0.482173
0.466971
0.420144
0.446768
0.514737
0.509321
0.502479
0.493572
0.528112
0.525202
0.521868
0.517973
0.537033
0.534985
0.532796
0.53048
0.542212
0.540515
0.543138
0.540063
0.529544
0.534514
0.548323
0.543956
0.500776
0.420335
0.489906
0.527438
0.384346
0.245233
0.26173
0.253614
0.341931
0.308992
0.254047
0.311048
0.326775
0.285823
0.310363
0.353871
0.35621
0.375511
0.343336
0.363054
0.100805
0.102163
0.107171
0.11455
0.121975
0.128099
0.132427
0.134134
0.131048
0.123562
0.112365
0.10225
0.100232
0.100024
0.100005
0.100004
0.100004
0.100004
0.100004
0.100004
0.100005
0.100005
0.100005
0.100005
0.100006
0.100006
0.100005
0.100006
0.100006
0.100006
0.100007
0.100006
0.10001
0.100008
0.100024
0.100015
0.10011
0.100047
0.100288
0.100175
0.101056
0.100535
0.104065
0.101021
0.100698
0.100401
0.111892
0.111128
0.104071
0.137904
0.136389
0.112831
0.114132
0.144216
0.142345
0.121378
0.119474
0.201302
0.180933
0.147244
0.152028
0.384388
0.339512
0.274811
0.220161
0.480467
0.464956
0.416009
0.443972
0.513465
0.507971
0.501097
0.4921
0.527746
0.524648
0.521245
0.517338
0.537896
0.535701
0.53324
0.530634
0.549736
0.543668
0.550119
0.542684
0.534049
0.54309
0.549096
0.549327
0.521865
0.47048
0.510289
0.529752
0.441673
0.267687
0.287306
0.29587
0.407226
0.375948
0.298785
0.331487
0.349941
0.310113
0.335695
0.383566
0.371575
0.395373
0.369004
0.386571
0.101295
0.104239
0.110821
0.118998
0.126658
0.132189