/*--------------------------------*- C++ -*----------------------------------*\
  =========                 |
  \\      /  F ield         | OpenFOAM: The Open Source CFD Toolbox
   \\    /   O peration     | Website:  https://openfoam.org
    \\  /    A nd           | Version:  dev
     \\/     M anipulation  |
\*---------------------------------------------------------------------------*/
FoamFile
{
    version     2.0;
    format      ascii;
    class       volScalarField;
    location    "2500";
    object      alphat;
}
// * * * * * * * * * * * * * * * * * * * * * * * * * * * * * * * * * * * * * //

dimensions      [1 -1 -1 0 0 0 0];

internalField   nonuniform List<scalar> 
9846
(
0.000144731
0.000149648
0.000139618
0.000142034
0.000169148
0.000126473
0.000132391
0.000181327
0.00015754
0.00012138
0.000128275
0.000180858
0.000179175
0.000137129
0.000119708
0.000124984
0.000174498
0.000193758
0.000162516
0.000126575
0.000119087
0.000123364
0.000162112
0.000200709
0.000185383
0.000140376
0.000122577
0.000117909
0.000122664
0.000151241
0.000200183
0.000199318
0.00016253
0.000128018
0.000120896
0.000117513
0.000122092
0.000143503
0.000196101
0.000208903
0.000185078
0.000140621
0.000123314
0.000118817
0.00011742
0.000121225
0.000136999
0.000185465
0.000216248
0.000201725
0.00015947
0.000128212
0.000121305
0.000117671
0.000117378
0.000120511
0.000132372
0.000172722
0.000217231
0.000213094
0.000179741
0.000139555
0.000123268
0.000119212
0.000117183
0.00011734
0.000119899
0.000129222
0.000162035
0.000215469
0.000221172
0.000197828
0.000155341
0.000127959
0.000121174
0.000117682
0.000117023
0.000117311
0.000119448
0.000127147
0.000154664
0.000210319
0.00022912
0.000212388
0.000171957
0.000138179
0.000123032
0.000119323
0.000116875
0.000117012
0.000117286
0.00011919
0.000125862
0.000148292
0.000200614
0.000233843
0.000223808
0.000188747
0.000150134
0.000127766
0.00012084
0.000117749
0.000116558
0.000117044
0.000117279
0.000119194
0.000125099
0.000143411
0.000190168
0.000234258
0.000232035
0.000204744
0.000163735
0.000135991
0.000122731
0.000119251
0.000116778
0.000116524
0.000117086
0.000117293
0.000119477
0.000124716
0.000140162
0.000181015
0.000232872
0.000238107
0.000218468
0.000178588
0.000145087
0.000127303
0.000120457
0.000117837
0.000116313
0.000116623
0.000117137
0.000117324
0.000120217
0.000124606
0.000138199
0.000174246
0.000228949
0.000244873
0.00023024
0.000193166
0.000156152
0.000133734
0.000122443
0.000119081
0.000116883
0.000116217
0.000116783
0.0001172
0.000117376
0.000122094
0.000124762
0.000137166
0.000169599
0.000223236
0.00024957
0.000239375
0.000207152
0.000168591
0.000140968
0.000126826
0.000120169
0.000117988
0.000116387
0.000116328
0.000116968
0.000117301
0.00011744
0.000126524
0.00012521
0.000136825
0.000166618
0.000217488
0.000251957
0.00024647
0.000220172
0.000182016
0.000149848
0.000131992
0.000122543
0.000118984
0.000117226
0.000116257
0.000116579
0.000117183
0.000117428
0.000117509
0.00012051
0.000126203
0.000137064
0.000164996
0.000212588
0.000252897
0.000252156
0.000231395
0.000195602
0.000160491
0.000138041
0.000126607
0.000120266
0.000118279
0.000116865
0.000116375
0.000116928
0.000117431
0.000117578
0.000117536
0.000120573
0.000127573
0.000137574
0.000164489
0.000209086
0.000253092
0.000258231
0.000241321
0.000208384
0.000172469
0.000145662
0.000131222
0.000123197
0.000119204
0.000117925
0.000116876
0.000116698
0.000117338
0.000117703
0.000117787
0.00011753
0.000126987
0.000130032
0.000138234
0.000164896
0.000206947
0.000252794
0.000264694
0.000250474
0.000220354
0.000185067
0.000154793
0.000136879
0.000127243
0.00012114
0.000118795
0.000117956
0.000117148
0.000117173
0.000117774
0.000118003
0.00011802
0.000117515
0.000123627
0.000134515
0.000139876
0.0001658
0.000206055
0.000252634
0.000270355
0.000258269
0.000231516
0.000197928
0.000165426
0.000143769
0.000131943
0.000124863
0.000120194
0.000118839
0.000118289
0.000117711
0.000117736
0.000118206
0.000118312
0.000118258
0.000117494
0.000123852
0.000130953
0.000141932
0.000167937
0.000206578
0.000253406
0.000274926
0.000265361
0.000241706
0.000210717
0.000177383
0.000152172
0.000137617
0.000129254
0.000123517
0.000120064
0.000119187
0.000118978
0.000118513
0.000118374
0.00011859
0.000118592
0.000118453
0.000117496
0.000124102
0.000132486
0.000143836
0.000170846
0.000208035
0.000255161
0.000279121
0.000272935
0.000251271
0.000223055
0.000190312
0.000162226
0.000144722
0.0001345
0.000128063
0.000123236
0.000120437
0.000119882
0.000119939
0.000119553
0.0001191
0.000118895
0.000118768
0.000118467
0.000117489
0.000123004
0.000135051
0.00014817
0.000174073
0.000210689
0.000257294
0.000283717
0.000281234
0.000260751
0.000234876
0.000203804
0.000173845
0.000153579
0.000141297
0.000133559
0.000128148
0.000123687
0.00012129
0.000120858
0.000121018
0.000120751
0.00011995
0.000119184
0.000118862
0.000118377
0.00011747
0.000122779
0.000137295
0.000153458
0.000178982
0.000213959
0.000259849
0.000289373
0.000289865
0.000270423
0.000246383
0.00021753
0.000186857
0.000164528
0.000150288
0.000140877
0.000134163
0.000129111
0.000124803
0.000122628
0.000122076
0.000122143
0.000121897
0.00012086
0.0001195
0.00011886
0.000118213
0.000117441
0.000123036
0.000139082
0.000158194
0.000184922
0.000218362
0.000262924
0.000295998
0.000298445
0.000280181
0.000257424
0.000231283
0.000201275
0.000177977
0.000161992
0.00015076
0.000142499
0.00013615
0.000131158
0.000126699
0.00012437
0.0001235
0.000123201
0.000122794
0.00012165
0.000119789
0.000118754
0.000118001
0.000117399
0.00012344
0.000140681
0.000162261
0.000190773
0.000223627
0.000266629
0.000303401
0.000307134
0.000289952
0.000268084
0.000244562
0.000217139
0.000194336
0.000177005
0.00016434
0.000154533
0.000146534
0.000139768
0.000134173
0.00012927
0.000126436
0.000125053
0.000124169
0.000123413
0.000122149
0.000119949
0.000118538
0.000117817
0.000117349
0.000123865
0.00014241
0.000165813
0.000196078
0.000229009
0.000270993
0.000311476
0.000316296
0.000300312
0.000278689
0.000258068
0.000234575
0.000213051
0.000195884
0.000182989
0.00017214
0.000162332
0.000153091
0.000144736
0.000137771
0.000132129
0.000128723
0.000126607
0.000124979
0.000123717
0.000122296
0.000119882
0.000118209
0.000117636
0.000117297
0.00012442
0.000144233
0.000169151
0.000200748
0.000233984
0.000275623
0.000319999
0.00032621
0.000311825
0.000289929
0.000271879
0.000252173
0.000233466
0.000218737
0.000207394
0.000196453
0.000184384
0.000172618
0.000161208
0.000150881
0.000142244
0.000135474
0.000131149
0.000128075
0.000125612
0.000123734
0.000122161
0.000119638
0.000117838
0.000117468
0.000117257
0.000124767
0.000146129
0.000172367
0.000204897
0.000238246
0.000279906
0.000328485
0.000337007
0.000324401
0.000301522
0.000285206
0.000269608
0.000255647
0.000245404
0.000236893
0.000224979
0.000210966
0.000195293
0.000180547
0.000167834
0.000156525
0.000146847
0.000139628
0.000134204
0.000129774
0.000126085
0.000123512
0.000121823
0.000119309
0.000117532
0.000117311
0.000117247
0.000124895
0.000147361
0.000175391
0.000208623
0.000241705
0.000283527
0.000336291
0.000348622
0.000337764
0.000313459
0.000298219
0.000286939
0.000279004
0.000275889
0.000273635
0.000265778
0.000247859
0.000226296
0.000203715
0.000183111
0.000168098
0.000157942
0.000149223
0.000142113
0.000136808
0.000131741
0.000126505
0.00012312
0.000121349
0.000119116
0.000117426
0.000116997
0.000117119
0.00012512
0.000148183
0.000177857
0.000211708
0.000244325
0.000286469
0.000342715
0.000360836
0.000351685
0.000325761
0.00031079
0.000303417
0.000302447
0.000308434
0.000318516
0.000325797
0.000327381
0.000312993
0.000274136
0.000223954
0.00018755
0.000168968
0.000156519
0.000149002
0.000143101
0.000137621
0.000132175
0.000126144
0.000122608
0.000120964
0.000119274
0.000117817
0.000117179
0.00011718
0.000117184
0.000125481
0.000149289
0.000179853
0.000213977
0.000246012
0.000288255
0.000346761
0.000373317
0.000366248
0.000338547
0.000322897
0.000318384
0.00032406
0.00034088
0.000366209
0.0003964
0.000423249
0.000443093
0.000432925
0.00038293
0.00029302
0.000207909
0.000170939
0.000155856
0.000148704
0.000143838
0.00013793
0.000131425
0.000125461
0.000122224
0.000120885
0.000120021
0.000118463
0.000117375
0.000117709
0.000117194
0.000117217
0.000125498
0.000150556
0.000181613
0.000215596
0.000246615
0.000288709
0.000348501
0.000385678
0.000381381
0.000351979
0.000334758
0.000331684
0.000342789
0.000369167
0.000411207
0.000465513
0.000522095
0.000562324
0.000568953
0.000549639
0.000495716
0.000392077
0.000253808
0.00017875
0.00015807
0.000149017
0.000143924
0.000137837
0.000130488
0.000125023
0.000122073
0.000121347
0.000119859
0.00012082
0.000118307
0.000119732
0.000118882
0.000117431
0.000117895
0.000117213
0.000117261
0.000125498
0.000151004
0.000183136
0.000216689
0.000246506
0.000287885
0.00034813
0.000397045
0.000396407
0.000366297
0.000346626
0.000343431
0.000358268
0.000392923
0.000447286
0.000521407
0.000577747
0.000605307
0.000617305
0.000617055
0.000603123
0.00056251
0.000475097
0.0003218
0.000197823
0.000162313
0.000149985
0.000144222
0.000135783
0.000129783
0.000124726
0.000122457
0.000121775
0.000122492
0.000121011
0.000118313
0.000119905
0.000118824
0.000117533
0.000117943
0.000117249
0.000117347
0.000125418
0.00015082
0.000184097
0.000217315
0.000245677
0.000285399
0.000346408
0.000406563
0.000410682
0.000382101
0.000358929
0.00035386
0.000370583
0.000410874
0.000476531
0.000551599
0.000588482
0.000606774
0.000617379
0.000621147
0.000622068
0.000614697
0.000594166
0.000530366
0.000391234
0.000228069
0.00016793
0.000153734
0.000144327
0.000135453
0.000126386
0.000124348
0.000123122
0.000123845
0.000122165
0.000123045
0.000121383
0.000118188
0.00012024
0.000118844
0.000117636
0.000117907
0.00011731
0.000117472
0.000125322
0.00015045
0.000184356
0.000217522
0.000243971
0.000281861
0.000342598
0.00041326
0.000424546
0.000399781
0.000371837
0.000363523
0.000380181
0.000422397
0.000494104
0.000552852
0.000581009
0.000590009
0.000591201
0.000594731
0.000600899
0.000606953
0.000607865
0.000599574
0.000559794
0.000451593
0.000281151
0.000182318
0.000159165
0.000144114
0.000132311
0.000123183
0.000124073
0.000121859
0.000123639
0.000123466
0.000122443
0.000123047
0.00012157
0.00011813
0.000118903
0.00010939
0.000116651
0.000113968
0.000110715
9.73183e-05
0.000125228
0.000149882
0.000184113
0.000217447
0.000241896
0.000277385
0.00033802
0.00041601
0.000438224
0.000418562
0.000385319
0.000372802
0.000388114
0.000430148
0.000501352
0.000544065
0.000560956
0.000546514
0.000511403
0.000509404
0.00052973
0.000555588
0.000582376
0.000593068
0.000590032
0.000562264
0.000486021
0.000348267
0.000216193
0.000166705
0.000147938
0.000133854
0.00011465
0.00010515
0.000120299
0.000110883
0.000122799
0.000119297
0.000122064
0.000121725
0.000113418
0.000102405
0.000100724
9.05908e-05
9.53008e-05
9.18214e-05
9.12682e-05
8.10054e-05
0.000125119
0.000149051
0.000183598
0.0002169
0.000239568
0.00027222
0.000332035
0.000413885
0.00045132
0.000437919
0.000399649
0.000381923
0.000393916
0.000436089
0.000500093
0.000531081
0.000534523
0.000486377
0.000412099
0.000410179
0.000454651
0.000489742
0.000514869
0.000543502
0.00056893
0.000564062
0.000540164
0.000495742
0.000412671
0.000303365
0.000222333
0.000186513
0.000111681
0.000173623
0.000100523
0.0001051
0.000109178
9.90456e-05
0.000118191
0.00010806
0.000112056
0.000113595
9.95379e-05
8.36906e-05
8.6637e-05
7.66286e-05
7.86775e-05
7.47849e-05
7.64586e-05
6.8296e-05
0.000125062
0.000147918
0.000182677
0.000215903
0.000237124
0.000266629
0.000324291
0.000408497
0.000463313
0.000457545
0.000415138
0.000391867
0.000397723
0.000436406
0.000496899
0.000519836
0.000509072
0.000431384
0.000334882
0.00032536
0.000378743
0.000439487
0.000475197
0.000493877
0.000512011
0.000527315
0.000527361
0.000514725
0.000496051
0.000460547
0.000413037
0.000366888
0.00025696
0.000355021
0.000167355
0.00026355
0.000105251
0.000171895
9.85749e-05
0.000106728
0.00010737
9.85298e-05
0.000101816
0.0001071
8.869e-05
6.91663e-05
7.56784e-05
6.57427e-05
6.5551e-05
6.19382e-05
6.56558e-05
5.87259e-05
0.000125085
0.000146472
0.000181379
0.00021456
0.000234613
0.000260827
0.000315199
0.000398322
0.000472398
0.000475538
0.00043226
0.000403493
0.000402082
0.000436525
0.000491184
0.00050911
0.000489082
0.000394352
0.000282246
0.000261293
0.0003006
0.000370629
0.000430121
0.000457519
0.000470584
0.000484292
0.000495136
0.000500059
0.000494878
0.000504542
0.000508418
0.00049564
0.000418179
0.000485128
0.00035196
0.000422737
0.000269188
0.000354574
0.000177138
0.000274176
0.000107953
0.000181407
9.85578e-05
0.000108346
9.54652e-05
9.84029e-05
8.12119e-05
5.81326e-05
6.75738e-05
5.7021e-05
5.56041e-05
5.22828e-05
5.82219e-05
5.17976e-05
0.000125286
0.000144885
0.000179639
0.000212893
0.000232076
0.00025494
0.00030519
0.000387465
0.000476197
0.000491416
0.000453131
0.000417207
0.000407697
0.0004359
0.000486301
0.000500752
0.000474768
0.000376411
0.000253073
0.000217759
0.000235875
0.000290767
0.000364434
0.000427508
0.000450851
0.000462787
0.000472709
0.000477456
0.000480319
0.00049815
0.000530557
0.000548721
0.000516159
0.000542556
0.000478631
0.000513587
0.000423607
0.000474112
0.000357709
0.000423588
0.000278572
0.000360498
0.000183039
0.000281826
0.000107337
0.000180802
9.81232e-05
0.00010463
8.89025e-05
4.98475e-05
6.91919e-05
5.42817e-05
4.81951e-05
4.51125e-05
5.41692e-05
4.72057e-05
0.000125728
0.000143185
0.00017747
0.000211076
0.000229561
0.000249235
0.000294535
0.000375449
0.000473788
0.000506127
0.000477578
0.000432917
0.000414091
0.000435228
0.000483084
0.000494306
0.000467766
0.000370105
0.000244077
0.000195475
0.000192326
0.00022305
0.000277752
0.000366383
0.00042843
0.00045019
0.000466404
0.00047575
0.000477318
0.000490425
0.000521308
0.000543263
0.0005445
0.000550301
0.000532727
0.000537707
0.000506579
0.000522786
0.000470631
0.000499081
0.000423713
0.000467105
0.000362796
0.000423541
0.000282626
0.000363966
0.000173646
0.0002799
0.000101166
0.000159121
9.90087e-05
4.51101e-05
9.54173e-05
6.81709e-05
4.28355e-05
4.00324e-05
5.48992e-05
4.48417e-05
0.000124868
0.000141319
0.00017481
0.00020921
0.000227285
0.000243965
0.000283724
0.000361332
0.000465743
0.000518347
0.000502856
0.00045011
0.000422549
0.00043514
0.000480625
0.000491514
0.000464683
0.000373511
0.000247405
0.000191097
0.00017126
0.000179802
0.000210715
0.000268022
0.00036197
0.000424762
0.000456642
0.000476826
0.000489637
0.000489035
0.000513623
0.000533958
0.000542347
0.000537355
0.000537051
0.000527097
0.000527747
0.000512669
0.000516512
0.000492556
0.000503992
0.000464148
0.000486666
0.000423396
0.000461042
0.000363546
0.000421844
0.000272942
0.000360267
0.00013853
0.00025739
0.000122724
4.95039e-05
0.000110857
0.000104809
3.93104e-05
3.92011e-05
6.66634e-05
4.49642e-05
0.00012348
0.00013916
0.000171648
0.000207197
0.000225177
0.000239556
0.000273191
0.000345885
0.000449036
0.000526372
0.000525938
0.000469026
0.000433436
0.000435678
0.000478257
0.000490646
0.000468566
0.000378938
0.000253733
0.000192944
0.000168196
0.000159528
0.000170554
0.000200128
0.000252654
0.000332227
0.000415542
0.000465335
0.000499686
0.000519302
0.000511445
0.000530846
0.000565365
0.000578124
0.000610814
0.000532768
0.000552469
0.00052236
0.000538604
0.000512592
0.000525585
0.000501663
0.000515961
0.000485999
0.000505446
0.000461382
0.000490012
0.000421356
0.000464735
0.000353148
0.000421771
0.000228934
0.000342361
0.000194393
8.0487e-05
0.000156959
0.000133268
3.64046e-05
5.25407e-05
8.55946e-05
3.85384e-05
0.000121482
0.000136368
0.000167894
0.000204857
0.000223396
0.000235812
0.00026383
0.000329565
0.00043194
0.000527342
0.000544346
0.000492283
0.000446648
0.000437239
0.000474445
0.000493538
0.000472705
0.000388819
0.000269516
0.000196168
0.00017351
0.000157533
0.000152382
0.000163339
0.000191281
0.000235584
0.000293875
0.000381775
0.000476064
0.000528518
0.000535443
0.000532941
0.000588078
0.000641832
0.000665857
0.000656556
0.000695571
0.000568448
0.000612368
0.000553779
0.000597855
0.000542527
0.000580022
0.000533757
0.000568555
0.000522628
0.000559268
0.00050564
0.000547541
0.000476174
0.000528244
0.000422731
0.000493375
0.000324784
0.000427482
0.000298913
0.000114316
0.000260858
0.000207941
3.30855e-05
9.67267e-05
3.16841e-05
2.63172e-05
0.000120605
0.00013279
0.000163077
0.000202042
0.000221665
0.000232999
0.000255517
0.000313727
0.000412856
0.000523262
0.000558931
0.000520888
0.000464083
0.000440849
0.000469483
0.000499764
0.0004815
0.00040632
0.00029526
0.000206134
0.000179048
0.000164239
0.000151717
0.000147738
0.000159349
0.00018436
0.000221807
0.000278117
0.000372414
0.000500048
0.00054127
0.000536434
0.000590213
0.000679503
0.000689305
0.000729812
0.00073769
0.000751153
0.000769627
0.000649856
0.000708192
0.000635156
0.00070001
0.000622481
0.00068482
0.000614069
0.000674305
0.000603717
0.00066721
0.000588932
0.000657552
0.000562286
0.000638746
0.000513184
0.00060207
0.000426439
0.000537376
0.000419045
0.000166253
0.000399346
0.000352099
4.97777e-05
0.00012685
1.39046e-05
2.2909e-05
0.000126351
0.000131938
0.000156452
0.000198132
0.000220086
0.00023044
0.000249063
0.000298706
0.000392274
0.000508984
0.00056796
0.000549572
0.000484481
0.000447799
0.000463341
0.00050638
0.00049571
0.000429442
0.000324409
0.000228554
0.000188878
0.000172271
0.000159049
0.000145625
0.000145761
0.000160986
0.000192661
0.000228493
0.000281349
0.000389219
0.000520363
0.000536229
0.000582289
0.000696467
0.000741832
0.000735937
0.0007759
0.00077087
0.000795667
0.000798952
0.00075434
0.000788398
0.00074985
0.000792468
0.000743377
0.000793426
0.000741239
0.0008002
0.00073477
0.000803217
0.000720202
0.000798863
0.000692422
0.000781008
0.000642321
0.000742483
0.00055376
0.000674844
0.000559941
0.000283188
0.000546136
0.000508768
9.89799e-05
0.000205946
4.95515e-05
0.000101357
0.000137474
0.000152675
0.000191435
0.000217895
0.000228323
0.000243574
0.000285691
0.000370849
0.000487871
0.000569792
0.000573272
0.000508269
0.000459497
0.000458513
0.00051011
0.000509653
0.000456534
0.000357158
0.000258347
0.000211603
0.000184235
0.000168111
0.000152934
0.000143097
0.00014918
0.000179204
0.000222162
0.000263839
0.000323436
0.000432404
0.000519414
0.000564212
0.00066958
0.000725846
0.000717785
0.00076008
0.000744739
0.000786406
0.000764545
0.000805044
0.000772906
0.000806443
0.000814898
0.00081597
0.000822706
0.000825853
0.000829696
0.000837224
0.000842364
0.000846904
0.000858084
0.000847544
0.000867755
0.000823871
0.000854932
0.000775525
0.000841657
0.000691687
0.000790382
0.000690299
0.000441384
0.000671428
0.000633682
0.000183709
0.000369117
0.000222631
0.000259172
0.000155011
0.000184646
0.000214633
0.000225845
0.000239327
0.000273908
0.000350291
0.00046542
0.000566858
0.000590721
0.00053566
0.000476214
0.00045564
0.000501579
0.000525681
0.00048588
0.000394604
0.000295561
0.00023881
0.000207673
0.000181088
0.000163361
0.000147749
0.000144254
0.000165961
0.000217077
0.000263579
0.000312465
0.000378337
0.000461802
0.000533681
0.000646408
0.000707068
0.000708839
0.000702829
0.000696133
0.000738989
0.000716716
0.000728752
0.000682723
0.000721987
0.000650083
0.000817292
0.00078164
0.000827589
0.000796238
0.000841805
0.000813503
0.000856237
0.000833297
0.000828415
0.000787811
0.000781217
0.000720716
0.000775032
0.000695379
0.000804038
0.000702828
0.000784737
0.000742251
0.000766497
0.000576991
0.00074245
0.0007132
0.000664595
0.000382604
0.000517501
0.000133925
0.000378282
0.000184455
0.000208231
0.000223451
0.000235299
0.00026422
0.000330502
0.000440801
0.000555052
0.000600463
0.000565405
0.00049265
0.000457397
0.000486726
0.000538554
0.000515131
0.000436971
0.000339894
0.000266898
0.00023739
0.000205338
0.000178424
0.000158724
0.000146887
0.000154244
0.000199721
0.00026707
0.000318651
0.000371799
0.000436616
0.000515506
0.000634113
0.000710502
0.000696568
0.000701153
0.000614183
0.00061767
0.000644974
0.000621971
0.00057117
0.000508528
0.000525776
0.000429093
0.000729377
0.000632454
0.000745419
0.000643949
0.000769025
0.00066689
0.000769431
0.000690601
0.000681859
0.000678329
0.000635135
0.000600639
0.000626029
0.00057224
0.000635642
0.000560464
0.000685605
0.000549605
0.000694857
0.000767437
0.000627765
0.000694109
0.000610682
0.000668977
0.000738617
0.000614507
0.000597962
0.000720391
0.000488918
0.000645337
0.000616272
0.000559208
9.8429e-05
0.000347318
0.000205631
0.000218954
0.000232038
0.000255571
0.000312869
0.000414993
0.000533037
0.000601768
0.000590319
0.000515948
0.000465812
0.000474862
0.000539804
0.000543115
0.00048374
0.000392612
0.000305686
0.000267934
0.000235345
0.000205708
0.000174746
0.000156826
0.000150136
0.000177501
0.000252555
0.000324811
0.000383407
0.000440864
0.000517925
0.000634022
0.000709639
0.000642943
0.000656527
0.000625629
0.000633876
0.000462861
0.000475161
0.000470378
0.00045642
0.000365449
0.000326387
0.000352716
0.000307788
0.000524203
0.000421747
0.000543712
0.000444671
0.000570342
0.000478993
0.000591617
0.000506321
0.000614277
0.000516425
0.000534686
0.000520568
0.000501732
0.000527526
0.000456515
0.000568754
0.000467154
0.000408301
0.000497984
0.00051046
0.000619488
0.000503155
0.000513539
0.000581491
0.000712228
0.000692192
0.000641474
0.000575611
0.000572134
0.000672358
0.000597318
0.000491534
0.000567176
0.000670258
0.000647961
7.69814e-05
0.000509804
0.000399448
0.000255786
0.000215067
0.000227916
0.000248369
0.000296923
0.000389426
0.000508756
0.000598479
0.000607889
0.000548975
0.000482014
0.000465062
0.000528359
0.000567496
0.000532812
0.000455832
0.000362738
0.000301334
0.000266804
0.000236472
0.00020319
0.000171133
0.000156678
0.000162221
0.000213692
0.000312731
0.000388536
0.000459514
0.000535146
0.000625252
0.000699269
0.000594729
0.000510084
0.000509867
0.000491358
0.000503481
0.000294228
0.000300919
0.000305077
0.000296171
0.000279446
0.000259377
0.000303976
0.000278761
0.000382407
0.000337888
0.000423562
0.00037688
0.000453178
0.000410105
0.000465112
0.000431183
0.000462955
0.000432493
0.000528546
0.000481734
0.000448335
0.000430566
0.000458524
0.000421433
0.000424169
0.000488625
0.000470628
0.000440266
0.000418507
0.000419002
0.000491453
0.000517947
0.000473248
0.000451931
0.000517626
0.000718965
0.000704081
0.000584118
0.000520249
0.000522765
0.000616488
0.000626209
0.000590025
0.000687386
0.000669675
0.000231649
4.29938e-05
8.00817e-05
0.000519362
0.000392982
0.000221364
0.000243471
0.000282125
0.000365269
0.000481198
0.000586319
0.000616834
0.000576679
0.000501625
0.000461132
0.000506229
0.000575153
0.000576855
0.000525665
0.000438902
0.000347966
0.000299904
0.000267448
0.000234329
0.000192451
0.000171246
0.000160659
0.000185125
0.000256459
0.000347808
0.00043909
0.000523174
0.000604944
0.00065861
0.00053605
0.00030408
0.000287442
0.000322274
0.000312588
0.000311831
0.000320552
0.000223652
0.00022149
0.000243303
0.000230888
0.000258882
0.000242645
0.000306895
0.000295126
0.0003418
0.000319459
0.000384876
0.000375118
0.000412816
0.00041359
0.000417653
0.000424284
0.000414193
0.000410158
0.000411717
0.000417362
0.000449174
0.000427159
0.000408951
0.000400194
0.000443879
0.00042592
0.000451221
0.000425433
0.000413891
0.000397883
0.000437281
0.000402843
0.000436873
0.000461747
0.000417682
0.000395189
0.000459297
0.000660712
0.000705287
0.00053437
0.000462542
0.000470747
0.000557809
0.000647201
0.00060495
0.000696174
0.000682929
0.000204976
1.33976e-05
6.50467e-05
0.000522887
0.000381656
0.000232867
0.000273544
0.000340708
0.000453296
0.000562831
0.000617618
0.000598711
0.000517819
0.00046595
0.000484561
0.000572538
0.000607522
0.000592699
0.000529361
0.000426317
0.00034327
0.000300101
0.000264295
0.000226517
0.000188583
0.000172391
0.000171604
0.000209016
0.000268764
0.00035343
0.000456892
0.000545678
0.000534315
0.000369609
0.000246469
0.000218762
0.000213302
0.000226867
0.000223166
0.000223141
0.000226442
0.000203198
0.000190593
0.000228656
0.000215778
0.000280778
0.000262543
0.000362331
0.00035221
0.000371018
0.000367011
0.000418723
0.000421978
0.000433931
0.000444669
0.000422968
0.000429376
0.000435066
0.000440466
0.000400051
0.000404879
0.000411269
0.000417654
0.000407938
0.000392853
0.000389635
0.000392351
0.00040685
0.000406755
0.000390415
0.000389731
0.000375033
0.000388329
0.000392224
0.000416537
0.000379171
0.000406969
0.000365638
0.000356348
0.000403881
0.000585684
0.000616709
0.000485018
0.000409856
0.000421469
0.000504601
0.000660315
0.000613066
0.000639556
0.000646702
0.000176565
4.47901e-06
4.7467e-05
0.000520645
0.000360433
0.000255614
0.000326116
0.000420757
0.000539026
0.000613634
0.000612543
0.000548331
0.000480239
0.000466706
0.000551862
0.000616643
0.000643821
0.000622305
0.000535926
0.000412134
0.000340567
0.000296029
0.000260472
0.000221133
0.000189856
0.000176806
0.000184768
0.000215715
0.000274787
0.000339392
0.000383934
0.000354963
0.000286404
0.00021472
0.000182906
0.000179892
0.000181234
0.000180341
0.000182625
0.000182333
0.000182197
0.000180472
0.0001953
0.000180687
0.000240109
0.000216281
0.000335666
0.000311521
0.000417449
0.000406543
0.000423581
0.000423026
0.000450689
0.000454002
0.000446145
0.000452173
0.000423392
0.000428364
0.000433159
0.000438481
0.000397781
0.000403632
0.000408767
0.000413195
0.000381341
0.000380336
0.000383949
0.000388812
0.000376532
0.000376107
0.000365063
0.000370583
0.000371201
0.000401474
0.000365312
0.000380994
0.00034114
0.000357816
0.000330365
0.000353439
0.00035726
0.000523982
0.000541395
0.000439569
0.000364222
0.000378218
0.000459583
0.000632937
0.000589066
0.000553318
0.000559896
0.000137951
2.83166e-06
1.58523e-05
0.000487875
0.000326023
0.000297174
0.000401559
0.000505474
0.000601595
0.000616996
0.000578562
0.000499949
0.000459033
0.000515786
0.000614483
0.000669562
0.000699916
0.000655369
0.000533853
0.000394684
0.000335129
0.000292137
0.000260168
0.00021582
0.000193222
0.000183495
0.000188811
0.000218996
0.0002615
0.00027985
0.00026424
0.000229477
0.000195527
0.000168901
0.000160992
0.000160874
0.000158804
0.000159783
0.000156343
0.000157817
0.000169329
0.000158458
0.000205067
0.000176072
0.000279053
0.000241615
0.000389651
0.000363982
0.000439869
0.000433143
0.000453405
0.000446314
0.000452784
0.000447824
0.000433115
0.000435671
0.000437996
0.000437498
0.000417115
0.000420866
0.000424701
0.000428642
0.00039316
0.000396736
0.000399791
0.000402696
0.000370712
0.000373992
0.000377483
0.00038006
0.000354896
0.00035958
0.000348222
0.000360061
0.000390489
0.000372328
0.000345016
0.000356444
0.000336158
0.000322934
0.000320708
0.000383075
0.000323032
0.000476882
0.000488171
0.000398807
0.000328545
0.000341384
0.000417848
0.000548972
0.000505143
0.000497003
0.000497431
0.000108225
2.02125e-06
5.21128e-06
0.000400063
0.000265546
0.000360576
0.000484654
0.000574003
0.000616573
0.000596986
0.000516195
0.000463301
0.000483344
0.000599711
0.000671558
0.000744154
0.000760798
0.000678287
0.000522651
0.000380195
0.000328381
0.000293152
0.000255545
0.000214143
0.000196603
0.000186796
0.000193278
0.000211235
0.000215571
0.000210906
0.000197252
0.000182566
0.000165918
0.000152414
0.000154385
0.00014835
0.00015015
0.000143349
0.000146057
0.000140164
0.0001407
0.000158217
0.000148288
0.000230479
0.000185146
0.000327539
0.000281029
0.000422407
0.000404032
0.000439165
0.000437547
0.000441837
0.000440071
0.000437939
0.00043549
0.00042918
0.000422257
0.000424935
0.000427875
0.000427031
0.000405819
0.000409462
0.000413577
0.000417885
0.000381891
0.000383411
0.000385234
0.000387609
0.000362581
0.000364289
0.000364948
0.000365002
0.000337654
0.000349016
0.000337914
0.000350134
0.000365946
0.00034986
0.000328102
0.000336227
0.000379314
0.000308238
0.000354217
0.000361954
0.000302128
0.000434908
0.000447677
0.000358121
0.000300518
0.000308717
0.000377798
0.000484252
0.000436674
0.000454785
0.000453705
6.81703e-05
1.62314e-06
2.66012e-06
0.000338834
0.000196501
0.000439059
0.000555518
0.000610585
0.000606051
0.000539789
0.000474367
0.000460874
0.000554665
0.000666211
0.000753222
0.000832925
0.000813644
0.000689403
0.000499258
0.000368782
0.000324994
0.000289888
0.000247961
0.000215191
0.000199127
0.000191563
0.0001923
0.00018972
0.000187542
0.000182
0.00017521
0.000165225
0.000151645
0.000140637
0.000142982
0.000135504
0.00013908
0.000129298
0.000132449
0.000130037
0.000126988
0.000153118
0.000136905
0.000265672
0.000207009
0.000372108
0.000324442
0.0004333
0.00042253
0.000438142
0.000440904
0.000430201
0.000433973
0.000426614
0.000425264
0.000412991
0.000411235
0.000409795
0.000412684
0.000415561
0.000415225
0.000390808
0.000394894
0.000399716
0.000405083
0.00036487
0.000364871
0.000365508
0.000367399
0.000349902
0.000348519
0.000346519
0.000344044
0.000327155
0.000337258
0.000324486
0.000334889
0.000345724
0.000329096
0.000316989
0.000319756
0.000360375
0.000326387
0.000361047
0.000344361
0.000301264
0.000395979
0.000410454
0.000324074
0.000286257
0.000288192
0.000343711
0.000436481
0.000390272
0.000419736
0.000420795
3.02709e-05
1.25936e-06
1.79096e-06
0.000283776
0.00014256
0.000513081
0.000599067
0.000606389
0.000567881
0.000491186
0.000455062
0.000506953
0.000646017
0.000748826
0.000858188
0.000918498
0.000858252
0.000687979
0.000463114
0.000361182
0.000319074
0.00028609
0.000243146
0.000215996
0.000201385
0.000192489
0.00018531
0.000181373
0.000177376
0.000172815
0.000166672
0.000155858
0.000140897
0.000144894
0.000133809
0.000137273
0.000125529
0.000129301
0.000118243
0.00012154
0.000120001
0.000117365
0.000159228
0.00013054
0.000302927
0.000234719
0.000400009
0.000360741
0.00043999
0.000432311
0.000438914
0.000448872
0.000413308
0.000417653
0.000424876
0.000415337
0.000413882
0.000398847
0.000400326
0.000394129
0.000398752
0.000402946
0.000401782
0.000370737
0.000375555
0.000381523
0.000388921
0.000341839
0.000340964
0.000341663
0.000344115
0.000331354
0.000326923
0.000322163
0.000318379
0.000312291
0.000319845
0.000305251
0.000313958
0.000324308
0.000312624
0.000300955
0.000307775
0.000345608
0.000357684
0.000349302
0.00032247
0.000326774
0.000362821
0.000380301
0.000300951
0.000301859
0.000284047
0.000317501
0.000404502
0.000352391
0.000391465
0.000394844