/*--------------------------------*- C++ -*----------------------------------*\
  =========                 |
  \\      /  F ield         | OpenFOAM: The Open Source CFD Toolbox
   \\    /   O peration     | Website:  https://openfoam.org
    \\  /    A nd           | Version:  dev
     \\/     M anipulation  |
\*---------------------------------------------------------------------------*/
FoamFile
{
    version     2.0;
    format      ascii;
    class       volScalarField;
    location    "2500";
    object      CO2;
}
// * * * * * * * * * * * * * * * * * * * * * * * * * * * * * * * * * * * * * //

dimensions      [0 0 0 0 0 0 0];

internalField   nonuniform List<scalar> 
9846
(
6.25406e-33
2.1244e-32
1.0126e-32
4.40289e-32
5.66903e-32
1.40454e-32
6.58145e-32
1.17836e-31
5.91448e-32
1.00829e-32
8.76314e-32
2.00616e-31
1.53647e-31
5.61976e-32
6.32938e-33
1.57009e-31
3.51412e-31
2.65648e-31
1.49744e-31
4.48908e-32
9.57313e-33
1.98124e-31
6.02968e-31
5.83954e-31
3.01403e-31
1.83967e-31
8.28665e-32
6.29063e-32
7.8192e-31
1.6445e-30
1.64661e-30
1.27624e-30
9.8064e-31
7.62959e-31
8.66083e-31
5.82109e-31
3.62622e-30
7.14341e-30
1.08974e-29
1.16329e-29
1.02665e-29
8.16397e-30
8.74497e-30
1.23016e-29
8.06855e-30
2.22426e-29
6.05386e-29
1.14316e-28
1.64032e-28
1.31976e-28
1.23098e-28
1.39745e-28
1.30369e-28
1.92036e-28
1.53496e-28
1.50096e-28
4.98735e-28
1.32591e-27
1.7549e-27
2.20832e-27
1.71322e-27
1.69033e-27
2.29444e-27
2.20926e-27
2.91303e-27
1.28308e-27
1.0819e-27
4.02119e-27
1.26526e-26
2.31701e-26
2.64038e-26
2.8106e-26
2.37661e-26
3.09548e-26
3.31331e-26
4.19163e-26
3.63761e-26
1.73306e-26
6.59218e-27
3.22404e-26
1.08585e-25
2.45747e-25
3.86828e-25
3.36273e-25
3.56221e-25
4.32299e-25
5.34161e-25
5.70556e-25
5.30452e-25
3.77369e-25
3.15927e-25
4.12879e-26
2.32398e-25
8.90309e-25
2.54405e-24
4.1554e-24
4.94605e-24
3.90941e-24
5.19286e-24
7.05613e-24
7.21485e-24
6.96143e-24
5.99457e-24
4.97589e-24
2.69435e-24
2.37546e-25
1.39666e-24
6.69118e-24
2.01724e-23
4.14436e-23
6.04023e-23
5.57012e-23
6.15988e-23
8.41575e-23
1.15978e-22
1.16531e-22
1.01053e-22
7.9418e-23
7.34274e-23
4.06977e-23
1.36223e-24
8.75106e-24
4.52815e-23
1.55549e-22
3.81554e-22
6.19525e-22
7.62465e-22
8.46355e-22
1.19604e-21
1.48253e-21
1.49732e-21
1.57264e-21
1.43273e-21
9.58677e-22
6.60622e-22
4.03367e-22
8.64094e-24
5.59911e-23
2.94426e-22
1.24783e-21
2.91354e-21
6.12137e-21
8.56712e-21
8.77617e-21
1.22983e-20
1.76819e-20
1.889e-20
1.74959e-20
1.74491e-20
1.33402e-20
8.87329e-21
6.12155e-21
2.87311e-21
8.03193e-23
3.68464e-22
2.0273e-21
8.01975e-21
2.62508e-20
5.01487e-20
8.28237e-20
1.06769e-19
1.51032e-19
2.02405e-19
2.38532e-19
2.16146e-19
2.0641e-19
2.03831e-19
1.393e-19
7.74114e-20
4.5419e-20
2.76462e-20
8.6776e-22
3.52877e-21
1.3952e-20
6.33542e-20
1.91634e-19
4.43743e-19
7.09306e-19
1.0698e-18
1.21453e-18
2.22053e-18
2.70737e-18
2.38437e-18
2.54155e-18
2.51667e-18
1.91137e-18
1.02938e-18
7.06509e-19
5.35465e-19
1.40694e-19
1.05925e-20
3.87689e-20
1.36632e-19
4.43715e-19
1.53307e-18
3.24616e-18
6.35119e-18
1.00788e-17
1.37511e-17
1.89048e-17
2.93513e-17
3.8045e-17
2.57049e-17
2.61525e-17
1.92843e-17
1.58038e-17
6.35092e-18
5.77378e-18
3.6387e-18
1.66013e-18
1.18389e-19
3.66564e-19
1.25733e-18
4.03287e-18
1.08412e-17
2.82847e-17
5.10416e-17
9.01432e-17
1.21017e-16
2.0445e-16
2.83024e-16
3.09577e-16
3.76506e-16
2.35652e-16
1.64791e-16
1.63773e-16
9.5714e-17
5.73918e-17
3.43972e-17
1.97946e-17
8.5711e-18
5.09909e-19
2.18997e-18
9.53657e-18
3.08652e-17
8.89279e-17
1.95098e-16
4.17037e-16
7.28465e-16
1.15159e-15
1.69407e-15
2.45291e-15
3.02875e-15
3.57904e-15
2.6842e-15
1.96499e-15
1.26119e-15
1.12453e-15
5.35252e-16
3.58672e-16
1.6765e-16
1.01322e-16
3.83597e-17
2.9251e-18
1.09323e-17
5.39312e-17
1.88461e-16
5.89201e-16
1.66319e-15
3.27608e-15
6.14867e-15
1.02224e-14
1.6869e-14
2.5077e-14
3.23703e-14
3.55388e-14
3.20315e-14
2.37829e-14
1.50643e-14
9.66295e-15
5.68027e-15
3.07176e-15
1.58681e-15
7.36257e-16
4.69507e-16
1.43833e-16
1.06966e-17
3.75465e-17
2.03093e-16
8.94101e-16
3.49969e-15
1.07737e-14
2.70821e-14
5.51274e-14
9.36357e-14
1.65556e-13
2.64143e-13
3.55346e-13
4.00639e-13
3.69997e-13
2.88201e-13
1.83095e-13
1.19123e-13
6.991e-14
3.70684e-14
1.76883e-14
8.02099e-15
3.45674e-15
1.28887e-15
3.2796e-16
2.16302e-17
1.15603e-16
6.91354e-16
3.88501e-15
1.74442e-14
6.31505e-14
1.85559e-13
4.5441e-13
8.63716e-13
1.51826e-12
2.62097e-12
3.71356e-12
4.31488e-12
4.08102e-12
3.27362e-12
2.16051e-12
1.44871e-12
8.55476e-13
4.5129e-13
2.15785e-13
9.5188e-14
3.96346e-14
1.52798e-14
5.28456e-15
7.67865e-16
3.53365e-17
2.47507e-16
2.0199e-15
1.37711e-14
7.45175e-14
3.05744e-13
1.0323e-12
2.95781e-12
6.43909e-12
1.18782e-11
2.3113e-11
3.59522e-11
4.36075e-11
4.216e-11
3.44243e-11
2.39227e-11
1.66656e-11
1.00897e-11
5.33718e-12
2.54618e-12
1.11625e-12
4.57112e-13
1.76812e-13
6.4906e-14
2.0892e-14
2.83809e-15
4.37225e-17
4.22542e-16
4.74387e-15
3.94137e-14
2.54278e-13
1.21854e-12
4.65739e-12
1.54671e-11
3.85442e-11
7.63852e-11
1.70989e-10
3.00561e-10
4.04198e-10
3.99545e-10
3.31074e-10
2.46961e-10
1.79484e-10
1.12261e-10
6.04256e-11
2.87021e-11
1.24743e-11
5.06864e-12
1.95602e-12
7.27695e-13
2.54449e-13
7.82883e-14
9.69448e-15
5.25244e-17
5.77714e-16
8.23816e-15
8.79312e-14
6.99897e-13
3.99409e-12
1.73197e-11
6.45358e-11
1.84947e-10
4.05055e-10
1.02172e-09
2.09576e-09
3.2443e-09
3.35889e-09
2.83938e-09
2.34824e-09
1.79603e-09
1.16463e-09
6.41968e-10
3.08165e-10
1.32555e-10
5.30846e-11
2.0256e-11
7.50827e-12
2.68686e-12
9.15488e-13
2.68991e-13
3.05591e-14
4.17494e-17
7.31819e-16
1.18612e-14
1.51393e-13
1.47688e-12
1.06956e-11
5.36343e-11
2.21349e-10
7.00046e-10
1.72528e-09
5.11895e-09
1.14399e-08
2.14148e-08
2.42113e-08
2.13039e-08
1.99858e-08
1.64203e-08
1.11389e-08
6.31688e-09
3.08081e-09
1.33119e-09
5.25653e-10
1.96945e-10
7.17033e-11
2.60895e-11
9.06468e-12
3.04639e-12
8.53413e-13
8.69378e-14
3.7622e-17
7.20967e-16
1.43436e-14
2.14366e-13
2.46707e-12
2.18107e-11
1.39124e-10
6.37022e-10
2.20242e-09
5.79288e-09
1.98734e-08
5.44888e-08
9.95756e-08
1.29384e-07
1.40391e-07
1.50144e-07
1.33118e-07
9.5857e-08
5.66569e-08
2.82452e-08
1.23214e-08
4.87275e-09
1.79752e-09
6.4172e-10
2.27377e-10
8.08648e-11
2.83305e-11
9.38702e-12
2.4521e-12
2.16128e-13
3.30829e-17
7.14376e-16
1.50924e-14
2.60975e-13
3.38601e-12
3.50288e-11
2.77191e-10
1.56354e-09
5.84357e-09
1.66144e-08
6.18582e-08
1.83076e-07
3.61284e-07
5.13927e-07
7.62014e-07
9.3838e-07
9.14982e-07
7.14525e-07
4.48887e-07
2.32603e-07
1.0332e-07
4.11224e-08
1.52008e-08
5.34995e-09
1.85842e-09
6.53364e-10
2.33551e-10
8.27615e-11
2.63651e-11
6.15908e-12
4.36201e-13
2.18322e-17
4.8418e-16
1.39296e-14
2.75823e-13
4.09303e-12
4.63267e-11
4.29383e-10
3.04373e-09
1.29464e-08
3.97646e-08
1.70463e-07
4.78108e-07
8.90165e-07
1.73309e-06
3.21781e-06
4.62255e-06
5.09272e-06
4.43238e-06
3.03464e-06
1.6701e-06
7.69122e-07
3.10803e-07
1.15579e-07
4.08908e-08
1.40421e-08
4.8499e-09
1.72811e-09
6.35674e-10
2.22481e-10
6.53227e-11
1.25653e-11
6.20415e-13
1.20418e-17
3.64353e-16
1.06294e-14
2.62178e-13
4.34082e-12
5.51716e-11
5.43244e-10
4.59263e-09
2.43084e-08
7.46799e-08
3.51464e-07
9.60784e-07
2.02876e-06
4.96346e-06
1.01205e-05
1.66654e-05
2.1655e-05
2.17884e-05
1.68706e-05
1.02027e-05
5.00483e-06
2.08896e-06
7.84318e-07
2.79413e-07
9.67322e-08
3.30052e-08
1.15915e-08
4.28253e-09
1.60719e-09
5.34214e-10
1.32147e-10
1.79776e-11
5.58411e-13
7.28882e-18
1.88299e-16
7.54913e-15
2.06903e-13
4.17924e-12
5.84693e-11
6.31752e-10
5.51741e-09
3.78405e-08
1.2443e-07
5.61988e-07
1.49097e-06
3.89083e-06
1.09399e-05
2.44409e-05
4.38026e-05
6.40795e-05
7.55717e-05
6.9461e-05
4.94109e-05
2.75725e-05
1.23489e-05
4.79065e-06
1.72565e-06
6.00036e-07
2.04974e-07
7.06809e-08
2.59588e-08
1.00393e-08
3.69109e-09
1.07144e-09
1.87447e-10
1.5907e-11
1.77403e-14
4.99294e-13
3.78435e-18
1.04162e-16
4.39775e-15
1.52622e-13
3.45895e-12
5.70953e-11
6.66331e-10
6.2075e-09
4.46121e-08
2.1e-07
7.89964e-07
2.13426e-06
6.58058e-06
1.91901e-05
4.48772e-05
8.51565e-05
0.000132166
0.000170932
0.000184131
0.000161341
0.000109819
5.78382e-05
2.5058e-05
9.35533e-06
3.28895e-06
1.12823e-06
3.89431e-07
1.41744e-07
5.56342e-08
2.22297e-08
7.47951e-09
1.53086e-09
1.45827e-10
3.63597e-12
2.14704e-11
6.39421e-14
1.17687e-12
3.33177e-18
4.70214e-17
2.36852e-15
9.19359e-14
2.57628e-12
4.78068e-11
6.51797e-10
6.47403e-09
5.00128e-08
2.42888e-07
9.51753e-07
2.8153e-06
9.64416e-06
2.87396e-05
6.84792e-05
0.000132732
0.000211156
0.000281575
0.00032289
0.000319659
0.000271912
0.000187123
9.60849e-05
4.1192e-05
1.53813e-05
5.39411e-06
1.88874e-06
6.93384e-07
2.7425e-07
1.16692e-07
4.55334e-08
1.14203e-08
6.09895e-10
1.64674e-09
1.05385e-10
7.92313e-10
5.18549e-10
9.48876e-12
5.98491e-11
2.29549e-13
4.23231e-12
1.0246e-17
3.4072e-17
1.03512e-15
5.05521e-14
1.65113e-12
3.72775e-11
5.64721e-10
6.28565e-09
5.14047e-08
2.77032e-07
1.02694e-06
3.36714e-06
1.24434e-05
3.83137e-05
9.1946e-05
0.000178142
0.000286108
0.000389539
0.000462727
0.000487222
0.000454432
0.000372087
0.00025847
0.000137776
5.79098e-05
2.20262e-05
7.95987e-06
2.97994e-06
1.20877e-06
5.44688e-07
2.44118e-07
7.90482e-08
4.89317e-09
1.56371e-08
2.80401e-09
3.32282e-10
2.20557e-09
1.67622e-09
3.48853e-11
2.23377e-10
8.88827e-13
1.63663e-11
3.93983e-17
4.03194e-17
4.52734e-16
2.32095e-14
9.46721e-13
2.5297e-11
4.40651e-10
5.56251e-09
5.00496e-08
2.80202e-07
1.14259e-06
3.82175e-06
1.44783e-05
4.58066e-05
0.000112826
0.000216655
0.000346517
0.000477842
0.000582962
0.000642337
0.000638263
0.000569474
0.000452064
0.000311366
0.000172751
7.32703e-05
2.89768e-05
1.12548e-05
4.73674e-06
2.29852e-06
1.19281e-06
5.05948e-07
4.81096e-08
1.47484e-07
1.04061e-08
3.73745e-08
9.1051e-09
1.25062e-09
7.76287e-09
6.27734e-09
1.35021e-10
8.58165e-10
3.41194e-12
6.24358e-11
1.4084e-16
1.16339e-16
2.36666e-16
1.00225e-14
4.63819e-13
1.48682e-11
3.14197e-10
4.24201e-09
4.46503e-08
2.73743e-07
1.14732e-06
3.86828e-06
1.53941e-05
5.02985e-05
0.000126178
0.000247636
0.000389622
0.000534996
0.00066193
0.000753529
0.000791961
0.000755567
0.000654613
0.000509445
0.000348741
0.000197989
8.72751e-05
3.73981e-05
1.67939e-05
8.82919e-06
5.55986e-06
3.1713e-06
4.29949e-07
1.28631e-06
1.26436e-07
4.08926e-07
3.53104e-08
1.28544e-07
3.27839e-08
4.71568e-09
2.8474e-08
2.29885e-08
5.10634e-10
3.18796e-09
1.23773e-11
2.24849e-10
4.94912e-16
4.34777e-16
2.71372e-16
3.6779e-15
2.01767e-13
7.72231e-12
1.96317e-10
3.15278e-09
3.60081e-08
2.47683e-07
1.11644e-06
3.84532e-06
1.54524e-05
5.14704e-05
0.000131541
0.000263465
0.000418859
0.000563197
0.000693832
0.00080087
0.000875451
0.000888232
0.000832351
0.000714956
0.000557429
0.000385043
0.000221219
0.000105814
5.38022e-05
3.19659e-05
2.43867e-05
2.09663e-05
3.71739e-06
1.16554e-05
1.27594e-06
3.98627e-06
4.37642e-07
1.42263e-06
1.26832e-07
4.56347e-07
1.17815e-07
1.69536e-08
1.01362e-07
8.0165e-08
1.81384e-09
1.10643e-08
4.03791e-11
7.4584e-10
1.54067e-15
1.44602e-15
7.73865e-16
1.46548e-15
7.9506e-14
3.6002e-12
1.08154e-10
2.09567e-09
2.64431e-08
2.06676e-07
1.01236e-06
3.71686e-06
1.51502e-05
5.07941e-05
0.000130373
0.000261591
0.000401752
0.000532937
0.00067088
0.0007941
0.000885357
0.000932482
0.000933079
0.000877452
0.000767795
0.000620049
0.000445298
0.000265989
0.000149053
0.000101947
8.96989e-05
9.84488e-05
3.56476e-05
0.00010498
1.27259e-05
4.06705e-05
4.57762e-06
1.49426e-05
1.55481e-06
5.15802e-06
4.48427e-07
1.599e-06
4.10989e-07
5.73542e-08
3.46537e-07
2.66284e-07
5.95726e-09
3.57536e-08
1.1885e-10
2.26849e-09
5.52526e-15
5.70666e-15
2.54475e-15
1.3011e-15
2.81815e-14
1.52076e-12
5.35341e-11
1.23176e-09
1.71126e-08
1.62274e-07
8.59593e-07
3.38673e-06
1.4259e-05
4.90719e-05
0.000127144
0.000251444
0.000357784
0.000450795
0.000568285
0.000715346
0.000842532
0.000922499
0.000952179
0.000952435
0.000913927
0.000838241
0.000722183
0.000557625
0.00037511
0.000265289
0.000258212
0.000295404
0.000214183
0.000390486
0.000113954
0.000253819
4.77738e-05
0.000133447
1.7133e-05
5.51575e-05
5.54476e-06
1.89164e-05
1.55304e-06
5.59127e-06
1.39457e-06
1.83001e-07
1.14306e-06
8.45923e-07
1.80769e-08
1.07686e-07
3.22818e-10
6.37463e-09
1.70626e-14
2.07705e-14
9.69389e-15
3.09758e-15
1.01149e-14
5.65725e-13
2.44223e-11
6.41132e-10
1.11979e-08
1.18504e-07
6.52683e-07
2.97465e-06
1.25947e-05
4.56931e-05
0.000120044
0.000230727
0.000310766
0.000375919
0.000446848
0.00053425
0.000692788
0.000853292
0.000931674
0.000956748
0.000962037
0.000958725
0.000940667
0.000879185
0.000746646
0.00060818
0.000562472
0.00066733
0.000555641
0.000798293
0.000431149
0.000637895
0.000288729
0.000483911
0.000153432
0.000325712
6.16335e-05
0.000172573
1.98377e-05
6.63259e-05
5.3203e-06
1.94964e-05
4.65811e-06
5.52068e-07
3.70152e-06
2.61893e-06
5.0936e-08
3.04958e-07
8.16454e-10
1.65667e-08
5.57763e-14
7.97819e-14
4.07342e-14
1.07361e-14
5.96374e-15
1.8953e-13
9.79101e-12
3.16769e-10
6.05664e-09
7.72765e-08
5.23067e-07
2.57206e-06
1.06452e-05
4.04589e-05
0.000110108
0.000208091
0.000270337
0.000316239
0.0003431
0.000361731
0.000434688
0.00061976
0.000826118
0.000916882
0.00095019
0.000972868
0.00101898
0.00108072
0.00109703
0.0010406
0.0010138
0.00109833
0.00100461
0.00130882
0.000872859
0.00113089
0.00071174
0.000965551
0.00053898
0.00078655
0.000363471
0.00059751
0.000188335
0.00040173
6.79166e-05
0.000198843
1.80164e-05
6.52327e-05
1.53218e-05
1.61145e-06
1.18141e-05
8.07532e-06
1.33989e-07
8.29195e-07
1.93832e-09
3.99264e-08
1.78824e-13
2.91882e-13
1.61077e-13
5.0011e-14
9.03755e-15
6.47539e-14
3.474e-12
1.375e-10
3.24551e-09
4.26841e-08
3.94285e-07
2.01873e-06
8.63524e-06
3.48724e-05
9.89063e-05
0.000186544
0.000237142
0.000268396
0.000262869
0.00022432
0.00023011
0.000339298
0.00053722
0.000747202
0.000860367
0.000926158
0.00100425
0.00111995
0.00127732
0.0014021
0.001486
0.00165352
0.00156305
0.00182694
0.00141046
0.00172197
0.00124279
0.00154149
0.00106269
0.00135993
0.000865795
0.00116279
0.000659291
0.000952328
0.000437003
0.000724832
0.000200016
0.00046756
5.86473e-05
0.000190265
4.85015e-05
4.70913e-06
3.68146e-05
2.47088e-05
3.34732e-07
2.24654e-06
4.28339e-09
8.85125e-08
5.58194e-13
1.05499e-12
6.21223e-13
1.83743e-13
2.99694e-14
3.39993e-14
1.14477e-12
5.26307e-11
1.52131e-09
2.64902e-08
2.60437e-07
1.51986e-06
6.80039e-06
2.90308e-05
8.70384e-05
0.000167063
0.000209492
0.000229621
0.000202869
0.000134758
0.000116439
0.000165832
0.000282325
0.00043306
0.00059338
0.000737701
0.000886786
0.00106934
0.00129158
0.00156617
0.00184085
0.00213714
0.00252963
0.00200373
0.00239227
0.00185893
0.00218434
0.00167505
0.00200816
0.00148289
0.0018173
0.0012715
0.0016106
0.00104582
0.00139125
0.000789278
0.00114594
0.00048427
0.000851036
0.000171771
0.000477231
0.000143302
1.405e-05
0.000109506
7.41868e-05
8.11188e-07
6.33955e-06
8.40185e-09
1.76208e-07
1.59036e-12
3.60479e-12
2.38613e-12
6.80739e-13
1.25499e-13
3.83237e-14
3.9174e-13
1.86585e-11
6.22911e-10
1.34747e-08
1.57183e-07
1.08449e-06
5.10555e-06
2.32955e-05
7.4789e-05
0.00014967
0.000186703
0.000198154
0.000157756
8.13748e-05
5.84983e-05
7.55691e-05
0.000129613
0.000215628
0.000332458
0.000469565
0.000625575
0.000855032
0.00119405
0.00156529
0.00198295
0.00241178
0.0026859
0.00283548
0.00283399
0.00251348
0.002748
0.0023505
0.00267489
0.00215886
0.00251184
0.00196526
0.00232123
0.00175166
0.00211321
0.00151985
0.00189781
0.001247
0.00165309
0.000896207
0.00134541
0.000441911
0.000919738
0.00037305
4.24267e-05
0.000297596
0.000211006
1.99088e-06
1.86959e-05
1.34472e-08
3.37608e-07
4.77209e-12
1.12033e-11
8.90385e-12
2.63189e-12
5.53507e-13
7.75718e-14
1.99825e-13
6.15137e-12
2.43731e-10
5.66935e-09
8.34455e-08
6.76487e-07
3.76669e-06
1.7727e-05
6.24634e-05
0.000133841
0.000167945
0.000173711
0.000124646
5.29261e-05
3.03569e-05
3.36542e-05
5.69158e-05
0.000105457
0.000188462
0.000301243
0.000432233
0.00059746
0.000873087
0.00141783
0.00197082
0.00241601
0.00265059
0.00280932
0.00273636
0.00289671
0.00284075
0.0028491
0.002907
0.00279123
0.00292258
0.00265928
0.0028762
0.00247565
0.00276612
0.00226971
0.0026057
0.00204545
0.00240407
0.00177902
0.00217698
0.00141844
0.00188825
0.000911867
0.0014655
0.000841108
0.000125129
0.000715015
0.000525666
5.47105e-06
5.73237e-05
2.29551e-08
9.20201e-07
1.54632e-11
3.35812e-11
3.0387e-11
9.87328e-12
1.80418e-12
2.35087e-13
1.9184e-13
2.13457e-12
8.68712e-11
2.46983e-09
3.72965e-08
4.30323e-07
2.72726e-06
1.28026e-05
5.05406e-05
0.000118873
0.000152505
0.000155245
0.000103052
3.71857e-05
1.68851e-05
1.50541e-05
2.48223e-05
5.01376e-05
0.00010192
0.000201993
0.00033663
0.000473617
0.00064895
0.00102425
0.00180196
0.00235946
0.00254057
0.00263072
0.00251457
0.00270595
0.00250927
0.00281939
0.00260393
0.00294873
0.00292186
0.00296591
0.00297311
0.00292861
0.0029899
0.00282724
0.00294258
0.00267685
0.00284919
0.00248755
0.00269827
0.00225948
0.00250935
0.00195258
0.00227721
0.00146959
0.00196339
0.001413
0.00033646
0.00128534
0.00105993
1.76105e-05
0.00016758
2.33781e-07
5.19414e-06
4.49151e-11
1.0453e-10
9.56677e-11
3.69478e-11
6.55869e-12
8.27164e-13
2.78376e-13
1.13445e-12
2.86981e-11
9.67657e-10
2.01434e-08
2.32267e-07
1.80089e-06
9.46018e-06
3.92673e-05
0.000103599
0.000139495
0.000141953
8.95603e-05
2.98307e-05
1.10603e-05
7.093e-06
1.05866e-05
2.27995e-05
5.21648e-05
0.000140474
0.000319695
0.000499003
0.000642122
0.000853567
0.00138378
0.00218658
0.00243159
0.00218037
0.00232624
0.00209774
0.00233422
0.0020713
0.00246304
0.00212209
0.00291916
0.00276005
0.00297606
0.00288217
0.00298758
0.00295028
0.00293424
0.0029513
0.00282743
0.00289988
0.00267717
0.00278258
0.0024853
0.00261803
0.00225478
0.00242413
0.00192622
0.00220263
0.00185194
0.000750495
0.00172473
0.00151948
6.45338e-05
0.000419
1.23937e-05
7.82755e-05
3.05454e-10
2.69387e-10
1.2097e-10
2.54946e-11
3.22399e-12
5.8118e-13
1.07617e-12
1.03876e-11
3.3619e-10
8.57186e-09
1.13079e-07
1.03891e-06
6.232e-06
2.8663e-05
8.73536e-05
0.000128204
0.000131999
8.31436e-05
2.62371e-05
9.21738e-06
5.09331e-06
5.07504e-06
9.86217e-06
2.47253e-05
8.29333e-05
0.000276337
0.000552875
0.000753626
0.000867762
0.00118936
0.00185662
0.00226444
0.00212524
0.00160619
0.00156925
0.00184897
0.00169152
0.00179416
0.00152162
0.00189744
0.00151306
0.00265577
0.00229734
0.0028091
0.0025161
0.00288264
0.00268998
0.00287969
0.00277138
0.00282871
0.00277678
0.00270995
0.0027212
0.00254169
0.00260564
0.00234971
0.00243632
0.00213132
0.00226417
0.00205046
0.00122822
0.00194945
0.00180598
0.00031193
0.000951878
0.000256875
0.000601221
8.54997e-10
2.85199e-10
1.0239e-10
1.32893e-11
1.61743e-12
1.37187e-12
5.8802e-12
1.18107e-10
3.00298e-09
4.78281e-08
5.44777e-07
3.84915e-06
1.95005e-05
7.00241e-05
0.000118296
0.000124683
8.00832e-05
2.57625e-05
8.5278e-06
4.03937e-06
3.54236e-06
4.85015e-06
1.09634e-05
4.04814e-05
0.000173236
0.000528463
0.000870885
0.00104957
0.00119462
0.00165587
0.00205315
0.00208346
0.00157948
0.00162211
0.00117853
0.0011894
0.00132706
0.00121642
0.00119472
0.000968955
0.00124384
0.00088702
0.00211124
0.00166843
0.00234131
0.00190631
0.00252269
0.00213754
0.00261437
0.00230913
0.00263522
0.00241351
0.00257976
0.00244692
0.00245866
0.00240144
0.00230718
0.00228168
0.0021719
0.00217654
0.00208994
0.00163025
0.00201665
0.00194996
0.0018558
0.00100066
0.0015336
0.000200441
0.000853058
1.02335e-09
2.81121e-10
5.55255e-11
5.69209e-12
2.22151e-12
5.70454e-12
4.68183e-11
1.15921e-09
1.79779e-08
2.6747e-07
2.40571e-06
1.23708e-05
5.26174e-05
0.00010841
0.000119024
8.06967e-05
2.66478e-05
8.77771e-06
3.76138e-06
2.57797e-06
3.27206e-06
5.73233e-06
1.71136e-05
8.36146e-05
0.00035361
0.000843305
0.00116635
0.00133644
0.00161757
0.00190037
0.00198815
0.00151586
0.00122712
0.00124747
0.000804269
0.000841389
0.000839787
0.00079503
0.000638539
0.000495331
0.000663119
0.000457276
0.00143499
0.000997682
0.00167648
0.00121074
0.00189688
0.0014439
0.00205366
0.00163401
0.00216242
0.00176869
0.00220641
0.00187023
0.00217517
0.00195334
0.002094
0.00192861
0.00205162
0.00194143
0.00202374
0.00202808
0.00197564
0.00190913
0.00175628
0.00188063
0.00197834
0.0019336
0.0019477
0.00195718
0.00143985
0.0018635
0.00183586
0.00168682
0.000113018
0.000776655
8.24136e-10
2.12641e-10
2.2906e-11
4.66518e-12
6.96177e-12
2.68183e-11
4.50096e-10
9.19085e-09
1.17485e-07
1.29758e-06
8.24453e-06
3.70349e-05
9.60407e-05
0.000114872
8.35454e-05
3.04835e-05
1.06417e-05
4.3344e-06
2.47209e-06
2.07972e-06
3.58834e-06
7.24562e-06
3.37838e-05
0.000161024
0.000565667
0.00108078
0.00135828
0.00158235
0.00179184
0.00188221
0.00152829
0.00099951
0.00104391
0.000899899
0.000954936
0.000478534
0.000529144
0.000439932
0.000445125
0.00033101
0.00025557
0.000445715
0.000338609
0.000847428
0.000602628
0.00108022
0.000840545
0.00129532
0.0010785
0.00144862
0.00126093
0.00152918
0.00136203
0.00159419
0.0013689
0.00167086
0.00162009
0.00145931
0.00185447
0.00174145
0.0014908
0.00162332
0.00185926
0.00190001
0.00179125
0.00175678
0.00186089
0.00194169
0.00193686
0.00193566
0.00184472
0.00184256
0.00193841
0.00180433
0.00138517
0.00167887
0.00193376
0.00192378
6.2523e-05
0.00141037
0.000960827
0.00050035
5.38757e-10
8.98291e-11
1.18354e-11
9.92627e-12
2.56859e-11
1.80775e-10
3.88524e-09
4.99727e-08
6.09052e-07
5.29285e-06
2.39498e-05
7.83931e-05
0.000111208
9.09272e-05
4.12308e-05
1.63748e-05
6.83649e-06
3.28236e-06
1.94239e-06
1.88419e-06
4.34943e-06
1.17008e-05
6.14291e-05
0.00024002
0.000652031
0.00118039
0.00146994
0.00166518
0.00174794
0.00146368
0.00082965
0.000648908
0.000643053
0.000580334
0.000623809
0.000210067
0.0002371
0.000214232
0.00020022
0.000261644
0.00020201
0.00048055
0.000429163
0.000664715
0.000550229
0.00093345
0.000880539
0.00118521
0.00124995
0.00135957
0.00154455
0.00137685
0.00165889
0.00136721
0.00135122
0.00140112
0.00156368
0.00137662
0.00131385
0.00134916
0.00132437
0.00164381
0.00151383
0.00130083
0.00139453
0.00167566
0.00174752
0.00161432
0.00155466
0.00171761
0.00194601
0.00196026
0.00186302
0.00171137
0.00172763
0.00189166
0.00187544
0.00172419
0.00197109
0.00196918
0.000437086
7.66409e-06
6.91662e-05
0.00141223
0.000927419
3.27845e-10
3.60374e-11
1.75398e-11
3.26698e-11
1.05635e-10
1.36891e-09
2.08658e-08
2.75025e-07
2.67498e-06
1.39961e-05
5.83428e-05
0.0001059
0.000100632
5.84706e-05
3.09108e-05
1.33598e-05
5.83205e-06
2.50138e-06
1.40255e-06
2.15561e-06
5.19738e-06
1.96577e-05
8.29038e-05
0.000266977
0.00066142
0.00113628
0.00140081
0.00148472
0.00123322
0.000633743
0.000255828
0.000208165
0.000293704
0.000279237
0.000265886
0.000287019
9.36476e-05
8.47356e-05
0.000154269
0.000117046
0.00036015
0.000271724
0.000950769
0.00090054
0.000908536
0.0009462
0.00143715
0.0016619
0.00189231
0.00232823
0.00219734
0.0028004
0.00179724
0.00211869
0.00245045
0.00282909
0.00134774
0.00146938
0.00169239
0.00200577
0.0012828
0.00132815
0.00130976
0.00139568
0.00142792
0.0013132
0.00126872
0.00126064
0.00148287
0.00157506
0.00143013
0.00135572
0.00155596
0.00192398
0.00195884
0.00176464
0.00156179
0.00159186
0.00181707
0.00191511
0.00174432
0.00198748
0.00198874
0.00036259
2.28043e-06
3.68765e-05
0.00139646
0.00086598
1.578e-10
3.0353e-11
4.35259e-11
1.02614e-10
5.98353e-10
7.6859e-09
1.21639e-07
1.32958e-06
8.57538e-06
3.96934e-05
9.53038e-05
0.000106811
7.694e-05
5.07815e-05
2.86884e-05
1.21869e-05
4.996e-06
1.67127e-06
1.17175e-06
2.79827e-06
6.46359e-06
2.37361e-05
8.91825e-05
0.000268098
0.000572551
0.000830049
0.000918799
0.000708028
0.000344342
8.80412e-05
6.38886e-05
4.6405e-05
8.54168e-05
7.70635e-05
8.51304e-05
8.70532e-05
7.13418e-05
4.51774e-05
0.000184452
0.000115753
0.000769575
0.000584487
0.00188169
0.00176801
0.00183871
0.001911
0.00271493
0.00301076
0.00333217
0.00377938
0.00315378
0.00349795
0.00374306
0.00399976
0.00237731
0.00277334
0.00316098
0.00352036
0.00157636
0.00186474
0.00223378
0.00264822
0.00135802
0.00146129
0.0015358
0.0017028
0.00125576
0.00123093
0.00138864
0.00127016
0.00129846
0.00139841
0.00125916
0.00121831
0.00138955
0.00187779
0.00193755
0.00164756
0.00140563
0.00144878
0.0017225
0.00193343
0.00174629
0.00198479
0.00199641
0.000268022
4.50397e-07
1.34126e-05
0.00135907
0.000764264
8.0412e-11
6.02716e-11
1.28861e-10
3.74384e-10
3.94878e-09
5.23395e-08
6.32333e-07
5.72518e-06
2.42931e-05
7.75982e-05
0.000108275
9.49875e-05
7.13422e-05
5.11907e-05
2.77189e-05
1.15921e-05
3.5289e-06
1.27728e-06
1.12012e-06
3.14247e-06
6.89015e-06
2.51055e-05
8.57707e-05
0.000210397
0.000330433
0.000361716
0.000282623
0.000138202
3.62596e-05
8.34519e-06
6.72929e-06
1.154e-05
7.73699e-06
1.95358e-05
1.56509e-05
3.01099e-05
2.33714e-05
0.000111112
4.95987e-05
0.000389741
0.000224547
0.00152368
0.00119618
0.00305437
0.00284847
0.00315027
0.00314723
0.00400133
0.00404722
0.00444537
0.00451809
0.00383376
0.00409658
0.00430589
0.0044455
0.00306874
0.00346675
0.003823
0.00412552
0.00204766
0.0024632
0.00290383
0.00333585
0.00161141
0.00183319
0.00196341
0.00223126
0.0012094
0.00127163
0.00168446
0.00141761
0.00119046
0.00123763
0.00117063
0.00119156
0.00123612
0.00180853
0.00189644
0.00152108
0.00125782
0.00130989
0.00161603
0.00194127
0.00174025
0.00196978
0.00199633
0.000158416
9.31586e-08
4.75269e-06
0.00130136
0.000609026
1.11956e-10
1.69577e-10
3.59809e-10
1.93977e-09
2.20297e-08
2.89625e-07
2.82377e-06
1.34782e-05
5.63933e-05
0.000105492
0.000108456
9.14058e-05
7.59536e-05
5.78529e-05
2.72621e-05
9.5566e-06
2.57571e-06
9.74516e-07
1.08224e-06
3.14223e-06
6.49232e-06
2.20182e-05
5.74364e-05
9.08747e-05
0.000103294
8.21756e-05
4.04443e-05
1.13967e-05
1.38757e-06
8.82609e-07
5.43236e-07
1.92271e-06
1.07545e-06
6.25982e-06
3.42762e-06
2.29141e-05
1.16168e-05
0.00026948
0.000116551
0.000841837
0.000517135
0.00249716
0.00203584
0.00371903
0.00351028
0.00398781
0.00387903
0.0044608
0.00432519
0.00474428
0.00472929
0.00461767
0.00468859
0.004368
0.00455325
0.0046781
0.00473477
0.00373226
0.00407654
0.00435981
0.00457905
0.00267827
0.00313648
0.00357028
0.00395867
0.00208081
0.00240209
0.00255372
0.00287558
0.00127321
0.00143848
0.00217891
0.00174767
0.00117515
0.00115753
0.00115914
0.00126522
0.00115344
0.00172595
0.00184023
0.00139679
0.00116443
0.00119926
0.00150648
0.00194584
0.00173107
0.00194211
0.00199158
8.53202e-05
1.65001e-08
1.25693e-06
0.0012188
0.000450543
2.84762e-10
4.37383e-10
1.15574e-09
9.30311e-09
1.24597e-07
1.31495e-06
8.21468e-06
3.65705e-05
9.35416e-05
0.000113826
0.000109659
0.000100334
9.06273e-05
6.06817e-05
2.54605e-05
7.22362e-06
1.72231e-06
6.38681e-07
9.7652e-07
2.68665e-06
5.3482e-06
1.23804e-05
1.92638e-05
2.30195e-05
1.87995e-05
9.60728e-06
2.74182e-06
5.28367e-07
7.81846e-08
5.77187e-08
1.32944e-07
6.61036e-08
7.73596e-07
2.82308e-07
5.61388e-06
2.17858e-06
4.25311e-05
1.40159e-05
0.000572809
0.00027086
0.00151879
0.00100626
0.00322379
0.00281577
0.00385147
0.00367071
0.00417515
0.00401353
0.00454355
0.00444256
0.00421665
0.00480846
0.00475589
0.00457569
0.00468009
0.00473329
0.00481905
0.00485133
0.0048446
0.00428647
0.0045465
0.00473955
0.00486063
0.00334145
0.00377324
0.00414888
0.00445813
0.00267884
0.00304681
0.00319061
0.00352049
0.00145473
0.00179154
0.00277719
0.002253
0.00124897
0.00114339
0.00122441
0.00145146
0.00113379
0.00163729
0.00177791
0.00127955
0.00113581
0.00114942
0.00140172
0.00194927
0.00171823
0.00190809
0.0019847
3.74384e-05
3.74404e-09
3.69595e-07
0.00112343
0.000302165
7.65912e-10
1.13523e-09
4.32071e-09
5.28738e-08
6.18959e-07
5.52008e-06
2.09605e-05
7.20225e-05
0.000113185
0.00012244
0.000122533
0.000121673
0.000102838
6.06681e-05
2.04285e-05
5.06597e-06
9.5884e-07
3.62863e-07
7.84717e-07
2.02252e-06
3.06065e-06
3.77235e-06
4.24622e-06
3.45817e-06
1.83992e-06
6.80684e-07
1.41099e-07
1.36428e-08
1.54804e-08
6.67216e-09
8.62781e-08
3.14043e-08
9.02637e-07
2.62902e-07
8.98627e-06
3.48996e-06
0.000104159
3.31548e-05
0.00101099
0.000526294
0.00225879
0.00162065
0.00344492
0.00313686
0.00364852
0.00354173
0.00397723
0.00378157
0.00445029
0.00431627
0.00389951
0.00368167
0.00480837
0.00471798
0.00444808
0.00459746
0.00491572
0.00492761
0.0049114
0.00486937
0.00469553
0.0048605
0.00494946
0.00498487
0.00394538
0.00430802
0.00459673
0.00481135
0.00330519
0.00366959
0.00379053
0.00409088
0.00181101
0.00229725
0.00339318
0.00284711
0.00142612
0.00119163
0.00138029
0.00179583
0.00115835
0.00155058
0.00171589
0.00119789
0.00113771
0.00114007
0.0013096
0.00195113
0.00169769
0.00187436
0.00197713
1.66298e-05
1.36995e-09
1.59325e-07
0.0009988
0.000198447
1.77618e-09
3.29816e-09
2.25527e-08
2.79961e-07
2.60271e-06
1.13707e-05
4.89811e-05
0.000106794
0.000126305
0.0001393
0.000148887
0.000143362
0.000107366
5.5672e-05
1.5402e-05
2.91153e-06
4.63251e-07
2.20596e-07
4.18106e-07
9.37118e-07
1.30606e-06
1.28652e-06
9.49348e-07
5.0914e-07
1.94945e-07
3.20691e-08
4.26423e-09
2.98985e-09
1.26725e-09
1.49168e-08
5.68304e-09
1.4382e-07
4.46361e-08
1.71444e-06
4.94578e-07
2.01233e-05
5.45734e-06
0.000219179
7.2034e-05
0.0014753
0.00084905
0.00270187
0.00213281
0.00339676
0.00316183
0.0030674
0.00308487
0.00353629
0.00339381
0.00311014
0.00427375
0.00408383
0.0035694
0.00333601
0.00476277
0.00463845
0.00429151
0.00448217
0.00498726
0.004964
0.00492049
0.00485763
0.00494888
0.00501477
0.00503528
0.00503177
0.00443932
0.00470988
0.00490115
0.00501347
0.00388685
0.00420944
0.00430471
0.00454764
0.00230422
0.00288124
0.00396076
0.00345341
0.00174492
0.00130952
0.00165589
0.00226267
0.00123135
0.00147547
0.00166112
0.00116701
0.00116716
0.00114972
0.00124957
0.00195128
0.00166516
0.00184581
0.00197142
8.914e-06
1.28085e-09
1.47626e-07
0.000867953
0.000140769
3.87989e-09
1.11615e-08
1.17509e-07
1.16234e-06
7.91548e-06
2.93702e-05
8.70662e-05
0.000125313
0.000146068
0.000168894
0.000178026
0.000157445
0.00010766
4.42998e-05
9.89949e-06
1.38845e-06
2.32771e-07
9.22547e-08
1.39051e-07
2.18702e-07
2.60696e-07
2.13441e-07
1.13591e-07
3.65133e-08
7.4977e-09
1.05896e-09
4.49082e-10
3.50132e-09
1.39106e-09
2.52263e-08
9.39854e-09
2.32592e-07
7.28451e-08
2.78071e-06
8.13092e-07
3.72231e-05
9.45046e-06
0.000384907
0.000132238
0.00171133
0.00107636
0.00280432
0.00231302
0.00305463
0.0029266
0.00252994
0.0025589
0.0024941
0.0031389
0.00302853
0.00250068
0.00251899
0.00406866
0.0038228
0.0032412
0.00295685
0.00469913