/*--------------------------------*- C++ -*----------------------------------*\
  =========                 |
  \\      /  F ield         | OpenFOAM: The Open Source CFD Toolbox
   \\    /   O peration     | Website:  https://openfoam.org
    \\  /    A nd           | Version:  dev
     \\/     M anipulation  |
\*---------------------------------------------------------------------------*/
FoamFile
{
    version     2.0;
    format      ascii;
    class       volScalarField;
    location    "2500";
    object      G;
}
// * * * * * * * * * * * * * * * * * * * * * * * * * * * * * * * * * * * * * //

dimensions      [1 0 -3 0 0 0 0];

internalField   nonuniform List<scalar> 
9846
(
3875.31
3880.67
3882.1
3885.3
3887.48
3889.73
3889.18
3892.13
3895.12
3898.13
3892.34
3896.04
3899.78
3903.54
3907.33
3894.76
3899.2
3903.67
3908.19
3912.75
3917.34
3896.48
3901.62
3906.82
3912.07
3917.4
3922.77
3928.18
3897.5
3903.33
3909.22
3915.19
3921.25
3927.4
3933.61
3939.88
3897.86
3904.33
3910.89
3917.55
3924.33
3931.22
3938.23
3945.31
3952.47
3897.58
3904.67
3911.86
3919.17
3926.63
3934.24
3942.01
3949.91
3957.9
3965.97
3896.68
3904.36
3912.14
3920.07
3928.18
3936.47
3944.96
3953.63
3962.46
3971.4
3980.44
3895.19
3903.43
3911.78
3920.29
3929
3937.93
3947.1
3956.5
3966.12
3975.93
3985.86
3995.91
3893.16
3901.91
3910.79
3919.84
3929.12
3938.65
3948.45
3958.53
3968.89
3979.51
3990.34
4001.33
4012.43
3890.6
3899.83
3909.2
3918.76
3928.56
3938.64
3949.03
3959.75
3970.8
3982.17
3993.84
4005.75
4017.84
4030.07
3887.55
3897.23
3907.05
3917.07
3927.35
3937.94
3948.87
3960.17
3971.86
3983.93
3996.37
4009.14
4022.2
4035.46
4048.88
3884.06
3894.14
3904.37
3914.82
3925.54
3936.58
3948
3959.83
3972.09
3984.8
3997.95
4011.52
4025.47
4039.75
4054.26
4068.94
3880.14
3890.6
3901.2
3912.03
3923.14
3934.6
3946.45
3958.76
3971.54
3984.82
3998.61
4012.91
4027.68
4042.88
4058.46
4074.3
4090.33
3875.85
3886.64
3897.58
3908.74
3920.2
3932.02
3944.27
3956.99
3970.23
3984.02
3998.39
4013.33
4028.84
4044.89
4061.43
4078.39
4095.66
4113.15
3871.22
3882.3
3893.53
3904.99
3916.76
3928.9
3941.48
3954.56
3968.2
3982.44
3997.31
4012.83
4028.99
4045.8
4063.21
4081.19
4099.64
4118.44
4137.49
3866.29
3877.62
3889.11
3900.83
3912.85
3925.26
3938.13
3951.52
3965.49
3980.11
3995.41
4011.42
4028.17
4045.65
4063.83
4082.71
4102.22
4122.28
4142.73
4163.49
3861.08
3872.63
3884.34
3896.28
3908.52
3921.16
3934.25
3947.89
3962.15
3977.08
3992.74
4009.17
4026.41
4044.46
4063.34
4083.01
4103.45
4124.62
4146.41
4168.67
4191.27
3855.64
3867.37
3879.26
3891.38
3903.81
3916.62
3929.91
3943.74
3958.21
3973.39
3989.34
4006.11
4023.76
4042.3
4061.75
4082.12
4103.38
4125.51
4148.47
4172.15
4196.38
4221
3849.99
3861.88
3873.92
3886.19
3898.76
3911.71
3925.13
3939.11
3953.74
3969.1
3985.26
4002.3
4020.27
4039.2
4059.13
4080.09
4102.05
4125.02
4148.98
4173.89
4199.63
4226.01
4252.86
3844.16
3856.18
3868.34
3880.73
3893.4
3906.45
3919.97
3934.04
3948.77
3964.24
3980.56
3997.79
4015.99
4035.23
4055.54
4076.96
4099.51
4123.2
4148.01
4173.95
4200.99
4228.99
4257.76
4287.08
3838.18
3850.3
3862.56
3875.03
3887.78
3900.9
3914.47
3928.58
3943.36
3958.89
3975.27
3992.61
4010.98
4030.44
4051.04
4072.82
4095.83
4120.09
4145.62
4172.42
4200.52
4229.9
4260.41
4291.82
4323.97
3832.08
3844.28
3856.61
3869.14
3881.94
3895.09
3908.67
3922.79
3937.56
3953.08
3969.47
3986.85
4005.29
4024.88
4045.68
4067.73
4091.08
4115.78
4141.88
4169.39
4198.36
4228.83
4260.78
4294.08
4328.52
4363.83
3825.87
3838.13
3850.52
3863.09
3875.91
3889.06
3902.63
3916.72
3931.43
3946.89
3963.22
3980.54
3998.97
4018.6
4039.51
4061.74
4085.34
4110.36
4136.86
4164.93
4194.6
4225.93
4259
4293.82
4330.29
4368.15
4406.98
3819.59
3831.89
3844.3
3856.9
3869.73
3882.86
3896.39
3910.4
3925.02
3940.37
3956.57
3973.77
3992.1
4011.68
4032.59
4054.9
4078.66
4103.91
4130.7
4159.12
4189.3
4221.31
4255.23
4291.18
4329.26
4369.33
4411.01
4453.84
3813.24
3825.56
3838
3850.6
3863.41
3876.51
3889.98
3903.9
3918.39
3933.57
3949.59
3966.6
3984.74
4004.16
4024.98
4047.28
4071.11
4096.49
4123.47
4152.13
4182.61
4215.06
4249.61
4286.4
4325.61
4367.38
4411.47
4457.51
4504.94
3806.85
3819.18
3831.62
3844.21
3856.99
3870.05
3883.43
3897.24
3911.58
3926.57
3942.36
3959.1
3976.97
3996.14
4016.76
4038.94
4062.73
4088.16
4115.25
4144.05
4174.68
4207.35
4242.27
4279.62
4319.61
4362.52
4408.41
4457.1
4508.15
4560.89
3800.43
3812.76
3825.18
3837.75
3850.5
3863.49
3876.79
3890.47
3904.64
3919.42
3934.93
3951.36
3968.88
3987.69
4007.99
4029.92
4053.57
4078.97
4106.09
4134.96
4165.66
4198.38
4233.39
4270.99
4311.44
4355.06
4402.11
4452.7
4506.66
4563.53
4622.48
3793.98
3806.3
3818.71
3831.24
3843.95
3856.87
3870.07
3883.62
3897.61
3912.15
3927.38
3943.44
3960.55
3978.92
3998.77
4020.33
4043.71
4068.96
4096.05
4124.93
4155.64
4188.32
4223.23
4260.75
4301.3
4345.25
4392.93
4444.65
4500.64
4560.74
4624.41
4690.64
3787.53
3799.82
3812.21
3824.71
3837.36
3850.2
3863.3
3876.72
3890.52
3904.82
3919.74
3935.43
3952.07
3969.92
3989.22
4010.25
4033.21
4058.18
4085.14
4114
4144.68
4177.26
4211.98
4249.22
4289.47
4333.32
4381.16
4433.39
4490.49
4552.74
4619.99
4691.69
4766.54
3781.09
3793.33
3805.69
3818.15
3830.74
3843.51
3856.51
3869.79
3883.41
3897.48
3912.08
3927.37
3943.53
3960.8
3979.47
3999.86
4022.22
4046.74
4073.43
4102.18
4132.83
4165.31
4199.78
4236.62
4276.33
4319.61
4367.11
4419.3
4476.73
4540.04
4609.53
4685.27
4766.47
4828.96
4830.84
3774.67
3786.86
3799.17
3811.58
3824.12
3836.81
3849.7
3862.85
3876.3
3890.14
3904.44
3919.35
3935.01
3951.68
3969.66
3989.29
4010.92
4034.79
4061.01
4089.49
4120.04
4152.47
4186.73
4223.12
4262.16
4304.57
4351.19
4402.73
4459.84
4523.24
4593.73
4671.56
4757.84
4830.19
4826.96
4874.18
4875.88
3768.27
3780.41
3792.66
3805.02
3817.49
3830.1
3842.9
3855.91
3869.2
3882.83
3896.86
3911.4
3926.59
3942.66
3959.92
3978.73
3999.48
4022.52
4048.04
4076.03
4106.31
4138.61
4172.76
4208.8
4247.15
4288.56
4333.92
4384.18
4440.26
4502.99
4573.24
4652.04
4728.12
4717.87
4821.38
4764
4813.26
4874.74
4870.84
4922.32
4923.77
3761.91
3773.98
3786.18
3798.47
3810.87
3823.41
3836.1
3849
3862.14
3875.56
3889.34
3903.54
3918.3
3933.81
3950.38
3968.35
3988.14
4010.16
4034.7
4061.89
4091.64
4123.67
4157.69
4193.52
4231.36
4271.77
4315.73
4364.28
4418.59
4479.82
4548.96
4627.09
4706.18
4692.85
4753.15
4864.27
4802.8
4855.11
4922.1
4917.42
4973.58
4974.77
3755.58
3767.58
3779.72
3791.94
3804.27
3816.73
3829.33
3842.11
3855.1
3868.35
3881.89
3895.8
3910.17
3925.18
3941.1
3958.29
3977.1
3997.98
4021.31
4047.35
4076.17
4107.58
4141.27
4176.96
4214.52
4254.22
4296.82
4343.51
4395.56
4454.44
4521.52
4597.99
4678.39
4662.67
4740.17
4725.46
4790.4
4909.82
4843.49
4899.44
4972.53
4966.97
5028.33
5029.24
3749.3
3761.23
3773.29
3785.45
3797.7
3810.07
3822.58
3835.25
3848.11
3861.19
3874.54
3888.19
3902.22
3916.79
3932.14
3948.6
3966.49
3986.2
4008.16
4032.77
4060.25
4090.58
4123.52
4158.79
4196.15
4235.53
4277.19
4322.11
4371.74
4427.69
4491.72
4565.47
4645.97
4628.22
4709.43
4692.16
4775.9
4759.59
4829.6
4958.23
4886.41
4946.44
5026.39
5019.83
5086.91
5087.56
3743.06
3754.92
3766.91
3778.99
3791.16
3803.44
3815.85
3828.42
3841.15
3854.09
3867.25
3880.68
3894.44
3908.64
3923.52
3939.36
3956.42
3974.97
3995.49
4018.49
4044.33
4073.12
4104.8
4139.14
4175.96
4215.07
4256.37
4300.06
4347.4
4400.27
4460.58
4530.48
4609.65
4590.3
4673.78
4654.39
4741.83
4722.79
4813.49
4795.39
4870.9
5009.77
4931.79
4996.38
5083.99
5076.31
5149.73
5150.11
3736.88
3748.66
3760.57
3772.57
3784.66
3796.85
3809.17
3821.62
3834.24
3847.04
3860.04
3873.27
3886.79
3900.7
3915.2
3930.55
3946.92
3964.47
3983.55
4004.8
4028.78
4055.76
4085.71
4118.55
4154.2
4192.58
4233.55
4276.8
4322.56
4372.5
4428.99
4494.22
4570.55
4550.44
4634.1
4613.1
4702.6
4681.39
4775.67
4754.65
4853.02
4832.91
4914.44
5064.73
4979.87
5049.51
5145.73
5136.78
5217.29
5217.33
3730.76
3742.45
3754.29
3766.2
3778.2
3790.31
3802.52
3814.87
3827.37
3840.04
3852.89
3865.96
3879.27
3892.93
3907.13
3922.11
3937.96
3954.72
3972.59
3992.04
4013.95
4038.89
4066.87
4097.78
4131.64
4168.51
4208.52
4251.41
4296.54
4344.41
4397.25
4457.85
4530.26
4509.87
4591.73
4570.12
4659.3
4636.59
4732.48
4709.34
4811.01
4787.83
4894.54
4872.2
4960.44
5123.47
5030.9
5106.16
5212.05
5201.64
5290.04
5289.71
3724.7
3736.3
3748.06
3759.89
3771.8
3783.81
3795.93
3808.17
3820.56
3833.1
3845.81
3858.72
3871.85
3885.3
3899.25
3913.93
3929.39
3945.6
3962.56
3980.55
4000.33
4022.89
4048.7
4077.47
4109.17
4143.88
4181.98
4223.63
4268.32
4315.19
4365.24
4421.36
4489.6
4469.13
4548.37
4526.58
4613.56
4590.31
4685.43
4660.97
4763.58
4738.5
4847.97
4822.54
4938.25
4913.47
5009.13
5186.39
5085.17
5166.7
5283.43
5271.39
5368.61
5367.84
3718.7
3730.22
3741.89
3753.63
3765.45
3777.36
3789.38
3801.52
3813.79
3826.21
3838.79
3851.55
3864.52
3877.78
3891.52
3905.95
3921.1
3936.89
3953.24
3970.21
3988.27
4008.45
4031.66
4058.09
4087.45
4119.7
4155.25
4194.58
4237.75
4283.83
4332.2
4384.44
4448.85
4428.16
4504.71
4482.77
4566.92
4543.44
4636.18
4611.14
4712.73
4686.44
4796.21
4769.16
4886.81
4859.16
4984.42
4957.06
5060.8
5253.97
5143.03
5231.57
5360.4
5346.52
5453.67
5452.34
3712.76
3724.19
3735.78
3747.43
3759.16
3770.97
3782.89
3794.92
3807.08
3819.37
3831.83
3844.45
3857.27
3870.36
3883.9
3898.11
3913
3928.46
3944.36
3960.63
3977.58
3995.88
4016.52
4040.23
4067.02
4096.71
4129.42
4165.81
4206.34
4250.67
4297.6
4347.09
4407.59
4387.01
4460.72
4438.47
4519.85
4496.11
4585.89
4560.48
4659.73
4632.68
4741.48
4713.22
4830.84
4801.81
4928.04
4898.39
5033.4
5003.58
5115.86
5326.62
5204.92
5301.23
5443.53
5427.59
5546.05
5544.05
3706.89
3718.24
3729.73
3741.29
3752.93
3764.65
3776.46
3788.38
3800.42
3812.6
3824.92
3837.41
3850.09
3863.01
3876.37
3890.38
3905.04
3920.22
3935.76
3951.53
3967.72
3984.78
4003.44
4024.53
4048.6
4075.61
4105.42
4138.47
4175.7
4217.28
4262.22
4309.36
4359.05
4416.29
4394.41
4472.19
4448.06
4534.88
4509.06
4605.31
4577.65
4684.4
4655.04
4772.09
4741.67
4868.14
4837.07
4972.57
4941.07
5085.88
5054.16
5174.98
5404.98
5271.52
5376.5
5533.71
5515.44
5646.75
5643.9
3701.09
3712.35
3723.76
3735.23
3746.76
3758.38
3770.09
3781.9
3793.83
3805.89
3818.08
3830.44
3842.97
3855.74
3868.92
3882.73
3897.18
3912.1
3927.33
3942.71
3958.36
3974.58
3991.87
4010.92
4032.45
4056.87
4084.04
4113.83
4147.06
4185.16
4227.46
4272.23
4318.47
4377.16
4355
4424.02
4400.38
4483.02
4456.76
4549.72
4521.49
4625.2
4594.93
4710.4
4678.36
4805.11
4772.16
4908.9
4875.62
5021.63
4988.32
5143.04
5110.3
5239.36
5489.86
5344.21
5458.69
5631.74
5610.77
5756.95
5752.9
3695.37
3706.53
3717.85
3729.23
3740.67
3752.19
3763.79
3775.49
3787.3
3799.24
3811.31
3823.53
3835.92
3848.54
3861.53
3875.14
3889.39
3904.09
3919.04
3934.08
3949.3
3964.94
3981.29
3998.82
4018.21
4040.23
4065.12
4092.39
4122.02
4155.53
4194.48
4236.8
4280.49
4333.8
4313.79
4381.34
4358.34
4430.75
4405.56
4493
4464.5
4564.25
4533.25
4645.61
4612.26
4738.02
4702.74
4841.06
4805.03
4954.03
4918.11
5076.45
5041.25
5206.73
5173.41
5311.34
5582.2
5425.56
5549.91
5738.42
5714.54
5878.18
5872.27
3689.71
3700.79
3712.02
3723.3
3734.65
3746.07
3757.57
3769.15
3780.85
3792.66
3804.6
3816.68
3828.94
3841.4
3854.21
3867.61
3881.66
3896.16
3910.86
3925.61
3940.48
3955.66
3971.34
3987.78
4005.45
4025.21
4047.93
4073.33
4100.6
4130.09
4164.25
4203.7
4245.21
4294.71
4276.63
4336.68
4316.45
4384.58
4360.85
4436.62
4409.92
4502.22
4471.48
4578.49
4544.57
4666.53
4629.74
4767.32
4728.19
4880.2
4840.24
5004.16
4964.58
5138.24
5100.28
5278.92
5244.79
5393.61
5684.02
5518.68
5653.71
5854.77
5828.37
6012.77
6003.54
3684.19
3695.11
3706.25
3717.45
3728.7
3740.02
3751.41
3762.89
3774.46
3786.15
3797.96
3809.91
3822.02
3834.33
3846.95
3860.13
3873.98
3888.29
3902.78
3917.27
3931.84
3946.65
3961.82
3977.49
3993.9
4011.65
4032.01
4055.57
4081.34
4108.41
4138.17
4173.35
4212.43
4252.2
4297.46
4279.71
4338.88
4318.57
4387.07
4362.82
4441.67
4413.42
4510.83
4477.71
4592.64
4555.53
4688.07
4647.45
4798.22
4754.63
4922.29
4877.46
5059.07
5014.46
5207.07
5164.66
5360.79
5324.08
5487.21
5798.98
5624.77
5772.52
5981.91
5955.02
6166.11
6151.35
3689.58
3700.57
3711.67
3722.83
3734.05
3745.34
3756.7
3768.16
3779.72
3791.4
3803.21
3815.17
3827.32
3839.75
3852.7
3866.35
3880.47
3894.78
3909.05
3923.36
3937.86
3952.63
3967.75
3983.29
3999.54
4017.45
4038.69
4062.98
4088.78
4115.83
4146.56
4182.19
4220.06
4264.47
4247.94
4299.63
4281.72
4340.66
4320.31
4389.29
4364.64
4445.99
4416.42
4518.87
4483.45
4606.7
4566.22
4710.1
4665.34
4830.36
4781.75
4966.69
4916.15
5117.8
5066.93
5281.75
5233.26
5451.81
5410.02
5591.4
5930.9
5743.18
5905.77
6126.52
6103.08
6362.59
6340.1
3695.03
3705.97
3717.04
3728.16
3739.34
3750.6
3761.93
3773.37
3784.91
3796.59
3808.4
3820.4
3832.64
3845.34
3858.75
3872.69
3886.84
3900.94
3915.02
3929.26
3943.7
3958.4
3973.37
3988.66
4004.69
4023.05
4045.23
4069.9
4095.54
4123.19
4154.89
4189.94
4232.12
4216.74
4266.35
4249.92
4301.37
4283.46
4342.28
4321.78
4391.75
4366.64
4450.14
4419.54
4526.8
4489.45
4620.84
4577.24
4732.48
4683.52
4863.35
4809.32
5012.73
4955.74
5179.44
5121.15
5361.2
5305.16
5550.84
5501.47
5704.71
6083.43
5873.32
6008.81
6026.52
6309.95
6286.56
6607.9
6587
3700.42
3711.32
3722.35
3733.43
3744.57
3755.79
3767.1
3778.52
3790.05
3801.72
3813.55
3825.6
3838.05
3851.19
3864.95
3878.96
3892.92
3906.82
3920.82
3934.99
3949.36
3963.92
3978.65
3993.6
4009.56
4028.64
4051.44
4076.1
4101.87
4130.42
4162.21
4195.53
4234.13
4218.98
4267.48
4251.02
4302.69
4284.66
4343.86
4322.91
4394.93
4369.08
4454.89
4423.4
4535.48
4496.6
4635.58
4589.34
4755.23
4702.39
4896.71
4837.21
5059.54
4995.47
5243.04
5175.83
5444.4
5379.03
5657.24
5558.57
5589.13
5809.23
5783.55
6104.21
6223.93
6207.14
5989.42
5965.94
5871.73
6086.05
6546.81
6317.18
6440.28
6462.49
6867.79
6852.97
3705.76
3716.61
3727.6
3738.63
3749.74
3760.93
3772.21
3783.6
3795.12
3806.79
3818.65
3830.85
3843.68
3857.22
3871.1
3884.96
3898.73
3912.54
3926.47
3940.56
3954.81
3969.18
3983.61
3998.29
4014.5
4034.21
4057.25
4081.77
4108.07
4136.94
4167.66
4204.95
4190.54
4235.18
4219.87
4267.68
4251.11
4303.4
4285.06
4345.37
4323.46
4398.83
4371.5
4461.03
4428.56
4545.85
4505.55
4651.7
4603.22
4778.92
4722.74
4930.41
4866.15
5106.32
5035.58
5307.4
5236.14
5198.84
5525.64
5491.09
5415.53
5453.69
5638.58
5755.66
5724.99
5605.85
5844.73
6189.02
6299.5
6063.79
6037.67
5938.8
6167.37
6576.3
6755.76
6726.12
6419.75
6552.33
7137.03
6884.88
7045.55
7065.32
3711.05
3721.85
3732.78
3743.78
3754.84
3765.99
3777.24
3788.61
3800.12
3811.8
3823.76
3836.26
3849.53
3863.25
3877.04
3890.73
3904.4
3918.13
3931.97
3945.95
3960.05
3974.21
3988.38
4003.06
4019.75
4039.86
4062.77
4087.32
4113.79
4142.03
4170.46
4205.35
4191.41
4235.25
4220.01
4266.77
4250.18
4303.17
4284.36
4346.29
4323.12
4402.45
4373.2
4468.33
4434.04
4557.52
4515.12
4668.97
4617.71
4803.66
4743.51
4964.93
4895.39
5160.83
5123.23
5084.95
5047.14
5375.28
5334.83
5264.33
5225.17
5570.32
5532.46
5451.14
5492.41
5690.69
5814.2
5780.37
5654.13
5908.26
6277.87
6396.82
6141.64
6007.66
6111.96
6252.33
6697.96
6855.34
6526.38
6668.2
7199.39
7343.08
7343.48
7019.76
7183.75
3716.27
3727.02
3737.9
3748.85
3759.87
3770.98
3782.2
3793.55
3805.05
3816.78
3828.95
3841.88
3855.4
3869.1
3882.75
3896.35
3909.94
3923.58
3937.31
3951.17
3965.11
3979.07
3993.19
4008.18
4025.39
4045.69
4068.28
4092.66
4118.62
4145.36
4178.06
4165.61
4204.99
4191.26
4234.41
4219.37
4264.84
4248.32
4301.95
4282.62
4346.2
4321.68
4405.12
4373.65
4475.72
4439.09
4569.16
4523.65
4685.6
4629.92
4827.37
4761.05
5008.97
4971.21
4933.27
4896.05
5185.49
5145.78
5105.81
5065.84
5408.65
5365.44
5293.16
5251.62
5615.26
5574.17
5487.22
5531.26
5743.05
5874.23
5836.89
5702.9
5973.6
6370.51
6497.95
6222.6
6078.46
6188.87
6340.5
6822.42
6986.95
6636.48
6787.11
7339.94
7482.23
7483.57
7156.9
7325.04
3721.44
3732.12
3742.95
3753.85
3764.82
3775.89
3787.08
3798.4
3809.92
3821.78
3834.32
3847.58
3861.16
3874.76
3888.35
3901.87
3915.35
3928.87
3942.49
3956.21
3970.02
3983.92
3998.23
4013.72
4031.47
4051.78
4074.02
4097.96
4123.08
4148.29
4178.18
4166.17
4204.16
4190.87
4232.81
4218.12
4262.05
4245.7
4299.66
4279.91
4344.84
4319.01
4405.95
4372.64
4481.28
4442.09
4577.27
4528.39
4697.17
4636.48
4859.01
4822.92
4787.05
4752.43
5025.75
4985.77
4945.87
4906.43
5209.96
5168.13
5125.97
5083.65
5442.22
5321.82
5396.5
5278.07
5660.62
5616.47
5523.93
5570.68
5796.1
5935.78
5894.66
5752.46
6040.8
6466.59
6602.5
6306.51
6151.44
6268.58
6431.81
6949.4
7120.91
6749.7
6908.73
7481.69
7622.89
7624.31
7296.67
7468.36
3726.53
3737.15
3747.92
3758.76
3769.69
3780.72
3791.87
3803.18
3814.76
3826.9
3839.82
3853.21
3866.74
3880.32
3893.86
3907.26
3920.61
3934
3947.49
3961.1
3974.86
3988.87
4003.56
4019.68
4037.91
4058.17
4080.19
4103.49
4127.08
4154.81
4144.23
4177.76
4166.05
4202.84
4190.02
4230.54
4216.31
4258.28
4242.24
4296.18
4276.09
4342.37
4315.43
4404.54
4370.09
4483.39
4442.23
4579.77
4527.85
4701.78
4636.22
4867.54
4829.4
4791.99
4755.93
5041.24
4998.92
4956.79
4915.15
5234.12
5189.85
5145.12
5100.19
5476.26
5350.52
5427.83
5304.25
5706.87
5659.66
5561.43
5611.06
5850.39
5999.13
5954.15
5803.4
6110.02
6565.82
6710.12
6393.39
6226.92
6351.27
6525.96
7078.8
7257.32
6865.68
7032.87
7623.34
7765.15
7766.29
7438.85
7612.07
3731.56
3742.1
3752.82
3763.6
3774.47
3785.45
3796.57
3807.9
3819.65
3832.16
3845.28
3858.7
3872.23
3885.81
3899.25
3912.51
3925.69
3938.95
3952.34
3965.89
3979.7
3993.97
4009.17
4025.9
4044.44
4064.62
4086.06
4107.97
4129.27
4154.8
4144.51
4176.84
4165.57
4200.94
4188.62
4227.55
4213.86
4253.55
4237.87
4291.83
4271.35
4338.99
4311.3
4400.47
4365.83
4481
4438.76
4576.16
4521.9
4718.84
4682.99
4615.53
4648.39
4874.23
4834.13
4794.89
4756.6
5055.24
5010.44
4965.98
4922.13
5257.59
5210.52
5162.95
5115.23
5510.71
5378.99
5459.04
5329.73
5754.49
5704.14
5599.48
5652.51
5906.39
6064.53
6015.76
5856.03
6181.49
6667.93
6820.44
6482.98
6305.26
6436.67
6622.99
7210.75
7396.3
6984.33
7159.7
7765.12
7909.67
7910.39
7582.62
7755.59
3736.51
3746.98
3757.62
3768.34
3779.16
3790.09
3801.19
3812.6
3824.65
3837.45
3850.67
3864.11
3877.68
3891.22
3904.51
3917.56
3930.59
3943.73
3957.05
3970.62
3984.58
3999.2
4014.91
4032.03
4050.59
4070.31
4090.63
4110.77
4134.63
4125.4
4154.35
4144.35
4175.47
4164.71
4198.4
4186.69
4223.75
4210.7
4248.2
4232.79
4287.02
4266.09
4334.63
4306.67
4393.64
4359.64
4473.98
4431.5
4584.42
4555.03
4510.83
4717.5
4680.29
4610.84
4644.7
4879.19
4837.2
4796.24
4756.36
5067.6
5020.27
4973.47
4927.47
5280.02
5229.86
5179.27
5128.65
5545.15
5406.86
5489.81
5354.21
5803.65
5749.89
5637.61
5694.61
5964.39
6132.48
6080.07
5910.48
6255.87
6772.85
6933.5
6575.46
6386.57
6524.92
6723.04
7345.44
7537.79
7105.79
7289.6
7908.14
8057.09
8057.2
7727.47
7899.22
3741.39
3751.77
3762.34
3772.99
3783.75
3794.64
3805.75
3817.37
3829.76
3842.69
3855.96
3869.47
3883.08
3896.5
3909.57
3922.43
3935.31
3948.36
3961.65
3975.29
3989.46
4004.42
4020.44
4037.64
4055.88
4074.77
4093.76
4112.16
4134.47
4125.43
4153.53
4143.85
4173.73
4163.48
4195.32
4184.31
4219.22
4206.87
4242.6
4227.31
4282
4260.7
4328.98
4301.38
4384.24
4351.55
4462.73
4420.8
4579.04
4549.57
4513.18
4486.48
4714.85
4676.38
4604.85
4639.7
4882.59
4838.84
4796.29
4754.97
5078.31
5028.49
4979.41
4931.37
5301.14
5247.73
5194.02
5140.49
5579.22
5433.88
5519.89
5377.49
5854.38
5796.62
5675.53
5737.03
6024.82
6203.32
6147.13
5967.08
6333.36
6880.7
7049.62
6671.13
6471.22
6616.57
6826.35
7483.17
7681.53
7230.6
7422.97
8053.5
8208.39
8207.74
7873.22
8043.94
3746.17
3756.47
3766.96
3777.54
3788.24
3799.11
3810.32
3822.24
3834.83
3847.85
3861.22
3874.82
3888.38
3901.61
3914.42
3927.08
3939.84
3952.83
3966.13
3979.88
3994.24
4009.41
4025.51
4042.51
4060.16
4078.06
4095.68
4116.69
4108.54
4134
4125.22
4152.38
4143.05
4171.69
4161.93
4191.87
4181.64
4214.21
4202.6
4237.05
4221.78
4276.82
4255.36
4321.96
4295.16
4373
4341.94
4463.01
4440.86
4407.34
4572.18
4541.76
4504.23
4477.88
4710.99
4671.29
4597.7
4633.51
4884.67
4839.27
4795.19
4752.43
5087.48
5035.23
4984.01
4934.04
5320.85
5264.07
5207.23
5150.84
5612.69
5459.91
5549.06
5399.47
5906.77
5844.22
5713.06
5779.56
6087.74
6277.02
6216.86
6025.66
6414.25
6991.91
7169.44
6770.11
6559.29
6711.66
6933.18
7624.13
7827.56
7359.5
7560.32
8202.41
8364.91
8363.07
8019.92
8191.46
3750.86
3761.06
3771.48
3781.99
3792.64
3803.52
3814.95
3827.13
3839.84
3852.98
3866.48
3880.11
3893.53
3906.5
3919.04
3931.52
3944.19
3957.15
3970.49
3984.33
3998.8
4014.02
4029.98
4046.56
4063.46
4080.29
4096.58
4116.53
4108.48
4133.32
4124.82
4150.99
4142.04
4169.44
4160.14
4188.31
4178.81
4209.08
4198.2
4231.68
4216.55
4271.12
4249.91
4313.79
4288.1
4371.7
4355.98
4330.96
4454.41
4433.11
4387.39
4405.57
4564.21
4533.12
4494.5
4468.35
4706
4665.07
4589.52
4626.21
4885.59
4838.57
4792.96
4748.77
5095.24
5040.71
4987.42
4935.56
5339.13
5278.96
5219.03
5159.85
5645.43
5484.74
5577.13
5420.13
5960.44
5892.28
5750.15
5821.96
6153.03
6353.85
6289.47
6085.82
6498.42
7107.1
7293.91
6872.72
6650.5
6810.41
7043.92
7768.68
7976.24
7492.92
7702.37
8355.8
8526.74
8523.61
8169.01
8343.34
3755.45
3765.56
3775.9
3786.34
3796.95
3807.93
3819.62
3831.98
3844.81
3858.11
3871.71
3885.28
3898.49
3911.13
3923.41
3935.75
3948.35
3961.3
3974.66
3988.55
4003.03
4018.13
4033.79
4049.8
4065.87
4081.6
4100.52
4093.11
4116.14
4108.25
4132.47
4124.22
4149.47
4140.89
4167.08
4158.22
4184.86
4175.96
4204.26
4194.04
4226.53
4211.85
4264.88
4244.27
4304.72
4280.33
4364.53
4349.31
4329.18
4315.83
4445.19
4424.39
4380.14
4396.99
4555.28
4523.6
4483.97
4458.13
4699.99
4657.85
4580.37
4617.9
4885.37
4836.75
4789.61
4744.02
5101.78
5045
4989.64
4935.9
5356.03
5292.5
5229.55
5167.67
5677.42
5508.26
5604.11
5439.52
6014.84
5940.49
5786.67
5864.13
6220.52
6433.7
6364.37
6147.13
6585.66
7227.13
7423.4
6979.37
6745.21
6912.97
7159.39
7917.69
8128.88
7631.72
7850.33
8514.4
8694.43
8689.8
8322.73
8500.66
3759.93
3769.95
3780.19
3790.57
3801.19
3812.36
3824.3
3836.79
3849.79
3863.25
3876.88
3890.29
3903.2
3915.47
3927.53
3939.77
3952.32
3965.25
3978.61
3992.47
4006.85
4021.71
4036.93
4052.28
4067.47
4082.14
4100.34
4093
4115.57
4107.87
4131.47
4123.44
4147.9
4139.62
4164.75
4156.28
4181.72
4173.25
4200.07
4190.4
4221.82
4207.88
4258.26
4238.66
4303.52
4291.64
4272.1
4357.28
4342.79
4322.86
4310.24
4435.44
4415.22
4372.41
4388.43
4545.42
4513.18
4472.87
4447.41
4693.02
4649.8
4570.48
4608.83
4884
4833.76
4785.07
4738.16
5107.12
5048.06
4990.63
4935.02
5371.74
5304.86
5238.9
5174.24
5708.44
5530.64
5629.97
5457.89
6069.55
5988.58
5822.3
5905.86
6289.32
6516.15
6440.82
6208.84
6676.04
7352.49
7558.47
7090.53
6843.58
7019.65
7280.29
8072.79
8287.82
7777.37
8006.14
8679.48
8872.44
8865.79
8483.41
8666.42
3764.29
3774.21
3784.38
3794.7
3805.41
3816.83
3828.94
3841.6
3854.8
3868.36
3881.91
3895.08
3907.6
3919.52
3931.42
3943.58
3956.09
3968.98
3982.29
3996.04
4010.22
4024.73
4039.42
4054.07
4068.38
4082.16
4099.98
4092.78
4114.85
4107.34
4130.32
4122.51
4146.27
4138.25
4162.54
4154.37
4178.99
4170.76
4196.67
4187.4
4217.74
4204.7
4251.59
4233.4
4298.17
4286.45
4261.55
4271.37
4349.84
4335.98
4316.6
4304.53
4425.27
4405.82
4364.42
4379.75
4534.89
4502.15
4461.52
4436.41
4685.08
4640.93
4559.97
4599.07
4881.42
4829.6
4779.41
4731.21
5111.16
5049.8
4990.29
4932.8
5386.45
5316.08
5246.95
5179.44
5738.41
5551.97
5654.84
5475.26
6124.06
6036.31
5857.16
5946.98
6358.81
6600.88
6518.43
6270.68
6769.17
7483.59
7700.59
7206.67
6945.21
7130.37
7406.78
8236.75
8456.67
7931.91
8172.37
8856.79
9069.6
9072.43
8656.5
8853.88
3768.53
3778.35
3788.44
3798.76
3809.64
3821.29
3833.58
3846.44
3859.81
3873.39
3886.76
3899.59
3911.65
3923.29
3935.08
3947.18
3959.62
3972.44
3985.65
3999.22
4013.11
4027.19
4041.31
4055.23
4068.73
4085.13
4092.43
4078.55
4099.48
4114
4106.67
4129.06
4121.46
4144.58
4136.77
4160.45
4152.48
4176.64
4168.5
4194.06
4184.99
4214.44
4202.26
4245.51
4228.87
4292.93
4281.85
4257.63
4267.36
4342.32
4329.13
4310.5
4299
4414.89
4396.29
4356.26
4370.97
4523.8
4490.74
4449.91
4425.24
4676.13
4631.2
4548.86
4588.63
4877.51
4824.21
4772.66
4723.23
5113.77
5050.08
4988.48
4929.09
5400
5325.98
5253.54
5183.08
5767.57
5572.31
5678.84
5491.41
6178.33
6083.57
5891.39
5987.58
6428.55
6687.15
6596.5
6332.21
6864.23
7621.25
7851.85
7327.72
7049.47
7244.97
7539.41
8413.67
8644.18
8097.78
8353.14
9080.08
9350.55
9378.93
8864.12
9104.78
3772.64
3782.37
3792.39
3802.79
3813.89
3825.75
3838.25
3851.32
3864.79
3878.27
3891.38
3903.76
3915.37
3926.81
3938.52
3950.55
3962.91
3975.62
3988.66
4001.99
4015.52
4029.13
4042.64
4055.86
4068.52
4091.94
4084.69
4078.15
4098.86
4113.04
4105.89
4127.69
4120.31
4142.81
4135.19
4158.39
4150.55
4174.49
4166.35
4192
4182.94
4211.79
4200.17
4245.89
4237.93
4225.18
4287.97
4277.44
4254.52
4263.7
4334.9
4322.42
4304.71
4293.8
4404.44
4386.73
4348.1
4362.17
4512.12
4478.9
4438.21
4414.07
4666.12
4620.54
4537.24
4577.5
4872.09
4817.4
4764.7
4714.17
5114.76
5048.69
4984.99
4923.72
5412.07
5334.23
5258.38
5184.86
5795.99
5591.62
5701.74
5506.24
6232
6130.12
5924.85
6027.48
6497.92
6774.16
6674.39
6393.07
6960.67
7767.38
8014.68
7453.8
7156.4
7363.54
7679.21
8611.74
8869.53
8278.52
8556.06
9422.17
9846.51
9863.29
9141.29
9469.86
3776.62
3786.27
3796.27
3806.83
3818.16
3830.24
3842.96
3856.19
3869.67
3882.96
3895.68
3907.53
3918.77
3930.1
3941.73
3953.67
3965.93
3978.48
3991.31
4004.33
4017.47
4030.57
4043.48
4056
4068
4091.35
4084.12
4077.68
4098.12
4111.97
4104.99
4126.24
4119.05
4140.97
4133.54
4156.24
4148.53
4172.29
4164.14
4190.02
4180.84
4208.91
4197.64
4243.35
4235.33
4219.48
4226.06
4283.33
4273.3
4251.68
4260.42
4327.86
4316.05
4299.39
4289.05
4394.07
4377.24
4340.31
4353.62
4500.09
4466.85
4426.61
4403.11
4655.15
4609.02
4525.18
4565.68
4865.06
4809.07
4755.4
4703.99
5113.8
5045.31
4979.5
4916.41
5422.44
5340.52
5261.08
5184.38
5823.05
5609.45
5722.74
5519.34
6285.14
6176.23
5952.43
6066.8
6566.26
6861.36
6751.02
6453.24
7058.47
7924.83
8192.92
7585.94
7266.14
7486.97
7829.28
8845.02
9151.86
8481.59
8791.47
9899.06
10432.7
10439.2
9500.11
9927.25
3780.47
3790.05
3800.12
3810.88
3822.45
3834.78
3847.7
3861.03
3874.4
3887.38
3899.59
3910.9
3921.92
3933.16
3944.71
3956.55
3968.66
3981.02
3993.58
4006.27
4018.97
4031.56
4043.88
4055.74
4070.38
4077.15
4064.39
4090.65
4083.46
4097.27
4110.8
4103.99
4124.7
4117.7
4139.02
4131.8
4153.94
4146.39
4169.81
4161.73
4187.54
4178.35
4217.39
4209.05
4203.47
4194.2
4240.96
4233.3
4224.08
4279.11
4269.56
4248.98
4257.37
4321.3
4310.13
4294.54
4284.72
4383.99
4367.99
4333.02
4345.49
4487.94
4454.87
4415.1
4392.34
4643.2
4596.73
4512.81
4553.25
4856.2
4799
4744.52
4692.52
5110.5
5039.55
4971.61
4906.73
5430.84
5344.49
5261.29
5181.32
5842.81
5624.95
5739.99
5526.29
6337.87
6219.57
5996.21
6104.15
6633.48
6948.59
6825.03
6510.74
7157.98
8098.21
8393.04
7727.44
7379.62
7618.1
7994.89
9126.66
9498.13
8715.5
9069.8
10452.1
11055.6
11063.2
9932.71
10451.2
3784.2
3793.75
3803.95
3814.95
3826.8
3839.37
3852.45
3865.77
3878.92
3891.46
3903.08
3913.95
3924.84
3936
3947.45
3959.15
3971.09
3983.22
3995.49
4007.81
4020.07
4032.14
4043.88
4055.15
4076.52
4069.84
4063.89
4089.85
4082.72
4096.33
4109.53
4102.89
4123.05
4116.24
4136.96
4129.95
4151.45
4144.11
4166.94
4159.03
4184.34
4175.32
4215.29
4206.9
4201.25
4188.6
4193.41
4238.56
4231.14
4221.85
4275.23
4266.12
4246.31
4254.41
4315.25
4304.7
4290.08
4280.68
4374.19
4359.06
4326.27
4337.91
4475.77
4442.99
4403.87
4381.91
4629.91
4583.47
4500.12
4540.16
4845.01
4786.67
4731.63
4679.37
5104.56
5031.09
4960.99
4894.32
5432.08
5343.23
5258.04
5176
5841.03
5642.72
5741.65
5554.27
6388.04
6275.37
5979.64
6115.02
6698.1
7036.51
6908.31
6578.35
7259.23
8292.63
8622.01
7882.85
7498.17
7760.34
8179.92
9462.62
9909.11
8987.87
9396.45
11058
11717.5
11733.1
10427.4
11029.4
3787.81
3797.4
3807.81
3819.08
3831.21
3843.98
3857.14
3870.34
3883.14
3895.12
3906.12
3916.74
3927.55
3938.62
3949.94
3961.49
3973.22
3985.09
3997.04
4008.97
4020.77
4032.36
4043.58
4054.41
4075.85
4069.21
4063.33
4088.98
4081.93
4095.31
4108.17
4101.71
4121.29
4114.69
4134.76
4127.98
4148.73
4141.66
4163.64
4156.03
4180.31
4171.69
4212.94
4204.37
4198.78
4186.19
4190.98
4235.95
4228.73
4219.34
4271.59
4262.83
4243.49
4251.35
4309.69
4299.74
4285.75
4276.73
4364.79
4350.59
4320.04
4330.91
4463.64
4431.32
4393.1
4371.98
4614.77
4568.78
4486.96
4526.16
4831.08
4771.79
4716.49
4664.13
5097.12
5021.69
4950.01
4882.24
5422.71
5335.95
5252.28
5170.77
5837.83
5650.16
5738.64
5539.85
6405.19
6260.5
5975.82
6112.18
6721.9
7131.51
6894.56
6563.9
7367.83
8513.19
8884.87
8054.05
7624.25
7909.25
8385.83
9856.57
10378
9303.29
9774
11714.7
12404.6
12463.9
10975.4
11658.1
3791.34
3801.04
3811.71
3823.29
3835.68
3848.59
3861.73
3874.68
3886.99
3898.31
3908.82
3919.31
3930.04
3941.01
3952.19
3963.54
3975.04
3986.63
3998.24
4009.76
4021.14
4032.27
4043.07
4053.48
4062.79
4075.12
4068.55
4088.06
4081.08
4094.24
4106.75
4100.47
4119.46
4113.07
4132.42
4125.9
4145.79
4139.04
4159.93
4152.73
4175.6
4167.5
4210.28
4201.55
4196.12
4183.51
4188.22
4233.1
4226.06
4216.52
4267.97
4259.51
4240.45
4248.11
4304.46
4295
4281.41
4272.73
4355.85
4342.64
4314.2
4324.34
4451.41
4419.85
4382.85
4362.59
4597.48
4552.29
4473.15
4510.98
4817.91
4756.71
4699.33
4646.7
5091.84
5016.2
4944.58
4877.15
5419.74
5333.06
5249.47
5168.02
5835.04
5647.67
5736.05
5536.39
6402.29
6256.38
5972.76
6109.53
6718.64
7121.86
6890.25
6559.59
7361.2
8769.32
9186.24
8230.19
7621.78
7911.76
8601.78
10303.6
10897.8
9662.75
10201
12430.8
13291
13326.7
11571.4
12336.7
3794.81
3804.7
3815.68
3827.57
3840.18
3853.15
3866.14
3878.69
3890.38
3901.04
3911.29
3921.7
3932.33
3943.16
3954.17
3965.32
3976.56
3987.85
3999.1
4010.25
4021.23
4031.96
4042.39
4052.46
4062.18
4061.61
4074.35
4067.87
4087.08
4080.19
4093.12
4105.29
4099.19
4117.56
4111.41
4129.99
4123.76
4142.66
4136.28
4155.84
4149.16
4173.45
4180.75
4169.66
4162.78
4207.31
4198.43
4193.18
4185.21
4229.97
4223.08
4213.38
4264.28
4256.06
4237.16
4244.65
4299.31
4290.27
4276.98
4268.62
4347.4
4335.19
4308.54
4318.05
4438.96
4408.58
4373.01
4353.7
4580.26
4535.58
4458.2
4494.31
4813.18
4729.98
4679.62
4628.78
5089.14
5013.57
4942.01
4874.69
5417.22
5330.61
5247.1
5165.7
5832.77
5645.29
5733.85