/*--------------------------------*- C++ -*----------------------------------*\
  =========                 |
  \\      /  F ield         | OpenFOAM: The Open Source CFD Toolbox
   \\    /   O peration     | Website:  https://openfoam.org
    \\  /    A nd           | Version:  dev
     \\/     M anipulation  |
\*---------------------------------------------------------------------------*/
FoamFile
{
    version     2.0;
    format      ascii;
    class       volScalarField;
    location    "2500";
    object      H2O;
}
// * * * * * * * * * * * * * * * * * * * * * * * * * * * * * * * * * * * * * //

dimensions      [0 0 0 0 0 0 0];

internalField   nonuniform List<scalar> 
9846
(
5.96059e-33
2.02472e-32
9.65083e-33
4.19629e-32
5.40301e-32
1.33863e-32
6.27262e-32
1.12307e-31
5.63695e-32
9.60981e-33
8.35193e-32
1.91202e-31
1.46438e-31
5.35606e-32
6.03238e-33
1.49642e-31
3.34922e-31
2.53183e-31
1.42718e-31
4.27844e-32
9.12392e-33
1.88827e-31
5.74674e-31
5.56552e-31
2.8726e-31
1.75334e-31
7.89782e-32
5.99546e-32
7.4523e-31
1.56733e-30
1.56934e-30
1.21635e-30
9.34625e-31
7.27158e-31
8.25444e-31
5.54794e-31
3.45607e-30
6.80822e-30
1.03861e-29
1.1087e-29
9.78473e-30
7.78089e-30
8.33463e-30
1.17243e-29
7.68995e-30
2.11989e-29
5.76979e-29
1.08952e-28
1.56336e-28
1.25783e-28
1.17322e-28
1.33188e-28
1.24252e-28
1.83025e-28
1.46294e-28
1.43053e-28
4.75332e-28
1.26369e-27
1.67255e-27
2.1047e-27
1.63283e-27
1.61101e-27
2.18678e-27
2.10559e-27
2.77634e-27
1.22288e-27
1.03113e-27
3.83251e-27
1.20589e-26
2.20829e-26
2.51649e-26
2.67872e-26
2.26509e-26
2.95023e-26
3.15784e-26
3.99494e-26
3.46692e-26
1.65174e-26
6.28285e-27
3.07276e-26
1.03489e-25
2.34216e-25
3.68677e-25
3.20494e-25
3.39506e-25
4.12014e-25
5.09096e-25
5.43784e-25
5.05562e-25
3.59662e-25
3.01102e-25
3.93505e-26
2.21493e-25
8.48533e-25
2.42468e-24
3.96042e-24
4.71396e-24
3.72597e-24
4.9492e-24
6.72503e-24
6.87631e-24
6.63478e-24
5.71328e-24
4.7424e-24
2.56793e-24
2.264e-25
1.33112e-24
6.37721e-24
1.92259e-23
3.94989e-23
5.7568e-23
5.30875e-23
5.87084e-23
8.02086e-23
1.10536e-22
1.11063e-22
9.6311e-23
7.56914e-23
6.9982e-23
3.8788e-23
1.29831e-24
8.34043e-24
4.31568e-23
1.4825e-22
3.6365e-22
5.90455e-22
7.26688e-22
8.06641e-22
1.13992e-21
1.41296e-21
1.42706e-21
1.49885e-21
1.3655e-21
9.13693e-22
6.29624e-22
3.84439e-22
8.23548e-24
5.33639e-23
2.8061e-22
1.18928e-21
2.77682e-21
5.83414e-21
8.16513e-21
8.36437e-21
1.17213e-20
1.68522e-20
1.80036e-20
1.66749e-20
1.66303e-20
1.27142e-20
8.45693e-21
5.83431e-21
2.73829e-21
7.65505e-23
3.51174e-22
1.93218e-21
7.64344e-21
2.5019e-20
4.77956e-20
7.89373e-20
1.01759e-19
1.43946e-19
1.92907e-19
2.27339e-19
2.06004e-19
1.96725e-19
1.94266e-19
1.32764e-19
7.3779e-20
4.32878e-20
2.6349e-20
8.27042e-22
3.36319e-21
1.32973e-20
6.03814e-20
1.82642e-19
4.22921e-19
6.76023e-19
1.0196e-18
1.15754e-18
2.11634e-18
2.58033e-18
2.27249e-18
2.42229e-18
2.39858e-18
1.82168e-18
9.81083e-19
6.73357e-19
5.1034e-19
1.34092e-19
1.00955e-20
3.69497e-20
1.30221e-19
4.22895e-19
1.46113e-18
3.09384e-18
6.05317e-18
9.6059e-18
1.31058e-17
1.80177e-17
2.7974e-17
3.62598e-17
2.44988e-17
2.49253e-17
1.83795e-17
1.50623e-17
6.05291e-18
5.50286e-18
3.46796e-18
1.58224e-18
1.12834e-19
3.49364e-19
1.19833e-18
3.84364e-18
1.03325e-17
2.69575e-17
4.86466e-17
8.59134e-17
1.15338e-16
1.94856e-16
2.69743e-16
2.9505e-16
3.58839e-16
2.24594e-16
1.57059e-16
1.56088e-16
9.12228e-17
5.46988e-17
3.27832e-17
1.88658e-17
8.16892e-18
4.85982e-19
2.08721e-18
9.08908e-18
2.94169e-17
8.47551e-17
1.85943e-16
3.97468e-16
6.94284e-16
1.09756e-15
1.61458e-15
2.33781e-15
2.88663e-15
3.4111e-15
2.55825e-15
1.87278e-15
1.20201e-15
1.07176e-15
5.10136e-16
3.41842e-16
1.59784e-16
9.65679e-17
3.65597e-17
2.78784e-18
1.04194e-17
5.14006e-17
1.79618e-16
5.61554e-16
1.58515e-15
3.12236e-15
5.86016e-15
9.74273e-15
1.60775e-14
2.39003e-14
3.08514e-14
3.38713e-14
3.05285e-14
2.26669e-14
1.43574e-14
9.20954e-15
5.41373e-15
2.92763e-15
1.51235e-15
7.01709e-16
4.47476e-16
1.37084e-16
1.01947e-17
3.57847e-17
1.93563e-16
8.52147e-16
3.33547e-15
1.02681e-14
2.58113e-14
5.25407e-14
8.9242e-14
1.57787e-13
2.51749e-13
3.38672e-13
3.8184e-13
3.52635e-13
2.74678e-13
1.74504e-13
1.13533e-13
6.66296e-14
3.53291e-14
1.68583e-14
7.64463e-15
3.29454e-15
1.22839e-15
3.12571e-16
2.06153e-17
1.10178e-16
6.58914e-16
3.70271e-15
1.66257e-14
6.01873e-14
1.76852e-13
4.33087e-13
8.23188e-13
1.44701e-12
2.49798e-12
3.53931e-12
4.11241e-12
3.88952e-12
3.12001e-12
2.05913e-12
1.38073e-12
8.15334e-13
4.30114e-13
2.0566e-13
9.07215e-14
3.77748e-14
1.45628e-14
5.03659e-15
7.31834e-16
3.36784e-17
2.35894e-16
1.92512e-15
1.3125e-14
7.10209e-14
2.91398e-13
9.83857e-13
2.81902e-12
6.13695e-12
1.13208e-11
2.20285e-11
3.42652e-11
4.15613e-11
4.01817e-11
3.2809e-11
2.28002e-11
1.58836e-11
9.61628e-12
5.08674e-12
2.4267e-12
1.06388e-12
4.35663e-13
1.68516e-13
6.18604e-14
1.99117e-14
2.70492e-15
4.16709e-17
4.02715e-16
4.52127e-15
3.75643e-14
2.42346e-13
1.16136e-12
4.43885e-12
1.47414e-11
3.67356e-11
7.2801e-11
1.62965e-10
2.86458e-10
3.85231e-10
3.80797e-10
3.15539e-10
2.35372e-10
1.71062e-10
1.06993e-10
5.75903e-11
2.73553e-11
1.1889e-11
4.83081e-12
1.86424e-12
6.9355e-13
2.42509e-13
7.46148e-14
9.23959e-15
5.00597e-17
5.50606e-16
7.8516e-15
8.38052e-14
6.67056e-13
3.80668e-12
1.6507e-11
6.15076e-11
1.76269e-10
3.86048e-10
9.73779e-10
1.99742e-09
3.09207e-09
3.20128e-09
2.70615e-09
2.23806e-09
1.71175e-09
1.10998e-09
6.11845e-10
2.93705e-10
1.26335e-10
5.05937e-11
1.93055e-11
7.15596e-12
2.56079e-12
8.72531e-13
2.56369e-13
2.91251e-14
3.97904e-17
6.97479e-16
1.13046e-14
1.4429e-13
1.40758e-12
1.01937e-11
5.11176e-11
2.10963e-10
6.67198e-10
1.64433e-09
4.87876e-09
1.09031e-08
2.041e-08
2.30753e-08
2.03043e-08
1.9048e-08
1.56498e-08
1.06162e-08
6.02047e-09
2.93625e-09
1.26873e-09
5.00987e-10
1.87704e-10
6.83387e-11
2.48653e-11
8.63934e-12
2.90344e-12
8.13368e-13
8.28584e-14
3.58566e-17
6.87137e-16
1.36706e-14
2.04307e-13
2.3513e-12
2.07873e-11
1.32596e-10
6.07131e-10
2.09908e-09
5.52106e-09
1.89409e-08
5.1932e-08
9.49032e-08
1.23313e-07
1.33803e-07
1.43098e-07
1.26871e-07
9.13591e-08
5.39984e-08
2.69199e-08
1.17433e-08
4.6441e-09
1.71318e-09
6.11609e-10
2.16708e-10
7.70704e-11
2.70012e-11
8.94655e-12
2.33704e-12
2.05987e-13
3.15305e-17
6.80855e-16
1.43842e-14
2.4873e-13
3.22713e-12
3.33852e-11
2.64185e-10
1.49017e-09
5.56937e-09
1.58348e-08
5.89556e-08
1.74486e-07
3.44332e-07
4.89812e-07
7.26258e-07
8.94348e-07
8.72048e-07
6.80998e-07
4.27824e-07
2.21688e-07
9.84722e-08
3.91929e-08
1.44875e-08
5.09891e-09
1.77121e-09
6.22706e-10
2.22592e-10
7.88781e-11
2.51279e-11
5.87007e-12
4.15734e-13
2.08078e-17
4.61461e-16
1.3276e-14
2.62881e-13
3.90097e-12
4.41529e-11
4.09235e-10
2.9009e-09
1.23389e-08
3.78988e-08
1.62464e-07
4.55674e-07
8.48396e-07
1.65177e-06
3.06682e-06
4.40565e-06
4.85375e-06
4.2244e-06
2.89225e-06
1.59173e-06
7.33033e-07
2.96219e-07
1.10155e-07
3.89721e-08
1.33832e-08
4.62232e-09
1.64702e-09
6.05847e-10
2.12042e-10
6.22576e-11
1.19757e-11
5.91304e-13
1.14768e-17
3.47257e-16
1.01307e-14
2.49875e-13
4.13714e-12
5.25828e-11
5.17753e-10
4.37713e-09
2.31678e-08
7.11757e-08
3.34972e-07
9.15701e-07
1.93356e-06
4.73056e-06
9.64565e-06
1.58834e-05
2.06389e-05
2.0766e-05
1.60789e-05
9.72395e-06
4.76999e-06
1.99094e-06
7.47515e-07
2.66302e-07
9.21932e-08
3.14565e-08
1.10476e-08
4.08158e-09
1.53177e-09
5.09147e-10
1.25946e-10
1.7134e-11
5.32209e-13
6.94681e-18
1.79463e-16
7.1949e-15
1.97194e-13
3.98313e-12
5.57257e-11
6.02108e-10
5.25851e-09
3.60649e-08
1.18591e-07
5.35618e-07
1.42101e-06
3.70826e-06
1.04266e-05
2.32941e-05
4.17473e-05
6.10727e-05
7.20257e-05
6.62017e-05
4.70924e-05
2.62787e-05
1.17695e-05
4.56586e-06
1.64468e-06
5.71881e-07
1.95356e-07
6.73644e-08
2.47407e-08
9.56824e-09
3.5179e-09
1.02117e-09
1.78652e-10
1.51606e-11
1.69079e-14
4.75866e-13
3.60677e-18
9.92748e-17
4.19139e-15
1.4546e-13
3.29665e-12
5.44162e-11
6.35065e-10
5.91622e-09
4.25188e-08
2.00146e-07
7.52897e-07
2.03411e-06
6.2718e-06
1.82896e-05
4.27714e-05
8.11607e-05
0.000125965
0.000162912
0.000175491
0.000153771
0.000104666
5.51243e-05
2.38822e-05
8.91635e-06
3.13463e-06
1.07529e-06
3.71158e-07
1.35093e-07
5.30237e-08
2.11867e-08
7.12854e-09
1.45903e-09
1.38984e-10
3.46536e-12
2.0463e-11
6.09418e-14
1.12164e-12
3.17543e-18
4.4815e-17
2.25738e-15
8.7622e-14
2.4554e-12
4.55636e-11
6.21213e-10
6.17025e-09
4.7666e-08
2.31491e-07
9.07094e-07
2.6832e-06
9.19163e-06
2.7391e-05
6.52659e-05
0.000126504
0.000201248
0.000268362
0.000307739
0.000304659
0.000259153
0.000178342
9.15763e-05
3.92592e-05
1.46596e-05
5.141e-06
1.80012e-06
6.60849e-07
2.61382e-07
1.11217e-07
4.33968e-08
1.08844e-08
5.81277e-10
1.56947e-09
1.0044e-10
7.55135e-10
4.94218e-10
9.04351e-12
5.70408e-11
2.18778e-13
4.03372e-12
9.76527e-18
3.24732e-17
9.86547e-16
4.81801e-14
1.57365e-12
3.55283e-11
5.38223e-10
5.99071e-09
4.89927e-08
2.64033e-07
9.78757e-07
3.20915e-06
1.18595e-05
3.65159e-05
8.76316e-05
0.000169783
0.000272683
0.000371261
0.000441015
0.00046436
0.000433108
0.000354627
0.000246342
0.000131311
5.51925e-05
2.09926e-05
7.58636e-06
2.84011e-06
1.15205e-06
5.1913e-07
2.32664e-07
7.5339e-08
4.66357e-09
1.49034e-08
2.67244e-09
3.1669e-10
2.10207e-09
1.59756e-09
3.32484e-11
2.12895e-10
8.47121e-13
1.55983e-11
3.75496e-17
3.84275e-17
4.31491e-16
2.21204e-14
9.02298e-13
2.411e-11
4.19974e-10
5.3015e-09
4.77011e-08
2.67054e-07
1.08898e-06
3.64243e-06
1.37989e-05
4.36572e-05
0.000107531
0.000206488
0.000330257
0.00045542
0.000555608
0.000612196
0.000608314
0.000542753
0.000430852
0.000296755
0.000164645
6.98322e-05
2.76171e-05
1.07267e-05
4.51448e-06
2.19066e-06
1.13684e-06
4.82207e-07
4.58521e-08
1.40563e-07
9.91786e-09
3.56207e-08
8.67786e-09
1.19194e-09
7.39861e-09
5.98278e-09
1.28686e-10
8.17897e-10
3.25184e-12
5.95061e-11
1.34232e-16
1.1088e-16
2.2556e-16
9.55219e-15
4.42056e-13
1.41705e-11
2.99454e-10
4.04296e-09
4.25552e-08
2.60898e-07
1.09348e-06
3.68677e-06
1.46718e-05
4.79384e-05
0.000120257
0.000236017
0.00037134
0.000509892
0.000630871
0.000718171
0.0007548
0.000720114
0.000623897
0.00048554
0.000332377
0.000188699
8.31799e-05
3.56433e-05
1.60059e-05
8.4149e-06
5.29897e-06
3.02249e-06
4.09774e-07
1.22595e-06
1.20504e-07
3.89738e-07
3.36535e-08
1.22512e-07
3.12456e-08
4.49441e-09
2.71379e-08
2.19098e-08
4.86674e-10
3.03837e-09
1.17965e-11
2.14299e-10
4.71689e-16
4.14376e-16
2.58638e-16
3.50533e-15
1.923e-13
7.35996e-12
1.87105e-10
3.00484e-09
3.43185e-08
2.36061e-07
1.06405e-06
3.66488e-06
1.47273e-05
4.90553e-05
0.000125369
0.000251103
0.000399205
0.00053677
0.000661275
0.000763291
0.000834372
0.000846554
0.000793295
0.000681409
0.000531273
0.000366976
0.000210839
0.000100849
5.12777e-05
3.0466e-05
2.32424e-05
1.99825e-05
3.54296e-06
1.11085e-05
1.21607e-06
3.79923e-06
4.17106e-07
1.35588e-06
1.20881e-07
4.34934e-07
1.12287e-07
1.61581e-08
9.6606e-08
7.64034e-08
1.72873e-09
1.05452e-08
3.84844e-11
7.10843e-10
1.46838e-15
1.37817e-15
7.37553e-16
1.39671e-15
7.57753e-14
3.43127e-12
1.03079e-10
1.99734e-09
2.52023e-08
1.96978e-07
9.64861e-07
3.54246e-06
1.44393e-05
4.84106e-05
0.000124256
0.000249316
0.0003829
0.00050793
0.000639401
0.000756839
0.000843813
0.000888727
0.000889296
0.000836279
0.000731768
0.000590955
0.000424403
0.000253508
0.000142059
9.71629e-05
8.54899e-05
9.38293e-05
3.3975e-05
0.000100054
1.21288e-05
3.87621e-05
4.36283e-06
1.42414e-05
1.48186e-06
4.91599e-06
4.27386e-07
1.52397e-06
3.91704e-07
5.46629e-08
3.30277e-07
2.53789e-07
5.67773e-09
3.40759e-08
1.13273e-10
2.16205e-09
5.266e-15
5.43889e-15
2.42534e-15
1.24005e-15
2.68591e-14
1.4494e-12
5.10221e-11
1.17396e-09
1.63097e-08
1.54659e-07
8.19258e-07
3.22781e-06
1.35899e-05
4.67693e-05
0.000121178
0.000239645
0.000340996
0.000429642
0.000541619
0.00068178
0.000802998
0.000879212
0.0009075
0.000907744
0.000871042
0.000798908
0.000688296
0.000531459
0.000357508
0.000252841
0.000246096
0.000281543
0.000204132
0.000372164
0.000108607
0.000241909
4.55321e-05
0.000127185
1.6329e-05
5.25693e-05
5.28458e-06
1.80288e-05
1.48017e-06
5.32891e-06
1.32913e-06
1.74414e-07
1.08942e-06
8.0623e-07
1.72287e-08
1.02633e-07
3.07671e-10
6.07551e-09
1.6262e-14
1.97959e-14
9.23902e-15
2.95223e-15
9.64029e-15
5.3918e-13
2.32764e-11
6.11048e-10
1.06724e-08
1.12943e-07
6.22057e-07
2.83507e-06
1.20037e-05
4.3549e-05
0.000114411
0.000219901
0.000296184
0.00035828
0.00042588
0.000509181
0.000660281
0.000813253
0.000887957
0.000911854
0.000916895
0.000913739
0.000896528
0.000837931
0.000711611
0.000579642
0.000536079
0.000636017
0.000529569
0.000760834
0.000410918
0.000607963
0.000275181
0.000461204
0.000146232
0.000310429
5.87415e-05
0.000164475
1.89069e-05
6.32137e-05
5.07066e-06
1.85816e-05
4.43954e-06
5.26163e-07
3.52783e-06
2.49604e-06
4.85459e-08
2.90649e-07
7.78143e-10
1.57893e-08
5.31591e-14
7.60383e-14
3.88228e-14
1.02324e-14
5.6839e-15
1.80636e-13
9.33158e-12
3.01905e-10
5.77244e-09
7.36505e-08
4.98523e-07
2.45137e-06
1.01457e-05
3.85604e-05
0.000104941
0.000198327
0.000257651
0.0003014
0.000327
0.000344758
0.000414291
0.000590679
0.000787354
0.000873859
0.000905604
0.000927218
0.00097117
0.00103001
0.00104556
0.000991774
0.00096623
0.00104679
0.000957467
0.0012474
0.000831901
0.00107782
0.000678343
0.000920244
0.000513689
0.000749643
0.000346416
0.000569473
0.000179498
0.000382879
6.47297e-05
0.000189512
1.7171e-05
6.21718e-05
1.46029e-05
1.53584e-06
1.12597e-05
7.6964e-06
1.27702e-07
7.90287e-07
1.84737e-09
3.80529e-08
1.70433e-13
2.78186e-13
1.53519e-13
4.76644e-14
8.61348e-15
6.17155e-14
3.31099e-12
1.31048e-10
3.09322e-09
4.06813e-08
3.75784e-07
1.924e-06
8.23005e-06
3.3236e-05
9.42653e-05
0.000177791
0.000226014
0.000255802
0.000250534
0.000213794
0.000219313
0.000323377
0.000512012
0.000712141
0.000819996
0.0008827
0.000957131
0.0010674
0.00121738
0.00133631
0.00141627
0.00157593
0.0014897
0.00174121
0.00134427
0.00164117
0.00118448
0.00146916
0.00101283
0.00129611
0.000825169
0.00110823
0.000628355
0.000907642
0.000416498
0.000690821
0.00019063
0.000445621
5.58954e-05
0.000181337
4.62256e-05
4.48816e-06
3.50871e-05
2.35494e-05
3.19025e-07
2.14112e-06
4.0824e-09
8.43593e-08
5.32002e-13
1.00548e-12
5.92073e-13
1.75121e-13
2.85631e-14
3.24039e-14
1.09105e-12
5.01611e-11
1.44993e-09
2.52472e-08
2.48216e-07
1.44854e-06
6.48129e-06
2.76686e-05
8.29543e-05
0.000159224
0.000199662
0.000218847
0.00019335
0.000128435
0.000110976
0.00015805
0.000269077
0.000412739
0.000565537
0.000703086
0.000845175
0.00101916
0.00123097
0.00149268
0.00175448
0.00203686
0.00241093
0.00190971
0.00228002
0.0017717
0.00208185
0.00159645
0.00191393
0.00141331
0.00173203
0.00121183
0.00153502
0.000996747
0.00132596
0.000752243
0.00109217
0.000461547
0.000811102
0.000163711
0.000454838
0.000136578
1.33907e-05
0.000104368
7.07057e-05
7.73124e-07
6.04207e-06
8.00761e-09
1.6794e-07
1.51574e-12
3.43564e-12
2.27417e-12
6.48797e-13
1.1961e-13
3.65254e-14
3.73358e-13
1.7783e-11
5.93682e-10
1.28424e-08
1.49808e-07
1.03361e-06
4.86598e-06
2.22024e-05
7.12797e-05
0.000142647
0.000177942
0.000188856
0.000150354
7.75565e-05
5.57534e-05
7.20232e-05
0.000123531
0.00020551
0.000316858
0.000447532
0.000596221
0.000814911
0.00113802
0.00149184
0.0018899
0.00229861
0.00255987
0.00270243
0.00270101
0.00239554
0.00261906
0.00224021
0.00254938
0.00205756
0.00239397
0.00187304
0.00221231
0.00166947
0.00201405
0.00144854
0.00180876
0.00118848
0.00157552
0.000854154
0.00128228
0.000421175
0.000876581
0.000355545
4.04359e-05
0.000283632
0.000201105
1.89746e-06
1.78186e-05
1.28163e-08
3.21766e-07
4.54817e-12
1.06776e-11
8.48605e-12
2.5084e-12
5.27535e-13
7.39319e-14
1.90449e-13
5.86273e-12
2.32295e-10
5.40333e-09
7.953e-08
6.44744e-07
3.58994e-06
1.68952e-05
5.95325e-05
0.000127561
0.000160064
0.00016556
0.000118798
5.04426e-05
2.89325e-05
3.2075e-05
5.42452e-05
0.000100509
0.000179619
0.000287108
0.000411952
0.000569425
0.000832119
0.0013513
0.00187834
0.00230264
0.00252621
0.0026775
0.00260797
0.00276079
0.00270745
0.00271541
0.00277059
0.00266025
0.00278544
0.0025345
0.00274124
0.00235949
0.00263632
0.00216321
0.00248343
0.00194947
0.00229127
0.00169555
0.00207483
0.00135188
0.00179965
0.00086908
0.00139673
0.000801641
0.000119258
0.000681464
0.000501
5.21433e-06
5.46339e-05
2.1878e-08
8.77023e-07
1.47376e-11
3.20055e-11
2.89611e-11
9.40999e-12
1.71953e-12
2.24056e-13
1.82838e-13
2.03441e-12
8.27949e-11
2.35393e-09
3.55464e-08
4.10131e-07
2.59929e-06
1.22019e-05
4.81691e-05
0.000113295
0.000145349
0.000147961
9.82167e-05
3.54408e-05
1.60928e-05
1.43478e-05
2.36576e-05
4.7785e-05
9.71376e-05
0.000192515
0.000320835
0.000451393
0.000618499
0.000976185
0.0017174
0.00224874
0.00242135
0.00250728
0.00239657
0.00257897
0.00239153
0.00268709
0.00248174
0.00281037
0.00278476
0.00282674
0.0028336
0.00279119
0.0028496
0.00269458
0.00280451
0.00255124
0.0027155
0.00237083
0.00257166
0.00215346
0.0023916
0.00186096
0.00217036
0.00140063
0.00187127
0.0013467
0.000320672
0.00122503
0.0010102
1.67841e-05
0.000159717
2.22811e-07
4.95041e-06
4.28075e-11
9.96247e-11
9.11787e-11
3.52141e-11
6.25094e-12
7.8835e-13
2.65313e-13
1.08122e-12
2.73515e-11
9.22251e-10
1.91982e-08
2.21368e-07
1.71639e-06
9.01628e-06
3.74247e-05
9.87376e-05
0.000132949
0.000135292
8.53579e-05
2.8431e-05
1.05413e-05
6.76018e-06
1.00899e-05
2.17297e-05
4.9717e-05
0.000133882
0.000304694
0.000475588
0.000611991
0.000813515
0.00131885
0.00208398
0.00231749
0.00207806
0.00221708
0.00199931
0.00222469
0.00197411
0.00234747
0.00202252
0.00278219
0.00263054
0.00283642
0.00274693
0.0028474
0.00281184
0.00279656
0.00281281
0.00269476
0.00276381
0.00255155
0.00265202
0.00236868
0.00249519
0.00214898
0.00231039
0.00183584
0.00209928
0.00176504
0.00071528
0.0016438
0.00144818
6.15057e-05
0.000399339
1.18121e-05
7.46026e-05
2.91122e-10
2.56747e-10
1.15294e-10
2.42983e-11
3.07271e-12
5.5391e-13
1.02567e-12
9.90015e-12
3.20415e-10
8.16964e-09
1.07773e-07
9.90161e-07
5.93958e-06
2.7318e-05
8.32547e-05
0.000122188
0.000125805
7.92422e-05
2.5006e-05
8.78487e-06
4.85431e-06
4.8369e-06
9.39941e-06
2.35651e-05
7.90418e-05
0.000263371
0.000526932
0.000718264
0.000827044
0.00113355
0.0017695
0.00215818
0.00202551
0.00153083
0.00149562
0.00176221
0.00161215
0.00170997
0.00145022
0.0018084
0.00144206
0.00253115
0.00218954
0.00267729
0.00239804
0.00274738
0.00256376
0.00274457
0.00264134
0.00269598
0.00264648
0.00258279
0.00259351
0.00242242
0.00248337
0.00223946
0.002322
0.00203131
0.00215793
0.00195425
0.00117059
0.00185798
0.00172124
0.000297294
0.000907213
0.000244822
0.00057301
8.14878e-10
2.71816e-10
9.7586e-11
1.26657e-11
1.54154e-12
1.3075e-12
5.60429e-12
1.12565e-10
2.86207e-09
4.55839e-08
5.19214e-07
3.66854e-06
1.85855e-05
6.67384e-05
0.000112746
0.000118832
7.63254e-05
2.45536e-05
8.12765e-06
3.84983e-06
3.37614e-06
4.62257e-06
1.0449e-05
3.85819e-05
0.000165107
0.000503666
0.000830021
0.00100033
0.00113857
0.00157817
0.00195681
0.0019857
0.00150537
0.001546
0.00112323
0.00113359
0.00126479
0.00115934
0.00113866
0.000923488
0.00118548
0.000845398
0.00201217
0.00159014
0.00223145
0.00181686
0.00240431
0.00203724
0.00249169
0.00220078
0.00251157
0.00230026
0.00245871
0.00233211
0.00234329
0.00228876
0.00219892
0.00217461
0.00206999
0.00207441
0.00199187
0.00155375
0.00192203
0.00185846
0.00176872
0.00095371
0.00146163
0.000191036
0.00081303
9.75335e-10
2.6793e-10
5.292e-11
5.425e-12
2.11727e-12
5.43686e-12
4.46215e-11
1.10482e-09
1.71343e-08
2.54919e-07
2.29283e-06
1.17903e-05
5.01484e-05
0.000103323
0.000113439
7.69101e-05
2.53974e-05
8.36583e-06
3.58489e-06
2.45701e-06
3.11853e-06
5.46335e-06
1.63106e-05
7.96911e-05
0.000337017
0.000803734
0.00111162
0.00127373
0.00154167
0.00181119
0.00189486
0.00144473
0.00116954
0.00118893
0.000766531
0.000801908
0.000800382
0.000757725
0.000608577
0.000472088
0.000632003
0.000435819
0.00136766
0.000950868
0.00159781
0.00115393
0.00180787
0.00137615
0.0019573
0.00155733
0.00206095
0.0016857
0.00210288
0.00178247
0.00207311
0.00186169
0.00199574
0.00183812
0.00195535
0.00185033
0.00192878
0.00193292
0.00188294
0.00181955
0.00167387
0.00179239
0.00188551
0.00184287
0.00185631
0.00186534
0.00137229
0.00177606
0.00174972
0.00160767
0.000107714
0.000740212
7.85465e-10
2.02663e-10
2.18312e-11
4.44627e-12
6.63511e-12
2.55599e-11
4.28976e-10
8.75959e-09
1.11972e-07
1.23669e-06
7.85767e-06
3.52971e-05
9.15342e-05
0.000109482
7.96252e-05
2.90531e-05
1.01423e-05
4.13102e-06
2.35609e-06
1.98213e-06
3.41996e-06
6.90564e-06
3.21986e-05
0.000153468
0.000539124
0.00103007
0.00129455
0.0015081
0.00170776
0.00179389
0.00145658
0.00095261
0.000994922
0.000857673
0.000910128
0.00045608
0.000504315
0.000419289
0.000424238
0.000315478
0.000243578
0.000424801
0.00032272
0.000807664
0.000574351
0.00102953
0.000801104
0.00123454
0.0010279
0.00138064
0.00120176
0.00145743
0.00129811
0.00151938
0.00130467
0.00159246
0.00154407
0.00139083
0.00176745
0.00165973
0.00142084
0.00154715
0.00177202
0.00181085
0.0017072
0.00167434
0.00177357
0.00185058
0.00184597
0.00184483
0.00175816
0.0017561
0.00184745
0.00171967
0.00132018
0.00160009
0.00184303
0.00183351
5.95892e-05
0.00134419
0.000915742
0.000476872
5.13476e-10
8.56141e-11
1.128e-11
9.4605e-12
2.44806e-11
1.72293e-10
3.70293e-09
4.76278e-08
5.80473e-07
5.0445e-06
2.2826e-05
7.47146e-05
0.00010599
8.66606e-05
3.92961e-05
1.56065e-05
6.5157e-06
3.12834e-06
1.85125e-06
1.79578e-06
4.14535e-06
1.11517e-05
5.85467e-05
0.000228758
0.000621436
0.00112501
0.00140097
0.00158704
0.00166592
0.001395
0.00079072
0.000618459
0.000612879
0.000553103
0.000594538
0.00020021
0.000225975
0.000204179
0.000190825
0.000249367
0.000192531
0.000458001
0.000409025
0.000633524
0.000524411
0.00088965
0.000839221
0.0011296
0.0011913
0.00129578
0.00147207
0.00131224
0.00158105
0.00130306
0.00128782
0.00133537
0.00149031
0.00131202
0.0012522
0.00128585
0.00126223
0.00156668
0.0014428
0.00123979
0.0013291
0.00159704
0.00166552
0.00153857
0.00148171
0.00163701
0.0018547
0.00186828
0.0017756
0.00163106
0.00164656
0.00180289
0.00178744
0.00164328
0.0018786
0.00187678
0.000416577
7.30446e-06
6.59207e-05
0.00134597
0.000883901
3.12462e-10
3.43464e-11
1.67168e-11
3.11368e-11
1.00678e-10
1.30468e-09
1.98867e-08
2.6212e-07
2.54946e-06
1.33394e-05
5.56051e-05
0.000100931
9.59096e-05
5.57269e-05
2.94603e-05
1.27329e-05
5.5584e-06
2.38401e-06
1.33673e-06
2.05446e-06
4.9535e-06
1.87353e-05
7.90137e-05
0.00025445
0.000630384
0.00108296
0.00133508
0.00141505
0.00117535
0.000604006
0.000243824
0.000198398
0.000279923
0.000266134
0.000253409
0.000273551
8.92534e-05
8.07595e-05
0.000147031
0.000111554
0.00034325
0.000258974
0.000906156
0.000858284
0.000865905
0.000901801
0.00136971
0.00158392
0.00180352
0.00221898
0.00209423
0.002669
0.00171291
0.00201927
0.00233546
0.00269634
0.0012845
0.00140043
0.00161298
0.00191165
0.00122261
0.00126583
0.0012483
0.00133019
0.00136091
0.00125158
0.00120918
0.00120149
0.00141329
0.00150116
0.00136302
0.00129211
0.00148295
0.0018337
0.00186692
0.00168184
0.0014885
0.00151716
0.00173181
0.00182525
0.00166247
0.00189422
0.00189542
0.000345576
2.17343e-06
3.51462e-05
0.00133093
0.000825346
1.50396e-10
2.89288e-11
4.14835e-11
9.77986e-11
5.70276e-10
7.32526e-09
1.15932e-07
1.26719e-06
8.17299e-06
3.78308e-05
9.08319e-05
0.000101799
7.33297e-05
4.83987e-05
2.73422e-05
1.16151e-05
4.76157e-06
1.59285e-06
1.11676e-06
2.66696e-06
6.1603e-06
2.26223e-05
8.49977e-05
0.000255518
0.000545685
0.0007911
0.000875686
0.000674805
0.000328185
8.391e-05
6.08907e-05
4.42275e-05
8.14087e-05
7.34474e-05
8.11358e-05
8.29684e-05
6.79943e-05
4.30575e-05
0.000175797
0.000110321
0.000733464
0.000557061
0.0017934
0.00168505
0.00175244
0.00182133
0.00258754
0.00286948
0.00317581
0.00360204
0.0030058
0.00333382
0.00356743
0.00381208
0.00226575
0.00264321
0.00301265
0.00335517
0.00150239
0.00177724
0.00212897
0.00252395
0.0012943
0.00139272
0.00146373
0.00162289
0.00119683
0.00117317
0.00132348
0.00121056
0.00123753
0.00133279
0.00120008
0.00116114
0.00132435
0.00178968
0.00184663
0.00157025
0.00133967
0.0013808
0.00164168
0.00184271
0.00166435
0.00189165
0.00190273
0.000255445
4.29263e-07
1.27833e-05
0.00129529
0.000728402
7.66388e-11
5.74435e-11
1.22815e-10
3.56817e-10
3.7635e-09
4.98835e-08
6.02662e-07
5.45654e-06
2.31532e-05
7.3957e-05
0.000103194
9.05304e-05
6.79946e-05
4.87886e-05
2.64183e-05
1.10481e-05
3.36331e-06
1.21735e-06
1.06756e-06
2.99502e-06
6.56684e-06
2.39274e-05
8.17461e-05
0.000200524
0.000314928
0.000344743
0.000269361
0.000131717
3.45582e-05
7.95361e-06
6.41353e-06
1.09985e-05
7.37395e-06
1.86191e-05
1.49165e-05
2.8697e-05
2.22747e-05
0.000105899
4.72714e-05
0.000371453
0.00021401
0.00145219
0.00114005
0.00291105
0.00271481
0.00300245
0.00299956
0.00381357
0.00385732
0.00423678
0.00430609
0.00365387
0.00390435
0.00410385
0.0042369
0.00292474
0.00330408
0.00364362
0.00393194
0.00195158
0.00234762
0.00276758
0.00317933
0.00153579
0.00174717
0.00187128
0.00212656
0.00115265
0.00121196
0.00160542
0.00135109
0.0011346
0.00117956
0.0011157
0.00113564
0.00117812
0.00172367
0.00180745
0.00144971
0.0011988
0.00124843
0.0015402
0.00185018
0.00165859
0.00187735
0.00190265
0.000150982
8.87873e-08
4.52968e-06
0.00124029
0.000580449
1.06702e-10
1.6162e-10
3.42926e-10
1.84875e-09
2.0996e-08
2.76035e-07
2.69127e-06
1.28458e-05
5.37472e-05
0.000100542
0.000103367
8.71168e-05
7.23896e-05
5.51382e-05
2.59829e-05
9.10817e-06
2.45485e-06
9.28788e-07
1.03146e-06
2.99478e-06
6.18768e-06
2.0985e-05
5.47413e-05
8.66106e-05
9.84468e-05
7.83197e-05
3.85466e-05
1.0862e-05
1.32246e-06
8.41194e-07
5.17746e-07
1.83249e-06
1.02499e-06
5.96609e-06
3.26678e-06
2.18389e-05
1.10717e-05
0.000256835
0.000111082
0.000802335
0.00049287
0.00237998
0.00194031
0.00354452
0.00334556
0.00380069
0.00369702
0.00425148
0.00412224
0.00452167
0.00450738
0.00440099
0.00446859
0.00416304
0.00433959
0.00445859
0.0045126
0.00355714
0.00388525
0.00415523
0.00436419
0.0025526
0.0029893
0.00340275
0.00377292
0.00198317
0.00228938
0.00243389
0.00274065
0.00121346
0.00137098
0.00207667
0.00166566
0.00112001
0.00110322
0.00110475
0.00120585
0.00109931
0.00164497
0.00175388
0.00133125
0.00110979
0.00114299
0.00143579
0.00185454
0.00164984
0.00185098
0.00189813
8.13167e-05
1.57259e-08
1.19795e-06
0.00116161
0.000429402
2.714e-10
4.1686e-10
1.10151e-09
8.86658e-09
1.18751e-07
1.25325e-06
7.82922e-06
3.48545e-05
8.91523e-05
0.000108485
0.000104514
9.56258e-05
8.63748e-05
5.78343e-05
2.42658e-05
6.88466e-06
1.6415e-06
6.08713e-07
9.30699e-07
2.56059e-06
5.09724e-06
1.17994e-05
1.83599e-05
2.19393e-05
1.79174e-05
9.15648e-06
2.61316e-06
5.03575e-07
7.4516e-08
5.50104e-08
1.26706e-07
6.30018e-08
7.37296e-07
2.69062e-07
5.35046e-06
2.07636e-06
4.05354e-05
1.33582e-05
0.000545931
0.000258151
0.00144752
0.000959044
0.00307252
0.00268365
0.00367075
0.00349847
0.00397924
0.0038252
0.00433035
0.0042341
0.00401879
0.00458283
0.00453273
0.00436099
0.00446049
0.00451119
0.00459293
0.00462369
0.00461728
0.00408533
0.00433316
0.00451715
0.00463256
0.00318466
0.00359619
0.0039542
0.00424894
0.00255314
0.00290384
0.0030409
0.0033553
0.00138647
0.00170748
0.00264688
0.00214729
0.00119037
0.00108974
0.00116696
0.00138335
0.00108058
0.00156047
0.00169448
0.0012195
0.00108252
0.00109548
0.00133595
0.0018578
0.0016376
0.00181856
0.00189157
3.56816e-05
3.56836e-09
3.52253e-07
0.00107072
0.000287986
7.29973e-10
1.08196e-09
4.11797e-09
5.03928e-08
5.89916e-07
5.26106e-06
1.9977e-05
6.86429e-05
0.000107874
0.000116695
0.000116784
0.000115964
9.80129e-05
5.78213e-05
1.94699e-05
4.82826e-06
9.13849e-07
3.45837e-07
7.47896e-07
1.92762e-06
2.91704e-06
3.59534e-06
4.04698e-06
3.2959e-06
1.75358e-06
6.48744e-07
1.34478e-07
1.30026e-08
1.4754e-08
6.35908e-09
8.22297e-08
2.99307e-08
8.60282e-07
2.50566e-07
8.5646e-06
3.3262e-06
9.92718e-05
3.15991e-05
0.000963547
0.000501598
0.0021528
0.0015446
0.00328328
0.00298967
0.00347732
0.00337554
0.00379061
0.00360412
0.00424147
0.00411374
0.00371653
0.00350891
0.00458275
0.0044966
0.00423936
0.00438174
0.00468506
0.00469639
0.00468095
0.00464088
0.0044752
0.00463243
0.00471721
0.00475097
0.00376025
0.00410587
0.00438104
0.00458559
0.0031501
0.0034974
0.00361267
0.00389892
0.00172603
0.00218946
0.00323396
0.00271352
0.0013592
0.00113572
0.00131552
0.00171156
0.001104
0.00147782
0.00163537
0.00114168
0.00108433
0.00108658
0.00124815
0.00185958
0.00161803
0.00178641
0.00188435
1.58495e-05
1.30566e-09
1.51849e-07
0.000951934
0.000189136
1.69283e-09
3.1434e-09
2.14945e-08
2.66825e-07
2.48058e-06
1.08371e-05
4.66828e-05
0.000101783
0.000120378
0.000132763
0.000141901
0.000136635
0.000102328
5.30597e-05
1.46793e-05
2.77491e-06
4.41514e-07
2.10245e-07
3.98487e-07
8.93145e-07
1.24477e-06
1.22616e-06
9.04802e-07
4.85249e-07
1.85797e-07
3.05643e-08
4.06414e-09
2.84956e-09
1.20778e-09
1.42169e-08
5.41637e-09
1.37072e-07
4.25416e-08
1.634e-06
4.71371e-07
1.91791e-05
5.20126e-06
0.000208894
6.86539e-05
0.00140607
0.00080921
0.00257509
0.00203273
0.00323737
0.00301347
0.00292347
0.00294012
0.00337036
0.00323457
0.0029642
0.00407322
0.00389221
0.00340191
0.00317948
0.00453929
0.0044208
0.00409014
0.00427185
0.00475324
0.00473107
0.00468961
0.0046297
0.00471666
0.00477947
0.00479901
0.00479566
0.00423102
0.00448888
0.00467117
0.00477822
0.00370447
0.00401192
0.00410272
0.00433425
0.00219609
0.00274604
0.00377491
0.00329137
0.00166304
0.00124808
0.00157819
0.0021565
0.00117357
0.00140624
0.00158318
0.00111225
0.00111239
0.00109577
0.00119094
0.00185972
0.00158703
0.0017592
0.00187891
8.49573e-06
1.22075e-09
1.40699e-07
0.000827226
0.000134164
3.69783e-09
1.06378e-08
1.11995e-07
1.1078e-06
7.54406e-06
2.79921e-05
8.29808e-05
0.000119433
0.000139214
0.000160969
0.000169673
0.000150057
0.000102608
4.22211e-05
9.43498e-06
1.3233e-06
2.21848e-07
8.79258e-08
1.32526e-07
2.08439e-07
2.48463e-07
2.03425e-07
1.08261e-07
3.48e-08
7.14589e-09
1.00927e-09
4.2801e-10
3.33702e-09
1.32578e-09
2.40426e-08
8.95753e-09
2.21678e-07
6.94269e-08
2.65023e-06
7.74939e-07
3.54765e-05
9.00701e-06
0.000366846
0.000126033
0.00163103
0.00102585
0.00267274
0.00220449
0.0029113
0.00278928
0.00241123
0.00243883
0.00237706
0.00299161
0.00288642
0.00238335
0.00240079
0.00387774
0.00364343
0.00308911