/*--------------------------------*- C++ -*----------------------------------*\
  =========                 |
  \\      /  F ield         | OpenFOAM: The Open Source CFD Toolbox
   \\    /   O peration     | Website:  https://openfoam.org
    \\  /    A nd           | Version:  dev
     \\/     M anipulation  |
\*---------------------------------------------------------------------------*/
FoamFile
{
    version     2.0;
    format      ascii;
    class       volScalarField;
    location    "2500";
    object      k;
}
// * * * * * * * * * * * * * * * * * * * * * * * * * * * * * * * * * * * * * //

dimensions      [0 2 -2 0 0 0 0];

internalField   nonuniform List<scalar> 
9846
(
0.000145494
0.000152365
0.000135457
0.000138626
0.000178905
0.000112956
0.000121134
0.000194067
0.000157294
0.000104474
0.000112862
0.000191009
0.000187914
0.000123378
0.000101526
0.000107642
0.000177398
0.000206372
0.000158412
0.000108056
0.000100287
0.000104302
0.000155607
0.000213547
0.000190479
0.000123618
0.000101792
9.9208e-05
0.000102179
0.000137709
0.000210874
0.000209162
0.000153001
0.000106893
9.88517e-05
9.88474e-05
0.000100634
0.000126031
0.000202065
0.000220221
0.000184178
0.000120492
9.99133e-05
9.66939e-05
9.8755e-05
9.92238e-05
0.000116857
0.000184812
0.000228492
0.000206952
0.000144502
0.000104437
9.64777e-05
9.56698e-05
9.87172e-05
9.8181e-05
0.000110236
0.000165413
0.000229123
0.000221441
0.000171819
0.000116144
9.7591e-05
9.4102e-05
9.52696e-05
9.86962e-05
9.7407e-05
0.000105684
0.000148677
0.000225761
0.00023172
0.000195868
0.000135423
0.000101787
9.41483e-05
9.26622e-05
9.51763e-05
9.87026e-05
9.68504e-05
0.000102394
0.000136614
0.000217262
0.000241398
0.000215272
0.000156972
0.000111837
9.53885e-05
9.18351e-05
9.19682e-05
9.52448e-05
9.87233e-05
9.64546e-05
0.000100062
0.00012742
0.000203197
0.000247384
0.000230413
0.000178778
0.00012594
9.94453e-05
9.20392e-05
9.02475e-05
9.17553e-05
9.53679e-05
9.87684e-05
9.63301e-05
9.85249e-05
0.000120469
0.000187804
0.000248018
0.000241366
0.000199484
0.00014283
0.000107267
9.33935e-05
8.99057e-05
8.93674e-05
9.183e-05
9.55136e-05
9.88459e-05
9.65395e-05
9.76464e-05
0.00011567
0.000173891
0.000246303
0.00024943
0.000217043
0.000161477
0.000117557
9.71813e-05
9.02245e-05
8.83856e-05
8.90186e-05
9.20513e-05
9.56863e-05
9.89453e-05
9.73967e-05
9.72621e-05
0.000112659
0.000163042
0.000241249
0.000257974
0.000232199
0.00017983
0.000130572
0.00010317
9.16929e-05
8.83098e-05
8.748e-05
8.90478e-05
9.23427e-05
9.5888e-05
9.90751e-05
9.99506e-05
9.73246e-05
0.000111007
0.000155352
0.000233261
0.000264584
0.000244645
0.000197263
0.000145624
0.000110916
9.52383e-05
8.87803e-05
8.70242e-05
8.709e-05
8.92935e-05
9.26778e-05
9.61473e-05
9.92259e-05
0.000106513
9.78596e-05
0.000110368
0.00015036
0.000225052
0.000268602
0.000254734
0.000213404
0.000162012
0.000120815
9.99628e-05
9.05554e-05
8.71196e-05
8.62601e-05
8.7089e-05
8.9689e-05
9.30721e-05
9.64601e-05
9.93861e-05
9.75048e-05
9.91203e-05
0.000110568
0.000147549
0.000217793
0.00027084
0.000262941
0.000227447
0.000178662
0.000133089
0.000106024
9.38068e-05
8.79038e-05
8.61627e-05
8.59768e-05
8.73604e-05
9.02059e-05
9.35307e-05
9.68168e-05
9.95139e-05
9.54792e-05
0.000100976
0.000111098
0.000146452
0.000212239
0.000272125
0.000271429
0.000239922
0.000194399
0.000147366
0.000114039
9.79141e-05
9.01116e-05
8.65066e-05
8.57253e-05
8.60974e-05
8.78614e-05
9.08145e-05
9.4037e-05
9.725e-05
9.96071e-05
0.0001068
0.000104025
0.00011181
0.000146665
0.000208746
0.000272815
0.000280561
0.00025193
0.000209145
0.000162819
0.000124261
0.00010335
9.33811e-05
8.79084e-05
8.59043e-05
8.57741e-05
8.65195e-05
8.85502e-05
9.14783e-05
9.45952e-05
9.77184e-05
9.96823e-05
9.95254e-05
0.000110664
0.00011382
0.000147701
0.000207159
0.000273416
0.000289373
0.000262929
0.000223051
0.000178904
0.000136838
0.000110491
9.76178e-05
9.07973e-05
8.68789e-05
8.59146e-05
8.61914e-05
8.72668e-05
8.9359e-05
9.21773e-05
9.5179e-05
9.82028e-05
9.97352e-05
9.9203e-05
0.000104797
0.000116471
0.000150473
0.000207589
0.000275116
0.000297379
0.00027333
0.000236039
0.000195165
0.000151653
0.000119858
0.00010322
9.45993e-05
8.94496e-05
8.6774e-05
8.63539e-05
8.70265e-05
8.82755e-05
9.02656e-05
9.2872e-05
9.57543e-05
9.86399e-05
9.97577e-05
9.95255e-05
0.000106552
0.000118909
0.000154621
0.000209632
0.000278372
0.00030527
0.000284578
0.00024851
0.000211138
0.000168344
0.00013184
0.000110816
9.97531e-05
9.33639e-05
8.928e-05
8.72707e-05
8.7263e-05
8.82094e-05
8.95275e-05
9.12671e-05
9.35203e-05
9.62551e-05
9.89023e-05
9.97487e-05
9.79806e-05
0.000109984
0.000124936
0.000159244
0.00021348
0.000282742
0.000313979
0.000297192
0.000261286
0.000226745
0.000186417
0.000146592
0.000121086
0.000107026
9.88457e-05
9.35911e-05
8.99315e-05
8.83622e-05
8.85996e-05
8.96185e-05
9.09436e-05
9.23567e-05
9.41389e-05
9.66832e-05
9.90378e-05
9.97095e-05
9.77583e-05
0.000113217
0.000132701
0.000166606
0.00021842
0.000288234
0.000324359
0.000311036
0.000274797
0.000242255
0.000205449
0.000164063
0.000134758
0.000117429
0.000106807
9.97752e-05
9.48979e-05
9.14116e-05
9.00656e-05
9.02873e-05
9.12083e-05
9.23511e-05
9.34451e-05
9.47249e-05
9.69946e-05
9.90696e-05
9.96456e-05
9.8187e-05
0.000115867
0.000139817
0.000175856
0.000225268
0.000294819
0.000336493
0.000325849
0.000289141
0.000257807
0.000225107
0.000184492
0.000152772
0.000132029
0.0001185
0.000109203
0.000102505
9.75312e-05
9.38025e-05
9.22797e-05
9.22545e-05
9.28492e-05
9.36167e-05
9.43728e-05
9.51783e-05
9.71504e-05
9.90099e-05
9.95686e-05
9.88344e-05
0.000118282
0.000146076
0.000185245
0.000233796
0.000302639
0.000350346
0.000341875
0.000304331
0.000273472
0.000245077
0.000208281
0.000175992
0.000152281
0.000136048
0.000124112
0.000114832
0.000107331
0.000101407
9.70204e-05
9.49416e-05
9.44046e-05
9.44587e-05
9.47025e-05
9.50266e-05
9.54026e-05
9.71017e-05
9.88837e-05
9.94852e-05
9.94882e-05
0.000120953
0.000151622
0.000193937
0.000242871
0.000311619
0.000365979
0.000359592
0.000321074
0.000289568
0.000265895
0.000235351
0.000204529
0.000180296
0.000162976
0.000148654
0.000135728
0.000124087
0.000114097
0.000106307
0.000100806
9.79441e-05
9.65953e-05
9.589e-05
9.54966e-05
9.53537e-05
9.53873e-05
9.69125e-05
9.8721e-05
9.94039e-05
0.000100394
0.000123849
0.000156916
0.000201678
0.000251399
0.000320996
0.000383229
0.000379398
0.000340224
0.000306942
0.000287557
0.000264389
0.000238861
0.000219318
0.000205817
0.000191739
0.000174425
0.00015589
0.000138318
0.000123666
0.000112751
0.00010536
0.000101194
9.87151e-05
9.70472e-05
9.59176e-05
9.53336e-05
9.51538e-05
9.66299e-05
9.8552e-05
9.9343e-05
0.000101003
0.000126936
0.000162096
0.000208597
0.000258729
0.000329679
0.00040142
0.000401513
0.000361984
0.000325499
0.000309256
0.000295356
0.000281011
0.000275228
0.000277011
0.000272309
0.000254155
0.000223376
0.000188206
0.000157957
0.000135641
0.000120456
0.000111028
0.000105115
0.000101012
9.79733e-05
9.60314e-05
9.50877e-05
9.47971e-05
9.63538e-05
9.83899e-05
9.93199e-05
0.000101297
0.000129038
0.000167032
0.000214799
0.000264634
0.000336932
0.000419384
0.000425777
0.000386296
0.00034538
0.000331138
0.000328422
0.000332372
0.00035607
0.00039934
0.000439069
0.000442317
0.000404332
0.000326529
0.000244033
0.000184591
0.000148106
0.000127357
0.000115659
0.000108718
0.000103415
9.87205e-05
9.59241e-05
9.47747e-05
9.46158e-05
9.62329e-05
9.80967e-05
9.91742e-05
0.000101712
0.000130515
0.000171113
0.000219946
0.000269041
0.000342442
0.000435624
0.000451851
0.000413117
0.000366669
0.000352888
0.000362322
0.000392098
0.000464044
0.000587976
0.000734845
0.000855097
0.000880781
0.000763174
0.000549169
0.000355632
0.000230896
0.000164765
0.000133826
0.000119452
0.000110837
0.000104429
9.86876e-05
9.57001e-05
9.46657e-05
9.49451e-05
9.6597e-05
9.80283e-05
9.95884e-05
9.89365e-05
0.000102392
0.000132511
0.000174483
0.000223743
0.000271796
0.000345482
0.000448207
0.000479192
0.000442608
0.00038962
0.000374297
0.000395288
0.000455599
0.000592341
0.000830315
0.00114043
0.00143732
0.00163638
0.00163278
0.00139671
0.000961936
0.000543716
0.000304225
0.000189844
0.000143836
0.000123931
0.00011269
0.000104442
9.84277e-05
9.56897e-05
9.50828e-05
9.61865e-05
9.75511e-05
9.84388e-05
9.80958e-05
9.96233e-05
9.89743e-05
0.000102581
0.000134835
0.000177548
0.000226393
0.000272689
0.000345955
0.000456495
0.000506964
0.000474681
0.000414501
0.000395547
0.000425994
0.000517794
0.000724178
0.00109091
0.0015857
0.00204502
0.00234614
0.00243708
0.00235405
0.00206036
0.00149817
0.00081084
0.000406011
0.000227188
0.000157239
0.000129249
0.000114783
0.000104627
9.86887e-05
9.61492e-05
9.64172e-05
9.75032e-05
9.76766e-05
9.8045e-05
9.78057e-05
9.82528e-05
9.84632e-05
9.82848e-05
9.96673e-05
9.90152e-05
0.000102797
0.000135868
0.000180316
0.000228141
0.000272287
0.000344
0.000460009
0.000533605
0.000508448
0.000441712
0.000416766
0.00045331
0.000573701
0.000846833
0.0013324
0.00195255
0.00239441
0.00263414
0.00275642
0.00279271
0.00273924
0.00251109
0.00199246
0.001166
0.000541708
0.000278363
0.00017632
0.000137912
0.000118231
0.000106297
9.99312e-05
9.77046e-05
9.79783e-05
9.84705e-05
9.84894e-05
9.83423e-05
9.89961e-05
9.8789e-05
9.85527e-05
9.84625e-05
9.97317e-05
9.91039e-05
0.000102927
0.000135878
0.00018223
0.000229109
0.000270412
0.000338851
0.000459078
0.00055756
0.000542804
0.000472176
0.000438553
0.000476207
0.000619084
0.00094506
0.00152479
0.00214648
0.00247669
0.00264138
0.00275256
0.00281543
0.00286447
0.00287187
0.00277552
0.00238
0.00156282
0.000724372
0.000353164
0.000210395
0.000154381
0.000126851
0.000111843
0.00010354
9.91078e-05
0.000100489
9.93384e-05
0.000100209
0.000100274
9.86186e-05
0.000100144
9.93379e-05
9.86944e-05
9.86586e-05
9.98265e-05
9.92547e-05
0.000103057
0.000135593
0.000183002
0.00022937
0.000267198
0.000331516
0.000453043
0.000577102
0.000577461
0.000506748
0.000461548
0.000494781
0.00065162
0.00101189
0.00164036
0.00216018
0.00242255
0.0025355
0.00257493
0.00261488
0.00270482
0.00281698
0.00289076
0.00289299
0.0026508
0.00195867
0.00101506
0.000479735
0.000279261
0.000194758
0.000155436
0.000129585
0.00010348
0.000110933
0.0001014
0.00010391
0.0001014
0.000102766
0.000101747
9.8914e-05
0.000101136
9.98967e-05
9.8898e-05
9.89015e-05
9.9961e-05
9.94589e-05
0.000103224
0.000135039
0.000182891
0.000229133
0.000263384
0.000322429
0.000443239
0.000589779
0.000611923
0.000545302
0.00048638
0.000510085
0.000671666
0.0010509
0.00167947
0.00209828
0.0022871
0.00226756
0.00209004
0.00206264
0.00220629
0.00243402
0.00270771
0.00286558
0.0029145
0.00277301
0.00226477
0.00143025
0.000736313
0.000450364
0.000334501
0.000277682
0.000130148
0.000189919
0.000110194
0.000128666
0.000105433
0.000111953
0.000103345
0.000106317
0.000103063
9.9246e-05
0.00010187
0.000100386
9.91465e-05
9.91892e-05
0.000100082
9.9688e-05
0.00010343
0.000134135
0.000182279
0.000228225
0.000259257
0.000312232
0.000429589
0.000592917
0.0006454
0.000587792
0.000513731
0.000523783
0.000680832
0.00106626
0.00166047
0.00199102
0.00210158
0.00190759
0.001556
0.00155547
0.00176943
0.00199508
0.00222588
0.0025094
0.00277097
0.00282246
0.00272963
0.00245772
0.00194275
0.00135676
0.000984533
0.000864468
0.000369599
0.000889382
0.0001882
0.000381859
0.000131461
0.000196221
0.000113446
0.000134592
0.00010632
0.000113927
0.00010524
9.96681e-05
0.000103209
0.0001014
9.94231e-05
9.95408e-05
0.0001002
9.99095e-05
0.000103796
0.000132794
0.000180978
0.000226795
0.000255096
0.000301485
0.000412446
0.000587748
0.000676854
0.000633606
0.000544414
0.000537562
0.000682882
0.00105977
0.00162101
0.00188682
0.00191935
0.00159531
0.00117074
0.00116691
0.0014113
0.00170211
0.00193478
0.00213381
0.00235322
0.00257078
0.00267018
0.00266885
0.00264792
0.00254538
0.00243839
0.00238222
0.0015804
0.00253592
0.000910627
0.001734
0.00040741
0.000976984
0.000205117
0.000435526
0.00013644
0.000211812
0.000113045
0.000135753
0.000110417
0.000100393
0.000106876
0.000103895
9.97733e-05
0.000100072
0.000100305
0.000100171
0.000104339
0.00013101
0.000179074
0.000224929
0.000250944
0.000290593
0.000392946
0.000571802
0.00070289
0.000679613
0.00057951
0.000553269
0.000680252
0.00104213
0.0015693
0.00179251
0.00177063
0.00138007
0.000917047
0.000869299
0.0010701
0.00139412
0.00171442
0.00193835
0.00211093
0.00228935
0.00245374
0.00259188
0.00271893
0.00303854
0.00339239
0.0036935
0.00315385
0.00391151
0.00259358
0.00331702
0.00184126
0.00268881
0.00104872
0.0019425
0.000458693
0.00111511
0.000213208
0.000470929
0.00013219
0.000206714
0.000125459
0.00010196
0.000117712
0.000110856
0.000100211
0.000101046
0.000100378
0.000100481
0.000105258
0.000129057
0.000176542
0.000222613
0.000246823
0.000279754
0.000371899
0.000549531
0.00071907
0.000723631
0.000622432
0.000572718
0.000674879
0.00101356
0.00152108
0.00171744
0.00166122
0.00126079
0.000773594
0.000661209
0.000777716
0.00105569
0.00143662
0.00181372
0.00203229
0.00219768
0.00235434
0.00249432
0.00267127
0.00307979
0.00376943
0.00436103
0.00424189
0.00462002
0.00394663
0.00435084
0.00342545
0.0040059
0.0028008
0.00353133
0.00204298
0.00291916
0.00116227
0.00214052
0.000465237
0.00117755
0.000192912
0.000435012
0.000173135
0.000105979
0.000151347
0.000131845
0.000100813
0.000103149
0.000100405
0.000100737
0.000106671
0.000126969
0.000173421
0.000220097
0.000242788
0.000269467
0.000350015
0.000522272
0.000722226
0.000764651
0.000674063
0.0005972
0.000667677
0.000979503
0.00147951
0.00166238
0.00159482
0.00120409
0.000719825
0.000546588
0.000572018
0.000745358
0.0010634
0.00154814
0.00195774
0.00218538
0.00237775
0.00255264
0.00272132
0.00309016
0.00378412
0.00446359
0.00468033
0.00480358
0.00463072
0.00474477
0.00441103
0.00465706
0.00409605
0.00447435
0.00365332
0.00420269
0.00304633
0.00379221
0.00222251
0.0031794
0.00114734
0.00227607
0.000383079
0.00104707
0.000318244
0.000117286
0.000254157
0.000196373
0.000101777
0.000108389
0.000100372
0.000101013
0.000105861
0.000124644
0.000169632
0.000217505
0.000239271
0.000260191
0.000328442
0.000490031
0.000711727
0.000799879
0.000732012
0.00062754
0.00066194
0.000942123
0.00144007
0.00163146
0.00155906
0.00119527
0.000719757
0.00050683
0.000463367
0.00053317
0.000723965
0.00106844
0.0016135
0.00206541
0.00237575
0.00265531
0.00295121
0.00319585
0.00378019
0.00446984
0.00503414
0.00482908
0.0050092
0.00478773
0.00491709
0.00470627
0.00485675
0.00457257
0.00480256
0.00434494
0.00470879
0.00395911
0.00451832
0.00331597
0.00413912
0.00228943
0.00343996
0.000882463
0.00221522
0.0007162
0.0001524
0.000546613
0.000392623
0.000103812
0.000124426
0.000100257
0.000101511
0.000104214
0.000121867
0.000165174
0.000214771
0.000236197
0.000252685
0.000307999
0.000455083
0.000683294
0.000825559
0.000790307
0.000664552
0.000660075
0.000900885
0.00139552
0.00161693
0.0015587
0.00120831
0.000738869
0.000504612
0.000426009
0.000427087
0.000508619
0.000689788
0.00101066
0.00150742
0.00208467
0.00256548
0.00306048
0.00355215
0.00383556
0.00448321
0.00546184
0.00608818
0.00666409
0.00516302
0.00560292
0.00509703
0.00555019
0.0050616
0.00546488
0.00504206
0.00544731
0.0049767
0.00544424
0.00479508
0.0053872
0.00437974
0.0051833
0.00353587
0.00468639
0.00199245
0.00361164
0.00167257
0.000267765
0.00129246
0.000949827
0.000109516
0.000179473
0.000100273
0.000103306
0.000101528
0.000118009
0.000159829
0.0002116
0.000233811
0.000246608
0.000290387
0.000418929
0.000646827
0.000835604
0.000842285
0.000712368
0.000664665
0.00085572
0.00133639
0.00161922
0.00157141
0.00124269
0.000789752
0.000514283
0.000422399
0.000392212
0.000407421
0.000489966
0.000659934
0.000928636
0.00130691
0.0019335
0.00281058
0.00361846
0.00408232
0.00447802
0.00568171
0.00712378
0.00743333
0.00785579
0.00850671
0.0062169
0.00705382
0.0061619
0.00711752
0.00614072
0.00705547
0.00617214
0.00708022
0.00617927
0.00714617
0.00609992
0.00716347
0.00579453
0.00703645
0.00505008
0.00658952
0.00359007
0.00552601
0.00342996
0.000630855
0.00303855
0.00234809
0.000129714
0.00037664
0.000101276
0.000110358
0.000100253
0.000112279
0.000152665
0.000207663
0.00023154
0.000242404
0.000275292
0.000384847
0.000602547
0.000831881
0.000885104
0.000773066
0.000681326
0.000810714
0.00126021
0.00163588
0.00160494
0.00130848
0.00087772
0.00054637
0.000428664
0.000388804
0.000375273
0.000396849
0.000486332
0.000655476
0.000898076
0.00124019
0.00191432
0.00320521
0.00409009
0.00443645
0.00559813
0.00752781
0.00745191
0.00890795
0.00885497
0.00993965
0.0100637
0.00817644
0.00923562
0.00827034
0.00960074
0.00836747
0.00977641
0.00852334
0.0100009
0.00862389
0.0102739
0.00860842
0.0104322
0.00830306
0.0103202
0.00747714
0.00973908
0.00588907
0.008477
0.00608855
0.00167754
0.00598831
0.00526252
0.000211139
0.0010045
0.000103799
0.000152372
0.00010798
0.000109007
0.000141887
0.000201851
0.000229383
0.000238843
0.000264175
0.000353292
0.00055469
0.000807023
0.000914324
0.000839802
0.000710061
0.000771615
0.00116717
0.00164891
0.00166656
0.00140544
0.00098762
0.000621
0.000452178
0.000393904
0.00037147
0.000358582
0.000398339
0.000522508
0.00075804
0.00100986
0.00136147
0.00219963
0.00368249
0.00429695
0.00525521
0.00727157
0.00862115
0.00822154
0.00985939
0.00938848
0.0109797
0.0106041
0.0106544
0.0110986
0.0111301
0.0119111
0.011576
0.0126471
0.0120757
0.0134581
0.0124516
0.0141948
0.0125489
0.0146761
0.0122038
0.0146759
0.0112236
0.0140176
0.00927003
0.0125061
0.00976945
0.00404398
0.00972002
0.0090313
0.000567204
0.00265348
0.000233588
0.000935
0.00011618
0.000133873
0.000191738
0.000226158
0.000236073
0.000255251
0.000327058
0.000504721
0.000763799
0.00092546
0.000901243
0.000751029
0.000745368
0.00106838
0.00163459
0.00174002
0.00152656
0.00112142
0.000724503
0.000511431
0.000413374
0.000375372
0.000350997
0.000352819
0.000430413
0.000668886
0.00100608
0.00129958
0.00175467
0.00275171
0.00388162
0.00475241
0.00651482
0.00777773
0.0074354
0.00886416
0.0082862
0.00996599
0.00919808
0.011078
0.0100626
0.0119598
0.0117109
0.0129114
0.0127123
0.0139405
0.0137576
0.0150479
0.0149714
0.0160355
0.0163245
0.0166431
0.0174662
0.0164507
0.0179845
0.01544
0.0176612
0.0133688
0.0164104
0.013689
0.007618
0.0134561
0.0126211
0.00226467
0.00600738
0.00280875
0.00529544
0.000136786
0.000178141
0.000220892
0.000232757
0.000248772
0.000304085
0.000458043
0.00071099
0.000922241
0.000949732
0.000808099
0.000737374
0.0009691
0.0015466
0.00181826
0.00166322
0.00128462
0.00086298
0.000589896
0.000464256
0.000392473
0.00035432
0.000332152
0.000364946
0.000545596
0.000976812
0.00139072
0.00173342
0.00231637
0.00321793
0.00422329
0.00597151
0.00714836
0.00710412
0.00733451
0.00707422
0.00841968
0.00777143
0.00887553
0.00774307
0.00947903
0.00781534
0.0121433
0.011026
0.0132371
0.0121227
0.0145299
0.0133949
0.0159524
0.0148939
0.0173432
0.0165055
0.0184226
0.0180085
0.0187689
0.0190215
0.0183464
0.0191689
0.0168248
0.0186074
0.0167489
0.0111371
0.0163419
0.0155841
0.013735
0.00596565
0.00930845
0.00187688
0.00667011
0.000175586
0.000209807
0.000229004
0.000242685
0.000286122
0.00041386
0.000653346
0.00089991
0.000979431
0.000874424
0.000743804
0.000878913
0.00140855
0.00186822
0.00180897
0.00147766
0.00104515
0.000684715
0.000532913
0.000439989
0.000371475
0.000330853
0.000329567
0.000422048
0.000812741
0.00142577
0.0019061
0.0023117
0.00300144
0.00399969
0.00575062
0.00709131
0.00697859
0.00700417
0.00601201
0.00595951
0.00685043
0.0062828
0.00623072
0.00503465
0.00602112
0.00427665
0.0103626
0.00819701
0.0114948
0.0090402
0.012947
0.0102755
0.0145439
0.0117266
0.0162712
0.013312
0.0179248
0.0150718
0.0189369
0.0169459
0.0192386
0.0180954
0.0184762
0.0187144
0.0187965
0.01749
0.0181924
0.0149843
0.0120286
0.0140866
0.0169364
0.0177515
0.0180298
0.0165079
0.00857002
0.0132069
0.0122291
0.0103896
0.00124831
0.00654304
0.000202797
0.000221699
0.000237442
0.000270963
0.000375243
0.00059295
0.000852244
0.000987121
0.000935357
0.00077503
0.000810123
0.0012534
0.00185863
0.00195276
0.00169671
0.0012809
0.000836493
0.000611857
0.000504444
0.000420294
0.000344369
0.000317314
0.000345383
0.000563005
0.00126384
0.00196884
0.00253582
0.00310001
0.00404617
0.00574544
0.0070639
0.00624527
0.00646197
0.0060336
0.00612212
0.00400273
0.00411692
0.00432104
0.00401758
0.00318989
0.00256255
0.00341022
0.0026697
0.00655224
0.00461315
0.00755446
0.0055796
0.00883105
0.00683313
0.010099
0.00805117
0.0114449
0.008908
0.0131473
0.00950395
0.0149076
0.0137163
0.0116693
0.0180647
0.0169259
0.0134281
0.0153048
0.018462
0.018377
0.0180406
0.0175981
0.0181937
0.0158589
0.015035
0.01746
0.0177495
0.0179775
0.0170497
0.0116688
0.00929552
0.0111244
0.0141731
0.0133813
0.000890638
0.0102872
0.00834577
0.00490415
0.000212604
0.000231048
0.000258628
0.000342008
0.000533183
0.000794712
0.000981218
0.000980934
0.000830744
0.000772749
0.00109167
0.00176847
0.00206474
0.00193381
0.00157495
0.00108354
0.000718764
0.000577061
0.00048243
0.000387252
0.000319987
0.000315673
0.000401001
0.000818691
0.00178093
0.0025872
0.00339615
0.00438407
0.00571534
0.00691172
0.00563843
0.00457236
0.00461099
0.00430031
0.0044642
0.00203313
0.00211093
0.0022189
0.00205977
0.00219514
0.00186631
0.00291581
0.00251804
0.00433782
0.00349281
0.00564
0.00480324
0.00694064
0.00637927
0.00787566
0.00768418
0.00821406
0.00816086
0.0100237
0.00884672
0.00815196
0.00804229
0.0112899
0.00965874
0.0104121
0.00913919
0.0162542
0.0144134
0.0103654
0.012392
0.0171161
0.0177756
0.0166908
0.015584
0.017546
0.0164835
0.0157835
0.0175163
0.0173791
0.0172823
0.017183
0.0128299
0.0122401
0.0150653
0.0144377
0.00470095
0.000238387
0.00111402
0.0111083
0.00865796
0.000218471
0.000250542
0.000312057
0.000479886
0.000727231
0.000955604
0.0010046
0.000892518
0.000765428
0.000944899
0.00158476
0.00209274
0.00215215
0.00190608
0.0014359
0.000917983
0.000668847
0.000549707
0.000442928
0.000342951
0.000312742
0.000329597
0.000509264
0.0010862
0.00211183
0.00317677
0.00426101
0.00543689
0.00630961
0.00483343
0.00220105
0.00201649
0.00240082
0.00231609
0.00224381
0.0023588
0.001302
0.00123142
0.00161993
0.00143291
0.00219415
0.00189604
0.00387468
0.00365059
0.00430873
0.00403252
0.00630293
0.0064742
0.00808575
0.0089053
0.0090067
0.0103006
0.00817133
0.00872543
0.00936745
0.0101925
0.00820902
0.00786309
0.00787934
0.0082991
0.00876348
0.00779305
0.00832229
0.00778085
0.0136379
0.0115002
0.00809864
0.00955439
0.0150156
0.016384
0.0146105
0.0129731
0.0162035
0.0167883
0.0163246
0.0172088
0.0161677
0.0162646
0.0170554
0.0139407
0.0132711
0.0158346
0.0153898
0.00443598
0.000154456
0.000819067
0.0118604
0.00893983
0.000231997
0.000296175
0.000423076
0.000664089
0.00089973
0.00100727
0.000945458
0.000777204
0.000834011
0.00136334
0.00206303
0.00229365
0.00223292
0.00187062
0.00128082
0.00082857
0.0006348
0.000501722
0.000397482
0.000323964
0.000313041
0.000366864
0.000606342
0.00116261
0.00218632
0.00343074
0.00458317
0.00466979
0.00281023
0.00126899
0.00107853
0.000999879
0.00120615
0.00115283
0.00121047
0.00121574
0.00115638
0.00099305
0.00161382
0.00136174
0.00328013
0.00278555
0.00637483
0.0059595
0.00661731
0.00657409
0.00951623
0.00973515
0.011394
0.0122082
0.0108689
0.0116686
0.012228
0.0128927
0.00896713
0.00976567
0.0105842
0.0113807
0.00765091
0.00786462
0.00845333
0.00922279
0.00739733
0.00746071
0.00721232
0.00748469
0.0107939
0.00887267
0.00710173
0.00761991
0.0124753
0.0143801
0.0121792
0.0102614
0.014349
0.0168458
0.0166224
0.0164571
0.0144992
0.0148331
0.0166394
0.0149656
0.0142414
0.0164307
0.0162387
0.00401481
0.000114653
0.000443625
0.0125573
0.00903465
0.000263468
0.000392172
0.000585482
0.000843543
0.000997505
0.00097977
0.000823994
0.000772288
0.0011358
0.00192589
0.00233015
0.00248834
0.00233051
0.0018017
0.0011632
0.00077747
0.00057598
0.000458257
0.000371375
0.000318085
0.000322369
0.000402897
0.000631954
0.00115208
0.00190144
0.00256712
0.00235217
0.00153455
0.000884902
0.000678234
0.000624278
0.00071716
0.000680929
0.000790728
0.000755515
0.000879616
0.000819393
0.00125873
0.000981929
0.00222226
0.00168378
0.00531354
0.00449174
0.00883735
0.00814645
0.00965751
0.00936861
0.0124085
0.0122426
0.0141232
0.014498
0.0121423
0.0128284
0.0134862
0.0139886
0.0100544
0.0108962
0.0117135
0.0124974
0.00789992
0.00858389
0.00938691
0.010229
0.00701461
0.00737506
0.00728937
0.00791483
0.00836221
0.00728134
0.00685823
0.00688279
0.0099275
0.0120919
0.00979155
0.00802575
0.012234
0.0167235
0.0167994
0.0153131
0.0125888
0.0131769
0.0158384
0.0159489
0.015201
0.0168363
0.0169369
0.00310015
0.000104467
0.000262433
0.013214
0.0087706
0.000332131
0.00054149
0.00075994
0.000968313
0.000989859
0.000882261
0.000755566
0.000943571
0.00165869
0.00230982
0.00260705
0.0027272
0.00239591
0.00173644
0.00106749
0.000702728
0.000524952
0.000437273
0.000347286
0.000318892
0.000335792
0.000412555
0.000619294
0.000944965
0.00117629
0.00110026
0.00086723
0.000654762
0.000532969
0.000543378
0.000520548
0.000580468
0.000559465
0.000636478
0.000605882
0.000811992
0.000694227
0.00172913
0.00115693
0.00352778
0.00255429
0.00731633
0.00631314
0.0102311
0.00945271
0.0117608
0.0110069
0.0142118
0.0134538
0.015438
0.0156664
0.0154833
0.0156817
0.0132316
0.013911
0.0145212
0.0150413
0.0110662
0.0118865
0.0126818
0.0134441
0.00864561
0.00946098
0.0102871
0.0111069
0.00720152
0.00788251
0.00781765
0.0086465
0.00705091
0.00672478
0.00710711
0.0067336
0.00785593
0.00986336
0.00785012
0.00691248
0.010165
0.0163659
0.0167679
0.0139466
0.0106945
0.0114944
0.0148211
0.0168722
0.0161928
0.017182
0.0175223
0.00226803
0.000101514
0.000154873
0.0137879
0.00803786
0.000451289
0.00070978
0.000899765
0.000987141
0.000925079
0.000761265
0.00081264
0.00135729
0.00221049
0.00261242
0.00296192
0.00295183
0.00245149
0.00166763
0.000957234
0.000632542
0.00050096
0.000408424
0.000331633
0.000322752
0.000339902
0.000409268
0.000528132
0.000599342
0.000608183
0.000567848
0.000518007
0.00047363
0.00047062
0.000450695
0.000488621
0.000475727
0.00051232
0.000499998
0.000566479
0.000530589
0.000831949
0.000663498
0.00253335
0.00156215
0.00511785
0.00379182
0.00861138
0.00764768
0.0105916
0.00983753
0.0124049
0.0114249
0.0151517
0.0145005
0.0135394
0.0162222
0.0163294
0.0158935
0.0162335
0.0141617
0.0148231
0.0154097
0.0158846
0.0119104
0.0126939
0.0134593
0.0141947
0.00945237
0.0102523
0.011037
0.0118071
0.00774355
0.00860246
0.00853279
0.00938856
0.00662146
0.00664432
0.00767358
0.00701874
0.00686776
0.00802228
0.00691249
0.00657095
0.00839927
0.0157133
0.016572
0.0125203
0.00902046
0.00995795
0.0136791
0.0177114
0.0171901
0.0173537
0.0180363
0.00138735
0.00010086
0.000121361
0.0141892
0.00671599
0.000603244
0.000852688
0.000966508
0.000945421
0.000793651
0.000742573
0.00108021
0.00194072
0.00257553
0.00300869
0.00335097
0.00315364
0.0024789
0.00153972
0.000851105
0.000588486
0.000466986
0.000374411
0.000327987
0.000323596
0.000339802
0.000379151
0.000405955
0.000426556
0.000434137
0.000434628
0.000426683
0.000415035
0.000425744
0.00041404
0.000443732
0.000438018
0.000460798
0.000451454
0.000540904
0.000480054
0.000966563
0.000673032
0.00355276
0.00220826
0.00646214
0.00505603
0.00909486
0.00826244
0.0105303
0.00989718
0.0122472
0.0112593
0.0152986
0.0146259
0.0133916
0.012321
0.0167946
0.0168067
0.0160055
0.0165631
0.0148896
0.0155315
0.0160981
0.0165469
0.0125538
0.0132704
0.013959
0.0146305
0.0101485
0.0108862
0.0115947
0.012261
0.00845261
0.00928779
0.00917348
0.0100038
0.00659153
0.0069456
0.00837795
0.00761334
0.00657358
0.00706162
0.00663245
0.00657444
0.00733641
0.0149094
0.0161636
0.0111327
0.00780202
0.00865178
0.0125216
0.0184924
0.0180946
0.0173355
0.0184699
0.000796162
0.000100688
0.000113764
0.0143088
0.00520865
0.000747578
0.000934561
0.000944527
0.00084048
0.00071947
0.000878196
0.00157728
0.00245641
0.00298318
0.00349987
0.00372304
0.00334448
0.00244834
0.00136144
0.000764167
0.000534879
0.000432565
0.000355243
0.000324323
0.000319724
0.000328486
0.000339034
0.000353035
0.000367919
0.000380899
0.000390182
0.00038832
0.000393066
0.00038089
0.000403855
0.000396338
0.000411341
0.000406639
0.000425627
0.000415774
0.000540297
0.00045698
0.00126358
0.000754157
0.00445948
0.00292897
0.00723451
0.00595763
0.00925807
0.00849804
0.0100799
0.0097695
0.0117268
0.0111205
0.0104261
0.0152324
0.0142858
0.0125636
0.0116364
0.0170998
0.0170551
0.0159474
0.0166725
0.0152816
0.0159
0.0164555
0.0169013
0.0128917
0.0135173
0.0141451
0.0147794
0.0106784
0.0113006
0.0118678
0.012418
0.00906624
0.0098385
0.00967431
0.010441
0.00688994
0.00755966
0.00897971
0.0083201
0.00659623
0.00674426
0.00665595
0.00685311
0.00694934
0.0140525
0.0156558
0.00992044
0.00731252
0.00795448
0.0114991
0.0192496
0.0189232
0.01726
0.0188215
0.000545853
0.000100721
0.000117907
0.0142256
0.00424044
0.000849411
0.000933217
0.000871069
0.000721386
0.000754139
0.00122204
0.00216155
0.00288727
0.00349169
0.00402797
0.00407383
0.00345753
0.00234817
0.00117326
0.000665317
0.000488246
0.000409918
0.000335524
0.000316741
0.000312834
0.000313675
0.000319193
0.000330722
0.000344775
0.000357468
0.000360582
0.000357787
0.000374202
0.000364151
0.000386636
0.000382398
0.000395522
0.00039128
0.000416518
0.000402225
0.000571308
0.00045548
0.00167608
0.000907714
0.00495089
0.00341589
0.00756611
0.00636847
0.00931528
0.00859885
0.00953981
0.0095205
0.00932558
0.010937
0.0105652
0.00951002
0.00955468
0.0149203
0.0137293
0.0117756
0.0107484
0.0172298
0.0171529
0.0157631
0.016668
0.0154142
0.0160297
0.0165962
0.0170548
0.012978
0.0135522
0.0141475
0.0147682
0.0109653
0.011438
0.0118968
0.0123442
0.00953328
0.010197
0.00997118
0.0106268
0.00751177
0.00828048
0.00942149
0.00892384
0.00684336
0.00677241
0.00686781
0.00745925
0.00694831
0.0132816
0.0152161
0.00910976
0.00724234
0.00778082
0.0107938
0.0200187
0.0196266
0.0172418
0.019229
0.000529838
0.00010191
0.000189258
0.0139495
0.00407419
0.000883316
0.000879429
0.000740894
0.000686809
0.000943409
0.00175716
0.00266497
0.00340759
0.00407058
0.00455151
0.00437656
0.00347199
0.00213717
0.000980071
0.000576488
0.000462026
0.000370877
0.000320465
0.00031011
0.000303414
0.000302535
0.00030915
0.000319062
0.000329763
0.000336027
0.000338227
0.000352702
0.000342027
0.000366092
0.00035724
0.000378561