/*--------------------------------*- C++ -*----------------------------------*\
  =========                 |
  \\      /  F ield         | OpenFOAM: The Open Source CFD Toolbox
   \\    /   O peration     | Website:  https://openfoam.org
    \\  /    A nd           | Version:  dev
     \\/     M anipulation  |
\*---------------------------------------------------------------------------*/
FoamFile
{
    version     2.0;
    format      ascii;
    class       volScalarField;
    location    "2500";
    object      N2;
}
// * * * * * * * * * * * * * * * * * * * * * * * * * * * * * * * * * * * * * //

dimensions      [0 0 0 0 0 0 0];

internalField   nonuniform List<scalar> 
9846
(
0.76699
0.76699
0.76699
0.76699
0.76699
0.76699
0.76699
0.76699
0.76699
0.76699
0.76699
0.76699
0.76699
0.76699
0.76699
0.76699
0.76699
0.76699
0.76699
0.76699
0.76699
0.76699
0.76699
0.76699
0.76699
0.76699
0.76699
0.76699
0.76699
0.76699
0.76699
0.76699
0.76699
0.76699
0.76699
0.76699
0.76699
0.76699
0.76699
0.76699
0.76699
0.76699
0.76699
0.76699
0.76699
0.76699
0.76699
0.76699
0.76699
0.76699
0.76699
0.76699
0.76699
0.76699
0.76699
0.76699
0.76699
0.76699
0.76699
0.76699
0.76699
0.76699
0.76699
0.76699
0.76699
0.76699
0.76699
0.76699
0.76699
0.76699
0.76699
0.76699
0.76699
0.76699
0.76699
0.76699
0.76699
0.76699
0.76699
0.76699
0.76699
0.76699
0.76699
0.76699
0.76699
0.76699
0.76699
0.76699
0.76699
0.76699
0.76699
0.76699
0.76699
0.76699
0.76699
0.76699
0.76699
0.76699
0.76699
0.76699
0.76699
0.76699
0.76699
0.76699
0.76699
0.76699
0.76699
0.76699
0.76699
0.76699
0.76699
0.76699
0.76699
0.76699
0.76699
0.76699
0.76699
0.76699
0.76699
0.76699
0.76699
0.76699
0.76699
0.76699
0.76699
0.76699
0.76699
0.76699
0.76699
0.76699
0.76699
0.76699
0.76699
0.76699
0.76699
0.76699
0.76699
0.76699
0.76699
0.76699
0.76699
0.76699
0.76699
0.76699
0.76699
0.76699
0.76699
0.76699
0.76699
0.76699
0.76699
0.76699
0.76699
0.76699
0.76699
0.76699
0.76699
0.76699
0.76699
0.76699
0.76699
0.76699
0.76699
0.76699
0.76699
0.76699
0.76699
0.76699
0.76699
0.76699
0.76699
0.76699
0.76699
0.76699
0.76699
0.76699
0.76699
0.76699
0.76699
0.76699
0.76699
0.76699
0.76699
0.76699
0.76699
0.76699
0.76699
0.76699
0.76699
0.76699
0.76699
0.76699
0.76699
0.76699
0.76699
0.76699
0.76699
0.76699
0.76699
0.76699
0.76699
0.76699
0.76699
0.76699
0.76699
0.76699
0.76699
0.76699
0.76699
0.76699
0.76699
0.76699
0.76699
0.76699
0.76699
0.76699
0.76699
0.76699
0.76699
0.76699
0.76699
0.76699
0.76699
0.76699
0.76699
0.76699
0.76699
0.76699
0.76699
0.76699
0.76699
0.76699
0.76699
0.76699
0.76699
0.76699
0.76699
0.76699
0.76699
0.76699
0.76699
0.76699
0.76699
0.76699
0.76699
0.76699
0.76699
0.76699
0.76699
0.76699
0.76699
0.76699
0.76699
0.76699
0.76699
0.76699
0.76699
0.76699
0.76699
0.76699
0.76699
0.76699
0.76699
0.76699
0.76699
0.76699
0.76699
0.76699
0.76699
0.76699
0.76699
0.76699
0.76699
0.76699
0.76699
0.76699
0.76699
0.76699
0.76699
0.76699
0.76699
0.76699
0.76699
0.76699
0.76699
0.76699
0.76699
0.76699
0.76699
0.76699
0.76699
0.76699
0.76699
0.76699
0.76699
0.76699
0.76699
0.76699
0.76699
0.76699
0.76699
0.76699
0.76699
0.76699
0.76699
0.76699
0.76699
0.76699
0.76699
0.76699
0.76699
0.76699
0.76699
0.76699
0.76699
0.76699
0.76699
0.76699
0.76699
0.76699
0.76699
0.76699
0.76699
0.76699
0.76699
0.76699
0.76699
0.76699
0.76699
0.76699
0.76699
0.76699
0.76699
0.76699
0.76699
0.76699
0.76699
0.76699
0.76699
0.76699
0.76699
0.76699
0.76699
0.76699
0.76699
0.76699
0.76699
0.76699
0.76699
0.76699
0.76699
0.76699
0.76699
0.76699
0.76699
0.76699
0.76699
0.76699
0.76699
0.76699
0.76699
0.76699
0.76699
0.76699
0.76699
0.76699
0.76699
0.76699
0.76699
0.76699
0.76699
0.76699
0.76699
0.76699
0.76699
0.76699
0.76699
0.76699
0.76699
0.76699
0.76699
0.76699
0.76699
0.76699
0.76699
0.76699
0.76699
0.76699
0.76699
0.76699
0.76699
0.76699
0.76699
0.76699
0.76699
0.76699
0.76699
0.76699
0.76699
0.76699
0.76699
0.76699
0.76699
0.76699
0.76699
0.76699
0.76699
0.76699
0.76699
0.76699
0.76699
0.76699
0.76699
0.76699
0.76699
0.76699
0.76699
0.76699
0.76699
0.76699
0.76699
0.76699
0.76699
0.76699
0.76699
0.76699
0.76699
0.76699
0.76699
0.76699
0.76699
0.76699
0.76699
0.76699
0.76699
0.76699
0.76699
0.76699
0.76699
0.76699
0.76699
0.76699
0.76699
0.76699
0.76699
0.76699
0.76699
0.76699
0.76699
0.76699
0.76699
0.76699
0.76699
0.76699
0.76699
0.76699
0.76699
0.76699
0.76699
0.76699
0.76699
0.76699
0.76699
0.76699
0.76699
0.76699
0.76699
0.76699
0.76699
0.76699
0.76699
0.76699
0.76699
0.76699
0.76699
0.76699
0.76699
0.76699
0.76699
0.76699
0.76699
0.76699
0.76699
0.76699
0.76699
0.76699
0.76699
0.76699
0.76699
0.76699
0.76699
0.76699
0.76699
0.76699
0.76699
0.76699
0.76699
0.76699
0.76699
0.76699
0.76699
0.76699
0.76699
0.76699
0.76699
0.76699
0.76699
0.76699
0.76699
0.766989
0.766989
0.766988
0.766988
0.766988
0.766989
0.766989
0.76699
0.76699
0.76699
0.76699
0.76699
0.76699
0.76699
0.76699
0.76699
0.76699
0.76699
0.76699
0.76699
0.76699
0.76699
0.76699
0.76699
0.76699
0.76699
0.76699
0.76699
0.76699
0.76699
0.76699
0.766989
0.766988
0.766986
0.766983
0.766981
0.766981
0.766983
0.766986
0.766988
0.766989
0.76699
0.76699
0.76699
0.76699
0.76699
0.76699
0.76699
0.76699
0.76699
0.76699
0.76699
0.76699
0.76699
0.76699
0.76699
0.76699
0.76699
0.76699
0.76699
0.76699
0.76699
0.76699
0.766989
0.766988
0.766986
0.76698
0.766972
0.766964
0.766959
0.766962
0.76697
0.766979
0.766985
0.766988
0.766989
0.76699
0.76699
0.76699
0.76699
0.76699
0.76699
0.76699
0.76699
0.76699
0.76699
0.76699
0.76699
0.76699
0.76699
0.76699
0.76699
0.76699
0.76699
0.76699
0.76699
0.76699
0.76699
0.766989
0.766987
0.766982
0.766972
0.766955
0.766936
0.76692
0.766915
0.766924
0.766945
0.766966
0.76698
0.766986
0.766989
0.76699
0.76699
0.76699
0.76699
0.76699
0.76699
0.76699
0.76699
0.76699
0.76699
0.76699
0.76699
0.76699
0.76699
0.76699
0.76699
0.76699
0.76699
0.76699
0.76699
0.76699
0.76699
0.76699
0.766989
0.766986
0.766978
0.766962
0.766936
0.766904
0.766875
0.766859
0.76686
0.766879
0.766914
0.766951
0.766973
0.766984
0.766988
0.766989
0.76699
0.76699
0.76699
0.76699
0.76699
0.76699
0.76699
0.76699
0.76699
0.76699
0.76699
0.76699
0.76699
0.76699
0.76699
0.76699
0.76699
0.76699
0.76699
0.76699
0.76699
0.76699
0.76699
0.76699
0.76699
0.766989
0.766985
0.766974
0.766953
0.766918
0.766874
0.766832
0.766802
0.766792
0.766805
0.766839
0.766885
0.766934
0.766966
0.766981
0.766987
0.766989
0.76699
0.76699
0.76699
0.76699
0.76699
0.76699
0.76699
0.76699
0.76699
0.76699
0.76699
0.76699
0.76699
0.76699
0.76699
0.76699
0.76699
0.76699
0.76699
0.76699
0.76699
0.76699
0.76699
0.76699
0.76699
0.766988
0.766984
0.766971
0.766944
0.766902
0.766849
0.766796
0.766753
0.766729
0.76673
0.766758
0.766806
0.766863
0.76692
0.76696
0.766978
0.766985
0.766988
0.766989
0.76699
0.76699
0.76699
0.76699
0.76699
0.76699
0.76699
0.76699
0.76699
0.76699
0.76699
0.76699
0.76699
0.76699
0.76699
0.76699
0.76699
0.76699
0.76699
0.76699
0.76699
0.76699
0.76699
0.76699
0.76699
0.766988
0.766984
0.76697
0.766939
0.766889
0.766831
0.766772
0.766721
0.766683
0.766668
0.766683
0.766724
0.766783
0.766848
0.766909
0.766954
0.766975
0.766983
0.766986
0.766988
0.766989
0.76699
0.766989
0.76699
0.76699
0.76699
0.76699
0.76699
0.76699
0.76699
0.76699
0.76699
0.76699
0.76699
0.76699
0.76699
0.76699
0.76699
0.76699
0.76699
0.76699
0.76699
0.76699
0.76699
0.76699
0.76699
0.766988
0.766984
0.766969
0.766936
0.766883
0.76682
0.766761
0.766708
0.766664
0.766634
0.766629
0.766651
0.766699
0.766763
0.766833
0.7669
0.766947
0.766968
0.766977
0.76698
0.766981
0.766988
0.766985
0.766989
0.766988
0.76699
0.766989
0.76699
0.76699
0.76699
0.76699
0.76699
0.76699
0.76699
0.76699
0.76699
0.76699
0.76699
0.76699
0.76699
0.76699
0.76699
0.76699
0.76699
0.76699
0.76699
0.76699
0.76699
0.766988
0.766984
0.766969
0.766937
0.766884
0.766827
0.766773
0.766717
0.766667
0.76663
0.766611
0.76661
0.766633
0.766678
0.766738
0.766809
0.766882
0.766929
0.766949
0.766954
0.76695
0.766975
0.766947
0.766985
0.766973
0.766988
0.766984
0.766989
0.766988
0.76699
0.766989
0.76699
0.76699
0.76699
0.76699
0.76699
0.76699
0.76699
0.76699
0.76699
0.76699
0.76699
0.76699
0.76699
0.76699
0.76699
0.76699
0.76699
0.76699
0.76699
0.766989
0.766984
0.76697
0.766938
0.766888
0.766844
0.766807
0.766759
0.766699
0.766647
0.766615
0.766603
0.766602
0.766618
0.766649
0.766696
0.766763
0.766837
0.766882
0.766885
0.76687
0.766903
0.766831
0.766944
0.766887
0.766971
0.766936
0.766983
0.766968
0.766988
0.766982
0.766989
0.766988
0.766989
0.76699
0.76699
0.76699
0.76699
0.76699
0.76699
0.76699
0.76699
0.76699
0.76699
0.76699
0.76699
0.76699
0.76699
0.76699
0.76699
0.76699
0.76699
0.766989
0.766985
0.766971
0.766941
0.766896
0.766864
0.766837
0.766808
0.766773
0.766708
0.766643
0.766611
0.766601
0.766599
0.7666
0.766607
0.766632
0.766686
0.766743
0.766761
0.766718
0.766764
0.766665
0.766815
0.76673
0.766873
0.766793
0.766928
0.766857
0.766965
0.76692
0.766982
0.766963
0.766988
0.766982
0.766988
0.76699
0.766988
0.766989
0.76699
0.76699
0.76699
0.76699
0.76699
0.76699
0.76699
0.76699
0.76699
0.76699
0.76699
0.76699
0.76699
0.76699
0.76699
0.766989
0.766986
0.766974
0.766945
0.766905
0.76688
0.766861
0.76685
0.766843
0.766813
0.766738
0.766654
0.766617
0.766603
0.766594
0.766575
0.76655
0.766544
0.766567
0.766578
0.766543
0.766581
0.766457
0.766635
0.76653
0.7667
0.766597
0.766771
0.76667
0.766842
0.766747
0.766913
0.766827
0.766962
0.766909
0.766983
0.766963
0.766984
0.766989
0.766985
0.766987
0.76699
0.76699
0.76699
0.76699
0.76699
0.76699
0.76699
0.76699
0.76699
0.76699
0.76699
0.76699
0.76699
0.76699
0.76699
0.766989
0.766986
0.766976
0.76695
0.766914
0.766894
0.766881
0.766883
0.766899
0.766896
0.766852
0.766771
0.766686
0.76664
0.766613
0.766581
0.766534
0.76647
0.76642
0.766385
0.766317
0.766354
0.766247
0.766416
0.766289
0.766484
0.766363
0.766558
0.766437
0.766638
0.766517
0.766722
0.766603
0.766812
0.766695
0.766909
0.7668
0.766966
0.766913
0.76697
0.766988
0.766975
0.76698
0.76699
0.766989
0.76699
0.76699
0.76699
0.76699
0.76699
0.76699
0.76699
0.76699
0.76699
0.76699
0.76699
0.76699
0.76699
0.766989
0.766987
0.766978
0.766955
0.766922
0.766905
0.766897
0.766907
0.766935
0.766943
0.766923
0.766875
0.766814
0.766749
0.76669
0.766629
0.766555
0.766465
0.766353
0.766241
0.76612
0.765961
0.766175
0.766017
0.766234
0.766101
0.766308
0.766173
0.766387
0.766251
0.766473
0.766335
0.766565
0.766424
0.766669
0.766524
0.766793
0.766644
0.76692
0.766796
0.766932
0.766984
0.766945
0.76696
0.76699
0.766987
0.76699
0.76699
0.76699
0.76699
0.76699
0.76699
0.76699
0.76699
0.76699
0.76699
0.76699
0.76699
0.76699
0.76699
0.766988
0.766981
0.76696
0.766929
0.766914
0.766909
0.766926
0.766957
0.766966
0.766959
0.766937
0.766902
0.766855
0.766799
0.766735
0.766642
0.766504
0.766353
0.766183
0.766009
0.765897
0.765836
0.765837
0.765967
0.765872
0.766034
0.765902
0.766112
0.765968
0.76619
0.766046
0.766277
0.76613
0.766372
0.766218
0.766483
0.766317
0.766625
0.766443
0.76681
0.766616
0.766838
0.766973
0.766869
0.766904
0.766989
0.766982
0.76699
0.76699
0.76699
0.76699
0.76699
0.76699
0.76699
0.76699
0.76699
0.76699
0.76699
0.76699
0.76699
0.76699
0.766988
0.766983
0.766965
0.766936
0.766922
0.766919
0.766939
0.766968
0.766978
0.766976
0.766967
0.766947
0.766913
0.766867
0.766814
0.766747
0.766635
0.766413
0.766188
0.766007
0.765912
0.765847
0.765877
0.765811
0.765834
0.765831
0.765807
0.765854
0.765801
0.765908
0.76582
0.765983
0.765865
0.766067
0.76593
0.766158
0.766012
0.766266
0.766104
0.766413
0.766222
0.766619
0.766394
0.766648
0.766939
0.766699
0.766776
0.766988
0.766967
0.76699
0.76699
0.76699
0.76699
0.76699
0.76699
0.76699
0.76699
0.76699
0.76699
0.76699
0.76699
0.76699
0.76699
0.766989
0.766985
0.766969
0.766942
0.766928
0.766927
0.766948
0.766975
0.766983
0.766984
0.76698
0.76697
0.766949
0.766908
0.766853
0.766797
0.766726
0.766573
0.766257
0.76603
0.765956
0.76592
0.765967
0.765889
0.765969
0.765843
0.765931
0.76579
0.765801
0.765783
0.76578
0.765798
0.765774
0.76584
0.765793
0.765901
0.765831
0.765978
0.765892
0.766071
0.765969
0.766196
0.766064
0.766392
0.766191
0.766415
0.766853
0.766467
0.766559
0.766983
0.766922
0.76699
0.766988
0.76699
0.76699
0.76699
0.76699
0.76699
0.76699
0.76699
0.76699
0.76699
0.76699
0.76699
0.76699
0.766989
0.766986
0.766974
0.766948
0.766933
0.766932
0.766954
0.766978
0.766986
0.766987
0.766986
0.766981
0.766969
0.766933
0.76686
0.766787
0.766729
0.766643
0.766427
0.7661
0.766001
0.766103
0.766044
0.766137
0.76604
0.766147
0.765988
0.766127
0.765802
0.765867
0.765779
0.765817
0.765774
0.76579
0.765796
0.765789
0.76584
0.76581
0.765901
0.765858
0.765979
0.765925
0.766073
0.766004
0.766206
0.766094
0.766237
0.766685
0.766288
0.766372
0.766964
0.76682
0.766985
0.766958
0.76699
0.76699
0.76699
0.76699
0.76699
0.76699
0.76699
0.76699
0.76699
0.76699
0.76699
0.76699
0.766987
0.766978
0.766954
0.766938
0.766936
0.766956
0.766979
0.766986
0.766988
0.766988
0.766986
0.76698
0.766956
0.766878
0.766765
0.766683
0.766637
0.766506
0.766235
0.766069
0.766125
0.766337
0.766352
0.766238
0.766302
0.76626
0.766371
0.766218
0.766374
0.765909
0.766055
0.765847
0.765966
0.765817
0.765896
0.765818
0.765862
0.765839
0.76586
0.765887
0.765883
0.765956
0.76593
0.766034
0.765999
0.766123
0.766069
0.766156
0.76649
0.766197
0.766255
0.766863
0.766603
0.766885
0.766745
0.76699
0.76699
0.76699
0.76699
0.76699
0.76699
0.76699
0.76699
0.76699
0.76699
0.76699
0.766988
0.766982
0.766962
0.766942
0.766939
0.766957
0.76698
0.766987
0.766988
0.766989
0.766988
0.766986
0.766974
0.76692
0.766775
0.766636
0.766563
0.766504
0.766316
0.766155
0.766142
0.766347
0.76633
0.766511
0.766506
0.76645
0.766495
0.766504
0.766596
0.766484
0.766629
0.766131
0.766311
0.766037
0.766214
0.765964
0.76612
0.765926
0.766051
0.765918
0.766008
0.76594
0.765994
0.76599
0.766013
0.766051
0.766062
0.766106
0.766104
0.76614
0.766327
0.76617
0.766197
0.766235
0.766583
0.766366
0.766908
0.766643
0.76699
0.76699
0.76699
0.76699
0.76699
0.76699
0.76699
0.76699
0.76699
0.76699
0.766989
0.766985
0.766969
0.766946
0.766942
0.766957
0.766979
0.766986
0.766988
0.766989
0.766989
0.766988
0.766983
0.766956
0.766846
0.766647
0.766515
0.766446
0.766332
0.766217
0.766181
0.766373
0.766491
0.766482
0.766663
0.766648
0.766648
0.766667
0.76673
0.766788
0.76672
0.766804
0.766406
0.766584
0.766308
0.766497
0.766218
0.766403
0.766154
0.766325
0.76611
0.76627
0.766092
0.766229
0.766105
0.766195
0.766138
0.766205
0.766155
0.7662
0.766167
0.766165
0.766186
0.766213
0.766275
0.766225
0.766185
0.766203
0.766198
0.766194
0.766404
0.766232
0.766243
0.766304
0.766944
0.766674
0.76699
0.76699
0.76699
0.76699
0.76699
0.76699
0.76699
0.76699
0.76699
0.766989
0.766987
0.766975
0.766951
0.766943
0.766956
0.766978
0.766986
0.766988
0.766989
0.766989
0.766989
0.766987
0.766976
0.766924
0.76676
0.76655
0.766437
0.766346
0.766261
0.766224
0.766368
0.766583
0.766565
0.766624
0.766601
0.766795
0.766775
0.766811
0.766809
0.766855
0.766886
0.766809
0.766852
0.766645
0.766745
0.766551
0.766648
0.766463
0.766551
0.766401
0.766477
0.766368
0.766436
0.766341
0.766433
0.76631
0.766331
0.766396
0.766235
0.766281
0.766383
0.76633
0.766234
0.766217
0.766261
0.766275
0.766233
0.7662
0.766202
0.766202
0.766239
0.76624
0.766201
0.766256
0.766426
0.766307
0.766203
0.766207
0.766965
0.766416
0.766599
0.766786
0.76699
0.76699
0.76699
0.76699
0.76699
0.76699
0.76699
0.76699
0.76699
0.766988
0.76698
0.766958
0.766945
0.766953
0.766973
0.766983
0.766987
0.766989
0.766989
0.766989
0.766988
0.766985
0.766965
0.766892
0.766725
0.76651
0.766392
0.766313
0.766279
0.766394
0.766652
0.766726
0.766728
0.766754
0.766736
0.766905
0.766894
0.766903
0.766909
0.766884
0.766908
0.766794
0.766815
0.76672
0.766766
0.76661
0.766632
0.766508
0.766481
0.766437
0.766362
0.76643
0.766315
0.766434
0.76644
0.76642
0.766354
0.76643
0.766455
0.766441
0.766451
0.766321
0.766374
0.766461
0.766423
0.766308
0.766279
0.766333
0.766357
0.766291
0.766198
0.766192
0.766232
0.766294
0.766287
0.76622
0.766227
0.766289
0.766188
0.766189
0.766812
0.766987
0.766962
0.766415
0.766613
0.76699
0.76699
0.76699
0.76699
0.76699
0.76699
0.76699
0.76699
0.766989
0.766984
0.766966
0.766947
0.766949
0.766966
0.766977
0.766985
0.766988
0.766989
0.766989
0.766989
0.766988
0.766982
0.766956
0.766881
0.766721
0.766528
0.76642
0.766386
0.766488
0.766732
0.766886
0.766905
0.766871
0.766876
0.766882
0.766873
0.766952
0.766956
0.766927
0.766942
0.766843
0.766879
0.766603
0.766624
0.76662
0.766605
0.766405
0.766314
0.76622
0.766043
0.766096
0.765851
0.766259
0.766128
0.765993
0.765839
0.766442
0.766392
0.766301
0.766174
0.766468
0.76645
0.766457
0.766422
0.766409
0.766456
0.766474
0.766477
0.766387
0.766349
0.766408
0.766438
0.766357
0.766207
0.766193
0.766272
0.766355
0.766342
0.766251
0.766211
0.76628
0.766181
0.766181
0.766842
0.766989
0.766975
0.766422
0.766638
0.76699
0.76699
0.76699
0.76699
0.76699
0.76699
0.76699
0.766989
0.766987
0.766974
0.766951
0.766947
0.766959
0.766969
0.766978
0.766985
0.766988
0.766989
0.76699
0.766989
0.766987
0.76698
0.766954
0.766881
0.766757
0.766652
0.766616
0.766702
0.76685
0.766954
0.766964
0.766971
0.766955
0.766959
0.766955
0.766955
0.766961
0.766972
0.766915
0.766943
0.766677
0.766752
0.766224
0.766271
0.766242
0.766212
0.765885
0.765765
0.765634
0.765452
0.765707
0.765567
0.765467
0.765363
0.766023
0.765862
0.765704
0.765558
0.766349
0.766231
0.766081
0.765913
0.766437
0.766395
0.766365
0.766297
0.766479
0.766489
0.766425
0.766473
0.766462
0.766421
0.766478
0.766494
0.766425
0.766226
0.766202
0.76632
0.766418
0.766401
0.766289
0.766203
0.76628
0.766182
0.766178
0.766881
0.76699
0.766985
0.766437
0.766679
0.76699
0.76699
0.76699
0.76699
0.76699
0.76699
0.76699
0.766988
0.76698
0.766958
0.766946
0.766951
0.766961
0.766969
0.766979
0.766985
0.766989
0.766989
0.76699
0.766989
0.766987
0.76698
0.766955
0.766904
0.766856
0.766843
0.766875
0.766934
0.766975
0.766987
0.766987
0.766985
0.766987
0.766982
0.766984
0.766978
0.76698
0.766945
0.76697
0.766831
0.766899
0.76637
0.766503
0.765747
0.765831
0.765708
0.76571
0.765362
0.765343
0.765181
0.765152
0.76543
0.765323
0.765238
0.765181
0.765741
0.76558
0.765435
0.765311
0.766157
0.765988
0.765809
0.765633
0.766334
0.766244
0.766191
0.766082
0.766498
0.766473
0.766305
0.766413
0.766506
0.766486
0.766514
0.766505
0.766487
0.766254
0.766218
0.766371
0.766478
0.766457
0.766333
0.7662
0.766282
0.766189
0.766178
0.766926
0.76699
0.766988
0.766461
0.766742
0.76699
0.76699
0.76699
0.76699
0.76699
0.76699
0.766989
0.766985
0.766967
0.766947
0.766946
0.766953
0.766959
0.766966
0.766979
0.766986
0.766989
0.76699
0.76699
0.766989
0.766987
0.766981
0.766967
0.766953
0.766948
0.766957
0.766974
0.766985
0.766989
0.76699
0.76699
0.766989
0.76699
0.766987
0.766989
0.766981
0.766985
0.76688
0.766943
0.766647
0.76678
0.765974
0.766162
0.765477
0.765562
0.765368
0.765412
0.765175
0.76523
0.76506
0.765066
0.765111
0.765082
0.765213
0.765137
0.765087
0.765064
0.765471
0.765331
0.765216
0.765127
0.7659
0.765714
0.765537
0.765379
0.766143
0.766013
0.765951
0.76582
0.766472
0.766405
0.766103
0.766279
0.766512
0.766519
0.766518
0.766475
0.766521
0.766288
0.766241
0.766422
0.766516
0.766502
0.766377
0.766198
0.766286
0.7662
0.76618
0.766955
0.76699
0.766989
0.766494
0.766807
0.76699
0.76699
0.76699
0.76699
0.76699
0.766989
0.766987
0.766975
0.766952
0.766944
0.766945
0.766949
0.766953
0.766965
0.76698
0.766987
0.766989
0.76699
0.76699
0.766989
0.766988
0.766985
0.766982
0.766981
0.766982
0.766986
0.766989
0.76699
0.76699
0.76699
0.76699
0.76699
0.76699
0.76699
0.766988
0.766989
0.766973
0.766984
0.766757
0.76688
0.766372
0.766581
0.765678
0.765844
0.765423
0.765497
0.765291
0.765357
0.765141
0.765183
0.765274
0.765034
0.765055
0.765128
0.765086
0.765064
0.765029
0.765016
0.765019
0.765246
0.76514
0.765062
0.765012
0.765631
0.765455
0.765302
0.765176
0.7659
0.76575
0.765692
0.765558
0.766398
0.766261
0.76586
0.766073
0.766482
0.766525
0.766492
0.766399
0.766529
0.766324
0.766267
0.766469
0.766528
0.766522
0.76642
0.766197
0.766291
0.766214
0.766183
0.766975
0.76699
0.76699
0.766533
0.766867
0.76699
0.76699
0.76699
0.76699
0.76699
0.766988
0.766981
0.766961
0.766944
0.76694
0.76694
0.76694
0.766948
0.766965
0.766982
0.766988
0.76699
0.76699
0.76699
0.766989
0.766989
0.766988
0.766988
0.766989
0.766989
0.76699
0.76699
0.76699
0.76699
0.76699
0.76699
0.76699
0.76699
0.76699
0.766986
0.766989
0.766948
0.766977
0.766579
0.766776
0.766071
0.766331
0.765588
0.765714
0.765506
0.765549
0.765372
0.765451
0.765179
0.765234
0.765403
0.765492
0.765034
0.76507
0.76518
0.765119
0.76499
0.764985
0.764992
0.765009
0.76508
0.765012
0.764976
0.764962
0.765385
0.765237
0.76512
0.765032
0.765645
0.765497
0.765448
0.765326
0.766253
0.766055
0.765609
0.765832
0.76641
0.766505
0.766428
0.766259
0.766519
0.766359
0.766292
0.766503
0.766527
0.766526
0.766457
0.766196
0.766299
0.766227
0.766186
0.766983
0.76699
0.76699
0.766584
0.766909
0.76699
0.76699
0.76699
0.76699
0.766989
0.766985
0.76697
0.766947
0.766939
0.766933
0.766929
0.766932
0.766946
0.766967
0.766984
0.766989
0.76699
0.76699
0.76699
0.76699
0.766989
0.766989
0.76699
0.76699
0.76699
0.76699
0.76699
0.76699
0.76699
0.76699
0.76699
0.76699
0.76699
0.766989
0.76699
0.766982
0.766988
0.766901
0.766961
0.76639
0.766645
0.765891
0.766122
0.765608
0.765704
0.765742
0.765735
0.765551
0.765609
0.765725
0.765251
0.765328
0.765538
0.765633
0.765052
0.765103
0.765244
0.765166
0.764961
0.76497
0.764988
0.765014
0.764977
0.76495
0.764941
0.764943
0.765184
0.765074
0.764996
0.76495
0.765409
0.765277
0.765239
0.76514
0.766053
0.765818
0.765379
0.765585
0.76628
0.766457
0.766316
0.766069
0.766489
0.76639
0.766314
0.766515
0.766515
0.766522
0.766482
0.766196
0.766313
0.766239
0.766188
0.766986
0.76699
0.76699
0.766637
0.766933
0.76699
0.76699
0.76699
0.76699
0.766987
0.766978
0.766955
0.766939
0.766931
0.766921
0.766918
0.766926
0.766946
0.766972
0.766986
0.766989
0.76699
0.76699
0.76699
0.76699
0.76699
0.76699
0.76699
0.76699
0.76699
0.76699
0.76699
0.76699
0.76699
0.76699
0.76699
0.76699
0.76699
0.766989
0.76699
0.766975
0.766986
0.766833
0.766936
0.766294
0.766552
0.765849
0.766049
0.765747
0.765799
0.765961
0.765949
0.765975
0.765713
0.765758
0.765973
0.765965
0.765335
0.765435
0.765671
0.765787
0.765078
0.765138
0.765308
0.765214
0.764952
0.764969
0.764994
0.765031
0.764931
0.764925
0.764927
0.764936
0.765037
0.764967
0.764931
0.764916
0.765207
0.765104
0.765075
0.765007
0.765822
0.765575
0.765182
0.765357
0.766108
0.766372
0.766175
0.76585
0.766434
0.766414
0.766331
0.766515
0.766485
0.76651
0.76649
0.766196
0.766328
0.766248
0.766189
0.766987
0.76699
0.76699
0.766677
0.766942
0.76699
0.76699
0.76699
0.766988
0.766984
0.766965
0.766942
0.766931
0.766918
0.766907
0.766908
0.766924
0.766949
0.766977
0.766988
0.76699
0.76699
0.76699
0.76699
0.76699
0.76699
0.76699
0.76699
0.76699
0.76699
0.76699
0.76699
0.76699
0.76699
0.76699
0.76699
0.76699
0.76699
0.76699
0.766988
0.76699
0.766968
0.766984
0.766774
0.766912
0.766297
0.766541
0.765909
0.766078
0.765965
0.765986
0.766091
0.766061
0.766175
0.766159
0.765877
0.765938
0.766112
0.766115
0.76542
0.765545
0.765804
0.765941
0.7651
0.765167
0.765361
0.765252
0.764952
0.764976
0.765007
0.765047
0.764912
0.764913
0.764922
0.764937
0.764944
0.764915
0.764904
0.7649
0.765049
0.764982
0.764958
0.764926
0.765583
0.765349
0.765025
0.765162
0.765913
0.766265
0.766012
0.765624
0.766357
0.76643
0.766344
0.766509
0.766437
0.766483
0.766485
0.766197
0.76634
0.766256
0.76619
0.766987
0.76699
0.766989
0.766695
0.766941
0.76699
0.76699
0.766989
0.766986
0.766975
0.76695
0.766932
0.766918
0.766902
0.766894
0.766902
0.766924
0.766956
0.766982
0.766989
0.76699
0.76699
0.76699
0.76699
0.76699
0.76699
0.76699
0.76699
0.76699
0.76699
0.76699
0.76699
0.76699
0.76699
0.76699
0.76699
0.76699
0.76699
0.76699
0.766988
0.766989
0.766966
0.766984
0.766764
0.766908
0.766395
0.766604
0.766069
0.76621
0.766156
0.766165
0.766246
0.766228
0.766201
0.76631
0.766291
0.76604
0.766098
0.766249
0.766254
0.765496
0.765651
0.765924
0.766084
0.765124
0.765198
0.765414
0.765293
0.764958
0.764986
0.765021
0.765066
0.764902
0.76491
0.764925
0.764944
0.764902
0.764893
0.764889
0.764892
0.764938
0.76491
0.764896
0.76489
0.765361
0.765154
0.764925
0.765006
0.765706
0.76613
0.765827
0.765412
0.766251
0.766438
0.766354
0.766491
0.766356
0.766429
0.766474
0.766196
0.766342
0.766262
0.766189
0.766981
0.766989
0.766979
0.766696
0.766923
0.76699
0.76699
0.766987
0.766982
0.766962
0.766936
0.766919
0.766902
0.766886
0.766884
0.766901
0.766929
0.766966
0.766986
0.76699
0.76699
0.76699
0.76699
0.76699
0.76699
0.76699
0.76699
0.76699
0.76699
0.76699
0.76699
0.76699
0.76699
0.76699
0.76699
0.76699
0.76699
0.76699
0.76699
0.766988
0.766989
0.76697
0.766984
0.7668
0.766922
0.76657
0.766731
0.76631
0.766422
0.766281
0.766273
0.766508
0.766471
0.766359
0.766334
0.766458
0.766449
0.766194
0.766243
0.766378
0.766383
0.765564
0.76574
0.766027
0.766204
0.765149
0.765231
0.765468
0.765335
0.764968
0.764999
0.765037
0.765086
0.764901
0.764915
0.764932
0.764953
0.764882
0.76488
0.764883
0.764894
0.764886
0.764879
0.764872
0.764872
0.765172
0.765005
0.76488
0.764921
0.765507
0.765968
0.765639
0.765229
0.766118
0.766434
0.766357
0.766464
0.766261
0.766373
0.766457
0.766191
0.766333
0.766263
0.766186
0.766949
0.766977
0.76694
0.76666
0.766858
0.76699
0.766989
0.766985
0.766973
0.766946
0.766922
0.766903
0.766884
0.766873
0.766879
0.766902
0.766939
0.766977
0.766988
0.76699
0.76699
0.76699
0.76699
0.76699
0.76699
0.76699
0.76699
0.76699
0.76699
0.76699
0.76699
0.76699
0.76699
0.76699
0.76699
0.76699
0.76699
0.76699
0.76699
0.76699
0.766989
0.766989
0.766977
0.766986
0.766874
0.766949
0.766773
0.766875
0.766607
0.766672
0.766447
0.766451
0.766605
0.7666
0.766491
0.766474
0.766604
0.766599
0.766328
0.766374
0.766502
0.766501
0.765635
0.765827
0.766127
0.766312
0.765174
0.765262
0.76552
0.765375
0.76498
0.765013
0.765055
0.765107
0.764907
0.764923
0.764942
0.764965
0.764871
0.764877
0.764888
0.764901
0.764867
0.764864
0.764857
0.764864
0.765028
0.764926
0.764863
0.764876
0.765326
0.7658
0.76546
0.765071
0.765989
0.766424
0.766355
0.76643
0.766171
0.766304
0.766434
0.766181
0.766288
0.76626
0.766178
0.766851
0.766621
0.766568
0.766498
0.766528
0.766989
0.766987
0.76698
0.766959
0.76693
0.766906
0.766885
0.766867
0.766863
0.766878
0.76691
0.766953
0.766984
0.766989
0.76699
0.76699
0.76699
0.76699
0.76699
0.76699
0.76699
0.76699
0.76699
0.76699
0.76699
0.76699
0.76699
0.76699
0.76699
0.76699
0.76699
0.76699
0.76699
0.76699
0.76699
0.766989
0.766989
0.766984
0.766988
0.766945
0.766973
0.766923
0.766959
0.766804
0.766836
0.766894
0.766597
0.766597
0.766784
0.766768
0.766616
0.766612
0.766739
0.766743
0.766438
0.766488
0.766616
0.76661
0.765703
0.765912
0.766221
0.766414
0.765198
0.765291
0.765567
0.765411
0.764993
0.765028
0.765071
0.765127
0.764916
0.764934
0.764955
0.764979
0.764871
0.764883
0.764896
0.764911
0.764849
0.764856
0.764847
0.764862
0.764939
0.764879
0.764845
0.764863
0.765135
0.765637
0.765227
0.764969
0.765837
0.766403
0.766342
0.76638
0.766027
0.766188
0.766397
0.766155
0.766167
0.766254
0.766153
0.766325
0.766069
0.766086
0.766188
0.766118
0.766988
0.766985
0.766971
0.766943
0.766913
0.766888
0.766867
0.766854
0.766859
0.766882
0.766923
0.766969
0.766988
0.76699
0.76699
0.76699
0.76699
0.76699
0.76699
0.76699
0.76699
0.76699
0.76699
0.76699
0.76699
0.76699
0.76699
0.76699
0.76699
0.76699
0.76699
0.76699
0.76699
0.76699
0.76699
0.766989
0.76699
0.766987
0.766989
0.766977
0.766984
0.766978
0.766983
0.766882
0.766889
0.766969
0.766959
0.766749
0.766758
0.766877
0.766872
0.766731
0.766735
0.766844
0.766851
0.766538
0.766591
0.766724
0.766711
0.765765
0.765991
0.766307
0.766508
0.765218
0.765315
0.765606
0.765442
0.765007
0.765043
0.765087
0.765144
0.764928
0.764947
0.764969
0.764993
0.764876
0.764892
0.764908
0.764925
0.764842
0.764854
0.764847
0.764865
0.764894
0.764869
0.764831
0.764838
0.765007
0.76536
0.76506
0.764914
0.76555
0.766365
0.766303
0.766288
0.765787
0.765995
0.766315
0.766093
0.766035
0.766206
0.766103
0.765949
0.765853
0.765798
0.765972
0.765873
0.766986
0.76698
0.766957
0.766926
0.766895
0.766869
0.766851
0.766845
0.766859
0.766893
0.766941
0.766982
0.766989
0.76699
0.76699
0.76699
0.76699
0.76699
0.76699
0.76699
0.76699
0.76699
0.76699
0.76699
0.76699
0.76699
0.76699
0.76699
0.76699
0.76699
0.76699
0.76699
0.76699
0.76699
0.76699
0.76699
0.76699
0.76699
0.766989
0.766989
0.766987
0.766988
0.766977
0.766987
0.766988
0.766989
0.766953
0.766955
0.766978
0.766858
0.766865
0.76695
0.766946
0.766828
0.766836
0.766921
0.766929
0.766631
0.766686
0.766816
0.7668
0.765817
0.766061
0.76638
0.766595
0.76523
0.765328
0.765629
0.765459
0.765022
0.765057
0.7651
0.765157
0.764943
0.764962
0.764982
0.765006
0.764884
0.764903
0.76492
0.764937
0.764833
0.76486
0.764841
0.764879
0.764882
0.764838
0.76483
0.76483
0.764943
0.765171
0.765002
0.764903
0.765315
0.766282
0.766207
0.7661
0.765486
0.765669
0.766121
0.766
0.765911
0.766107
0.765983
0.765749
0.765737
0.76566
0.765821
0.765724
0.766984
0.76697
0.766942
0.766907
0.766875
0.766852
0.766838
0.766842
0.766866
0.76691
0.766963
0.766987
0.76699
0.76699
0.76699
0.76699
0.76699
0.76699
0.76699
0.76699
0.76699
0.76699
0.76699
0.76699
0.76699
0.76699
0.76699
0.76699
0.76699
0.76699
0.76699
0.76699
0.76699
0.76699
0.76699
0.76699
0.76699
0.76699
0.76699
0.76699
0.766989
0.766989
0.766986
0.766988
0.766989
0.76699
0.766989
0.766977
0.766978
0.766986
0.766936
0.766942
0.766976
0.766974
0.766903
0.766911
0.76696
0.766964
0.766715
0.766771
0.766889
0.766872
0.765846
0.766108
0.76642
0.766669
0.765237
0.765332
0.765634
0.765463
0.765034
0.76507
0.765113
0.765165
0.764955
0.764974
0.764994
0.765016
0.764891
0.764902
0.764931
0.764945
0.764828
0.764851
0.764834
0.764862
0.764868
0.764841
0.764825
0.764822
0.764958
0.765091
0.765032
0.76493
0.765212
0.766095
0.766048
0.76579
0.765348
0.765481
0.765861
0.765887
0.765799
0.765961
0.765863
0.765634
0.765623
0.76557
0.76571
0.765624
0.76698
0.766957
0.766924