/*--------------------------------*- C++ -*----------------------------------*\
  =========                 |
  \\      /  F ield         | OpenFOAM: The Open Source CFD Toolbox
   \\    /   O peration     | Website:  https://openfoam.org
    \\  /    A nd           | Version:  dev
     \\/     M anipulation  |
\*---------------------------------------------------------------------------*/
FoamFile
{
    version     2.0;
    format      ascii;
    class       volScalarField;
    location    "2500";
    object      nut;
}
// * * * * * * * * * * * * * * * * * * * * * * * * * * * * * * * * * * * * * //

dimensions      [0 2 -1 0 0 0 0];

internalField   nonuniform List<scalar> 
9846
(
0.000123518
0.000127733
0.000119162
0.000121241
0.00014442
0.000107942
0.000113011
0.000154845
0.000134508
0.000103591
0.000109494
0.000154458
0.000153028
0.000117077
0.00010216
0.000106687
0.000149033
0.00016551
0.000138797
0.000108059
0.000101628
0.000105299
0.000138459
0.000171475
0.000158362
0.00011988
0.000104639
0.000100621
0.000104707
0.000129179
0.000171036
0.000170304
0.000138837
0.000109318
0.0001032
0.000100281
0.000104219
0.000122564
0.000167556
0.00017852
0.000158137
0.000120113
0.000105293
0.000101423
0.000100201
0.00010348
0.000117009
0.000158472
0.000184815
0.000172393
0.000136249
0.000109506
0.000103573
0.000100443
0.000100165
0.000102872
0.000113056
0.000147586
0.000185667
0.000182138
0.000153601
0.000119223
0.000105277
0.000101783
0.000100024
0.000100132
0.00010235
0.000110366
0.000138455
0.000184169
0.000189063
0.000169091
0.00013274
0.000109309
0.000103483
0.000100475
9.98868e-05
0.000100106
0.000101966
0.000108594
0.000132156
0.000179772
0.000195875
0.000181564
0.000146971
0.000118066
0.000105095
0.0001019
9.97845e-05
9.98757e-05
0.000100085
0.000101749
0.000107499
0.00012671
0.00017148
0.000199925
0.000191351
0.00016135
0.000128309
0.000109162
0.000103217
0.000100553
9.95124e-05
9.99025e-05
0.000100078
0.000101754
0.000106848
0.000122541
0.000162554
0.00020029
0.000198406
0.000175053
0.00013996
0.000116213
0.000104854
0.000101857
9.97222e-05
9.94819e-05
9.99389e-05
0.000100091
0.000101997
0.000106522
0.000119765
0.000154731
0.000199112
0.000203615
0.000186815
0.000152685
0.000124011
0.000108782
0.000102908
0.000100649
9.93248e-05
9.95664e-05
9.99814e-05
0.000100117
0.00010263
0.000106431
0.000118088
0.000148946
0.000195764
0.000209415
0.000196903
0.000165174
0.000133493
0.000114299
0.000104624
0.00010173
9.98311e-05
9.92413e-05
9.97026e-05
0.000100035
0.000100161
0.000104233
0.000106566
0.000117205
0.000144975
0.000190885
0.000213444
0.000204736
0.00017716
0.000144153
0.000120503
0.000108389
0.000102678
0.000100794
9.94078e-05
9.93367e-05
9.986e-05
0.00010012
0.000100215
0.000108016
0.000106949
0.000116914
0.000142426
0.000185974
0.000215497
0.000210822
0.000188319
0.000155656
0.000128118
0.000112823
0.000104724
0.000101662
0.000100143
9.92965e-05
9.9551e-05
0.000100044
0.000100229
0.000100273
0.000102884
0.0001078
0.00011712
0.00014104
0.000181787
0.00021631
0.000215702
0.00019794
0.0001673
0.000137239
0.000118014
0.000108216
0.000102775
0.000101059
9.98343e-05
9.93974e-05
9.98488e-05
0.000100256
0.000100357
0.000100296
0.000102956
0.000108972
0.000117557
0.000140609
0.000178796
0.000216486
0.000220914
0.000206451
0.000178256
0.000147505
0.00012455
0.000112178
0.000105298
0.000101866
0.000100757
9.98439e-05
9.96733e-05
0.000100199
0.000100487
0.000100535
0.000100292
0.000108415
0.000111074
0.000118122
0.000140958
0.000176969
0.000216238
0.000226457
0.0002143
0.000188517
0.000158302
0.000132377
0.000117032
0.000108773
0.000103537
0.000101516
0.000100783
0.000100076
0.000100079
0.000100572
0.000100742
0.000100733
0.000100278
0.000105569
0.000114904
0.00011953
0.000141733
0.000176208
0.000216108
0.000231312
0.000220987
0.000198087
0.000169325
0.000141492
0.000122942
0.000112807
0.000106736
0.000102728
0.000101554
0.000101068
0.000100557
0.00010056
0.00010094
0.000101005
0.000100935
0.00010026
0.000105769
0.000111864
0.000121286
0.000143559
0.000176657
0.000216776
0.000235235
0.000227071
0.000206826
0.000180288
0.00015174
0.000130147
0.000117676
0.000110505
0.000105584
0.000102617
0.000101852
0.000101658
0.000101244
0.000101106
0.000101267
0.000101244
0.000101099
0.00010026
0.000105983
0.000113176
0.000122915
0.000146049
0.000177908
0.000218283
0.000238836
0.000233569
0.000215029
0.000190864
0.00016282
0.000138764
0.000123769
0.000115007
0.000109486
0.000105344
0.000102937
0.000102448
0.000102481
0.000102133
0.000101726
0.000101528
0.000101393
0.000101111
0.000100253
0.000105046
0.000115368
0.000126621
0.00014881
0.000180181
0.000220114
0.00024278
0.000240686
0.000223159
0.000201
0.000174383
0.000148721
0.000131361
0.000120836
0.000114202
0.000109559
0.000105731
0.000103667
0.000103283
0.000103404
0.000103158
0.000102452
0.000101774
0.000101472
0.000101033
0.000100237
0.000104852
0.000117285
0.000131142
0.00015301
0.000182981
0.000222306
0.000247629
0.000248087
0.000231454
0.000210866
0.000186147
0.000159871
0.000140742
0.000128542
0.000120475
0.000114718
0.000110384
0.000106686
0.000104813
0.000104325
0.000104367
0.000104137
0.00010323
0.000102043
0.00010147
0.000100892
0.000100212
0.000105072
0.00011881
0.000135188
0.00015809
0.00018675
0.000224943
0.000253309
0.000255444
0.000239823
0.000220333
0.000197935
0.000172225
0.000152264
0.000138568
0.000128943
0.000121862
0.000116419
0.000112136
0.000108309
0.000106304
0.000105545
0.000105272
0.000104905
0.000103905
0.00010229
0.000101379
0.00010071
0.000100175
0.000105414
0.000120179
0.000138668
0.000163096
0.000191258
0.000228119
0.000259654
0.000262895
0.000248202
0.000229474
0.000209316
0.000185818
0.000166276
0.000151427
0.000140575
0.000132171
0.000125315
0.000119514
0.000114715
0.000110509
0.000108071
0.000106874
0.0001061
0.000105435
0.000104332
0.000102426
0.000101193
0.000100552
0.000100133
0.000105776
0.000121655
0.000141701
0.000167633
0.000195865
0.000231858
0.000266575
0.00027075
0.000257084
0.000238567
0.000220893
0.000200754
0.000182306
0.000167594
0.000156544
0.000147248
0.000138845
0.000130925
0.000123766
0.000117795
0.000112956
0.000110028
0.000108203
0.000106794
0.000105694
0.000104456
0.000102367
0.000100911
0.000100397
0.000100089
0.000106248
0.000123214
0.000144557
0.000171627
0.000200121
0.000235824
0.000273878
0.000279251
0.000266955
0.000248203
0.00023273
0.00021583
0.000199791
0.000187166
0.000177442
0.000168067
0.000157728
0.000147648
0.000137873
0.000129024
0.000121622
0.000115818
0.000112104
0.000109459
0.000107336
0.000105709
0.000104341
0.000102158
0.000100593
0.000100253
0.000100054
0.00010654
0.000124833
0.000147304
0.000175176
0.00020377
0.000239493
0.000281149
0.000288507
0.00027774
0.000258144
0.000244154
0.000230768
0.000218793
0.000210006
0.00020271
0.000192506
0.000180505
0.000167079
0.000154444
0.000143548
0.000133856
0.000125562
0.000119372
0.000114718
0.000110913
0.000107741
0.00010552
0.000104052
0.000101876
0.000100332
0.000100119
0.000100045
0.00010665
0.000125887
0.000149889
0.000178363
0.00020673
0.000242595
0.000287838
0.000298462
0.000289198
0.000268382
0.000255312
0.000245622
0.000238806
0.000236128
0.000234203
0.000227495
0.000212168
0.000193699
0.000174338
0.000156668
0.00014379
0.000135076
0.000127598
0.000121499
0.000116946
0.000112596
0.000108102
0.000105185
0.000103647
0.000101711
0.000100241
9.98515e-05
9.99366e-05
0.000106843
0.000126586
0.000151998
0.000181001
0.000208972
0.000245114
0.000293342
0.00030893
0.000301134
0.000278933
0.000266093
0.00025975
0.000258899
0.000264034
0.00027272
0.000279053
0.000280518
0.000268242
0.000234897
0.0001918
0.000160532
0.000144561
0.000133871
0.000127414
0.000122347
0.000117644
0.000112969
0.000107794
0.000104749
0.000103317
0.000101846
0.000100574
0.000100006
9.99809e-05
9.99922e-05
0.000107148
0.00012753
0.000153704
0.000182941
0.000210416
0.000246644
0.00029681
0.000319625
0.00031362
0.000289902
0.000276479
0.000272586
0.000277434
0.000291878
0.000313712
0.000339846
0.000363212
0.000380539
0.000371892
0.000328767
0.000251279
0.000178078
0.000146291
0.000133319
0.000127167
0.000122982
0.000117911
0.00011233
0.000107212
0.000104422
0.000103251
0.000102484
0.000101125
0.000100164
0.000100459
9.99921e-05
0.00010002
0.000107155
0.000128608
0.000155207
0.000184323
0.000210931
0.000247033
0.000298301
0.000330214
0.000326592
0.000301423
0.000286658
0.000283999
0.000293506
0.00031618
0.000352454
0.000399522
0.000448809
0.000484089
0.000490198
0.000473501
0.000426594
0.000336779
0.000217569
0.000153031
0.000135233
0.000127442
0.000123059
0.000117834
0.000111532
0.000106839
0.000104294
0.000103648
0.000102334
0.000103169
0.000100981
0.000102223
0.000101486
0.000100212
0.000100618
0.000100009
0.000100058
0.000107151
0.000128993
0.000156506
0.000185257
0.000210838
0.000246328
0.000297984
0.000339949
0.000339468
0.000313701
0.000296842
0.000294084
0.000306799
0.000336613
0.000383585
0.00044794
0.000497452
0.000522294
0.000533433
0.000533458
0.000521026
0.000485078
0.000408697
0.000276096
0.000169421
0.000138885
0.00012828
0.00012332
0.000116082
0.000110932
0.000106589
0.000104625
0.000104002
0.000104631
0.00010333
0.000100987
0.000102374
0.000101436
0.000100299
0.000100659
0.000100039
0.000100132
0.000107082
0.000128831
0.000157327
0.000185792
0.000210129
0.0002442
0.000296511
0.000348102
0.000351697
0.000327245
0.000307397
0.000303041
0.000317382
0.000352067
0.000408863
0.00047428
0.000507355
0.000524542
0.000534849
0.000538736
0.00053945
0.000532264
0.000513206
0.000456733
0.000335913
0.000195389
0.000143714
0.000131498
0.000123418
0.000115807
0.000108035
0.00010627
0.000105186
0.00010582
0.000104332
0.000105102
0.000103652
0.00010088
0.00010266
0.000101454
0.000100388
0.000100629
0.000100092
0.000100238
0.000106998
0.000128509
0.000157547
0.000185966
0.000208667
0.000241171
0.000293248
0.000353839
0.000363576
0.000342393
0.00031846
0.000311333
0.000325633
0.000362001
0.000424082
0.000475687
0.000501383
0.000510672
0.000513022
0.000517018
0.000522744
0.000527571
0.000527231
0.000518457
0.000482429
0.000387937
0.000240937
0.000156058
0.000136163
0.000123251
0.000113133
0.000105306
0.000106031
0.000104156
0.000105628
0.000105498
0.000104574
0.000105109
0.000103813
0.000100832
0.00010152
9.33851e-05
9.95472e-05
9.72677e-05
9.44647e-05
8.30417e-05
0.000106916
0.000128021
0.000157335
0.000185899
0.000206891
0.000237338
0.000289327
0.000356195
0.000375297
0.000358488
0.000330013
0.000319287
0.000332441
0.000368675
0.00043038
0.000468306
0.000484398
0.000473323
0.000444082
0.000443282
0.000461625
0.000484232
0.000506952
0.000514979
0.000510663
0.00048489
0.000417703
0.000298572
0.000185121
0.000142663
0.000126566
0.000114494
9.80122e-05
8.9916e-05
0.00010281
9.47827e-05
0.000104915
0.000101943
0.000104254
0.000103983
9.68538e-05
8.74107e-05
8.6001e-05
7.73379e-05
8.13278e-05
7.83673e-05
7.78724e-05
6.9122e-05
0.000106817
0.000127304
0.000156887
0.000185429
0.000204898
0.000232914
0.000284199
0.000354374
0.000386518
0.00037508
0.000342296
0.000327105
0.000337415
0.00037377
0.0004293
0.000457129
0.00046142
0.000420986
0.000357688
0.00035689
0.000396283
0.000427235
0.00044911
0.000473494
0.000494489
0.000488748
0.000466358
0.000426429
0.000354097
0.00026002
0.000190494
0.000159811
9.55576e-05
0.000148776
8.5954e-05
8.99291e-05
9.33167e-05
8.46868e-05
0.000100985
9.23523e-05
9.57092e-05
9.70449e-05
8.50043e-05
7.14374e-05
7.39758e-05
6.54202e-05
6.71421e-05
6.38276e-05
6.52365e-05
5.82773e-05
0.000106764
0.00012633
0.000156092
0.000184573
0.000202805
0.000228126
0.000277566
0.000349756
0.000396791
0.000391902
0.000355579
0.000335631
0.000340678
0.000374036
0.000426538
0.000447365
0.000439063
0.000372768
0.000290067
0.000282648
0.000329844
0.000383327
0.000414684
0.000430932
0.000446337
0.000458902
0.000457809
0.000445332
0.000427591
0.000396078
0.000355104
0.00031562
0.000220675
0.000305944
0.00014342
0.000226493
9.00637e-05
0.000147356
8.42796e-05
9.13324e-05
9.1751e-05
8.42343e-05
8.69682e-05
9.15077e-05
7.5745e-05
5.90409e-05
6.46222e-05
5.6129e-05
5.59405e-05
5.28639e-05
5.60194e-05
5.01112e-05
0.000106779
0.00012509
0.000154978
0.00018342
0.000200653
0.000223157
0.000269777
0.00034104
0.000404571
0.000407325
0.000370261
0.000345605
0.000344415
0.00037412
0.000421581
0.000437959
0.000421424
0.000340253
0.000243876
0.000226164
0.000261003
0.00032283
0.000375209
0.000399267
0.000410648
0.000422496
0.000431694
0.000435355
0.000429658
0.000436823
0.00043972
0.000429432
0.000361514
0.000421304
0.000303518
0.00036599
0.000231476
0.000306054
0.000151896
0.000235912
9.23827e-05
0.0001556
8.42492e-05
9.27176e-05
8.15543e-05
8.4105e-05
6.93666e-05
4.96239e-05
5.77074e-05
4.86863e-05
4.74523e-05
4.46238e-05
4.96767e-05
4.41995e-05
0.000106947
0.00012373
0.000153485
0.000181992
0.000198479
0.000218116
0.000261203
0.000331736
0.000407823
0.000420934
0.000388156
0.000357368
0.000349229
0.000373559
0.000417314
0.000430578
0.00040876
0.000324382
0.000218212
0.000187825
0.000203734
0.000252069
0.000317232
0.000372783
0.000393346
0.000403868
0.000412793
0.000417301
0.000419789
0.000434793
0.000462748
0.000479241
0.000449959
0.000475581
0.000416198
0.000448705
0.000367217
0.000412934
0.000309054
0.000367678
0.000239845
0.000311776
0.000157031
0.000242799
9.1846e-05
0.000155127
8.38515e-05
8.95139e-05
7.59564e-05
4.25535e-05
5.91023e-05
4.63547e-05
4.11299e-05
3.85049e-05
4.6219e-05
4.02814e-05
0.00010732
0.000122275
0.000151625
0.000180436
0.000196322
0.000213231
0.000252077
0.00032144
0.000405755
0.000433539
0.000409113
0.000370843
0.000354714
0.000372957
0.000414469
0.000424857
0.000402464
0.000318641
0.000210114
0.000168133
0.000165426
0.000192257
0.000240354
0.000318385
0.000373118
0.000392522
0.000407187
0.000416137
0.000418586
0.000430888
0.000458573
0.000479197
0.000479445
0.000486817
0.00046777
0.000474747
0.000443437
0.000460068
0.000410591
0.000437752
0.000368289
0.000408216
0.000314094
0.000368687
0.000243625
0.000315458
0.000148973
0.000241389
8.65274e-05
0.00013647
8.46526e-05
3.8513e-05
8.15495e-05
5.82382e-05
3.65564e-05
3.41705e-05
4.6842e-05
3.82644e-05
0.000106583
0.000120677
0.000149346
0.000178836
0.000194371
0.000208717
0.000242817
0.000309345
0.000398858
0.000444006
0.000430781
0.00038559
0.000361969
0.000372857
0.000412271
0.000422296
0.000399592
0.000321325
0.000212722
0.000164068
0.000146966
0.000154428
0.000181385
0.000231407
0.000313522
0.000368954
0.000397758
0.000416699
0.00042952
0.000430963
0.00045466
0.000474988
0.000485615
0.000476778
0.000479708
0.000466455
0.000469674
0.000452188
0.000458236
0.000432936
0.000445607
0.000406387
0.000428688
0.000369152
0.000404494
0.000315436
0.000368429
0.000235435
0.000312911
0.000118753
0.000221961
0.000105129
4.22737e-05
9.48853e-05
8.96293e-05
3.35488e-05
3.34645e-05
5.68798e-05
3.83693e-05
0.000105397
0.000118831
0.000146639
0.000177107
0.000192564
0.000204943
0.000233797
0.00029611
0.000384541
0.000450879
0.000450568
0.000401812
0.000371307
0.000373297
0.000410151
0.000421408
0.00040275
0.000325791
0.000217965
0.000165476
0.000144167
0.000136762
0.000146348
0.000172007
0.00021766
0.000286997
0.000360081
0.000405005
0.000437579
0.000457651
0.000453879
0.000474465
0.000507626
0.000520317
0.000549755
0.000476831
0.000496466
0.000466169
0.000483342
0.000455904
0.000470306
0.000444653
0.000460148
0.000429125
0.000449121
0.000405681
0.00043374
0.000368635
0.000409557
0.000306945
0.000369612
0.000197263
0.000297659
0.000167258
6.8773e-05
0.000134833
0.000114271
3.107e-05
4.48643e-05
7.3033e-05
3.28863e-05
0.00010369
0.000116443
0.000143426
0.000175102
0.000191037
0.000201734
0.00022578
0.00028213
0.000369891
0.000451705
0.000466345
0.000421755
0.000382642
0.00037462
0.000406797
0.000423763
0.000406159
0.000334126
0.000231373
0.000168147
0.000148641
0.00013494
0.000130563
0.000140072
0.000164301
0.000202806
0.000253648
0.000330596
0.000414418
0.000464587
0.000475099
0.000476391
0.000527729
0.000577456
0.000598356
0.000591516
0.000626101
0.000511662
0.000551777
0.000497908
0.000538766
0.000486648
0.000522227
0.000477245
0.000510892
0.000465612
0.000501139
0.000448693
0.000488909
0.000420534
0.000469797
0.000370898
0.000436532
0.000282297
0.000375342
0.000259433
9.78385e-05
0.000225838
0.000179359
2.82397e-05
8.26594e-05
2.70344e-05
2.24579e-05
0.000102942
0.000113388
0.000139307
0.000172691
0.000189546
0.00019932
0.00021866
0.000268562
0.000353536
0.000448204
0.000478843
0.000446279
0.000397596
0.000377704
0.000402465
0.000428985
0.000413593
0.000349041
0.000253368
0.000176641
0.000153349
0.000140638
0.000129917
0.000126558
0.000136635
0.000158376
0.000191032
0.00024016
0.000322681
0.000436331
0.000478866
0.00047907
0.000528671
0.000609543
0.000617133
0.000655451
0.000660331
0.00067585
0.000689968
0.000585933
0.000638272
0.000572767
0.000631379
0.000560922
0.000617784
0.00055234
0.000607745
0.00054161
0.000600354
0.000526606
0.000590117
0.000500769
0.000571361
0.000454543
0.000536358
0.000374412
0.000476037
0.000367501
0.000142864
0.000349371
0.000306723
4.24979e-05
0.000108634
1.18641e-05
1.95511e-05
0.000107849
0.000112663
0.000133646
0.000169344
0.000188184
0.000197122
0.00021313
0.000255695
0.0003359
0.000435963
0.000486578
0.000470868
0.00041509
0.000383658
0.000397134
0.00043454
0.000425693
0.000368809
0.000278314
0.00019583
0.000161758
0.000147504
0.00013617
0.000124689
0.000124864
0.000138123
0.000165843
0.000197359
0.000243696
0.000338476
0.000456906
0.000477476
0.000520629
0.000619954
0.000661971
0.000654122
0.0006924
0.000684796
0.000711552
0.000710305
0.000679794
0.000708609
0.000676329
0.000713674
0.000670561
0.0007153
0.000667962
0.000721365
0.000660905
0.000723403
0.000646118
0.000718016
0.000619123
0.00069998
0.000571987
0.0006632
0.000490203
0.000600401
0.000494987
0.000245243
0.000481638
0.000446966
8.45815e-05
0.000177214
4.22897e-05
8.66268e-05
0.000117403
0.000130426
0.000163619
0.0001863
0.000195299
0.000208427
0.000244547
0.000317542
0.000417869
0.000488146
0.000491186
0.000435491
0.000393686
0.000392942
0.000437609
0.000437573
0.000392004
0.000306376
0.00022135
0.00018122
0.000157748
0.000143922
0.000130925
0.000122524
0.000127854
0.000154122
0.000192048
0.000228956
0.00028131
0.000378289
0.000459816
0.000503018
0.000595455
0.000639558
0.000632036
0.000672597
0.000657197
0.000695154
0.000672576
0.000712866
0.000679767
0.000723507
0.00072663
0.000733909
0.000736312
0.000743672
0.000744733
0.000753834
0.000757114
0.000761854
0.000771288
0.000760859
0.000779231
0.000737453
0.00076617
0.000691832
0.000752049
0.000614608
0.000704059
0.000612476
0.000385652
0.000594617
0.00055968
0.000157741
0.000320828
0.000190932
0.00022376
0.00013244
0.00015782
0.000183507
0.000193169
0.000204788
0.000234451
0.000299928
0.000398627
0.000485626
0.000506144
0.000458981
0.000408024
0.000390442
0.00043016
0.000451251
0.000417145
0.000338486
0.000253239
0.000204526
0.000177823
0.000155034
0.000139847
0.000126482
0.00012354
0.000142457
0.000187556
0.000229184
0.000272623
0.000330996
0.00040733
0.000474027
0.000574422
0.000622708
0.000624741
0.00061448
0.000608742
0.000647835
0.000627057
0.000637278
0.000594579
0.000631881
0.000565263
0.00072638
0.000689309
0.000738437
0.000705107
0.00075344
0.000723294
0.000767543
0.00074309
0.00074286
0.000703798
0.000699871
0.00064424
0.000692882
0.000621117
0.000716898
0.000626464
0.000697917
0.000660337
0.000680697
0.000507925
0.000658441
0.000631706
0.000587553
0.000332837
0.000454709
0.000114722
0.000328139
0.000157675
0.000178034
0.000191111
0.00020133
0.000226148
0.000282974
0.000377527
0.000475503
0.000514494
0.000484485
0.000422125
0.000391927
0.000417301
0.000462217
0.000442213
0.000374838
0.000291237
0.000228591
0.00020328
0.00017581
0.000152745
0.00013587
0.000125749
0.000132186
0.000171999
0.00023209
0.000278572
0.000326064
0.000384824
0.000456624
0.000562533
0.000624969
0.000609533
0.000613762
0.000533263
0.000536654
0.000560373
0.000539936
0.000494369
0.000438971
0.000455266
0.000370121
0.000640519
0.000551025
0.000657413
0.000563201
0.000680866
0.000585709
0.000683105
0.000608591
0.000606526
0.000599219
0.000565422
0.000531567
0.00055703
0.000507211
0.000564775
0.000496577
0.000608633
0.000487041
0.000616598
0.000680871
0.000556533
0.000614305
0.000538853
0.000591719
0.000654664
0.000544338
0.000529837
0.000638227
0.000428812
0.000570593
0.000544579
0.00049275
8.41736e-05
0.000300832
0.000175818
0.00018726
0.000198527
0.000218741
0.000267863
0.00035541
0.000456633
0.000515612
0.000505848
0.000442111
0.000399135
0.000407035
0.000463186
0.000466204
0.00041499
0.000336448
0.000261836
0.000229449
0.000201517
0.000176121
0.00014959
0.000134243
0.000128558
0.000152323
0.000218349
0.000283499
0.000336344
0.000388303
0.000457867
0.00056138
0.000624328
0.000560221
0.000572517
0.00054415
0.000551875
0.000399415
0.000410417
0.000405612
0.000393612
0.00031447
0.000280452
0.000304159
0.000264877
0.000455439
0.000364761
0.000474393
0.000386268
0.000499559
0.000417885
0.000519624
0.000443172
0.000540322
0.000452838
0.00047089
0.000456546
0.000442501
0.000464807
0.000401053
0.000503262
0.00041254
0.000358933
0.000438836
0.000451709
0.000548537
0.000444715
0.000453632
0.000514533
0.000630777
0.000612932
0.000568209
0.000509146
0.000506075
0.000595541
0.000527487
0.000430656
0.000499674
0.000593428
0.000573535
6.57692e-05
0.000446871
0.000347188
0.000220386
0.000183938
0.00019499
0.000212571
0.000254198
0.000333503
0.000435821
0.000512791
0.000520914
0.000470434
0.000413026
0.000398569
0.000453222
0.000487104
0.000457166
0.000390729
0.00031076
0.000258087
0.000228474
0.00020248
0.000173961
0.000146492
0.00013412
0.000138967
0.000183645
0.000270804
0.000339729
0.0004039
0.000472011
0.000552266
0.000614469
0.000516575
0.000441566
0.000441329
0.000424813
0.000435646
0.000252596
0.000258475
0.000261932
0.000254216
0.000240134
0.000222634
0.000262269
0.000240277
0.000331097
0.000291918
0.000368525
0.000327563
0.000396069
0.000358785
0.00040776
0.000379171
0.000406003
0.000381074
0.000463524
0.000422309
0.000393326
0.000378765
0.000402224
0.000369227
0.000371883
0.000428156
0.000414896
0.000387218
0.000366605
0.0003677
0.000433506
0.000457436
0.000416996
0.000397786
0.000456906
0.000636858
0.000623772
0.000516802
0.000459157
0.000461489
0.000545668
0.000553739
0.000520244
0.000609047
0.000593272
0.000199348
3.66903e-05
6.84271e-05
0.000455264
0.000341352
0.000189381
0.000208368
0.000241521
0.0003128
0.000412199
0.000502366
0.000528587
0.000494194
0.000429851
0.000395167
0.00043409
0.000493632
0.000495061
0.000450767
0.00037615
0.000298092
0.00025686
0.000229025
0.000200645
0.000164758
0.000146586
0.00013754
0.000158646
0.000220506
0.000301225
0.000383596
0.000459233
0.000531785
0.00057631
0.000463921
0.000261298
0.000246781
0.000277124
0.000268725
0.000267998
0.000275606
0.000191572
0.000189689
0.000208646
0.000197858
0.000222853
0.00020853
0.00026705
0.000256581
0.000297199
0.000277957
0.000337801
0.000330542
0.000365178
0.00036862
0.000371376
0.000381133
0.000365805
0.000364222
0.000367654
0.00037506
0.000393709
0.000375158
0.00036052
0.000354677
0.000388662
0.000373182
0.000395255
0.000373175
0.00036346
0.000348648
0.00038277
0.000352617
0.000384041
0.000406577
0.000366824
0.000346585
0.000404276
0.000585089
0.00062488
0.000472012
0.000407165
0.000414594
0.000493129
0.000572735
0.000533609
0.000617048
0.000605255
0.000176142
1.14318e-05
5.5544e-05
0.00045822
0.000331128
0.000199286
0.000234174
0.000291752
0.000388288
0.000482234
0.000529262
0.000513093
0.000443752
0.000399287
0.000415392
0.000491291
0.000521447
0.000508456
0.000453883
0.000365362
0.000294076
0.000257029
0.000226325
0.000193952
0.000161437
0.000147565
0.000146917
0.000179138
0.000231086
0.000305573
0.00039688
0.000474752
0.000463057
0.000318156
0.000211124
0.000187293
0.00018256
0.000194306
0.000191109
0.000191107
0.000193945
0.00017397
0.000163097
0.000196185
0.000184897
0.000243529
0.00022694
0.000320596
0.000311043
0.00032797
0.000324875
0.000375694
0.000380556
0.000393255
0.000405986
0.000382141
0.000390122
0.00039686
0.000403444
0.000356777
0.000363477
0.000371579
0.000379558
0.000358913
0.000347328
0.000346634
0.000351474
0.000356637
0.000357174
0.000343247
0.000343618
0.000328277
0.000339724
0.000343983
0.000364597
0.00033219
0.000357211
0.000320106
0.000311706
0.000354443
0.000518273
0.00054624
0.00042756
0.000359785
0.000370257
0.00044538
0.000584549
0.000540792
0.000566874
0.000573244
0.000151451
3.82159e-06
4.05128e-05
0.000455936
0.000312111
0.000218824
0.000279245
0.000360398
0.000461827
0.000525849
0.000524961
0.000469925
0.000411537
0.000400009
0.000473398
0.00052929
0.000552518
0.000533818
0.000459548
0.000353223
0.000291763
0.000253541
0.000223046
0.000189336
0.000162522
0.000151343
0.000158188
0.000184859
0.000235994
0.000292102
0.000330613
0.000305208
0.000245585
0.000183749
0.000156423
0.000153842
0.000154999
0.000154226
0.000156207
0.000155949
0.000155868
0.000154374
0.000167324
0.000154625
0.000206797
0.000185698
0.000295167
0.00027233
0.000376965
0.0003659
0.000382974
0.000382537
0.000413024
0.000416438
0.000411485
0.000417541
0.000386708
0.000392875
0.00039857
0.00040434
0.000358819
0.000366458
0.000373236
0.000379071
0.000338182
0.000339645
0.00034538
0.000352224
0.000331455
0.000332328
0.000323265
0.000329641
0.000324606
0.00035141
0.000321965
0.000334287
0.000298251
0.000313137
0.000288729
0.00030897
0.000312645
0.000463144
0.000479221
0.000386639
0.000318864
0.000331428
0.000404901
0.000560404
0.000519566
0.000490336
0.000496316
0.000118077
2.41599e-06
1.35272e-05
0.000426776
0.000281479
0.000254459
0.000343938
0.000433072
0.00051553
0.00052879
0.000495857
0.00042845
0.000393396
0.000442296
0.000527407
0.000574757
0.000600654
0.000562286
0.000457877
0.000338273
0.000287104
0.0002502
0.000222784
0.000184779
0.000165399
0.00015706
0.000161629
0.000187561
0.000224078
0.00023984
0.000226359
0.000196414
0.000167248
0.000144429
0.000137654
0.000137554
0.000135782
0.000136619
0.000133683
0.000134939
0.000144833
0.000135505
0.00017621
0.000150856
0.00024237
0.000208588
0.000348632
0.000323068
0.000401654
0.000394259
0.000415602
0.000408486
0.000417805
0.000412447
0.000401036
0.000403324
0.000404858
0.000404779
0.000384094
0.000388626
0.000392883
0.000396848
0.000358427
0.000363643
0.000368036
0.000371924
0.000332214
0.000337677
0.000343213
0.000347676
0.000314868
0.00032075
0.000311381
0.000323695
0.000341792
0.00032679
0.000306589
0.000314473
0.000293776
0.000282171
0.000280195
0.000335251
0.000282242
0.000420923
0.000431708
0.000350008
0.000287122
0.000298536
0.000367422
0.000486111
0.00044547
0.000440242
0.00044092
9.25008e-05
1.72452e-06
4.44654e-06
0.000349417
0.00022857
0.000308825
0.000415217
0.00049188
0.000528437
0.000511669
0.0004424
0.000397047
0.000414357
0.000514614
0.000576522
0.00063886
0.000653092
0.000582184
0.000448312
0.000325855
0.000281313
0.000251061
0.000218823
0.000183335
0.000168283
0.000159874
0.000165418
0.000180786
0.00018449
0.000180466
0.000168739
0.000156141
0.000141879
0.000130315
0.000132002
0.000126836
0.000128377
0.000122558
0.000124874
0.00011984
0.000120294
0.000135368
0.000126807
0.000199183
0.000159091
0.000288052
0.000244844
0.000382735
0.000363604
0.000401848
0.00039932
0.000406107
0.000403588
0.000404387
0.000401562
0.000394383
0.000391218
0.000393411
0.000395071
0.000394916
0.000375642
0.000379463
0.000383431
0.000387371
0.000351115
0.000353886
0.00035656
0.000359357
0.000328429
0.000332243
0.000334787
0.0003364
0.000302532
0.000314615
0.000305286
0.000318027
0.000321268
0.000308881
0.000294423
0.000299131
0.000331865
0.000269232
0.000309778
0.000317739
0.000263858
0.000383285
0.000395479
0.00031363
0.000262469
0.000269705
0.000331583
0.000428835
0.000384997
0.000402621
0.000402122
5.82102e-05
1.38485e-06
2.26968e-06
0.000295407
0.000168656
0.000376141
0.000476034
0.00052331
0.000519458
0.000462648
0.000406538
0.000395025
0.000475781
0.000571921
0.000646795
0.000715341
0.000698835
0.000591909
0.00042826
0.000316054
0.000278393
0.00024826
0.000212322
0.000184221
0.000170435
0.00016394
0.000164551
0.000162326
0.00016044
0.000155677
0.000149849
0.00014129
0.000129663
0.000120239
0.000122247
0.000115848
0.000118908
0.000110537
0.000113233
0.000111181
0.000108562
0.00013115
0.000117104
0.0002315
0.000178744
0.00033166
0.000285897
0.000394083
0.000382387
0.000399516
0.000401503
0.000393992
0.000396392
0.000393176
0.000391179
0.000377351
0.00037456
0.000379527
0.000381661
0.00038276
0.000383305
0.000362574
0.000366395
0.000370762
0.000375499
0.000337444
0.000338221
0.000339204
0.000341089
0.000319936
0.000320439
0.000319961
0.000318643
0.000296076
0.000307014
0.000295904
0.000306849
0.000305316
0.000292983
0.000287241
0.000287234
0.000316211
0.000285285
0.000316553
0.000304024
0.000263187
0.000348444
0.000362205
0.000283379
0.000249997
0.00025171
0.000301158
0.000386548
0.000343953
0.00037138
0.000372908
2.58372e-05
1.07447e-06
1.52807e-06
0.000246822
0.000122113
0.000439659
0.000513439
0.000519764
0.000486754
0.000420979
0.000390017
0.000434698
0.000554513
0.000643054
0.000737263
0.000789342
0.000737526
0.000590764
0.000397231
0.000309508
0.000273308
0.000244998
0.00020819
0.000184904
0.000172363
0.000164722
0.000158556
0.000155164
0.000151725
0.000147805
0.000142535
0.000133271
0.000120463
0.000123884
0.000114397
0.000117361
0.000107309
0.000110537
0.000101077
0.000103896
0.000102613
0.000100333
0.00013668
0.000111736
0.000266265
0.00020392
0.000359363
0.000320875
0.000399851
0.00039143
0.000396357
0.000405652
0.000375665
0.000378859
0.000383766
0.000381572
0.00037918
0.000362464
0.00036256
0.000364569
0.00036814
0.000370098
0.00037007
0.000344165
0.000348492
0.00035378
0.000360304
0.000317183
0.000316621
0.000317325
0.000319554
0.000305199
0.000302298
0.00029868
0.000295594
0.000285163
0.000293541
0.000280493
0.000289578
0.000288735
0.000280954
0.000275074
0.000279119
0.000304854
0.000313232
0.000307642
0.000286882
0.000285795
0.000318835
0.000335271
0.000262994
0.000263737
0.000248113
0.000277875
0.000358226
0.000310376
0.00034619
0.000349872
1.42251e-05
8.79589e-07
1.41881e-06
0.000207782