/*--------------------------------*- C++ -*----------------------------------*\
  =========                 |
  \\      /  F ield         | OpenFOAM: The Open Source CFD Toolbox
   \\    /   O peration     | Website:  https://openfoam.org
    \\  /    A nd           | Version:  dev
     \\/     M anipulation  |
\*---------------------------------------------------------------------------*/
FoamFile
{
    version     2.0;
    format      ascii;
    class       volScalarField;
    location    "2500";
    object      O2;
}
// * * * * * * * * * * * * * * * * * * * * * * * * * * * * * * * * * * * * * //

dimensions      [0 0 0 0 0 0 0];

internalField   nonuniform List<scalar> 
9846
(
0.23301
0.23301
0.23301
0.23301
0.23301
0.23301
0.23301
0.23301
0.23301
0.23301
0.23301
0.23301
0.23301
0.23301
0.23301
0.23301
0.23301
0.23301
0.23301
0.23301
0.23301
0.23301
0.23301
0.23301
0.23301
0.23301
0.23301
0.23301
0.23301
0.23301
0.23301
0.23301
0.23301
0.23301
0.23301
0.23301
0.23301
0.23301
0.23301
0.23301
0.23301
0.23301
0.23301
0.23301
0.23301
0.23301
0.23301
0.23301
0.23301
0.23301
0.23301
0.23301
0.23301
0.23301
0.23301
0.23301
0.23301
0.23301
0.23301
0.23301
0.23301
0.23301
0.23301
0.23301
0.23301
0.23301
0.23301
0.23301
0.23301
0.23301
0.23301
0.23301
0.23301
0.23301
0.23301
0.23301
0.23301
0.23301
0.23301
0.23301
0.23301
0.23301
0.23301
0.23301
0.23301
0.23301
0.23301
0.23301
0.23301
0.23301
0.23301
0.23301
0.23301
0.23301
0.23301
0.23301
0.23301
0.23301
0.23301
0.23301
0.23301
0.23301
0.23301
0.23301
0.23301
0.23301
0.23301
0.23301
0.23301
0.23301
0.23301
0.23301
0.23301
0.23301
0.23301
0.23301
0.23301
0.23301
0.23301
0.23301
0.23301
0.23301
0.23301
0.23301
0.23301
0.23301
0.23301
0.23301
0.23301
0.23301
0.23301
0.23301
0.23301
0.23301
0.23301
0.23301
0.23301
0.23301
0.23301
0.23301
0.23301
0.23301
0.23301
0.23301
0.23301
0.23301
0.23301
0.23301
0.23301
0.23301
0.23301
0.23301
0.23301
0.23301
0.23301
0.23301
0.23301
0.23301
0.23301
0.23301
0.23301
0.23301
0.23301
0.23301
0.23301
0.23301
0.23301
0.23301
0.23301
0.23301
0.23301
0.23301
0.23301
0.23301
0.23301
0.23301
0.23301
0.23301
0.23301
0.23301
0.23301
0.23301
0.23301
0.23301
0.23301
0.23301
0.23301
0.23301
0.23301
0.23301
0.23301
0.23301
0.23301
0.23301
0.23301
0.23301
0.23301
0.23301
0.23301
0.23301
0.23301
0.23301
0.23301
0.23301
0.23301
0.23301
0.23301
0.23301
0.23301
0.23301
0.23301
0.23301
0.23301
0.23301
0.23301
0.23301
0.23301
0.23301
0.23301
0.23301
0.23301
0.23301
0.23301
0.23301
0.23301
0.23301
0.23301
0.23301
0.23301
0.23301
0.23301
0.23301
0.23301
0.23301
0.23301
0.23301
0.23301
0.23301
0.23301
0.23301
0.23301
0.23301
0.23301
0.23301
0.23301
0.23301
0.23301
0.23301
0.23301
0.23301
0.23301
0.23301
0.23301
0.23301
0.23301
0.23301
0.23301
0.23301
0.23301
0.23301
0.23301
0.23301
0.23301
0.23301
0.23301
0.23301
0.23301
0.23301
0.23301
0.23301
0.23301
0.23301
0.23301
0.23301
0.23301
0.23301
0.23301
0.23301
0.23301
0.23301
0.23301
0.23301
0.23301
0.23301
0.23301
0.23301
0.23301
0.23301
0.23301
0.23301
0.23301
0.23301
0.23301
0.23301
0.23301
0.23301
0.23301
0.23301
0.23301
0.23301
0.23301
0.23301
0.23301
0.23301
0.23301
0.23301
0.23301
0.23301
0.23301
0.23301
0.23301
0.23301
0.23301
0.23301
0.23301
0.23301
0.23301
0.23301
0.23301
0.23301
0.23301
0.23301
0.23301
0.23301
0.23301
0.23301
0.23301
0.23301
0.23301
0.23301
0.23301
0.23301
0.23301
0.23301
0.23301
0.23301
0.23301
0.23301
0.23301
0.23301
0.23301
0.23301
0.23301
0.23301
0.23301
0.23301
0.23301
0.23301
0.23301
0.23301
0.23301
0.23301
0.23301
0.23301
0.23301
0.23301
0.23301
0.23301
0.23301
0.23301
0.23301
0.23301
0.23301
0.23301
0.23301
0.23301
0.23301
0.23301
0.23301
0.23301
0.23301
0.23301
0.23301
0.23301
0.23301
0.23301
0.23301
0.23301
0.23301
0.23301
0.23301
0.23301
0.23301
0.23301
0.23301
0.23301
0.23301
0.23301
0.23301
0.23301
0.23301
0.23301
0.23301
0.23301
0.23301
0.23301
0.23301
0.23301
0.23301
0.23301
0.23301
0.23301
0.23301
0.23301
0.23301
0.23301
0.23301
0.23301
0.23301
0.23301
0.23301
0.23301
0.23301
0.23301
0.23301
0.23301
0.23301
0.23301
0.23301
0.23301
0.23301
0.23301
0.23301
0.23301
0.23301
0.23301
0.23301
0.23301
0.23301
0.23301
0.23301
0.23301
0.23301
0.23301
0.23301
0.23301
0.23301
0.23301
0.23301
0.23301
0.23301
0.23301
0.23301
0.23301
0.23301
0.23301
0.23301
0.23301
0.23301
0.23301
0.23301
0.23301
0.23301
0.23301
0.23301
0.23301
0.23301
0.23301
0.23301
0.23301
0.23301
0.23301
0.23301
0.23301
0.23301
0.23301
0.23301
0.23301
0.23301
0.23301
0.23301
0.23301
0.23301
0.23301
0.23301
0.23301
0.23301
0.233009
0.233009
0.233009
0.233009
0.233009
0.233009
0.233009
0.23301
0.23301
0.23301
0.23301
0.23301
0.23301
0.23301
0.23301
0.23301
0.23301
0.23301
0.23301
0.23301
0.23301
0.23301
0.23301
0.23301
0.23301
0.23301
0.23301
0.23301
0.23301
0.23301
0.233009
0.233009
0.233007
0.233005
0.233003
0.233002
0.233003
0.233005
0.233007
0.233009
0.23301
0.23301
0.23301
0.23301
0.23301
0.23301
0.23301
0.23301
0.23301
0.23301
0.23301
0.23301
0.23301
0.23301
0.23301
0.23301
0.23301
0.23301
0.23301
0.23301
0.23301
0.233009
0.233009
0.233007
0.233002
0.232994
0.232984
0.232977
0.232976
0.232984
0.232994
0.233002
0.233007
0.233009
0.23301
0.23301
0.23301
0.23301
0.23301
0.23301
0.23301
0.23301
0.23301
0.23301
0.23301
0.23301
0.23301
0.23301
0.23301
0.23301
0.23301
0.23301
0.23301
0.23301
0.233009
0.233008
0.233004
0.232993
0.232972
0.232942
0.232911
0.232893
0.232903
0.232934
0.232967
0.232991
0.233003
0.233007
0.233009
0.23301
0.23301
0.23301
0.23301
0.23301
0.23301
0.23301
0.23301
0.23301
0.23301
0.23301
0.23301
0.23301
0.23301
0.23301
0.23301
0.23301
0.23301
0.23301
0.23301
0.233009
0.233007
0.233
0.23298
0.232941
0.232878
0.232806
0.232746
0.232725
0.232761
0.23284
0.232921
0.232971
0.232996
0.233005
0.233008
0.233009
0.23301
0.23301
0.23301
0.23301
0.23301
0.23301
0.23301
0.23301
0.23301
0.23301
0.23301
0.23301
0.23301
0.23301
0.23301
0.23301
0.23301
0.23301
0.23301
0.23301
0.233009
0.233006
0.232995
0.232966
0.232904
0.232805
0.232684
0.232575
0.232511
0.232516
0.23259
0.232721
0.232861
0.232946
0.232986
0.233002
0.233007
0.233009
0.23301
0.23301
0.23301
0.23301
0.23301
0.23301
0.23301
0.23301
0.23301
0.23301
0.23301
0.23301
0.23301
0.23301
0.23301
0.23301
0.23301
0.23301
0.23301
0.23301
0.23301
0.23301
0.23301
0.233008
0.233005
0.232991
0.232951
0.232868
0.232735
0.232568
0.232408
0.232295
0.232257
0.232307
0.232435
0.23261
0.232797
0.23292
0.232976
0.232998
0.233005
0.233008
0.233009
0.23301
0.23301
0.23301
0.23301
0.23301
0.23301
0.23301
0.23301
0.23301
0.23301
0.23301
0.23301
0.23301
0.23301
0.23301
0.23301
0.23301
0.23301
0.23301
0.23301
0.23301
0.23301
0.233008
0.233004
0.232988
0.232939
0.232836
0.232675
0.232474
0.232271
0.232109
0.232017
0.232023
0.232129
0.232311
0.232529
0.232743
0.232897
0.232965
0.232993
0.233003
0.233006
0.233008
0.233009
0.23301
0.23301
0.23301
0.23301
0.23301
0.23301
0.23301
0.23301
0.23301
0.23301
0.23301
0.23301
0.23301
0.23301
0.23301
0.23301
0.23301
0.23301
0.23301
0.23301
0.23301
0.23301
0.233008
0.233004
0.232986
0.232932
0.232815
0.232627
0.232408
0.232183
0.231987
0.231845
0.231785
0.231842
0.231998
0.232222
0.232471
0.232704
0.232875
0.232952
0.232984
0.232996
0.233001
0.233005
0.233009
0.233008
0.23301
0.233009
0.23301
0.23301
0.23301
0.23301
0.23301
0.23301
0.23301
0.23301
0.23301
0.23301
0.23301
0.23301
0.23301
0.23301
0.23301
0.23301
0.23301
0.23301
0.23301
0.23301
0.233008
0.233004
0.232986
0.23293
0.232807
0.232603
0.232362
0.232139
0.231937
0.231772
0.231656
0.231637
0.231723
0.231905
0.232148
0.232415
0.232668
0.232846
0.232927
0.232961
0.232972
0.232978
0.233004
0.232992
0.233008
0.233004
0.233009
0.233008
0.23301
0.233009
0.23301
0.23301
0.23301
0.23301
0.23301
0.23301
0.23301
0.23301
0.23301
0.23301
0.23301
0.23301
0.23301
0.23301
0.23301
0.23301
0.23301
0.23301
0.233008
0.233004
0.232987
0.232931
0.232808
0.232606
0.232389
0.232186
0.231973
0.231782
0.231641
0.231568
0.231567
0.231653
0.231823
0.232051
0.232321
0.232599
0.23278
0.232852
0.232871
0.232858
0.232955
0.232848
0.23299
0.232947
0.233003
0.232987
0.233008
0.233002
0.233009
0.233008
0.233009
0.23301
0.233009
0.23301
0.23301
0.23301
0.23301
0.23301
0.23301
0.23301
0.23301
0.23301
0.23301
0.23301
0.23301
0.23301
0.23301
0.23301
0.233009
0.233005
0.232988
0.232934
0.232813
0.232621
0.232457
0.232313
0.232131
0.231904
0.231707
0.231584
0.231538
0.231537
0.231597
0.231714
0.231893
0.232148
0.23243
0.2326
0.232611
0.232553
0.232679
0.232406
0.232834
0.232618
0.232936
0.232804
0.232984
0.232925
0.233001
0.232981
0.233008
0.233001
0.233008
0.23301
0.233008
0.233009
0.23301
0.23301
0.23301
0.23301
0.23301
0.23301
0.23301
0.23301
0.23301
0.23301
0.23301
0.23301
0.23301
0.23301
0.233009
0.233005
0.232991
0.232939
0.232824
0.232653
0.232529
0.232429
0.232319
0.232184
0.231939
0.231691
0.231569
0.231531
0.231522
0.231528
0.231556
0.231651
0.231856
0.23207
0.23214
0.231978
0.232151
0.231776
0.232343
0.232024
0.232564
0.232262
0.232773
0.232506
0.232915
0.232743
0.232979
0.232907
0.233002
0.23298
0.233003
0.233009
0.233004
0.233006
0.23301
0.23301
0.23301
0.23301
0.23301
0.23301
0.23301
0.23301
0.23301
0.23301
0.23301
0.23301
0.23301
0.23301
0.233009
0.233006
0.232994
0.232947
0.23284
0.232688
0.232592
0.232521
0.232479
0.232451
0.232338
0.232052
0.231733
0.231592
0.231541
0.231506
0.231434
0.231339
0.231314
0.231401
0.231442
0.231312
0.231457
0.230986
0.23166
0.231261
0.231909
0.231517
0.232177
0.231794
0.232448
0.232086
0.232719
0.232389
0.232905
0.232703
0.232982
0.232909
0.232986
0.233008
0.232992
0.232998
0.23301
0.233009
0.23301
0.23301
0.23301
0.23301
0.23301
0.23301
0.23301
0.23301
0.23301
0.23301
0.23301
0.23301
0.233009
0.233007
0.232997
0.232956
0.232857
0.232722
0.232643
0.232595
0.232604
0.232663
0.232654
0.232485
0.232179
0.231855
0.23168
0.231578
0.231457
0.231278
0.231035
0.230842
0.230712
0.230453
0.230593
0.230185
0.230829
0.230347
0.231088
0.230627
0.231367
0.230907
0.231671
0.231212
0.231991
0.231537
0.232334
0.231889
0.232701
0.232287
0.232919
0.232716
0.232935
0.233003
0.232953
0.232972
0.233009
0.233007
0.23301
0.23301
0.23301
0.23301
0.23301
0.23301
0.23301
0.23301
0.23301
0.23301
0.23301
0.23301
0.23301
0.233008
0.232999
0.232965
0.232875
0.232752
0.232686
0.232655
0.232696
0.232802
0.23283
0.232754
0.232573
0.23234
0.232093
0.231869
0.231639
0.231357
0.231013
0.230588
0.230164
0.229706
0.229099
0.229912
0.229311
0.230136
0.229633
0.23042
0.229905
0.230717
0.2302
0.231044
0.23052
0.231393
0.230859
0.23179
0.231238
0.232261
0.231694
0.232744
0.232272
0.232788
0.232988
0.232841
0.232895
0.233009
0.233
0.23301
0.23301
0.23301
0.23301
0.23301
0.23301
0.23301
0.23301
0.23301
0.23301
0.23301
0.23301
0.23301
0.233008
0.233002
0.232974
0.232894
0.232779
0.232721
0.232704
0.232766
0.232884
0.23292
0.232893
0.23281
0.232677
0.232496
0.232284
0.232043
0.231688
0.231164
0.23059
0.229944
0.229281
0.228857
0.228626
0.228628
0.229124
0.228761
0.229376
0.228874
0.229672
0.229126
0.229971
0.229421
0.230302
0.229743
0.23066
0.230076
0.231082
0.230454
0.231624
0.23093
0.232327
0.231588
0.232433
0.232944
0.23255
0.232684
0.233007
0.232981
0.23301
0.233009
0.23301
0.23301
0.23301
0.23301
0.23301
0.23301
0.23301
0.23301
0.23301
0.23301
0.23301
0.233009
0.233004
0.232983
0.232913
0.232803
0.23275
0.232741
0.232817
0.232928
0.232963
0.232958
0.232922
0.232847
0.232719
0.232544
0.232342
0.232086
0.23166
0.230818
0.229963
0.229274
0.228912
0.228666
0.228779
0.228531
0.228618
0.228605
0.228515
0.228694
0.228491
0.228898
0.228563
0.229182
0.228733
0.229501
0.228981
0.229847
0.229293
0.230259
0.229644
0.230817
0.23009
0.2316
0.230744
0.231709
0.232817
0.231904
0.232197
0.233002
0.232921
0.23301
0.233009
0.23301
0.23301
0.23301
0.23301
0.23301
0.23301
0.23301
0.23301
0.23301
0.23301
0.23301
0.233009
0.233006
0.23299
0.232932
0.232826
0.232774
0.23277
0.232851
0.232953
0.232984
0.232987
0.232972
0.232932
0.232852
0.232698
0.232489
0.232278
0.232007
0.231426
0.230224
0.229362
0.229082
0.228942
0.229122
0.228826
0.22913
0.228651
0.228984
0.228451
0.228492
0.228424
0.228413
0.228482
0.228387
0.228638
0.22846
0.228871
0.228605
0.229164
0.228838
0.229516
0.22913
0.229991
0.229489
0.230738
0.229974
0.230825
0.23249
0.231023
0.231371
0.232983
0.232751
0.23301
0.233002
0.23301
0.23301
0.23301
0.23301
0.23301
0.23301
0.23301
0.23301
0.23301
0.23301
0.23301
0.23301
0.233007
0.232995
0.232949
0.23285
0.232794
0.232791
0.232872
0.232964
0.232993
0.232999
0.232994
0.232975
0.232929
0.232793
0.232516
0.232238
0.232017
0.23169
0.23087
0.229629
0.22925
0.229639
0.229413
0.229766
0.229401
0.229807
0.229202
0.229729
0.228496
0.228742
0.228408
0.228554
0.228391
0.228448
0.228473
0.228447
0.228638
0.228526
0.228871
0.228708
0.229167
0.228962
0.229524
0.229262
0.230032
0.229604
0.230146
0.23185
0.230343
0.230661
0.23291
0.232362
0.232991
0.232889
0.23301
0.23301
0.23301
0.23301
0.23301
0.23301
0.23301
0.23301
0.23301
0.23301
0.23301
0.233008
0.233
0.232966
0.232875
0.232812
0.232806
0.232881
0.232969
0.232996
0.233002
0.233002
0.232995
0.232972
0.232882
0.232583
0.232155
0.231845
0.231668
0.231171
0.230139
0.229509
0.229724
0.230526
0.230584
0.230151
0.230395
0.230236
0.230657
0.230076
0.23067
0.228904
0.229458
0.228667
0.22912
0.228553
0.228851
0.228557
0.228725
0.228636
0.228716
0.22882
0.228802
0.22908
0.228981
0.229377
0.229243
0.229715
0.229509
0.22984
0.231111
0.229996
0.230218
0.232528
0.231538
0.232613
0.23208
0.23301
0.23301
0.23301
0.23301
0.23301
0.23301
0.23301
0.23301
0.23301
0.23301
0.233009
0.233004
0.23298
0.232902
0.232827
0.232817
0.232886
0.23297
0.232997
0.233004
0.233005
0.233003
0.232993
0.232947
0.232742
0.232193
0.231663
0.231387
0.231163
0.23045
0.229835
0.229789
0.230568
0.230502
0.231188
0.231171
0.230958
0.231129
0.231163
0.231512
0.231087
0.231638
0.229746
0.23043
0.22939
0.230062
0.229109
0.229705
0.228968
0.22944
0.228935
0.229278
0.229021
0.229227
0.229208
0.229297
0.229443
0.229482
0.229652
0.229645
0.229778
0.230489
0.229892
0.229995
0.230141
0.231463
0.230639
0.2327
0.231691
0.23301
0.23301
0.23301
0.23301
0.23301
0.23301
0.23301
0.23301
0.23301
0.23301
0.233006
0.232991
0.232929
0.232842
0.232826
0.232885
0.232969
0.232996
0.233004
0.233006
0.233005
0.233001
0.232984
0.232881
0.232463
0.231706
0.231207
0.230944
0.230509
0.230072
0.229936
0.230666
0.231113
0.231081
0.231766
0.231709
0.231712
0.231781
0.232023
0.232244
0.231985
0.232303
0.230791
0.231467
0.230418
0.231138
0.230077
0.230777
0.229835
0.230483
0.229666
0.230275
0.229598
0.230118
0.229647
0.22999
0.229772
0.230028
0.229838
0.230008
0.229881
0.229874
0.229955
0.230058
0.230294
0.230102
0.229951
0.23002
0.229998
0.229984
0.230784
0.230129
0.230171
0.230402
0.232835
0.231809
0.23301
0.23301
0.23301
0.23301
0.23301
0.23301
0.23301
0.23301
0.23301
0.233008
0.232997
0.232953
0.232862
0.232832
0.232881
0.232963
0.232994
0.233003
0.233006
0.233007
0.233004
0.232999
0.232958
0.232761
0.232135
0.231339
0.23091
0.230563
0.230239
0.2301
0.230647
0.231465
0.231396
0.231619
0.231533
0.23227
0.232192
0.23233
0.232322
0.232498
0.232615
0.232321
0.232486
0.2317
0.232078
0.23134
0.23171
0.231007
0.231342
0.23077
0.23106
0.230646
0.230904
0.230545
0.230893
0.230426
0.230505
0.230754
0.230143
0.230317
0.230705
0.2305
0.230135
0.230072
0.23024
0.230294
0.230133
0.230008
0.230015
0.230017
0.230158
0.230161
0.230013
0.23022
0.230868
0.230414
0.23002
0.230035
0.232913
0.230829
0.231524
0.232236
0.23301
0.23301
0.23301
0.23301
0.23301
0.23301
0.23301
0.23301
0.233009
0.233002
0.232973
0.232889
0.232838
0.232869
0.232946
0.232985
0.232999
0.233005
0.233007
0.233007
0.233003
0.232992
0.232915
0.232639
0.232002
0.231185
0.230737
0.230435
0.230307
0.230747
0.231727
0.232007
0.232016
0.232113
0.232045
0.232685
0.232643
0.232679
0.2327
0.232605
0.232698
0.232267
0.232346
0.231982
0.232159
0.231567
0.231648
0.231177
0.231077
0.230908
0.230622
0.230881
0.230445
0.230896
0.230921
0.230844
0.230592
0.230881
0.230978
0.230924
0.230962
0.230468
0.230669
0.230999
0.230854
0.230419
0.230308
0.230514
0.230606
0.230354
0.230001
0.229979
0.230129
0.230364
0.230339
0.230085
0.23011
0.230344
0.229962
0.229965
0.232334
0.232998
0.232903
0.230826
0.231576
0.23301
0.23301
0.23301
0.23301
0.23301
0.23301
0.23301
0.23301
0.233006
0.232988
0.23292
0.232846
0.232854
0.23292
0.232962
0.232989
0.233001
0.233006
0.233008
0.233007
0.233002
0.23298
0.232882
0.232597
0.231987
0.231253
0.230844
0.230714
0.231103
0.23203
0.232614
0.232688
0.232556
0.232578
0.232599
0.232566
0.232865
0.232879
0.232771
0.232829
0.232453
0.23259
0.23154
0.231618
0.231605
0.231547
0.230788
0.23044
0.230084
0.22941
0.229612
0.22868
0.230231
0.229734
0.229221
0.228636
0.230926
0.230738
0.230393
0.229909
0.231027
0.230956
0.230985
0.230852
0.230802
0.23098
0.231048
0.231061
0.230717
0.230575
0.230799
0.230914
0.230604
0.230035
0.229981
0.230281
0.230595
0.230549
0.2302
0.230049
0.230313
0.229937
0.229935
0.232449
0.233006
0.232953
0.230851
0.231671
0.23301
0.23301
0.23301
0.23301
0.23301
0.23301
0.23301
0.233008
0.232997
0.232949
0.232863
0.232845
0.232891
0.232931
0.232966
0.232991
0.233002
0.233007
0.233008
0.233006
0.233
0.232973
0.232872
0.232595
0.232125
0.231727
0.231589
0.231915
0.232478
0.232874
0.232911
0.232938
0.232878
0.232891
0.232878
0.232875
0.2329
0.23294
0.232725
0.232831
0.23182
0.232106
0.2301
0.230276
0.230167
0.230055
0.228812
0.228355
0.227858
0.227166
0.228134
0.227601
0.227222
0.226825
0.229334
0.228722
0.228122
0.227567
0.230573
0.230127
0.229556
0.228915
0.23091
0.230751
0.230635
0.230377
0.231068
0.231107
0.230863
0.231046
0.231002
0.230848
0.231063
0.231126
0.230861
0.230107
0.230014
0.230463
0.230837
0.23077
0.230347
0.23002
0.23031
0.229941
0.229923
0.232596
0.233009
0.232989
0.230909
0.231828
0.23301
0.23301
0.23301
0.23301
0.23301
0.23301
0.233009
0.233001
0.232972
0.23289
0.232843
0.232863
0.2329
0.232931
0.232967
0.232992
0.233005
0.233008
0.233008
0.233005
0.232999
0.232971
0.232877
0.232685
0.232499
0.232451
0.232573
0.232796
0.232954
0.232997
0.233
0.232992
0.232998
0.23298
0.232986
0.232963
0.232974
0.232838
0.232933
0.232407
0.232663
0.230654
0.23116
0.228287
0.228606
0.228139
0.228144
0.226823
0.226752
0.226136
0.226024
0.227082
0.226676
0.226352
0.226136
0.228265
0.22765
0.227099
0.226631
0.229844
0.229201
0.22852
0.227852
0.230518
0.230175
0.229974
0.22956
0.23114
0.231044
0.230405
0.230818
0.231169
0.231096
0.2312
0.231168
0.231099
0.230214
0.230078
0.230658
0.231065
0.230985
0.230511
0.230008
0.230319
0.229964
0.229923
0.232765
0.23301
0.233003
0.230998
0.232068
0.23301
0.23301
0.23301
0.23301
0.23301
0.23301
0.233006
0.232989
0.232923
0.232847
0.232842
0.232869
0.232893
0.232921
0.232968
0.232995
0.233006
0.233008
0.233008
0.233005
0.233
0.232976
0.232921
0.232869
0.23285
0.232883
0.232947
0.232992
0.233008
0.233009
0.233009
0.233007
0.233008
0.233
0.233005
0.232975
0.232992
0.232593
0.23283
0.231708
0.23221
0.229149
0.229862
0.22726
0.227582
0.226844
0.227012
0.226113
0.226322
0.225674
0.225697
0.22587
0.22576
0.226256
0.22597
0.225777
0.225689
0.227239
0.226707
0.226269
0.22593
0.228869
0.22816
0.22749
0.226889
0.229793
0.229296
0.229061
0.228564
0.231041
0.230786
0.229641
0.230308
0.231193
0.23122
0.231218
0.231054
0.231227
0.230341
0.230165
0.23085
0.23121
0.231156
0.230681
0.230001
0.230333
0.230007
0.229931
0.232878
0.23301
0.233008
0.231125
0.232313
0.23301
0.23301
0.23301
0.23301
0.23301
0.233008
0.232997
0.232953
0.232865
0.232834
0.23284
0.232855
0.23287
0.232916
0.232971
0.232999
0.233007
0.233009
0.233008
0.233006
0.233002
0.232991
0.23298
0.232974
0.232981
0.232995
0.233006
0.233009
0.23301
0.23301
0.23301
0.23301
0.233009
0.23301
0.233001
0.233007
0.232944
0.232988
0.232124
0.232591
0.230662
0.231454
0.228025
0.228656
0.227055
0.227334
0.226554
0.226804
0.225985
0.226141
0.22649
0.225575
0.225656
0.225935
0.225774
0.225691
0.225559
0.225509
0.225519
0.226382
0.22598
0.225682
0.225494
0.227843
0.227176
0.226595
0.226117
0.228868
0.228299
0.228077
0.227567
0.230761
0.23024
0.228716
0.229526
0.231079
0.231242
0.231117
0.230766
0.231257
0.230478
0.230261
0.231032
0.231254
0.231233
0.230843
0.229996
0.230353
0.23006
0.229941
0.232952
0.23301
0.233009
0.231273
0.232543
0.23301
0.23301
0.23301
0.23301
0.233009
0.233001
0.232978
0.232899
0.232835
0.232821
0.232821
0.232822
0.232851
0.232916
0.232978
0.233002
0.233009
0.233009
0.233009
0.233007
0.233005
0.233004
0.233003
0.233005
0.233007
0.233009
0.23301
0.23301
0.23301
0.23301
0.23301
0.23301
0.233009
0.23301
0.232996
0.233005
0.232849
0.232959
0.231447
0.232196
0.229517
0.230504
0.227683
0.22816
0.227369
0.227534
0.22686
0.227163
0.226129
0.226336
0.22698
0.227317
0.225575
0.225715
0.226132
0.225901
0.225409
0.225391
0.225416
0.225481
0.22575
0.225495
0.225357
0.225302
0.22691
0.226349
0.225902
0.225571
0.227899
0.227336
0.227149
0.226685
0.23021
0.229458
0.227763
0.228608
0.230805
0.231167
0.230876
0.230233
0.231219
0.230612
0.230357
0.231158
0.231251
0.231247
0.230985
0.229993
0.230385
0.230112
0.229953
0.232984
0.23301
0.23301
0.231466
0.232703
0.23301
0.23301
0.23301
0.23301
0.233006
0.232992
0.232934
0.232845
0.232815
0.232795
0.23278
0.232788
0.232844
0.232924
0.232986
0.233005
0.233009
0.23301
0.233009
0.233009
0.233008
0.233008
0.233009
0.233009
0.23301
0.23301
0.23301
0.23301
0.23301
0.23301
0.23301
0.23301
0.23301
0.233007
0.233009
0.232979
0.233002
0.232671
0.232899
0.230729
0.231697
0.228832
0.229712
0.227758
0.228121
0.228267
0.22824
0.227542
0.227762
0.228201
0.226402
0.226695
0.227491
0.227852
0.225646
0.225838
0.226374
0.22608
0.225299
0.225335
0.225402
0.225499
0.225358
0.225256
0.225224
0.22523
0.226146
0.225727
0.225432
0.225258
0.227
0.226501
0.226354
0.225978
0.229447
0.228555
0.226886
0.22767
0.230312
0.230985
0.23045
0.229511
0.231106
0.230729
0.230442
0.231206
0.231205
0.231232
0.231078
0.229993
0.230435
0.230156
0.229962
0.232996
0.23301
0.23301
0.231668
0.232792
0.23301
0.23301
0.23301
0.233008
0.232998
0.232965
0.232875
0.232816
0.232784
0.232749
0.232735
0.232767
0.232844
0.232942
0.232995
0.233008
0.23301
0.23301
0.23301
0.23301
0.23301
0.23301
0.23301
0.23301
0.23301
0.23301
0.23301
0.23301
0.23301
0.23301
0.23301
0.23301
0.23301
0.233006
0.233009
0.232952
0.232995
0.232415
0.232806
0.230364
0.231346
0.228674
0.229434
0.228287
0.228485
0.229098
0.229053
0.229154
0.228157
0.228327
0.229143
0.229115
0.226719
0.227099
0.227998
0.228438
0.225744
0.225972
0.226617
0.22626
0.225264
0.225329
0.225425
0.225566
0.225184
0.225164
0.22517
0.225204
0.225587
0.225322
0.225184
0.225128
0.226234
0.225843
0.225731
0.225474
0.228569
0.227631
0.226138
0.226806
0.229658
0.230662
0.229914
0.228678
0.230896
0.230823
0.230505
0.231205
0.23109
0.231185
0.231111
0.229994
0.230495
0.23019
0.229968
0.233
0.23301
0.233009
0.231821
0.232829
0.23301
0.23301
0.233009
0.233002
0.232986
0.232917
0.232826
0.232784
0.232736
0.232695
0.232698
0.232759
0.232854
0.232962
0.233002
0.233009
0.23301
0.23301
0.23301
0.23301
0.23301
0.23301
0.23301
0.23301
0.23301
0.23301
0.23301
0.23301
0.23301
0.23301
0.23301
0.23301
0.233009
0.23301
0.233004
0.233008
0.232926
0.232989
0.23219
0.232715
0.230377
0.231303
0.228902
0.229545
0.229113
0.229193
0.229595
0.229479
0.229912
0.229853
0.228782
0.229012
0.229674
0.229685
0.227042
0.227517
0.228504
0.229022
0.225826
0.22608
0.22682
0.226406
0.225265
0.225354
0.225473
0.225627
0.225114
0.225118
0.225151
0.225209
0.225235
0.225125
0.225082
0.225069
0.225634
0.225377
0.225286
0.225168
0.227664
0.226773
0.225542
0.226064
0.228915
0.230255
0.229292
0.227819
0.230606
0.230881
0.230556
0.231183
0.230909
0.231083
0.231092
0.229995
0.230541
0.230222
0.22997
0.232997
0.23301
0.233005
0.231887
0.232825
0.23301
0.23301
0.233007
0.232995
0.232953
0.232856
0.232789
0.232736
0.232676
0.232646
0.232677
0.232759
0.232882
0.232981
0.233006
0.23301
0.23301
0.23301
0.23301
0.23301
0.23301
0.23301
0.23301
0.23301
0.23301
0.23301
0.23301
0.23301
0.23301
0.23301
0.23301
0.23301
0.233009
0.23301
0.233003
0.233008
0.23292
0.232987
0.23215
0.232698
0.23075
0.231543
0.229511
0.230045
0.229839
0.229875
0.230182
0.230113
0.230013
0.230425
0.230355
0.229401
0.229619
0.230195
0.230212
0.227331
0.22792
0.228958
0.229567
0.225919
0.226201
0.227021
0.226563
0.225288
0.225393
0.225528
0.225699
0.225073
0.225107
0.22516
0.225232
0.225074
0.225039
0.225025
0.225035
0.225211
0.225105
0.225052
0.225028
0.226818
0.226034
0.225161
0.225469
0.228132
0.229741
0.228589
0.227014
0.230203
0.230911
0.230592
0.231113
0.230599
0.230878
0.23105
0.229992
0.230547
0.230244
0.229968
0.232976
0.233008
0.232969
0.231891
0.232755
0.23301
0.233009
0.232999
0.232979
0.232902
0.232804
0.232741
0.232675
0.232615
0.232609
0.23267
0.232778
0.232921
0.232996
0.233008
0.23301
0.23301
0.23301
0.23301
0.23301
0.23301
0.23301
0.23301
0.23301
0.23301
0.23301
0.23301
0.23301
0.23301
0.23301
0.23301
0.23301
0.233009
0.23301
0.233004
0.233008
0.232932
0.232989
0.232287
0.232751
0.231414
0.232025
0.230426
0.230853
0.230314
0.230286
0.231176
0.231037
0.230611
0.230517
0.230987
0.230953
0.229983
0.230171
0.230686
0.230702
0.227592
0.228259
0.229349
0.230023
0.226015
0.226323
0.227227
0.22672
0.225325
0.225442
0.225589
0.225776
0.225073
0.225123
0.225188
0.22527
0.224999
0.224992
0.225003
0.225044
0.225014
0.224987
0.22496
0.224963
0.226101
0.225465
0.224991
0.225147
0.227372
0.229127
0.227874
0.226317
0.229697
0.230898
0.230605
0.231012
0.230238
0.230665
0.230986
0.229975
0.230512
0.230246
0.229954
0.232853
0.23296
0.232819
0.231756
0.232508
0.233009
0.233005
0.232992
0.232944
0.232842
0.232753
0.232679
0.232608
0.232564
0.23259
0.232676
0.232816
0.23296
0.233004
0.233009
0.23301
0.23301
0.23301
0.23301
0.23301
0.23301
0.23301
0.23301
0.23301
0.23301
0.23301
0.23301
0.23301
0.23301
0.23301
0.23301
0.23301
0.23301
0.233009
0.23301
0.233005
0.233008
0.23296
0.232994
0.232571
0.232853
0.232185
0.232574
0.231556
0.231803
0.230945
0.230963
0.231549
0.23153
0.231114
0.231051
0.231544
0.231525
0.230496
0.230668
0.231154
0.231152
0.227859
0.22859
0.229729
0.230433
0.22611
0.226442
0.227424
0.226871
0.225371
0.225497
0.225654
0.225854
0.225092
0.225154
0.225227
0.225315
0.224957
0.22498
0.225022
0.225069
0.22494
0.22493
0.224903
0.22493
0.225554
0.225168
0.224925
0.224977
0.226685
0.228488
0.227194
0.225717
0.229206
0.23086
0.230598
0.230881
0.229896
0.230403
0.230897
0.229935
0.23034
0.230238
0.229924
0.232481
0.231606
0.231408
0.231138
0.231253
0.233008
0.232998
0.232973
0.232892
0.232782
0.232691
0.232611
0.232544
0.232528
0.232586
0.232704
0.23287
0.232988
0.233008
0.23301
0.23301
0.23301
0.23301
0.23301
0.23301
0.23301
0.23301
0.23301
0.23301
0.23301
0.23301
0.23301
0.23301
0.23301
0.23301
0.23301
0.23301
0.23301
0.233009
0.23301
0.233006
0.233008
0.232985
0.233001
0.232837
0.232944
0.232756
0.232893
0.232304
0.232426
0.232645
0.231518
0.231517
0.232227
0.232168
0.23159
0.231572
0.232056
0.232071
0.230911
0.231101
0.231587
0.231567
0.228117
0.228913
0.230089
0.230821
0.226199
0.226552
0.227603
0.22701
0.225422
0.225553
0.225719
0.225929
0.225128
0.225196
0.225274
0.225366
0.224955
0.225003
0.225053
0.22511
0.224873
0.224899
0.224867
0.224923
0.225217
0.224987
0.224857
0.224925
0.225962
0.227867
0.226311
0.225331
0.22863
0.23078
0.230546
0.230692
0.229349
0.229961
0.230757
0.229837
0.229883
0.230211
0.229831
0.230481
0.22951
0.229576
0.229963
0.229696
0.233003
0.23299
0.232937
0.232832
0.232719
0.232622
0.232543
0.232492
0.232513
0.232601
0.232755
0.232932
0.233001
0.233009
0.23301
0.23301
0.23301
0.23301
0.23301
0.23301
0.23301
0.23301
0.23301
0.23301
0.23301
0.23301
0.23301
0.23301
0.23301
0.23301
0.23301
0.23301
0.23301
0.23301
0.23301
0.233007
0.233009
0.233
0.233005
0.232959
0.232988
0.232964
0.232983
0.232599
0.232625
0.23293
0.232892
0.232095
0.232127
0.232582
0.232562
0.232025
0.232042
0.232455
0.23248
0.231294
0.231492
0.231998
0.23195
0.228353
0.229213
0.230415
0.231179
0.226274
0.226645
0.227751
0.227126
0.225475
0.225609
0.225778
0.225995
0.225175
0.225247
0.225328
0.225421
0.224976
0.225037
0.225099
0.225163
0.224849
0.224891
0.224866
0.224934
0.225043
0.224948
0.224807
0.22483
0.225474
0.226815
0.225676
0.225121
0.227539
0.230636
0.230398
0.230341
0.228437
0.229227
0.230443
0.229602
0.22938
0.230031
0.22964
0.229054
0.228688
0.22848
0.22914
0.228764
0.232996
0.232971
0.232886
0.232766
0.232648
0.232551
0.232481
0.232459
0.232514
0.232641
0.232824
0.232979
0.233007
0.23301
0.23301
0.23301
0.23301
0.23301
0.23301
0.23301
0.23301
0.23301
0.23301
0.23301
0.23301
0.23301
0.23301
0.23301
0.23301
0.23301
0.23301
0.23301
0.23301
0.23301
0.23301
0.23301
0.233009
0.233009
0.233006
0.233008
0.232997
0.233003
0.232962
0.232998
0.233002
0.233005
0.23287
0.232877
0.232964
0.232507
0.232536
0.23286
0.232844
0.232395
0.232425
0.232749
0.232776
0.231646
0.231853
0.23235
0.232289
0.228551
0.22948
0.230691
0.231508
0.226323
0.226696
0.227836
0.227191
0.225529
0.225663
0.225828
0.226043
0.22523
0.225304
0.22538
0.225469
0.225007
0.225078
0.225142
0.225209
0.224811
0.224913
0.224844
0.224986
0.224999
0.224833
0.224803
0.2248
0.225229
0.226097
0.225453
0.225079
0.226646
0.230321
0.230032
0.229629
0.227295
0.227992
0.229707
0.229247
0.228911
0.229654
0.229183
0.228295
0.228248
0.227957
0.228567
0.2282
0.232988
0.232935
0.232826
0.232694
0.232572
0.232484
0.232431
0.232448
0.232539
0.232705
0.232906
0.232999
0.233009
0.23301
0.23301
0.23301
0.23301
0.23301
0.23301
0.23301
0.23301
0.23301
0.23301
0.23301
0.23301
0.23301
0.23301
0.23301
0.23301
0.23301
0.23301
0.23301
0.23301
0.23301
0.23301
0.23301
0.23301
0.23301
0.233009
0.233009
0.233007
0.233008
0.232997
0.233004
0.233005
0.233008
0.233008
0.232962
0.232964
0.232995
0.232805
0.232826
0.232957
0.232947
0.232678
0.232711
0.232896
0.23291
0.231963
0.232176
0.232625
0.23256
0.22866
0.229657
0.230843
0.231789
0.226346
0.226709
0.227858
0.227208
0.225576
0.225714
0.225877
0.226074
0.225275
0.225347
0.225423
0.225508
0.225031
0.225076
0.225184
0.225237
0.224794
0.224882
0.224815
0.224922
0.224944
0.224842
0.224782
0.224771
0.225288
0.225793
0.225567
0.22518
0.226253
0.22961
0.22943
0.228451
0.226769
0.227276
0.22872
0.228816
0.228483