/*--------------------------------*- C++ -*----------------------------------*\
  =========                 |
  \\      /  F ield         | OpenFOAM: The Open Source CFD Toolbox
   \\    /   O peration     | Website:  https://openfoam.org
    \\  /    A nd           | Version:  dev
     \\/     M anipulation  |
\*---------------------------------------------------------------------------*/
FoamFile
{
    version     2.0;
    format      ascii;
    class       volScalarField;
    location    "2500";
    object      omega;
}
// * * * * * * * * * * * * * * * * * * * * * * * * * * * * * * * * * * * * * //

dimensions      [0 0 -1 0 0 0 0];

internalField   nonuniform List<scalar> 
9846
(
1.17792
1.19284
1.13675
1.14339
1.23878
1.04645
1.07188
1.2533
1.1694
1.00852
1.03076
1.23664
1.22797
1.05382
0.993791
1.00895
1.19032
1.24689
1.14133
0.999975
0.986808
0.990525
1.12385
1.24535
1.20281
1.03118
0.972795
0.985954
0.97586
1.06603
1.23292
1.22817
1.10202
0.977814
0.957865
0.9857
0.965601
1.02828
1.20595
1.23359
1.16467
1.00315
0.948908
0.953369
0.985573
0.958868
0.998698
1.16621
1.23633
1.20046
1.06057
0.953714
0.931492
0.952477
0.985541
0.954402
0.975063
1.12079
1.23405
1.21579
1.11861
0.974177
0.926992
0.924537
0.952465
0.985666
0.951702
0.957579
1.07383
1.22584
1.22562
1.15836
1.02021
0.931181
0.909791
0.922239
0.952842
0.98598
0.949829
0.942908
1.03373
1.20854
1.23241
1.18566
1.06805
0.947238
0.907642
0.901231
0.921668
0.953633
0.986394
0.947969
0.930813
1.0056
1.18496
1.23738
1.20414
1.10801
0.981538
0.910989
0.891707
0.897514
0.922049
0.95461
0.986913
0.946696
0.922101
0.983088
1.15533
1.23829
1.21653
1.13956
1.0205
0.923023
0.890701
0.882662
0.896164
0.923083
0.95572
0.987564
0.946496
0.916677
0.965809
1.12383
1.237
1.22501
1.16181
1.05759
0.947955
0.893361
0.876753
0.878161
0.896238
0.924521
0.957042
0.988296
0.949007
0.913852
0.954029
1.09464
1.23234
1.23188
1.17926
1.08873
0.978121
0.902631
0.876403
0.868084
0.876281
0.897285
0.926182
0.95854
0.98916
0.958913
0.913282
0.947115
1.07158
1.222
1.23959
1.19493
1.11347
1.0102
0.920441
0.878674
0.86465
0.863384
0.876089
0.898897
0.928077
0.960322
0.990131
0.986083
0.91501
0.944013
1.0557
1.21012
1.24643
1.20829
1.13321
1.04083
0.943002
0.886017
0.864706
0.85695
0.861368
0.87706
0.900935
0.930309
0.962399
0.991156
0.947715
0.919486
0.944058
1.04615
1.19807
1.25209
1.219
1.14907
1.06791
0.969761
0.898398
0.866848
0.855301
0.852596
0.861195
0.8789
0.903425
0.932922
0.964724
0.992198
0.927379
0.926628
0.945053
1.04156
1.18705
1.25701
1.22867
1.16213
1.09056
0.999059
0.915603
0.872843
0.855778
0.849216
0.850815
0.86232
0.881494
0.906344
0.93581
0.967327
0.993174
0.985103
0.936539
0.946563
1.04049
1.17956
1.26164
1.23892
1.1756
1.10942
1.02853
0.938687
0.883088
0.858498
0.849057
0.846214
0.851075
0.864534
0.884801
0.909583
0.938981
0.970073
0.994063
0.942749
0.963099
0.952235
1.0421
1.17565
1.26518
1.25101
1.18979
1.12602
1.05657
0.967109
0.898719
0.865352
0.850675
0.845718
0.845996
0.852803
0.867831
0.888613
0.913193
0.942318
0.972933
0.994765
0.93792
0.936826
0.960305
1.04816
1.17509
1.26913
1.26418
1.20372
1.14124
1.08252
0.999425
0.920942
0.877152
0.856063
0.847189
0.84561
0.847833
0.856067
0.871912
0.892786
0.917096
0.945781
0.975674
0.994985
0.93907
0.941467
0.967403
1.0587
1.17832
1.27528
1.27816
1.21839
1.15571
1.10622
1.03393
0.950102
0.895347
0.867363
0.852745
0.84751
0.847805
0.851782
0.86074
0.876575
0.897187
0.92113
0.949322
0.97816
0.994968
0.932743
0.953338
0.986691
1.07011
1.18481
1.28452
1.29327
1.23477
1.17085
1.12808
1.06901
0.985683
0.92178
0.885715
0.865537
0.85425
0.850572
0.852364
0.85783
0.866683
0.881599
0.901459
0.92498
0.952802
0.980252
0.994738
0.932343
0.965312
1.01189
1.08886
1.19367
1.29656
1.30986
1.25374
1.18726
1.14886
1.1037
1.02622
0.957484
0.913547
0.886551
0.86974
0.85971
0.856828
0.859298
0.86544
0.873923
0.88682
0.905214
0.928281
0.955891
0.981934
0.994351
0.934477
0.975224
1.03424
1.11238
1.20625
1.31064
1.32839
1.27561
1.20564
1.17008
1.13728
1.07123
1.00334
0.952809
0.919004
0.896116
0.880484
0.869758
0.866066
0.868077
0.87408
0.881996
0.892399
0.908263
0.930479
0.958293
0.983114
0.993944
0.937579
0.984213
1.05342
1.1358
1.22241
1.32667
1.34928
1.30042
1.22614
1.19173
1.17084
1.12089
1.05844
1.00564
0.967795
0.939023
0.916351
0.89806
0.883993
0.877939
0.878511
0.883329
0.890275
0.898211
0.910814
0.931432
0.959573
0.983408
0.993533
0.94056
0.994234
1.07001
1.15691
1.23999
1.34401
1.37289
1.32813
1.24891
1.21378
1.20373
1.17233
1.1219
1.0758
1.04109
1.00954
0.97755
0.947768
0.921875
0.902476
0.892438
0.890175
0.89272
0.897899
0.903516
0.912856
0.931813
0.960374
0.983306
0.993159
0.944902
1.00515
1.08549
1.1751
1.25623
1.36117
1.39927
1.35863
1.27446
1.23666
1.23558
1.22499
1.19555
1.17179
1.15991
1.14085
1.10586
1.05582
1.00323
0.958474
0.927064
0.909705
0.902678
0.901842
0.904143
0.907372
0.913677
0.931442
0.9606
0.98303
0.992889
0.948022
1.01685
1.10041
1.19078
1.26971
1.37657
1.42778
1.39169
1.30332
1.26092
1.26664
1.27988
1.28437
1.31057
1.36654
1.41455
1.40802
1.33695
1.2186
1.10038
1.01333
0.959331
0.930099
0.916294
0.910726
0.90934
0.910077
0.91385
0.93051
0.96035
0.982726
0.992749
0.9498
1.02503
1.11437
1.20428
1.28009
1.38887
1.45702
1.42657
1.33575
1.2869
1.297
1.3371
1.39181
1.50796
1.7051
1.93001
2.08475
2.08743
1.87296
1.55764
1.28375
1.09646
0.998114
0.951932
0.929644
0.918462
0.91322
0.911952
0.914402
0.930244
0.960019
0.982426
0.992371
0.951974
1.03104
1.12576
1.21516
1.28745
1.39707
1.48504
1.46263
1.37187
1.31454
1.32618
1.39489
1.51448
1.75752
2.15597
2.63335
3.04828
3.28353
3.24898
2.86323
2.21534
1.59722
1.23078
1.05032
0.976333
0.942141
0.924401
0.91552
0.913614
0.916261
0.932238
0.960453
0.980226
0.996074
0.989442
0.955615
1.03906
1.13519
1.22304
1.29171
1.40073
1.51008
1.49923
1.41129
1.34397
1.3538
1.45014
1.64219
2.02941
2.64674
3.35573
3.95725
4.30018
4.39046
4.24832
3.82815
3.05325
2.07959
1.42398
1.13108
1.00772
0.955726
0.929781
0.918067
0.916375
0.92089
0.938547
0.964659
0.982776
0.976475
0.996312
0.989541
0.957313
1.04842
1.14394
1.22824
1.29279
1.40044
1.53032
1.53526
1.45344
1.37515
1.37986
1.49998
1.76417
2.2904
3.09519
3.96899
4.55655
4.8465
4.97162
4.9716
4.82981
4.44854
3.72681
2.65313
1.67998
1.23381
1.0503
0.974107
0.938092
0.923713
0.921903
0.930241
0.952793
0.946758
0.970922
0.956792
0.968145
0.982549
0.976813
0.996587
0.989579
0.959365
1.0533
1.15213
1.23148
1.29145
1.39651
1.54374
1.56966
1.49778
1.40806
1.404
1.54143
1.86996
2.51575
3.47354
4.35895
4.81335
5.04341
5.16732
5.23512
5.2574
5.17668
4.87515
4.22316
3.1974
2.00427
1.3745
1.11832
1.00795
0.958217
0.937535
0.933851
0.942079
0.941126
0.953157
0.973817
0.967005
0.973904
0.982587
0.978178
0.996924
0.989737
0.961199
1.0547
1.15829
1.23315
1.28689
1.3876
1.54826
1.60171
1.54338
1.44288
1.42667
1.57143
1.9506
2.68432
3.72934
4.52575
4.88158
5.0356
5.14643
5.226
5.30998
5.39556
5.40819
5.21093
4.65245
3.70734
2.45742
1.59999
1.25088
1.09306
1.0177
0.974307
0.942212
0.949619
0.952136
0.953453
0.967413
0.977581
0.975488
0.979146
0.983132
0.980415
0.997351
0.990187
0.963165
1.05512
1.16157
1.2334
1.2805
1.37461
1.54491
1.63097
1.58828
1.48002
1.44931
1.58923
2.00109
2.79527
3.86802
4.54117
4.83173
4.96503
5.01914
5.05761
5.17428
5.33953
5.48291
5.58
5.4947
5.04894
4.21294
3.07409
2.05094
1.58017
1.37392
1.23055
0.975941
1.06506
0.959974
0.984947
0.969644
0.97771
0.980098
0.980981
0.984645
0.985106
0.984311
0.982946
0.997932
0.991036
0.965464
1.05482
1.16243
1.23256
1.27306
1.35852
1.53197
1.65578
1.6305
1.52112
1.47382
1.59757
2.0204
2.85047
3.90229
4.48057
4.72154
4.79073
4.70643
4.6531
4.77941
5.02656
5.34117
5.56445
5.70728
5.71884
5.42196
4.7903
3.97746
3.15683
2.6429
2.42529
1.32787
2.11218
1.07182
1.35748
1.00493
1.0982
0.991282
1.02245
0.998095
0.984732
0.997709
0.993534
0.986058
0.985888
0.998733
0.992271
0.968291
1.05366
1.16185
1.23079
1.2653
1.34055
1.51158
1.67314
1.66978
1.56711
1.50084
1.60127
2.01779
2.85273
3.86786
4.35548
4.55458
4.53125
4.35016
4.35839
4.46507
4.66974
4.95621
5.29975
5.6037
5.77487
5.85306
5.7635
5.48649
5.21788
5.16831
5.40932
3.86782
5.97802
2.18955
4.24622
1.40876
2.31702
1.12339
1.45737
1.03257
1.13787
1.0323
0.990135
1.02261
1.0101
0.988665
0.989901
0.999646
0.994116
0.9722
1.05116
1.15942
1.22876
1.25784
1.32157
1.48594
1.68045
1.70582
1.61674
1.53106
1.60165
2.00448
2.83335
3.8004
4.21763
4.37146
4.27963
4.03609
4.12848
4.2787
4.44036
4.66568
4.95162
5.2723
5.60203
5.83253
5.99293
6.19266
6.42646
6.86668
7.54776
7.16169
8.28885
6.34938
7.65588
4.52358
6.63011
2.43377
4.76859
1.48707
2.51456
1.13766
1.48351
1.11814
1.00085
1.08569
1.05214
0.992693
0.997124
1.00052
0.997242
0.977147
1.04733
1.15548
1.2263
1.25064
1.30219
1.45656
1.67664
1.73737
1.66848
1.56514
1.60087
1.97509
2.78554
3.72242
4.09287
4.20154
4.056
3.7603
3.84368
4.09996
4.31844
4.56925
4.85477
5.14048
5.41864
5.68398
5.9535
6.32812
6.956
7.71488
8.60091
8.724
9.28429
8.54505
9.06314
7.95445
8.78542
6.90417
8.23402
4.96514
7.16655
2.53068
5.07917
1.44365
2.45781
1.36632
1.02653
1.26835
1.17199
0.998342
1.01233
1.0013
1.00162
0.984208
1.04305
1.15023
1.2232
1.24357
1.28259
1.42379
1.65653
1.76319
1.71911
1.60356
1.6026
1.93248
2.71324
3.64492
3.98869
4.06404
3.88674
3.54516
3.52034
3.81732
4.1881
4.5286
4.86536
5.16667
5.44158
5.70344
5.97728
6.36336
7.08336
8.14574
9.09987
9.42728
9.71449
9.48257
9.69644
9.32814
9.70106
9.06249
9.60441
8.51793
9.36301
7.40155
8.81602
5.0654
7.59091
2.30064
4.85972
2.066
1.0961
1.78644
1.51451
1.00718
1.04757
1.00218
1.00567
0.993955
1.03839
1.14375
1.21981
1.23668
1.26374
1.38853
1.62479
1.77996
1.76374
1.64762
1.61038
1.8823
2.62631
3.56967
3.9128
3.96263
3.77882
3.42588
3.25092
3.45784
3.87688
4.4243
4.86247
5.24698
5.56754
5.83945
6.13413
6.50121
7.1716
8.25195
9.31474
9.76197
9.86733
9.89956
9.99431
9.94736
10.1226
9.976
10.2212
9.91971
10.2953
9.69877
10.2857
9.12267
10.0787
7.70161
9.42906
4.42725
7.67253
3.75942
1.29122
3.02838
2.39207
1.02301
1.1419
1.00225
1.01026
0.993225
1.03287
1.13583
1.21622
1.231
1.24662
1.35263
1.58409
1.78441
1.8015
1.69927
1.62748
1.82872
2.52677
3.49303
3.86331
3.90163
3.71981
3.38357
3.08914
3.1529
3.45255
3.99132
4.61715
5.14636
5.59802
5.97287
6.37224
6.87094
7.4156
8.31432
9.41044
10.3665
10.1286
10.4422
10.2641
10.4692
10.4078
10.5988
10.5618
10.7776
10.6916
10.9842
10.7249
11.1703
10.5123
11.2345
9.72424
10.9934
7.4311
9.98023
6.81256
1.84128
5.76077
4.38052
1.0591
1.42845
1.00129
1.01961
0.988777
1.02555
1.1264
1.21266
1.22659
1.23296
1.31738
1.53687
1.77691
1.831
1.75403
1.65389
1.7777
2.41332
3.40245
3.83698
3.87013
3.70886
3.38986
3.04946
2.95496
3.12284
3.4754
4.01023
4.64329
5.25238
5.78946
6.33445
6.99411
7.76169
8.45061
9.44898
10.7596
11.7009
12.1219
10.8278
11.2856
10.9339
11.4829
11.1023
11.6198
11.3393
11.8382
11.5973
12.122
11.8198
12.4203
11.881
12.6559
11.5195
12.6792
10.1005
12.1335
9.99996
3.24104
9.58561
8.31205
1.17594
2.30462
1.00291
1.06492
0.979152
1.01345
1.11437
1.20844
1.2239
1.22244
1.28615
1.48488
1.7487
1.84989
1.80614
1.68906
1.73704
2.28424
3.28516
3.82106
3.86895
3.71924
3.41333
3.05853
2.84174
2.90657
3.12049
3.49795
4.01662
4.57895
5.15248
5.84853
6.78199
7.78857
8.59257
9.39987
10.7663
12.3365
12.4229
13.2808
13.5868
12.1504
12.7838
12.3756
13.2108
12.6184
13.5104
12.9329
13.8585
13.2713
14.2599
13.5949
14.652
13.779
14.9776
13.6158
15.0952
12.7173
14.7226
13.221
6.44793
13.4545
13.0916
1.62275
4.55653
1.03315
1.29562
0.973878
0.990225
1.09589
1.20251
1.22155
1.21616
1.259
1.43299
1.70434
1.85604
1.84842
1.73225
1.71361
2.14643
3.13122
3.81336
3.88047
3.74878
3.46421
3.09312
2.79536
2.76457
2.88855
3.1357
3.55936
4.13873
4.70118
5.16402
5.93254
7.34583
8.54118
9.26055
10.589
12.3499
12.0751
13.5906
13.4099
14.7069
14.5858
13.9546
14.4697
14.4393
15.206
14.9174
15.825
15.4313
16.4558
15.9227
17.1131
16.347
17.6782
16.5806
18.0624
16.4498
18.1578
15.7289
17.8074
16.5674
11.7422
17.1402
17.1573
3.07628
9.24661
1.16106
2.52775
1.00121
0.967549
1.06166
1.19196
1.21893
1.21165
1.2395
1.38169
1.65135
1.85113
1.87909
1.78352
1.71062
2.01121
2.93898
3.79461
3.91494
3.81076
3.54858
3.17112
2.7954
2.67047
2.728
2.8758
3.19017
3.78292
4.57083
5.11689
5.58676
6.49864
8.05962
8.9993
10.094
11.7292
13.0235
12.5688
14.2394
13.7099
15.4307
14.9289
15.673
15.6626
16.4566
16.6899
17.2632
17.6808
18.0783
18.6564
18.8402
19.6222
19.422
20.4398
19.7115
20.9662
19.6222
21.1363
18.9106
20.8295
19.7368
16.4897
20.1812
20.2058
6.70601
14.9734
3.96744
9.79257
0.989585
1.02643
1.17186
1.21395
1.20878
1.22465
1.33741
1.58946
1.82784
1.89587
1.83483
1.72456
1.89331
2.71893
3.73526
3.97653
3.89424
3.66028
3.27311
2.82215
2.62048
2.60816
2.6809
2.87958
3.36643
4.33997
5.23867
5.67611
6.23749
7.27408
8.44169
9.44779
10.9409
12.1611
11.7642
13.179
12.6084
14.3364
13.6759
15.54
14.803
16.5303
16.1167
17.5926
17.2648
18.7455
18.4732
19.9618
19.7743
21.048
21.1652
21.8741
22.4147
22.3075
23.1846
22.3176
23.4841
21.7518
23.3082
22.3502
19.7536
22.6298
22.5506
14.3569
18.7246
14.7108
18.7872
1.03282
1.12876
1.20373
1.20494
1.21478
1.29701
1.52717
1.7836
1.89908
1.87641
1.76064
1.80718
2.48206
3.5954
4.02937
3.98714
3.79521
3.40777
2.88421
2.61078
2.53153
2.53362
2.62609
2.95408
3.82989
5.2081
6.06816
6.35829
6.99818
7.90006
8.90939
10.3957
11.4795
11.3713
11.9361
11.6211
12.9966
12.3935
13.9272
13.0228
15.0013
13.826
16.7176
15.9957
17.9258
17.1927
19.2848
18.5193
20.7837
20.0432
22.3241
21.7684
23.6639
23.4217
24.4076
24.7346
24.5858
25.5067
24.1072
25.5585
24.6055
21.9266
24.8191
24.6698
23.3766
17.9236
20.4712
16.3603
20.3271
1.1136
1.17847
1.19828
1.20541
1.2652
1.46254
1.73059
1.89254
1.90368
1.80485
1.76205
2.24254
3.37538
4.04186
4.09073
3.94212
3.58865
2.99538
2.62158
2.50264
2.43199
2.43506
2.62082
3.19284
4.72528
6.14317
6.84239
7.08974
7.79952
8.75925
10.2227
11.3467
11.4491
11.4119
11.274
11.1049
12.2248
11.6362
12.6034
11.4692
13.2255
11.5547
16.1784
14.8759
17.4848
16.0515
19.0154
17.5437
20.7655
19.2684
22.6395
21.1577
24.3794
23.1655
25.5868
25.004
26.4472
26.4059
26.39
27.0908
26.6806
25.6877
26.6947
24.3922
22.3226
23.8062
25.7305
26.8552
26.8927
25.565
19.9855
23.1459
22.456
21.0849
14.8302
21.7498
1.15345
1.18391
1.19602
1.23874
1.40088
1.66835
1.86637
1.91447
1.84909
1.75302
2.0297
3.07934
4.0127
4.18864
4.08856
3.80712
3.19473
2.66664
2.50323
2.3864
2.30208
2.36372
2.68659
3.69612
5.78816
6.94477
7.53937
7.9835
8.837
10.2345
11.3144
11.1479
11.287
11.0881
11.0933
10.0215
10.0311
10.6531
10.207
10.1437
9.13722
11.212
10.079
14.3867
12.6471
15.9245
14.4449
17.6777
16.3517
19.4352
18.1671
21.1817
19.6715
23.1214
20.8171
25.0127
23.9503
22.8704
26.9965
26.7906
24.9725
25.8445
27.5463
27.3091
27.709
27.3535
27.5098
25.1418
24.5296
26.6774
27.5264
27.5801
26.3871
22.1214
21.5846
22.2634
23.8835
23.3314
13.5419
23.0205
24.0382
22.2525
1.15584
1.18492
1.21667
1.34544
1.59874
1.82348
1.91349
1.8831
1.76591
1.87095
2.73897
3.902
4.23881
4.23
4.0308
3.48672
2.78496
2.52572
2.38261
2.22609
2.18433
2.35366
2.88558
4.45802
6.57645
7.61549
8.40839
9.28807
10.3489
11.2483
10.915
10.3549
10.448
10.1228
10.2473
8.04893
8.16686
8.4713
8.10241
9.14132
8.38289
11.1176
10.4798
13.1014
11.965
15.3043
14.6636
17.5238
17.7802
19.3144
20.2657
20.2315
21.4154
21.625
20.9485
20.7257
21.233
23.3803
22.1695
22.5087
21.3038
26.8463
25.9592
23.0756
24.5961
27.5569
27.7772
27.6493
26.9277
27.8467
25.8826
25.3034
27.3986
27.8586
27.8358
27.1027
23.1697
23.5275
24.7358
24.3357
23.5817
6.49729
16.2803
24.3996
25.3637
1.15361
1.2024
1.29205
1.53416
1.76427
1.90221
1.90054
1.80601
1.78068
2.39114
3.65075
4.23948
4.34723
4.22853
3.81736
3.07953
2.60394
2.40021
2.20752
2.08154
2.13351
2.39636
3.21007
4.92594
7.0108
8.28156
9.27853
10.2239
10.9483
10.4186
8.42355
8.17116
8.66335
8.6188
8.3725
8.55861
6.7964
6.4918
7.76404
7.24215
9.84573
9.0924
14.5092
14.2278
14.4978
14.5077
18.6587
19.5866
22.1419
24.1585
24.2522
27.0262
22.338
23.9564
25.479
27.1757
20.8505
20.9594
21.8555
23.3991
21.5336
20.8827
21.0555
20.8504
25.8625
24.2896
21.158
22.5444
26.9611
27.7131
27.0105
25.7345
27.7783
26.6435
26.1243
27.7809
27.8353
27.8954
27.6212
24.3406
24.8705
25.6619
25.427
25.1842
4.55994
14.7463
25.8837
26.9981
1.16414
1.26477
1.45012
1.7103
1.86576
1.90316
1.84267
1.75144
2.08875
3.28204
4.19921
4.39863
4.39157
4.12136
3.50563
2.81754
2.46976
2.21682
2.04938
2.00676
2.12137
2.49708
3.38477
5.03106
7.15481
8.64428
9.65383
10.0847
8.83285
6.01065
5.75852
5.47698
6.20747
6.03231
6.33398
6.26846
6.64703
6.08871
8.22602
7.36487
13.4691
12.2744
19.8843
19.1597
20.1766
20.2358
25.3297
25.5814
28.9735
30.0704
28.4422
29.9102
30.8118
31.9566
25.1337
26.8674
28.4844
29.9841
21.3169
22.6432
24.3869
26.2403
20.7419
20.8882
21.012
21.782
23.9986
22.0707
20.6456
20.8995
25.6218
27.0882
25.6197
23.7653
27.2216
27.3513
27.0087
27.9403
27.3955
27.615
27.8939
25.6019
26.3343
26.7179
26.6443
26.509
2.38968
10.5948
27.5417
28.9469
1.20402
1.4044
1.62454
1.82654
1.89694
1.86637
1.75346
1.87659
2.83943
4.06823
4.40241
4.50364
4.36574
3.92059
3.29311
2.66473
2.27174
2.05454
1.96146
1.95718
2.13006
2.54695
3.41857
4.88182
6.50949
7.76472
7.70677
6.24853
4.81581
4.3359
4.05791
4.62686
4.41515
5.06205
4.84463
5.64334
5.30784
7.52269
6.35037
10.7461
9.06732
18.0018
16.4937
23.4434
22.2641
25.2171
24.4907
30.0431
29.3985
34.3226
34.7222
31.3992
32.6526
33.8364
34.5962
28.0208
29.7337
31.3835
32.9684
23.36
25.2731
27.1785
29.0411
21.1631
22.1921
22.5492
24.0104
21.72
20.7203
21.3012
20.5895
23.6468
25.7305
23.6715
21.5189
25.981
27.8803
27.8492
27.8449
26.3638
26.8676
28.067
27.0182
27.9801
27.8637
28.01
26.2553
1.65709
7.7036
29.507
31.1589
1.30525
1.57438
1.75477
1.87829
1.87193
1.77927
1.76349
2.39853
3.75017
4.37958
4.53591
4.54038
4.26103
3.79237
3.15569
2.44765
2.09813
1.96277
1.87947
1.92802
2.13798
2.55248
3.30183
4.21713
4.9045
4.86068
4.41533
3.91492
3.69019
3.94743
3.78433
4.27501
4.09508
4.7611
4.49003
5.60642
5.12327
9.81292
7.66907
14.5554
12.2456
20.9858
19.5412
25.4725
23.9759
28.2982
26.9455
34.0154
32.6195
38.4953
38.8433
38.2437
38.7413
34.4489
35.7954
36.9606
37.9019
30.8743
32.6873
34.4581
36.1475
26.0242
28.0178
29.9728
31.9463
22.8715
24.5752
25.1064
26.7119
20.6293
20.5783
23.1812
21.4123
21.4681
23.8766
21.5901
20.6188
24.2659
28.268
28.5438
27.4524
24.8578
25.7082
28.0061
28.6064
29.8862
28.8936
29.3988
24.5191
1.34869
5.04834
31.9276
33.3056
1.46131
1.70942
1.82924
1.86804
1.80797
1.72076
2.04671
3.27565
4.29544
4.53135
4.63625
4.51978
4.21086
3.7198
2.93761
2.24854
1.99537
1.86646
1.80889
1.91792
2.12607
2.47414
2.92132
3.24865
3.37007
3.36525
3.31756
3.33827
3.61142
3.41431
3.85239
3.7057
4.18021
4.00401
4.72697
4.41077
6.14583
5.23236
12.7187
9.81924
17.7671
15.4867
22.4996
21.033
26.3573
24.6357
30.5458
28.3084
37.4684
36.1103
34.3305
41.466
41.5074
40.2295
41.1062
37.7
39.0633
40.189
41.006
33.9216
35.87
37.7477
39.5003
28.7806
30.8578
32.9672
35.0983
25.5958
27.3428
27.9502
29.5212
20.6104
21.511
26.0631
23.4637
20.6944
21.917
20.8594
20.6803
22.4641
28.6172
29.1714
26.7551
23.2944
24.4685
27.7817
30.3221
32.0971
29.8123
30.6708
20.5995
1.27461
3.73007
34.5943
35.3795
1.60377
1.79123
1.84691
1.82002
1.71545
1.82658
2.73454
4.07902
4.5033
4.65169
4.68444
4.51271
4.18798
3.5953
2.69291
2.11387
1.88103
1.76341
1.7804
1.89865
2.07272
2.30415
2.50087
2.65866
2.78871
2.90044
3.0199
3.20088
3.5408
3.38692
3.83031
3.68369
4.16873
3.98694
4.86506
4.42194
7.36989
5.74728
15.3467
12.3543
19.4842
17.6848
23.0785
21.6075
26.3577
24.6503
31.085
28.4044
38.9103
37.3892
35.4883
32.8947
44.2512
44.0357
41.8159
43.2113
41.0665
42.39
43.4189
44.0664
37.2027
39.236
41.1522
42.8934
31.7204
33.9728
36.238
38.4789
28.5488
30.252
31.0015
32.6017
21.5892
23.7065
29.167
26.5057
20.7885
21.1418
20.9521
21.6248
21.5791
28.7617
29.7333
25.8707
22.2351
23.257
27.2737
32.0919
34.4344
30.726
31.9737
15.824
1.26816
3.48231
37.5788
36.844
1.70036
1.8202
1.81722
1.7267
1.70904
2.25169
3.62845
4.42985
4.63909
4.74711
4.71663
4.53473
4.14435
3.42733
2.46898
1.95705
1.76558
1.70634
1.75401
1.85495
1.99418
2.13826
2.27523
2.4249
2.57703
2.73744
2.91376
3.26297
3.07457
3.5303
3.37708
3.83324
3.67877
4.21091
4.00182
5.26536
4.55464
9.24486
6.74944
16.7483
14.3633
20.1315
18.5668
23.1538
21.7102
25.4313
24.0835
31.216
29.3525
27.1678
39.9201
37.6754
34.6616
32.095
46.904
46.3278
43.0896
45.0522
44.402
45.6253
46.5135
46.9085
40.6443
42.6924
44.5762
46.2501
34.9883
37.3822
39.734
42.0102
31.7932
33.5167
34.4904
36.0559
23.8625
26.9071
32.6447
29.8084
21.6373
21.1991
21.6354
23.8883
21.5714
28.7174
30.1433
24.832
22.1098
23.0184
26.7654
33.8332
37.0376
31.5464
33.1493
13.4984
1.28894
3.80097
40.794
37.5944
1.74883
1.80462
1.74282
1.65915
1.91549
3.04263
4.2588
4.59298
4.7467
4.8221
4.76599
4.54557
4.06594
3.22867
2.217
1.80783
1.69042
1.65666
1.71126
1.80741
1.91986
2.03573
2.16981
2.31576
2.47207
2.64587
2.8661
3.22909
3.06937
3.53814
3.38422
3.87508
3.70154
4.33969
4.07537
5.88938
4.82084
11.2275
8.07713
17.2139
15.2375
20.2915
18.8138
22.8296
21.5247
24.4003
23.83
22.9605
29.9377
28.447
24.8303
25.7014
40.5396
37.6323
33.7261
30.669
49.4961
48.534
44.2139
46.7845
47.6675
48.7705
49.493
49.6808
44.1635
46.1558
47.9583
49.5403
38.5709
41.0267
43.39
45.6318
35.5662
37.2056
38.4743
39.857
27.2323
30.4489
36.7589
33.5697
23.7282
21.6727
23.4459
27.3193
21.9546
28.7408
30.602
24.4559
22.5218
23.5373
26.6536
35.9483
39.8723
32.4583
35.0696
13.7638
1.51549
6.74769
43.4352
40.0101
1.75353
1.74517
1.64787
1.72429
2.45431
3.86272
4.50497
4.71943
4.84132
4.89921
4.81777
4.53369
3.94975
2.9328
1.98097
1.70574
1.61132
1.6064
1.67643
1.76206
1.8575
1.97191
2.09927
2.23866
2.39709
2.59386
2.94473
2.75767
3.22669
3.06324
3.56654
3.39007
3.9559
3.7519
4.52625
4.19557
6.63998
5.16956
12.6008
9.40435
17.2588
15.4299
20.2426
18.7663
22.0671
21.0338
23.5307
23.2906
21.9862
21.6224
28.404
26.8172
23.8726
24.3485
40.9513
37.3025
32.5709
29.0766
52.0835
50.8299
45.5076
48.6571
50.8519
51.8517
52.4016
52.4996
47.7178
49.6325
51.353
52.8366
42.4203
44.8757
47.2038
49.398
39.9211
41.3012
42.964
44.001
31.0306
34.5402
41.5944
38.091
27.22
23.266
26.9681
31.6705
23.3059
29.0451
31.5661
25.0956
23.7416
24.9299
27.2776
38.0705
42.496
34.3902
36.9883
22.2886
3.42448
19.3105
46.5517
45.1383
1.72513
1.65124
1.61842
2.01187
3.26451
4.33549
4.64325
4.82667
4.94131
4.97947
4.85365
4.49326
3.75492
2.5453
1.79354
1.6081
1.5406
1.5754
1.6393
1.714
1.81287
1.92415
2.04479
2.1838
2.3486
2.55571
2.90187
2.75384
3.23029
3.06409
3.60562
3.41367
4.05149
3.81578
4.7351
4.33624
7.17127
5.51612
13.0334
10.0198
16.9655
15.207
19.8227
18.5012
21.3377
20.7617
20.1085
22.5165
22.282
21.2788
21.1026
26.6917
25.2302
22.7439
23.0533
41.4785
36.9267
31.7361
27.5761
54.9057
53.3094
47.0009
50.695
54.0972
55.0821
55.5182
55.5366
51.4358
53.2926
54.9559
56.468
46.5766
49.0301
51.3592
53.5588
44.9412
45.8708
48.1175
48.6279
35.8064
39.8146
47.4545
43.7508
32.0483
26.5116
31.4558
36.6136
26.2281
30.4184
33.7178
26.7769
26.4557
27.1292
28.924
40.7227
45.1312
36.6423
40.1526
40.2675
11.0296
47.4826
49.6781
52.8019
1.64843
1.57708
1.73701
2.62652
3.96524
4.53646
4.76933
4.93505
5.04846
5.05117
4.86214
4.39636
3.45399
2.13048
1.63845
1.5191
1.49938
1.54144
1.59764
1.68079
1.77808
1.88304
2.00542
2.14491
2.31038
2.52989
2.89117
2.73646
3.23118
3.05235
3.64163
3.42732
4.15094
3.8777
4.9559
4.48606
7.27702
5.75143
12.9182
10.0249
16.2661
14.4637
19.0925
17.7581
20.8328
20.5399
18.3776
19.0622
21.4686
21.3832
20.3615
20.2058
25.0069
23.7113
21.5749
21.7636
42.3155
36.9982
31.2772
26.4072
57.9629
56.0265
48.716
52.9628
57.7411
58.6576
58.9651
58.8967
55.584
57.4309
59.1589
60.679
51.2727
53.8104
56.2459
58.5171
50.9241
51.1665
54.274
54.1278
40.9082
44.984
52.9338
48.9977
36.2815
30.4677
35.4832
40.8601
29.5344
31.5194
34.8099
28.5128
28.9055
29.0298
30.2388
43.7283
48.3304
38.5924
42.4484
63.2841
43.5858
86.3709
55.6833
67.3998
1.55578
1.60378
2.09019
3.39776
4.35097
4.67727
4.89741
5.05124
5.15229
5.10749
4.83998
4.21294
3.01176
1.79929
1.52543
1.45683
1.46254
1.50522
1.57004
1.65241
1.74458
1.85345
1.97515
2.1118
2.27569
2.58796
2.71554
2.40922
2.87743
3.22989
3.04681
3.66358
3.43312
4.24102
3.92837
5.14456
4.62232
7.16703
5.86067
12.2198
9.54055
14.9772
13.2035
17.7455
16.5681
19.9359
19.5664
18.0984
18.5388
20.4285
20.4165
19.4241
19.3545
23.3832
22.2455
20.4631
20.5804
43.334
37.3026
30.9327
25.5049
61.4372
59.119
50.8244
55.5902
61.915
62.6881
62.8808
62.6885
60.6004
62.5552
64.2946
65.7833
57.0342
59.8736
62.5477
64.9906
57.0933
57.6892
61.4835
61.2403
45.6628
50.9211
63.0361
56.6194
40.9842
34.5984
41.5278
47.5747
33.6507
32.4002
35.4544
30.1247
33.0086
32.9645
31.7484
47.4273
55.735
39.1511
43.9293
83.1384
95.4659
91.0203
63.2089
70.6143
1.51201
1.77112
2.72081
3.9954
4.54475
4.80458
5.02804
5.1742
5.24478
5.13054
4.75972
3.90842
2.40667
1.58201
1.44815
1.4058
1.43113
1.47912
1.54462
1.6244
1.72107
1.82836
1.94663
2.08161
2.23174
2.69842
2.52981
2.40328
2.85715
3.22151
3.03019
3.66786
3.43206
4.27456
3.94339
5.21171
4.6775
6.92834
5.90113
11.0426
8.73214
13.4951
11.6567
16.4562
15.5271
14.8259
19.1683
18.9024
17.0581
17.5621
19.3984
19.4201
18.4451
18.405
22.2001
20.9933
19.4193
19.546
44.7171
37.9498
31.0558
24.9408
65.489
62.7978
53.5188
58.7474
66.9582
67.519
67.6187
67.0732
67.3268
69.3819
71.1219
72.5159
64.8779
68.3849
71.6189
74.6265
70.1004
66.102
76.4798
71.2961
55.1192
63.9441
85.3937
74.0493
50.6469
41.9606
54.4156
62.3621
42.0345
34.0421
37.1987
33.6995
42.054
41.7219
35.3917
51.459
57.4607
41.2602
47.3814
75.5896
80.9143
73.5135
62.4648
62.0263
1.55678
2.18611
3.39896
4.3473
4.67844
4.95633
5.16177
5.29756
5.31782
5.12085
4.58782
3.42587
1.84484
1.46252
1.3792
1.37209
1.40582
1.4546
1.5211
1.6052
1.69832
1.80271
1.92014
2.04813
2.19472
2.68185
2.50906
2.37211
2.83475
3.20317
3.00952
3.66419
3.42088
4.28099
3.94492
5.22127
4.6894
6.72421
5.90034
9.76945
8.00586
11.8486
10.4934
15.9002
15.3075
12.6371
13.7417
18.2344
17.9475
16.4405
16.9145
18.4402
18.436
17.6253
17.6203
21.2587
19.9733
18.496
18.6638
46.6589
39.2181
31.8251
24.7478
70.4819
67.3951
57.1208
62.6635
73.4333
73.7224
73.6166
72.5127
77.3476
79.5674
81.2056
82.2542
76.7934
82.0838
86.805
90.846
100.842
83.0719
115.978
91.0922
77.0034
93.9439
164.546
121.242
71.7647
57.9805
82.3473
92.1704
61.0465
37.9586
41.2534
42.2435
60.7204
60.1004
44.8793
52.0104
55.4978
46.4759
49.3933
58.0644
70.8795
57.5579
54.2134
51.6338
1.72534
2.83812
3.89593
4.54336
4.81618
5.11297
5.29681
5.40951
5.35474
5.05237
4.27737
2.70241
1.55123
1.37817
1.33279
1.34586
1.38264
1.4333
1.50484
1.58427
1.67537
1.77766
1.89108
2.00968
2.22281
2.34234
2.09083
2.64271
2.47695
2.80273
3.17262
2.97726
3.64284
3.39326
4.27371
3.93184
5.19861
4.6851
6.51201
5.81548
8.81991
7.53437
12.5801
11.2758
10.1998
9.45132
15.1325
14.4575
13.2494
17.5158
17.2587
15.6841
16.1921
17.625
17.6069
17.1186
17.0411
20.6062
19.1051
17.7266
18.0274
49.4153
41.4074
33.641
25.3339
76.9169
73.5185
62.0245
67.7109
82.558
82.5471
81.601
79.7245
94.1611
96.8
98.1255
98.4915
102.069
109.653
117.369
122.354
200.501
135.424
205.984
168.531
119.971
158.927
190.943
197.499
118.078
93.6277
147.706
165.724
93.9486
48.6372
52.0552
60.8955
91.5836
88.6563
62.4448
51.803
50.8357
51.4781
53.7048
50.2065
65.4272
52.0644
48.997
48.4313
2.08119
3.4866
4.22775
4.69485
4.98507
5.26664
5.43129
5.49839
5.353
4.88481
3.75121
1.90351
1.40351
1.31831
1.29902
1.32644
1.36023
1.4191
1.48626
1.56382
1.65177
1.75105
1.85654
1.96522
2.31665
2.17032
2.08504
2.6198
2.44406
2.77031
3.13566
2.94279
3.60577
3.35523
4.24511
3.89873
5.12894
4.65806
6.29805
5.66576
8.38115
7.25181
12.0415
11.0286
10.2674
8.42351
9.31344
14.7234
13.9751
12.9412
16.8998
16.5823
15.3758
16.0126
17.2698
17.1779
17.1307
16.9923
20.4096
18.5503
17.48
17.8828
53.3246
44.9383
37.1786
27.1624
85.6148
82.1222
68.9024
74.6518
96.9493
95.4014
93.051
90.4159
127.084
129.712
131.058
131.041
212.46
208.247
221.176
220.032
492.096
220.326
507.303
252.633
197.425
201.056
503.952
497.954
200.022
153.466
213.557
189.21
152.752
63.1427
61.3461
86.4522
146.097
139.078
83.8313
51.905
49.9473
64.1994
57.9892
49.6093
61.1189
53.8397
48.417
48.6406
2.57737
3.92479
4.44403
4.8633
5.17248
5.41769
5.55819
5.54609
5.2882
4.55717
2.91024
1.52535
1.32158
1.27126
1.28051
1.30319
1.34621
1.4034
1.46779
1.54279
1.62711
1.71995
1.82031
1.9314
2.29171
2.15005
2.05677
2.58008
2.41532
2.73382
3.09728
2.90478
3.56762
3.3168
4.20694
3.86124
5.04191
4.61011
6.22382
5.60388
7.8132
7.09039
11.9392
11.0407
10.1204
8.54167
9.28021
14.6859
13.8304
13.013
16.8205
16.4512
15.4512
16.1655
17.4358
17.2377
17.8157
17.447
20.7112
18.457
17.7042
18.1989
58.967
50.4871
43.6812
31.3201
98.6681
94.404
78.6821
84.6422
123.299
116.837
110.12
107.505
214.847
213.564
202.886
199.22
445.76
462.223
451.532
457.483
884.96
492.265
897.725
498.817
509.428
514.16
887.722
890.315
503.767
221.39
495.813
502.137
213.812
80.7263
86.53
132.541
202.772
190.962
126.931
54.6326
52.5446
72.5417
69.612
51.91
61.9635
61.1135
50.5856
52.3758
3.10842
4.21166
4.6259
5.05906
5.36023
5.56259
5.65946
5.54776
5.11058
3.96471
1.91958
1.35649
1.26438
1.24482
1.26036
1.28596
1.33373
1.38649
1.44952
1.52042
1.59918
1.68665
1.78471
1.88614
2.03292
2.25513
2.12024
2.55265
2.38289
2.70122
3.06269
2.87089
3.53777
3.28417
4.17542
3.83358
5.00816
4.56665
6.18305
5.58389
7.60778
6.75902
12.3274
11.5664
10.1718
8.5638
9.4842
15.2177
14.1203
13.8703
17.1879
16.7404
16.2848
17.2066
18.4416
18.1262
19.8091
19.0461
22.0878
18.9589
18.7076
19.3635
67.1314
59.0577
54.9463
40.4622
120.201
112.609
92.8313
99.1167
182.349
167.262
138.541
136.432
444.878
448.216
440.64
444.162
843.053
829.293
815.524
820.513
2487.31
830.991
2560.2
845.37
900.93
898.282
2467.03
2456.54
923.774
490.179
912.165
894.812
471.636
128.876
96.7706
180.959
452.839
432.974
162.262
63.4181
57.9051
93.645
78.9377
58.1307
213.31
121.751
57.9216
58.6826
3.54287
4.42869
4.82886
5.2665
5.53736
5.69955
5.71192
5.47611
4.7402
2.9666
1.48835
1.27173
1.22433
1.22727
1.23912
1.27485
1.31873
1.3702
1.42985
1.49548
1.56973
1.65256
1.7423
1.84372
2.0136
1.98721
2.23191
2.09418