/*--------------------------------*- C++ -*----------------------------------*\
  =========                 |
  \\      /  F ield         | OpenFOAM: The Open Source CFD Toolbox
   \\    /   O peration     | Website:  https://openfoam.org
    \\  /    A nd           | Version:  dev
     \\/     M anipulation  |
\*---------------------------------------------------------------------------*/
FoamFile
{
    version     2.0;
    format      ascii;
    class       volScalarField;
    location    "2500";
    object      p_rgh;
}
// * * * * * * * * * * * * * * * * * * * * * * * * * * * * * * * * * * * * * //

dimensions      [1 -1 -2 0 0 0 0];

internalField   nonuniform List<scalar> 
9846
(
0.00417606
0.00562432
0.00468369
0.00609796
0.00871771
0.00442935
0.00596575
0.010323
0.00844176
0.00373007
0.00556615
0.0109732
0.0115545
0.00777202
0.00309334
0.00562494
0.0111511
0.012942
0.0110131
0.00676847
0.00271041
0.00499726
0.01113
0.0141752
0.0130786
0.0100209
0.00577844
0.00235129
0.00532095
0.0111993
0.0144038
0.0149587
0.0125584
0.0088843
0.00519908
0.00192347
0.00520721
0.0104393
0.0144445
0.0159815
0.0146069
0.0114639
0.00783123
0.00473326
0.00163666
0.00519413
0.010124
0.0142705
0.0165044
0.0160493
0.0136891
0.0103683
0.00706697
0.00433933
0.00157826
0.00516214
0.00974864
0.0140006
0.0166344
0.017123
0.0154036
0.0124607
0.00943163
0.00648647
0.00391885
0.00128249
0.00513048
0.00947163
0.0136227
0.0165606
0.0176968
0.016866
0.0143446
0.0114088
0.008598
0.00607181
0.00366644
0.00110716
0.00504984
0.00928642
0.0131831
0.0163288
0.0180007
0.0178294
0.0160393
0.0132633
0.0105442
0.007999
0.00569041
0.0033031
0.00105954
0.00514969
0.00924428
0.0127734
0.0160613
0.0180653
0.0185107
0.017245
0.014902
0.0122127
0.00967882
0.00743672
0.0052636
0.00296867
0.000781769
0.00516986
0.00906535
0.0124843
0.0157269
0.0179831
0.0189261
0.0182581
0.0162611
0.0137085
0.0113118
0.00912175
0.00704034
0.00491759
0.00289287
0.0006936
0.00512171
0.0088749
0.0121618
0.0153584
0.0178167
0.0191383
0.0190379
0.0175456
0.0151996
0.0127213
0.0105671
0.00865309
0.00669359
0.00466668
0.00261036
0.000574142
0.00506261
0.0087684
0.0118317
0.0149858
0.0175966
0.0192183
0.0195434
0.0184586
0.0164085
0.0140631
0.0118649
0.00990967
0.00809119
0.00626558
0.00438481
0.00237118
0.000337892
0.00491625
0.0086015
0.0114921
0.0145999
0.0173543
0.0191923
0.0198818
0.0192974
0.0175863
0.0152745
0.0130734
0.0111112
0.00933967
0.00771197
0.0059866
0.00407185
0.00202953
0.000131474
0.00460605
0.00834288
0.0111786
0.0142136
0.0170842
0.0191318
0.0200962
0.0199031
0.0185118
0.0164657
0.0141869
0.012188
0.0104677
0.00892309
0.00735134
0.00563846
0.0038813
0.00187605
-0.00015006
0.00397062
0.00799723
0.0108614
0.0138396
0.0167952
0.0190104
0.0202596
0.0203845
0.0193888
0.0174674
0.0153247
0.0133038
0.0114359
0.00992144
0.00844469
0.00699113
0.00529807
0.00356381
0.00166464
-0.000240799
0.00346007
0.0074625
0.0104939
0.0134988
0.0164948
0.0188928
0.0203547
0.0207623
0.0200736
0.0184795
0.0163647
0.0142502
0.0124608
0.0107708
0.00936439
0.00805057
0.00662438
0.00501126
0.00324668
0.00131913
-0.00047304
0.00291951
0.00676496
0.0100211
0.0131397
0.0161844
0.0187453
0.0204255
0.0210908
0.0207027
0.0192971
0.0173173
0.0152408
0.0133241
0.0116375
0.0102072
0.00886717
0.00765627
0.00621039
0.0047197
0.00287056
0.00102406
-0.000746585
0.00235935
0.00638469
0.00965106
0.0127587
0.0158258
0.0185904
0.0204656
0.0213738
0.0212406
0.0201119
0.0182654
0.0161937
0.0142028
0.0124647
0.0109558
0.00963813
0.00840873
0.00719976
0.00586801
0.00433615
0.00251319
0.000705076
-0.000976944
0.00188476
0.00559669
0.00907557
0.0122226
0.0154879
0.0184237
0.0205008
0.0216203
0.0217462
0.0208637
0.0191843
0.0171457
0.0151046
0.0132745
0.0116788
0.0103174
0.00910561
0.00797817
0.00683297
0.00556416
0.00400734
0.00217685
0.000297185
-0.00131132
0.00164163
0.00493896
0.00861798
0.0119025
0.0152371
0.0182598
0.0205294
0.021862
0.0222107
0.0215652
0.02005
0.0180758
0.0160178
0.0140926
0.0123897
0.0109404
0.00969378
0.0085898
0.0075534
0.00648565
0.0052497
0.00372057
0.00189786
2.73442e-05
-0.00159269
0.00152373
0.00456196
0.00811075
0.011565
0.0149511
0.0181005
0.0205489
0.0220951
0.0226576
0.0222426
0.0208999
0.0189872
0.0169305
0.0149355
0.0131055
0.0115374
0.0102055
0.00907169
0.00808039
0.00714821
0.00617007
0.00497998
0.00345212
0.00163238
-0.000220868
-0.00179807
0.00142562
0.00441126
0.00784718
0.0112662
0.0147054
0.0179499
0.0205599
0.022315
0.0230924
0.0229016
0.0217605
0.0199283
0.0178405
0.0157838
0.0138437
0.0121285
0.0106732
0.00945733
0.0084523
0.00759235
0.00679023
0.00589409
0.00473121
0.0032173
0.00139437
-0.000440085
-0.00196577
0.00142231
0.00426192
0.00761672
0.0110453
0.0145247
0.0178242
0.0205635
0.0225095
0.0235073
0.0235434
0.0226259
0.0209161
0.0188058
0.0166476
0.0146057
0.0127328
0.0111185
0.00977953
0.00870556
0.00785597
0.00715551
0.00647767
0.00565269
0.00453273
0.00301987
0.00119384
-0.000595821
-0.00208531
0.001375
0.00435787
0.00765961
0.0109839
0.0144252
0.0177319
0.0205806
0.0226809
0.0238846
0.0241519
0.023473
0.0219346
0.0198407
0.0175951
0.0154219
0.0133752
0.0115629
0.0100594
0.00887239
0.00797463
0.00730836
0.00677271
0.0062164
0.00547382
0.00438911
0.00287573
0.00106998
-0.000667202
-0.00214287
0.0013798
0.00433901
0.00755543
0.0109185
0.0143474
0.0176598
0.0206154
0.0228613
0.0242276
0.0247176
0.0242712
0.0229247
0.0209474
0.0186777
0.0163504
0.0140977
0.0120496
0.0103242
0.00897503
0.00798184
0.00728903
0.00682118
0.00645605
0.00603044
0.00537317
0.00431654
0.00281811
0.00105166
-0.000632867
-0.00211976
0.00139415
0.00444223
0.00763647
0.0108833
0.0142814
0.0176113
0.0206418
0.023048
0.0245773
0.0252422
0.0250471
0.0238793
0.0221211
0.0199631
0.0175206
0.0150374
0.012711
0.0106774
0.00907103
0.00791359
0.00713946
0.00667029
0.00641359
0.00622917
0.00594166
0.00536403
0.00434587
0.00288127
0.00116925
-0.000470759
-0.00200574
0.00131476
0.00445403
0.00761343
0.0108941
0.0142538
0.0175781
0.0206628
0.0231973
0.0249318
0.0257632
0.0258048
0.0249023
0.0234348
0.0214623
0.0191401
0.0166207
0.0140476
0.0116022
0.00949838
0.00795444
0.00694806
0.0063841
0.0061458
0.00611228
0.00611827
0.00596895
0.00547385
0.00451324
0.00310458
0.00145702
-0.00015795
-0.00180768
0.00138147
0.0045754
0.0076241
0.0108958
0.014227
0.0175375
0.0206642
0.0233114
0.0252325
0.0262591
0.0265407
0.0259569
0.0248567
0.0233201
0.0215891
0.0197575
0.0176038
0.0148738
0.0118398
0.00913788
0.00724826
0.00620448
0.00576917
0.00575341
0.0059484
0.00614722
0.00613676
0.00574211
0.0048635
0.00353938
0.0019624
0.000319694
-0.00151729
0.0014323
0.00447299
0.00763756
0.0108923
0.0141717
0.0174675
0.0206306
0.0233694
0.0254896
0.0266935
0.0272179
0.0269881
0.0263314
0.0256196
0.0252669
0.0253848
0.0254579
0.0242918
0.0206752
0.0153923
0.0105714
0.00735281
0.00583683
0.00536943
0.00553798
0.00594734
0.00633896
0.00648079
0.00621024
0.00544986
0.00423931
0.00270308
0.000909399
-0.00228221
-0.000930911
0.00140975
0.00441068
0.007637
0.0108185
0.0140868
0.017367
0.0205463
0.0233668
0.0256465
0.0270835
0.0278175
0.0279392
0.0278119
0.0281436
0.0297598
0.033061
0.0371955
0.0401966
0.0396047
0.0337755
0.023758
0.0143719
0.00854422
0.00592695
0.00524261
0.00552281
0.00613341
0.00672701
0.0070458
0.00693686
0.00634907
0.00521975
0.00352594
0.000400845
0.00176525
-0.00210608
-0.000625868
0.00127852
0.004335
0.00753562
0.0107024
0.0139743
0.0172345
0.0204054
0.0232807
0.0257201
0.0273548
0.0283377
0.0287671
0.0291891
0.030664
0.0344918
0.041392
0.0502341
0.0580396
0.0617859
0.0591356
0.0500506
0.0353016
0.0197869
0.0105639
0.00645714
0.00540337
0.00574291
0.00654994
0.00735783
0.00789202
0.008014
0.00757825
0.00492827
0.00630053
0.00326324
0.00524865
0.00482069
0.000800076
0.00227328
-0.00187514
-0.000247192
0.00126138
0.004399
0.0074292
0.0105674
0.0138267
0.0170586
0.0202211
0.0231013
0.0256381
0.0275044
0.0287176
0.0294572
0.030365
0.0329362
0.0388726
0.0490209
0.0621839
0.0749181
0.0835464
0.0852858
0.0787281
0.0648363
0.0462127
0.0261173
0.0129125
0.00732497
0.00585341
0.006252
0.00726216
0.00830632
0.00911461
0.00944997
0.00771082
0.00896169
0.00671577
0.0038569
0.00638832
0.00554735
0.00131936
0.00293434
-0.00160758
0.000187177
0.00125587
0.00426132
0.0073356
0.0104243
0.0136306
0.0168293
0.0199801
0.0228853
0.0254318
0.0274241
0.0289091
0.0299676
0.031277
0.0346926
0.0425108
0.0551963
0.0714978
0.0882473
0.101674
0.108809
0.106908
0.0955286
0.0767204
0.0542875
0.0315775
0.0152256
0.00846771
0.00669215
0.00717803
0.00840955
0.0096978
0.0107772
0.0101245
0.0110797
0.00823383
0.00965818
0.00797501
0.00466123
0.00730678
0.00649903
0.00191561
0.00369684
-0.001303
0.00067334
0.00123937
0.00407164
0.00719257
0.0102065
0.0133697
0.0165349
0.0196726
0.0226033
0.025193
0.0272179
0.0288208
0.0301578
0.031872
0.0358574
0.0448024
0.0597913
0.0778129
0.0965487
0.113097
0.125097
0.129688
0.123654
0.107977
0.0853217
0.0598978
0.0355008
0.0174717
0.0101583
0.00828437
0.00890515
0.0103329
0.0118015
0.0119574
0.0126829
0.0109613
0.0121248
0.00955667
0.0110637
0.00909274
0.00560127
0.00842121
0.00762496
0.0025827
0.00455337
-0.000957994
0.00121659
0.0012215
0.00394979
0.00695817
0.00993721
0.0130741
0.0161766
0.0192833
0.0222409
0.0248987
0.0269832
0.0286117
0.0300595
0.0319697
0.0362927
0.0457729
0.061854
0.0815707
0.100328
0.117397
0.131679
0.141602
0.143027
0.134607
0.116873
0.0925113
0.0652781
0.0390607
0.0206957
0.0135428
0.0119611
0.0130802
0.0148977
0.0135811
0.015173
0.0132219
0.0144338
0.0124735
0.0138467
0.0108626
0.0125833
0.0103867
0.00666484
0.00974667
0.00891832
0.00332403
0.00550801
-0.000567738
0.00182175
0.00112065
0.00370854
0.00662829
0.00963178
0.0127212
0.0157511
0.018823
0.0217995
0.0245029
0.0267114
0.0283683
0.0298276
0.031784
0.0361214
0.045444
0.0611567
0.078783
0.0958628
0.113836
0.130238
0.142756
0.149237
0.149348
0.141254
0.124751
0.101847
0.0743323
0.0460819
0.0283242
0.0226285
0.0234389
0.0282588
0.0196137
0.0320992
0.0165451
0.021985
0.0154308
0.0181292
0.0142893
0.0162717
0.0123696
0.0144269
0.0119517
0.00786447
0.0113116
0.0104122
0.00414379
0.00657034
-0.000131609
0.00248802
0.00107157
0.00349657
0.00628343
0.0092546
0.0122871
0.0152549
0.0182888
0.0212641
0.0240034
0.0263357
0.0280939
0.0295516
0.0314511
0.0356411
0.0446189
0.059127
0.0725228
0.084789
0.100205
0.119406
0.136638
0.147685
0.152151
0.152406
0.146896
0.135216
0.116951
0.0913369
0.063556
0.0481025
0.05015
0.0609317
0.0512103
0.0811164
0.0355178
0.0604618
0.0248161
0.0409907
0.0196056
0.0276277
0.0168373
0.0208206
0.0142929
0.0171069
0.0139086
0.00922422
0.0132165
0.0121836
0.00504613
0.00775143
0.000348446
0.00321524
0.00102091
0.00327147
0.00592928
0.00881376
0.011773
0.0146887
0.0176738
0.0206414
0.0234138
0.0258504
0.02772
0.0292401
0.0310206
0.0348877
0.0432347
0.055841
0.0658828
0.0747017
0.0844298
0.0961226
0.116821
0.138245
0.149179
0.153204
0.154321
0.153685
0.150103
0.139805
0.11976
0.100361
0.0968171
0.119043
0.107477
0.145445
0.0907117
0.124385
0.0690504
0.102655
0.04658
0.078159
0.0301677
0.052003
0.0216959
0.0322581
0.0170451
0.0220918
0.0166099
0.0107931
0.0157452
0.0144304
0.00603734
0.00907821
0.000865263
0.00399869
0.00100859
0.00306452
0.00553769
0.00833695
0.0111919
0.0140491
0.0169751
0.0199258
0.0227279
0.0252431
0.0272439
0.0288384
0.0305177
0.0339496
0.0414876
0.0523341
0.0600887
0.0665173
0.0710336
0.0743884
0.0838877
0.107656
0.134798
0.147455
0.152613
0.156155
0.162066
0.169612
0.170665
0.162908
0.162019
0.180999
0.175477
0.219518
0.161096
0.199605
0.14014
0.180076
0.115307
0.156418
0.0875278
0.128807
0.056771
0.0970789
0.0335971
0.0604692
0.0219405
0.0338147
0.0211564
0.012684
0.0197297
0.0177121
0.00712559
0.0106069
0.00140577
0.00483397
0.00108159
0.00284787
0.00511145
0.00780798
0.0105323
0.013332
0.0161908
0.0191138
0.021931
0.024503
0.0266488
0.0283343
0.0299496
0.0329431
0.0396058
0.0489931
0.055233
0.059865
0.0606605
0.0572587
0.0582918
0.071732
0.0968411
0.124639
0.140388
0.149869
0.160548
0.175595
0.19602
0.212658
0.225904
0.255369
0.253525
0.287967
0.239638
0.282394
0.221788
0.264777
0.200205
0.245229
0.173827
0.221306
0.143102
0.192807
0.106133
0.158218
0.0621814
0.114268
0.032863
0.0614138
0.0306764
0.01521
0.0275676
0.0236319
0.00832906
0.0124749
0.00194559
0.0057006
0.000960139
0.00260325
0.00465024
0.00720653
0.00980525
0.0125332
0.0153198
0.0182005
0.0210263
0.0236445
0.0259168
0.0277116
0.0293101
0.0318995
0.0376886
0.0459425
0.0511156
0.0544407
0.0528952
0.0461767
0.0442735
0.0499303
0.0639707
0.0831807
0.104311
0.12403
0.144912
0.169528
0.198191
0.234109
0.270852
0.315524
0.378989
0.318999
0.368991
0.308496
0.351365
0.290767
0.336946
0.270052
0.318719
0.244243
0.296285
0.213256
0.269494
0.173255
0.235108
0.119593
0.187745
0.0584684
0.120011
0.0528839
0.0192888
0.0454083
0.0366284
0.00966961
0.0150745
0.00242482
0.00656916
0.000763331
0.00225904
0.00414341
0.0065069
0.00901941
0.0116593
0.0143624
0.0171842
0.0200094
0.022669
0.0250436
0.026959
0.0285838
0.0308341
0.0357751
0.0431709
0.0476067
0.0499898
0.0470295
0.0395997
0.0371648
0.0388027
0.0445988
0.0548241
0.0697779
0.0876178
0.108962
0.140901
0.186074
0.233297
0.287051
0.345103
0.389402
0.426023
0.419896
0.392931
0.419981
0.382364
0.423313
0.366117
0.413297
0.348159
0.397859
0.325236
0.378366
0.296594
0.3556
0.257284
0.32491
0.199085
0.279066
0.114435
0.206173
0.101553
0.0276218
0.0862896
0.0674793
0.0112307
0.0196123
0.00275229
0.00741861
0.000529253
0.00182615
0.00354858
0.00575525
0.00814669
0.010679
0.0133115
0.0160703
0.0188761
0.0215659
0.0240208
0.026068
0.027756
0.0297463
0.0338904
0.0406146
0.0445754
0.0463507
0.042702
0.0359464
0.0336246
0.0336816
0.0357889
0.0411259
0.0509242
0.0649324
0.081976
0.105124
0.143451
0.213803
0.282942
0.339546
0.374862
0.410263
0.39411
0.436365
0.422175
0.442035
0.444145
0.448065
0.460868
0.442832
0.468865
0.429194
0.467237
0.410735
0.457703
0.386774
0.440264
0.352125
0.415723
0.29636
0.376719
0.206982
0.308883
0.195163
0.0474259
0.17148
0.133551
0.0133753
0.0299099
0.00280238
0.00821439
0.000280678
0.0013406
0.00287352
0.00491235
0.00714004
0.00959047
0.0121581
0.0148554
0.0176278
0.0203361
0.0228465
0.0250278
0.0268085
0.0286272
0.0320644
0.0381651
0.0419016
0.0433469
0.0396224
0.0337726
0.0317506
0.031321
0.0319962
0.0346333
0.0405351
0.0514387
0.0665542
0.0844141
0.109345
0.16037
0.258588
0.326748
0.350795
0.374295
0.353555
0.397418
0.364545
0.42763
0.391821
0.458481
0.448211
0.475713
0.47058
0.485303
0.48809
0.485555
0.496575
0.477996
0.498583
0.462226
0.490802
0.436701
0.474219
0.393659
0.446811
0.313311
0.401092
0.305994
0.0934513
0.28424
0.241749
0.0174852
0.055297
0.00200376
0.0093456
6.17279e-05
0.000811928
0.00212537
0.00397396
0.00603747
0.00839282
0.0109014
0.0135324
0.0162679
0.0189775
0.0215373
0.0238265
0.025722
0.0274571
0.030306
0.0357195
0.0394643
0.0408123
0.0373615
0.0323516
0.0306788
0.0301641
0.0302531
0.031509
0.0348804
0.044049
0.0628541
0.0830238
0.103414
0.133486
0.20264
0.300646
0.329962
0.300772
0.333978
0.29708
0.348681
0.306604
0.380713
0.327255
0.456496
0.428028
0.479612
0.459857
0.496789
0.484739
0.504953
0.500971
0.50527
0.510136
0.496788
0.508339
0.478247
0.496226
0.449732
0.47573
0.399649
0.447157
0.390753
0.179803
0.370754
0.333946
0.0288625
0.109638
0.00309189
0.0253732
0.00026407
0.00131317
0.00294165
0.00484912
0.0070889
0.00954477
0.0121066
0.0147911
0.0174967
0.0200924
0.022466
0.0244832
0.026207
0.0285841
0.0332451
0.0371556
0.0385252
0.0356228
0.0312681
0.0297951
0.0292715
0.0292323
0.0298605
0.031675
0.0376702
0.0576647
0.0874382
0.111342
0.129598
0.172927
0.256183
0.304761
0.286471
0.227186
0.218016
0.270342
0.243351
0.275567
0.231753
0.302672
0.242219
0.421742
0.36519
0.457917
0.409648
0.484077
0.449191
0.500587
0.477477
0.50995
0.495862
0.506734
0.504118
0.492101
0.499412
0.470386
0.482701
0.440722
0.462765
0.43161
0.277684
0.417216
0.392684
0.0830307
0.220935
0.0414746
0.136711
0.000443366
0.00182621
0.00358012
0.00568282
0.00807151
0.0105525
0.0131963
0.0158889
0.0185085
0.0209483
0.0230841
0.0248688
0.0268969
0.0307643
0.0348925
0.03638
0.0340556
0.030229
0.0288696
0.0284101
0.0282679
0.0287591
0.0297514
0.033023
0.046588
0.0842402
0.12203
0.145581
0.168221
0.226833
0.275685
0.277126
0.216381
0.220002
0.169265
0.167204
0.199181
0.178868
0.19128
0.153923
0.208227
0.150919
0.345416
0.275555
0.391663
0.321423
0.433429
0.368906
0.464413
0.410807
0.485284
0.44453
0.491976
0.466579
0.484308
0.472474
0.468953
0.46291
0.453225
0.453595
0.444304
0.359692
0.4351
0.424629
0.404576
0.227413
0.339286
0.0461496
0.192887
0.000624754
0.00222214
0.00417201
0.00645875
0.00888018
0.0114919
0.0141561
0.0167907
0.0192788
0.0215191
0.0234036
0.0252309
0.0283307
0.0325899
0.0342717
0.0325695
0.0291066
0.0278445
0.0274684
0.0274573
0.0276639
0.0284147
0.0301457
0.0371949
0.0654905
0.1183
0.155738
0.180549
0.217233
0.253667
0.263686
0.203673
0.169575
0.169758
0.118143
0.120414
0.130871
0.120391
0.109899
0.0849083
0.120145
0.0851251
0.245807
0.175217
0.292802
0.215551
0.340372
0.262842
0.381354
0.307804
0.415889
0.346152
0.437521
0.377848
0.44289
0.402931
0.438369
0.407947
0.438634
0.416808
0.43144
0.437333
0.429297
0.417756
0.385332
0.412037
0.431943
0.425688
0.42693
0.428776
0.31854
0.408516
0.402572
0.37068
0.0307664
0.179581
0.000762539
0.00257791
0.00472809
0.00711884
0.00964614
0.012298
0.0149395
0.0174735
0.0197946
0.0217965
0.0235482
0.0260301
0.030119
0.0321885
0.0310664
0.0280004
0.0268003
0.026358
0.0264059
0.0267271
0.0271863
0.028284
0.031704
0.0453862
0.0885791
0.145391
0.179646
0.209999
0.237699
0.24954
0.205499
0.138015
0.144493
0.126246
0.132212
0.0733345
0.0784383
0.0733323
0.071093
0.0629416
0.0489609
0.0845744
0.0654678
0.154247
0.112146
0.199025
0.155542
0.246144
0.2042
0.286968
0.248768
0.315855
0.281499
0.338586
0.295625
0.360351
0.347585
0.318742
0.400881
0.379494
0.332057
0.357306
0.406328
0.416528
0.396671
0.38685
0.41196
0.426136
0.425036
0.427205
0.41252
0.410698
0.427984
0.395644
0.308739
0.369992
0.424226
0.421827
0.0163286
0.315048
0.220275
0.119022
0.000887471
0.00290837
0.00522033
0.00769042
0.0103172
0.0129645
0.0155303
0.0179249
0.0200365
0.021803
0.0238553
0.0273944
0.0300537
0.0296832
0.0271425
0.0258034
0.0252835
0.0251758
0.0255608
0.0261158
0.0267916
0.0286513
0.0347753
0.0544269
0.0996543
0.158457
0.194542
0.220906
0.232368
0.198421
0.118634
0.0928893
0.0926062
0.0841483
0.0894219
0.0363478
0.0391744
0.0404506
0.0364222
0.0514872
0.040586
0.0866795
0.0764342
0.123052
0.100863
0.173891
0.158324
0.227906
0.228247
0.273163
0.29245
0.291208
0.328681
0.300359
0.295811
0.301037
0.325226
0.309663
0.296565
0.302189
0.294898
0.365359
0.34043
0.297699
0.317001
0.375396
0.391664
0.366982
0.35216
0.388474
0.429421
0.431814
0.416638
0.389155
0.393371
0.422067
0.411706
0.380959
0.433669
0.43285
0.106923
0.00635493
0.0248298
0.316784
0.215174
0.000997665
0.0032011
0.00561515
0.00821242
0.0108509
0.0134567
0.0159125
0.0181215
0.0199843
0.0217821
0.0246173
0.0277652
0.0282371
0.0264023
0.0251091
0.0241958
0.0239313
0.0241378
0.0248454
0.0255141
0.0266584
0.0296659
0.0377781
0.0588972
0.102857
0.156376
0.189121
0.201045
0.172193
0.0975322
0.0454462
0.0415581
0.0472973
0.0465291
0.0427013
0.0457086
0.0210395
0.0193762
0.0319457
0.0252622
0.0644582
0.0501863
0.154072
0.144355
0.156141
0.156861
0.247239
0.27218
0.334722
0.387965
0.403043
0.481991
0.35933
0.406954
0.453931
0.506541
0.296488
0.314142
0.347896
0.395375
0.291977
0.297194
0.293839
0.305543
0.327379
0.304124
0.290412
0.291784
0.341738
0.362157
0.334385
0.316418
0.360648
0.427913
0.434061
0.400848
0.363271
0.369913
0.410647
0.421678
0.386866
0.439049
0.438887
0.0938567
0.00738019
0.0206127
0.315599
0.204953
0.0010942
0.00344526
0.00597206
0.00863133
0.0112451
0.013767
0.016059
0.0180421
0.0197539
0.0219953
0.0251865
0.0264255
0.0254065
0.0243332
0.0233595
0.0226567
0.0226418
0.023167
0.0241669
0.0249992
0.0269209
0.0306721
0.0395521
0.0606456
0.0952658
0.125613
0.137101
0.112719
0.0657857
0.030019
0.0216953
0.0215098
0.0211404
0.0215427
0.0195046
0.0203117
0.01921
0.0154177
0.0364972
0.0259366
0.123745
0.0958409
0.286523
0.267759
0.290637
0.295048
0.43176
0.461317
0.544024
0.589908
0.548741
0.591942
0.619165
0.646318
0.450335
0.50711
0.560294
0.607
0.33315
0.377623
0.433799
0.495181
0.302844
0.317361
0.330398
0.355016
0.295275
0.287713
0.308695
0.291193
0.307874
0.330512
0.302397
0.289996
0.330592
0.421675
0.432445
0.380849
0.334952
0.344042
0.394922
0.427368
0.389371
0.440833
0.442374
0.0766976
0.00770835
0.0179175
0.310382
0.186631
0.00117601
0.00363779
0.00625895
0.00892174
0.0114839
0.0138754
0.0159674
0.0177035
0.019556
0.0223518
0.0242732
0.0241091
0.0232285
0.0225511
0.0215654
0.0210769
0.0214231
0.0222716
0.0235808
0.0248793
0.0273281
0.0314832
0.040165
0.0556568
0.0707123
0.0752282
0.0650713
0.0445983
0.0274817
0.0190983
0.0205073
0.0158757
0.0171808
0.0138794
0.0147799
0.0135948
0.0133218
0.0261508
0.0175947
0.0668724
0.0425671
0.231699
0.184161
0.443978
0.412851
0.4705
0.462378
0.602922
0.592888
0.690405
0.67901
0.644978
0.673791
0.693549
0.702303
0.555157
0.609302
0.654978
0.690807
0.408641
0.471918
0.536918
0.598092
0.343614
0.377264
0.399261
0.439289
0.284953
0.292284
0.35636
0.314188
0.286421
0.300066
0.28428
0.282882
0.301345
0.410785
0.426854
0.358199
0.30679
0.317735
0.376248
0.430954
0.390315
0.440059
0.444292
0.0560778
0.00736225
0.0178327
0.301119
0.156795
0.00123174
0.00379589
0.00645858
0.00909097
0.0115603
0.0137743
0.0156147
0.0172783
0.0195235
0.0219128
0.0223953
0.021834
0.0214345
0.0209851
0.0196631
0.0195635
0.0202647
0.0215939
0.0231642
0.0248791
0.0275453
0.0316002
0.0378056
0.0436966
0.0462447
0.0429669
0.0352194
0.0274116
0.0221451
0.0182341
0.0196162
0.0154299
0.0167815
0.0134142
0.0142734
0.0142281
0.0132407
0.0502143
0.0284369
0.132887
0.0859471
0.363764
0.300267
0.521913
0.492324
0.572056
0.548318
0.650751
0.614206
0.726217
0.712903
0.674995
0.695785
0.71639
0.732495
0.739224
0.736115
0.651467
0.694948
0.727714
0.749833
0.507194
0.574381
0.635285
0.686995
0.419077
0.467552
0.492452
0.539124
0.293235
0.318381
0.435664
0.367443
0.281181
0.283372
0.279599
0.292799
0.284122
0.396813
0.418033
0.334961
0.287648
0.29555
0.356147
0.433734
0.390459
0.436654
0.445002
0.0427407
0.00451906
0.0170903
0.286395
0.12526
0.00126752
0.00389865
0.00655882
0.00913694
0.011453
0.0134453
0.0150782
0.016881
0.0192713
0.0202799
0.0201978
0.0199947
0.0199872
0.0189473
0.0178209
0.0181516
0.0193213
0.0211327
0.0228887
0.0248217
0.0275838
0.0308865
0.0340074
0.0358879
0.0352721
0.0322646
0.0282099
0.0240928
0.0204134
0.0212667
0.0182192
0.0193717
0.0159942
0.0170592
0.0144914
0.0150277
0.0183377
0.0149952
0.0950672
0.0518874
0.2287
0.15672
0.454777
0.40204
0.525303
0.501664
0.580566
0.550541
0.653975
0.630083
0.579945
0.729659
0.71077
0.660981
0.688161
0.761729
0.763511
0.757491
0.745785
0.727747
0.757056
0.775555
0.783233
0.606932
0.666986
0.71638
0.754167
0.512958
0.566557
0.58941
0.634944
0.321728
0.375313
0.529084
0.44828
0.291009
0.278208
0.287843
0.321917
0.277973
0.381033
0.407464
0.311971
0.279867
0.284018
0.336071
0.43597
0.389423
0.431524
0.444788
0.0332591
-0.00165251
0.0136577
0.268089
0.0941635
0.00127677
0.00394318
0.00657762
0.0090366
0.0111633
0.0128841
0.0144566
0.0164705
0.0179926
0.0182452
0.0182639
0.0185167
0.0181856
0.016848
0.0160293
0.0169175
0.0186557
0.0207748
0.0226463
0.0247726
0.0273316
0.0297729
0.0315381
0.0319233
0.0307731
0.0283679
0.025224
0.0220675
0.0199061
0.0206087
0.0182416
0.0191385
0.0164122
0.0173296
0.0159606
0.0156741
0.0282762
0.0186688
0.158224
0.0897831
0.328736
0.242603
0.474849
0.438471
0.483581
0.472816
0.535132
0.502285
0.631532
0.601633
0.526678
0.489728
0.724167
0.698678
0.635278
0.668911
0.781462
0.773338
0.760891
0.744207
0.780176
0.794967
0.79883
0.794971
0.693401
0.740447
0.775014
0.797732
0.607524
0.657967
0.676413
0.71528
0.379114
0.455999
0.621363
0.540604
0.318404
0.283489
0.311452
0.377179
0.279188
0.364834
0.396149
0.294813
0.277163
0.279477
0.317418
0.437252
0.385843
0.425571
0.443511
0.0261301
-0.0135019
0.00480549
0.242056
0.0691576
0.00126203
0.00393653
0.00649746
0.0087958
0.0106686
0.0122067
0.0138235
0.015631
0.0160412
0.0162396
0.0166715
0.0168487
0.0160093
0.0147377
0.0144295
0.0160257
0.0181496
0.0204497
0.0225151
0.0246341
0.0267716
0.0285131
0.0293501
0.0290966
0.0277215
0.0255094
0.02281
0.0204037
0.0207126
0.0193578
0.0199276
0.0178634
0.0185807
0.016619
0.0171615
0.0182188
0.0166568
0.0460068
0.0251945
0.223476
0.136748
0.384925
0.311622
0.459647
0.435715
0.394538
0.403573
0.464621
0.442561
0.397281
0.598878
0.561488
0.473636
0.434572
0.710916
0.680524
0.606102
0.645606
0.786231
0.773312
0.756723
0.736991
0.808976
0.81018
0.805027
0.796137
0.759763
0.79141
0.810746
0.818718
0.6909
0.732736
0.746393
0.775155
0.457604
0.546376
0.701803
0.630808
0.369228
0.300344
0.354699
0.451254
0.288271
0.3498
0.38512
0.286468
0.279152
0.277963
0.303749
0.436913
0.377964
0.419303
0.440988
0.0164932
-0.0349806
-0.013341
0.211689
0.0493598
0.00123307
0.00388367
0.00631416
0.0084025
0.0100115
0.0114301
0.0130726
0.0138975
0.0139792
0.0144987
0.0150127
0.0148392
0.0138805
0.0126133
0.0131916
0.0153882
0.0177614
0.0201728
0.0223168
0.0243281
0.0260326
0.027091
0.0272821
0.0266105
0.0250882
0.0229138
0.0205275
0.0193312
0.0196041
0.0185198
0.0189389
0.0176363
0.0180925
0.0170517
0.0172293
0.0214096
0.0177317
0.0710031
0.0348676
0.256109
0.169668
0.395071
0.33455
0.4084
0.400876
0.315087
0.323195
0.320608
0.402652
0.383772
0.307881
0.30888
0.562905
0.517861
0.421099
0.375387
0.694304
0.66087
0.576951
0.621849
0.783501
0.767892
0.74826
0.722885
0.817908
0.812181
0.803464
0.790593
0.803915
0.820245
0.825138
0.822867
0.757077
0.787074
0.796199
0.813184
0.545172
0.634756
0.765139
0.709193
0.435912
0.332352
0.408891
0.534146
0.307976
0.336191
0.375093
0.283017
0.288076
0.279509
0.296167
0.434242
0.366073
0.412389
0.436523
0.000133848
-0.0685846
-0.0454427
0.183359
0.0297867
0.0012001
0.0037772
0.00603013
0.00784029
0.00923459
0.0105909
0.0118068
0.0118618
0.0120927
0.0128218
0.0131446
0.0126554
0.0118403
0.0107691
0.0123588
0.0149879
0.0174601
0.0198545
0.0219067
0.0236653
0.0249402
0.0254756
0.0251414
0.0241384
0.0225228
0.0204598
0.0184777
0.0185754
0.0182651
0.0184239
0.0178366
0.0180874
0.0172972
0.0175595
0.0173359
0.0171516
0.0245819
0.0187305
0.0929402
0.0442851
0.255313
0.174424
0.373483
0.324285
0.334476
0.338953
0.267827
0.282503
0.249458
0.26064
0.340602
0.317954
0.257008
0.253795
0.526652
0.473164
0.369022
0.316816
0.679045
0.643199
0.550993
0.600864
0.776011
0.757223
0.735214
0.709504
0.816859
0.808157
0.79588
0.78185
0.826745
0.829126
0.825637
0.818966
0.803308
0.820198
0.825502
0.830629
0.631417
0.711775
0.808939
0.770667
0.509626
0.37297
0.470483
0.615682
0.335564
0.325207
0.364552
0.281663
0.303931
0.286187
0.293222
0.428907
0.351331
0.403351
0.429871
-0.0299565
-0.116582
-0.0986474
0.159444
0.00130425
0.00116276
0.00362298
0.00562573
0.00718137
0.0083651
0.00959969
0.00995924
0.00989089
0.0103682
0.011049
0.011092
0.010703
0.00968005
0.00947285
0.0119648
0.0147237
0.0171529
0.0194068
0.0212874
0.0226978
0.0235578
0.0235918
0.0228643
0.0217106
0.0200789
0.0180236
0.0173217
0.017263
0.0171781
0.0172515
0.0169379
0.0170629
0.0167457
0.0168085
0.0175089
0.0168907
0.0258265
0.0193262
0.0976507
0.046739
0.222816
0.153433
0.320775
0.280995
0.268083
0.271257
0.252738
0.220067
0.23429
0.202636
0.215476
0.279589
0.259129
0.207819
0.203081
0.4933
0.430006
0.32174
0.262023
0.661414
0.62323
0.524246
0.57789
0.764536
0.744455
0.720982
0.693655
0.809919
0.7987
0.78482
0.768353
0.831036
0.826418
0.818593
0.809361
0.828226
0.832561
0.83219
0.830827
0.706686
0.771754
0.828028
0.812277
0.583855
0.423223
0.537166
0.686881
0.374501
0.315317
0.353282
0.283898
0.331699
0.301871
0.291867
0.419935
0.335955
0.392325
0.419646
-0.077182
-0.175166
-0.158332
0.134383
-0.0268235
0.00112387
0.00340719
0.00510287
0.00640242
0.00740367
0.00817264
0.00804527
0.00807574
0.00870426
0.00921285
0.00906593
0.00872915
0.00761574
0.00872404
0.011797
0.0144933
0.0167713
0.0188273
0.0204419
0.0215165
0.0219851
0.021555
0.0206005
0.0193787
0.0176638
0.0152367
0.0159636
0.0159727
0.01595
0.0159722
0.0159472
0.015941
0.0161821
0.0160093
0.0173507
0.0165607
0.0250525
0.0192766
0.085783
0.0424574
0.16351
0.109649
0.240694
0.209791
0.225498
0.234231
0.164981
0.172115
0.173535
0.188019
0.150463
0.160376
0.222311
0.205285
0.160972
0.155484
0.461744
0.392083
0.279112
0.214809
0.64174
0.601538
0.495847
0.553399
0.749739
0.728485
0.703868
0.675404
0.796801
0.782982
0.76732
0.749971
0.824962
0.816421
0.806596
0.792593
0.829663
0.828453
0.824846
0.821503
0.763947
0.80984
0.825601
0.824955
0.651497
0.481822
0.601843
0.742748
0.421043
0.309369
0.342182
0.288551
0.363778
0.318931
0.291463
0.407143
0.319921
0.380188
0.405635
-0.109692
-0.234766
-0.214374
0.126247
-0.0281993
0.00108398
0.00309654
0.00450566
0.00553131
0.00630144
0.00647227
0.00622526
0.00639077
0.00706327
0.007314
0.00736122
0.00663191
0.006026
0.00857439
0.0117007
0.0142194
0.0163264
0.0180816
0.0194005
0.0201823
0.0202744
0.0194716
0.0184228
0.017098
0.0150898
0.0132361
0.0146743
0.0132748
0.0147237
0.014786
0.0147493
0.0149477
0.0148461
0.0153951
0.0151222
0.0167312
0.0158961
0.0223596
0.0183797
0.0595714
0.0329246
0.0920269
0.0578339
0.137792
0.122713
0.167724
0.172625
0.130773
0.126307
0.125342
0.13783
0.0967921
0.10599
0.171055
0.156204
0.115413
0.110695
0.428333
0.353715
0.235851
0.169977
0.619665
0.577901
0.466599
0.527594
0.730744
0.70896
0.683738
0.654379
0.778145
0.762431
0.745627
0.727439
0.812066
0.798391
0.783067
0.768181
0.820343
0.816078
0.809763
0.805305
0.799437
0.818438
0.813383
0.819583
0.707429
0.538937
0.657149
0.781612
0.466074
0.303933
0.329979
0.294867
0.39472
0.338547
0.290969
0.392134
0.315659
0.364436
0.389076
-0.0976371
-0.156737
-0.0862673
0.173892
0.0942891
0.00102328
0.00270469
0.00382204
0.00458039
0.00494081
0.0047592
0.0045388
0.00487562
0.00547118
0.005619
0.00569463
0.00476962
0.00534618
0.00867382
0.0115807
0.0139162
0.0157796
0.0171888
0.0182174
0.0187386
0.0184747
0.0174446