/*--------------------------------*- C++ -*----------------------------------*\
  =========                 |
  \\      /  F ield         | OpenFOAM: The Open Source CFD Toolbox
   \\    /   O peration     | Website:  https://openfoam.org
    \\  /    A nd           | Version:  dev
     \\/     M anipulation  |
\*---------------------------------------------------------------------------*/
FoamFile
{
    version     2.0;
    format      ascii;
    class       surfaceScalarField;
    location    "2500";
    object      phi;
}
// * * * * * * * * * * * * * * * * * * * * * * * * * * * * * * * * * * * * * //

dimensions      [1 0 -1 0 0 0 0];

internalField   nonuniform List<scalar> 
19523
(
1.57408e-07
9.88272e-08
1.43612e-07
2.42304e-07
4.33457e-07
8.46986e-08
1.25038e-07
3.24361e-07
4.42934e-07
2.32842e-07
6.11781e-07
6.56698e-08
1.07955e-07
3.74319e-07
4.33677e-07
3.33654e-07
6.43742e-07
2.00815e-07
7.36419e-07
5.04151e-08
9.63327e-08
4.01041e-07
4.0901e-07
3.98982e-07
6.66707e-07
3.10738e-07
7.76168e-07
1.61061e-07
8.36082e-07
4.00285e-08
8.68011e-08
4.12821e-07
3.7515e-07
4.35008e-07
6.72236e-07
3.93503e-07
8.20404e-07
2.66512e-07
8.68878e-07
1.2827e-07
9.1937e-07
3.28988e-08
7.86379e-08
4.13487e-07
3.39846e-07
4.48127e-07
6.5906e-07
4.48138e-07
8.5699e-07
3.56954e-07
9.18087e-07
2.17388e-07
9.4303e-07
1.04592e-07
9.9088e-07
2.7347e-08
7.29177e-08
4.05276e-07
3.06913e-07
4.46438e-07
6.3054e-07
4.76688e-07
8.78075e-07
4.27069e-07
9.72398e-07
3.02664e-07
9.84388e-07
1.76057e-07
1.00816e-06
8.73123e-08
1.05154e-06
2.32542e-08
6.94919e-08
3.90201e-07
2.79191e-07
4.33046e-07
5.94431e-07
4.826e-07
8.80005e-07
4.74787e-07
1.02117e-06
3.78326e-07
1.03871e-06
2.48351e-07
1.03867e-06
1.45549e-07
1.06451e-06
7.43179e-08
1.10528e-06
2.01373e-08
6.92997e-08
3.68037e-07
2.587e-07
4.10741e-07
5.54564e-07
4.72967e-07
8.6617e-07
4.96475e-07
1.05828e-06
4.37715e-07
1.09961e-06
3.1747e-07
1.08282e-06
2.04223e-07
1.08697e-06
1.23096e-07
1.11497e-06
6.46252e-08
1.1541e-06
1.79442e-08
7.09185e-08
3.41333e-07
2.43685e-07
3.83123e-07
5.15131e-07
4.5024e-07
8.41639e-07
4.97558e-07
1.07785e-06
4.76936e-07
1.1594e-06
3.77963e-07
1.13877e-06
2.61553e-07
1.11993e-06
1.71283e-07
1.13095e-06
1.07121e-07
1.16074e-06
5.79816e-08
1.19812e-06
1.65384e-08
7.35507e-08
3.10252e-07
2.34449e-07
3.50656e-07
4.79566e-07
4.1878e-07
8.07527e-07
4.84426e-07
1.08168e-06
4.93778e-07
1.21039e-06
4.25973e-07
1.20286e-06
3.13912e-07
1.1647e-06
2.16809e-07
1.15519e-06
1.47059e-07
1.17226e-06
9.56058e-08
1.20272e-06
5.33715e-08
1.23997e-06
1.59145e-08
7.81245e-08
2.73592e-07
2.30708e-07
3.14099e-07
4.50441e-07
3.79896e-07
7.6964e-07
4.56758e-07
1.07285e-06
4.93324e-07
1.24683e-06
4.57377e-07
1.26867e-06
3.60206e-07
1.2195e-06
2.59164e-07
1.18817e-06
1.83844e-07
1.18834e-06
1.30992e-07
1.20975e-06
8.8577e-08
1.24219e-06
5.11593e-08
1.28168e-06
1.58935e-08
8.52447e-08
2.32334e-07
2.30743e-07
2.73672e-07
4.29179e-07
3.35495e-07
7.34086e-07
4.15562e-07
1.05437e-06
4.75313e-07
1.2706e-06
4.69608e-07
1.32916e-06
3.96927e-07
1.28171e-06
2.98041e-07
1.22913e-06
2.18256e-07
1.21064e-06
1.61574e-07
1.22001e-06
1.20748e-07
1.24574e-06
8.50066e-08
1.28152e-06
5.13008e-08
1.32327e-06
1.63909e-08
9.43753e-08
1.90508e-07
2.33542e-07
2.2967e-07
4.15571e-07
2.87436e-07
7.02026e-07
3.67688e-07
1.03016e-06
4.39863e-07
1.28271e-06
4.63263e-07
1.38154e-06
4.17271e-07
1.348e-06
3.30687e-07
1.27826e-06
2.48993e-07
1.23914e-06
1.89819e-07
1.23394e-06
1.47668e-07
1.25086e-06
1.1564e-07
1.28211e-06
8.44047e-08
1.3225e-06
5.20452e-08
1.36685e-06
1.71488e-08
1.07644e-07
1.49146e-07
2.42366e-07
1.81846e-07
4.09535e-07
2.35887e-07
6.76195e-07
3.13423e-07
1.00507e-06
3.92894e-07
1.28388e-06
4.38764e-07
1.42369e-06
4.21168e-07
1.41343e-06
3.51889e-07
1.33437e-06
2.74614e-07
1.27361e-06
2.14579e-07
1.2516e-06
1.72225e-07
1.25761e-06
1.4095e-07
1.28216e-06
1.15607e-07
1.31999e-06
8.69109e-08
1.36439e-06
5.44518e-08
1.41234e-06
1.83697e-08
1.30916e-07
1.1049e-07
2.589e-07
1.32787e-07
4.10702e-07
1.80882e-07
6.58594e-07
2.5367e-07
9.8234e-07
3.36277e-07
1.2785e-06
3.98366e-07
1.4548e-06
4.07712e-07
1.47445e-06
3.60195e-07
1.39529e-06
2.91038e-07
1.314e-06
2.34288e-07
1.27299e-06
1.93249e-07
1.2659e-06
1.64001e-07
1.28213e-06
1.41018e-07
1.31621e-06
1.19377e-07
1.36026e-06
9.10364e-08
1.40869e-06
5.80637e-08
1.46001e-06
1.98177e-08
1.78602e-07
7.77901e-08
2.8656e-07
8.30246e-08
4.21051e-07
1.22663e-07
6.50435e-07
1.89246e-07
9.64712e-07
2.71458e-07
1.27089e-06
3.44002e-07
1.47682e-06
3.76408e-07
1.52882e-06
3.53399e-07
1.45825e-06
2.97281e-07
1.36001e-06
2.45097e-07
1.29784e-06
2.0951e-07
1.27579e-06
1.83423e-07
1.28262e-06
1.63552e-07
1.31147e-06
1.45798e-07
1.35361e-06
1.26013e-07
1.40276e-06
9.69444e-08
1.45601e-06
6.20046e-08
1.51163e-06
2.12473e-08
2.90024e-07
4.0207e-08
3.34934e-07
2.96267e-08
4.43139e-07
6.11822e-08
6.52921e-07
1.2041e-07
9.54459e-07
1.99681e-07
1.26456e-06
2.77909e-07
1.49311e-06
3.27786e-07
1.57566e-06
3.29627e-07
1.52019e-06
2.91512e-07
1.41021e-06
2.4714e-07
1.32631e-06
2.16689e-07
1.2874e-06
1.97977e-07
1.28309e-06
1.83033e-07
1.30486e-06
1.70179e-07
1.34445e-06
1.54974e-07
1.39414e-06
1.34611e-07
1.44921e-06
1.03704e-07
1.50741e-06
6.61552e-08
1.56621e-06
2.25344e-08
5.61823e-07
-6.76889e-08
4.11123e-07
-3.57436e-08
4.789e-07
-5.86817e-09
6.67361e-07
4.70002e-08
9.53278e-07
1.21802e-07
1.26252e-06
2.01869e-07
1.50666e-06
2.64464e-07
1.61596e-06
2.87549e-07
1.57928e-06
2.70599e-07
1.46372e-06
2.38058e-07
1.35848e-06
2.15066e-07
1.30034e-06
2.03828e-07
1.28253e-06
1.98617e-07
1.29612e-06
1.91865e-07
1.33248e-06
1.82198e-07
1.382e-06
1.67113e-07
1.43877e-06
1.45021e-07
1.50009e-06
1.10972e-07
1.56218e-06
7.01262e-08
1.62422e-06
2.37189e-08
1.06986e-07
-3.58107e-07
4.78338e-07
-1.34614e-07
5.26701e-07
-8.32416e-08
6.93539e-07
-3.17578e-08
9.62128e-07
3.83895e-08
1.26711e-06
1.17387e-07
1.52049e-06
1.8815e-07
1.65205e-06
2.28453e-07
1.63421e-06
2.32682e-07
1.51895e-06
2.15452e-07
1.39335e-06
2.03259e-07
1.31386e-06
2.01626e-07
1.28114e-06
2.05306e-07
1.2852e-06
2.09617e-07
1.31685e-06
2.07553e-07
1.36593e-06
1.9831e-07
1.42472e-06
1.81166e-07
1.48898e-06
1.56093e-07
1.55516e-06
1.17929e-07
1.62063e-06
7.36527e-08
1.68477e-06
2.45727e-08
6.11023e-07
-2.12194e-07
4.06681e-07
-2.86125e-07
5.6903e-07
-1.76599e-07
7.28062e-07
-1.17448e-07
9.81197e-07
-5.05598e-08
1.27974e-06
2.59553e-08
1.53789e-06
1.00118e-07
1.68636e-06
1.53921e-07
1.6862e-06
1.76522e-07
1.5743e-06
1.77392e-07
1.43095e-06
1.77948e-07
1.3285e-06
1.88717e-07
1.27822e-06
2.04645e-07
1.27077e-06
2.19831e-07
1.29643e-06
2.30126e-07
1.34479e-06
2.2875e-07
1.40573e-06
2.17333e-07
1.47372e-06
1.96399e-07
1.54454e-06
1.66659e-07
1.61442e-06
1.24043e-07
1.68201e-06
7.63435e-08
1.74714e-06
2.4966e-08
4.0205e-07
-5.17621e-07
5.28787e-07
-3.33994e-07
5.71408e-07
-2.88106e-07
7.62956e-07
-2.11188e-07
1.00882e-06
-1.44772e-07
1.301e-06
-7.15782e-08
1.56123e-06
2.7764e-09
1.72198e-06
6.46003e-08
1.73733e-06
1.02871e-07
1.62932e-06
1.21577e-07
1.47135e-06
1.37072e-07
1.34457e-06
1.61971e-07
1.27367e-06
1.93367e-07
1.25285e-06
2.22662e-07
1.27089e-06
2.45466e-07
1.31736e-06
2.57629e-07
1.38056e-06
2.53965e-07
1.45315e-06
2.37932e-07
1.52967e-06
2.11235e-07
1.60501e-06
1.76003e-07
1.67733e-06
1.28618e-07
1.74596e-06
7.74434e-08
1.81101e-06
2.48525e-08
2.48074e-07
-7.21931e-07
4.95677e-07
-4.84157e-07
6.13732e-07
-3.75904e-07
7.8723e-07
-3.12016e-07
1.04159e-06
-2.43602e-07
1.33019e-06
-1.73701e-07
1.59192e-06
-1.02078e-07
1.76194e-06
-3.70493e-08
1.78912e-06
1.28937e-08
1.68482e-06
4.74447e-08
1.51444e-06
7.85673e-08
1.36237e-06
1.1937e-07
1.26814e-06
1.67611e-07
1.23116e-06
2.15172e-07
1.23936e-06
2.5429e-07
1.28257e-06
2.80347e-07
1.3479e-06
2.9036e-07
1.42609e-06
2.81059e-07
1.50947e-06
2.58128e-07
1.59182e-06
2.24375e-07
1.67033e-06
1.82908e-07
1.74366e-06
1.30805e-07
1.81132e-06
7.70488e-08
1.87546e-06
2.47244e-08
1.62681e-07
-7.4689e-07
3.97474e-07
-6.23352e-07
6.15453e-07
-4.8544e-07
8.19387e-07
-4.07647e-07
1.07477e-06
-3.44823e-07
1.36578e-06
-2.78885e-07
1.6305e-06
-2.12073e-07
1.80783e-06
-1.47831e-07
1.8436e-06
-9.1428e-08
1.74318e-06
-4.53864e-08
1.56123e-06
7.42177e-10
1.38336e-06
5.76865e-08
1.26231e-06
1.25316e-07
1.20492e-06
1.93971e-07
1.20077e-06
2.5388e-07
1.23912e-06
2.97847e-07
1.30595e-06
3.22383e-07
1.3901e-06
3.26412e-07
1.48213e-06
3.08427e-07
1.57372e-06
2.7622e-07
1.66067e-06
2.33973e-07
1.74026e-06
1.86191e-07
1.81209e-06
1.29914e-07
1.87718e-06
7.52363e-08
1.94342e-06
2.33231e-08
1.09722e-07
-7.54269e-07
3.38662e-07
-6.87668e-07
5.81906e-07
-5.89311e-07
8.39015e-07
-5.04611e-07
1.1104e-06
-4.42853e-07
1.40548e-06
-3.84186e-07
1.67645e-06
-3.24591e-07
1.8607e-06
-2.64776e-07
1.90387e-06
-2.07994e-07
1.80683e-06
-1.54989e-07
1.61326e-06
-9.73207e-08
1.40927e-06
-2.50558e-08
1.25755e-06
6.25675e-08
1.17502e-06
1.55339e-07
1.15434e-06
2.40524e-07
1.18503e-06
3.08084e-07
1.2527e-06
3.51194e-07
1.34334e-06
3.69227e-07
1.44545e-06
3.63152e-07
1.5487e-06
3.33464e-07
1.64662e-06
2.90233e-07
1.73518e-06
2.38964e-07
1.8131e-06
1.85043e-07
1.88144e-06
1.2551e-07
1.9483e-06
7.02649e-08
2.00335e-06
2.10992e-08
1.00735e-07
-7.51396e-07
3.04685e-07
-7.19886e-07
5.56433e-07
-6.61679e-07
8.44765e-07
-5.94563e-07
1.14317e-06
-5.3692e-07
1.44891e-06
-4.8591e-07
1.72851e-06
-4.35978e-07
1.92099e-06
-3.84687e-07
1.97265e-06
-3.33438e-07
1.8784e-06
-2.79476e-07
1.67324e-06
-2.14877e-07
1.44243e-06
-1.3036e-07
1.25654e-06
-2.39066e-08
1.14287e-06
9.48518e-08
1.10012e-06
2.09698e-07
1.11906e-06
3.06614e-07
1.18556e-06
3.75333e-07
1.28295e-06
4.11676e-07
1.39683e-06
4.17912e-07
1.51435e-06
3.97545e-07
1.62657e-06
3.53516e-07
1.7273e-06
2.9806e-07
1.81419e-06
2.3776e-07
1.88759e-06
1.78746e-07
1.95581e-06
1.17856e-07
2.01058e-06
6.29419e-08
2.05902e-06
1.80523e-08
8.41376e-08
-7.51383e-07
2.92133e-07
-7.38399e-07
5.45918e-07
-7.08807e-07
8.50631e-07
-6.6701e-07
1.1718e-06
-6.22702e-07
1.49371e-06
-5.81304e-07
1.78584e-06
-5.42931e-07
1.98896e-06
-5.03728e-07
2.05157e-06
-4.63481e-07
1.96051e-06
-4.15455e-07
1.74445e-06
-3.50596e-07
1.48656e-06
-2.58905e-07
1.26304e-06
-1.36728e-07
1.11161e-06
7.51215e-09
1.03918e-06
1.55935e-07
1.04008e-06
2.88819e-07
1.1016e-06
3.907e-07
1.20543e-06
4.52957e-07
1.33322e-06
4.75374e-07
1.46797e-06
4.64349e-07
1.59784e-06
4.26301e-07
1.71458e-06
3.66216e-07
1.81409e-06
2.98085e-07
1.89576e-06
2.29454e-07
1.96701e-06
1.67367e-07
2.02279e-06
1.05493e-07
2.06864e-06
5.32385e-08
2.10888e-06
1.41369e-08
8.57793e-08
-7.49471e-07
2.89605e-07
-7.4833e-07
5.47697e-07
-7.3964e-07
8.63014e-07
-7.20639e-07
1.20034e-06
-6.95032e-07
1.53885e-06
-6.67385e-07
1.84701e-06
-6.42138e-07
2.06444e-06
-6.18168e-07
2.14124e-06
-5.93248e-07
2.0552e-06
-5.58068e-07
1.83005e-06
-5.0097e-07
1.54569e-06
-4.09623e-07
1.2825e-06
-2.7823e-07
1.08706e-06
-1.12005e-07
9.75073e-07
7.17919e-08
9.48541e-07
2.47635e-07
9.98459e-07
3.92096e-07
1.10647e-06
4.8977e-07
1.2498e-06
5.36467e-07
1.40569e-06
5.37723e-07
1.55763e-06
5.04605e-07
1.6945e-06
4.46391e-07
1.81109e-06
3.69179e-07
1.90522e-06
2.88518e-07
1.98274e-06
2.13561e-07
2.04117e-06
1.48796e-07
2.08485e-06
8.91148e-08
2.12069e-06
4.1344e-08
2.15136e-06
9.38e-09
7.48718e-08
-7.45251e-07
2.93456e-07
-7.52764e-07
5.58745e-07
-7.58796e-07
8.82642e-07
-7.58698e-07
1.23237e-06
-7.52125e-07
1.58565e-06
-7.41345e-07
1.91118e-06
-7.31184e-07
2.14691e-06
-7.24352e-07
2.24109e-06
-7.17861e-07
2.16363e-06
-7.01575e-07
1.93304e-06
-6.60976e-07
1.62454e-06
-5.79732e-07
1.32155e-06
-4.48532e-07
1.07727e-06
-2.68265e-07
9.15168e-07
-5.19135e-08
8.48052e-07
1.72458e-07
8.75417e-07
3.70834e-07
9.81622e-07
5.17077e-07
1.1409e-06
5.98767e-07
1.32287e-06
6.19355e-07
1.50301e-06
5.92395e-07
1.66528e-06
5.33848e-07
1.80271e-06
4.54758e-07
1.91297e-06
3.61367e-07
2.00064e-06
2.70497e-07
2.066e-06
1.8854e-07
2.10958e-06
1.23866e-07
2.14107e-06
6.85752e-08
2.16568e-06
2.69435e-08
2.18499e-06
3.73519e-09
7.83237e-08
-7.32546e-07
2.99684e-07
-7.50938e-07
5.75261e-07
-7.68722e-07
9.08582e-07
-7.8415e-07
1.26852e-06
-7.94274e-07
1.63505e-06
-8.01006e-07
1.97789e-06
-8.07643e-07
2.23539e-06
-8.1938e-07
2.35036e-06
-8.33474e-07
2.28632e-06
-8.40455e-07
2.05558e-06
-8.24043e-07
1.72761e-06
-7.63949e-07
1.38789e-06
-6.45915e-07
1.09429e-06
-4.65359e-07
8.73546e-07
-2.26429e-07
7.50217e-07
4.61282e-08
7.38948e-07
3.09106e-07
8.30845e-07
5.2175e-07
9.99719e-07
6.58364e-07
1.2095e-06
7.1221e-07
1.42595e-06
6.96457e-07
1.62435e-06
6.33347e-07
1.79119e-06
5.45368e-07
1.9222e-06
4.45491e-07
2.02173e-06
3.4019e-07
2.09489e-06
2.41451e-07
2.14127e-06
1.5663e-07
2.17107e-06
9.36388e-08
2.19021e-06
4.38802e-08
2.2021e-06
9.76724e-09
2.20909e-06
-2.58867e-09
9.38796e-08
-7.13945e-07
3.1042e-07
-7.42859e-07
5.95557e-07
-7.70653e-07
9.39192e-07
-7.98744e-07
1.30794e-06
-8.22989e-07
1.68645e-06
-8.45126e-07
2.0466e-06
-8.69273e-07
2.32706e-06
-8.98979e-07
2.46743e-06
-9.36288e-07
2.42343e-06
-9.70488e-07
2.19936e-06
-9.84202e-07
1.85891e-06
-9.5523e-07
1.49e-06
-8.6586e-07
1.1532e-06
-7.04567e-07
8.79354e-07
-4.70866e-07
6.98766e-07
-1.74689e-07
6.32607e-07
1.52691e-07
6.86259e-07
4.53822e-07
8.5033e-07
6.71202e-07
1.07206e-06
7.95839e-07
1.3165e-06
8.21687e-07
1.55339e-06
7.67427e-07
1.76076e-06
6.63775e-07
1.92767e-06
5.39876e-07
2.0505e-06
4.16657e-07
2.1363e-06
2.98668e-07
2.18387e-06
1.98667e-07
2.21064e-06
1.16826e-07
2.22501e-06
5.86104e-08
2.23075e-06
1.50682e-08
2.22741e-06
-8.61816e-09
2.22182e-06
-9.287e-09
1.03747e-07
-7.00836e-07
3.25677e-07
-7.2882e-07
6.18279e-07
-7.65002e-07
9.72677e-07
-8.03553e-07
1.34956e-06
-8.39774e-07
1.73923e-06
-8.7521e-07
2.11642e-06
-9.14476e-07
2.42025e-06
-9.62113e-07
2.58882e-06
-1.0202e-06
2.57104e-06
-1.08381e-06
2.3629e-06
-1.13399e-06
2.02061e-06
-1.14576e-06
1.63456e-06
-1.09954e-06
1.26877e-06
-9.81022e-07
9.61477e-07
-7.86112e-07
7.4287e-07
-5.14345e-07
6.32442e-07
-1.74079e-07
6.33337e-07
2.05737e-07
7.52397e-07
5.51612e-07
9.70778e-07
7.72278e-07
1.22936e-06
8.82823e-07
1.48544e-06
8.89564e-07
1.7155e-06
8.12645e-07
1.91259e-06
6.78824e-07
2.06567e-06
5.24653e-07
2.17945e-06
3.7341e-07
2.2411e-06
2.41294e-07
2.26742e-06
1.41675e-07
2.2724e-06
6.91728e-08
2.27161e-06
1.75001e-08
2.25973e-06
-1.74212e-08
2.24162e-06
-2.84712e-08
2.22141e-06
-4.23583e-09
-1.08728e-08
8.82277e-08
-6.86366e-07
3.36228e-07
-7.10958e-07
6.4127e-07
-7.51249e-07
1.00572e-06
-7.97463e-07
1.39158e-06
-8.44977e-07
1.79178e-06
-8.91737e-07
2.18705e-06
-9.45339e-07
2.51494e-06
-1.00878e-06
2.71292e-06
-1.08601e-06
2.72614e-06
-1.17523e-06
2.54109e-06
-1.26195e-06
2.20872e-06
-1.32194e-06
1.8219e-06
-1.33275e-06
1.44855e-06
-1.27858e-06
1.13645e-06
-1.1548e-06
9.12889e-07
-9.54654e-07
7.94445e-07
-6.75049e-07
7.76369e-07
-3.16576e-07
8.43513e-07
1.14118e-07
9.87186e-07
5.34152e-07
1.21545e-06
7.8525e-07
1.48019e-06
8.87508e-07
1.71929e-06
8.85505e-07
1.92302e-06
8.0208e-07
2.08758e-06
6.56833e-07
2.21751e-06
4.86513e-07
2.2972e-06
3.1719e-07
2.33558e-06
1.72947e-07
2.34059e-06
7.32448e-08
2.32515e-06
1.53604e-08
2.30511e-06
-2.81247e-08
2.28069e-06
-5.66649e-08
2.24556e-06
-2.51814e-08
-2.74896e-08
1.09804e-06
-2.02344e-09
1.10262e-06
-1.54511e-08
7.92847e-08
-6.54515e-07
3.37784e-07
-6.87505e-07
6.61928e-07
-7.3107e-07
1.03734e-06
-7.82282e-07
1.43199e-06
-8.3728e-07
1.84145e-06
-8.94061e-07
2.25337e-06
-9.57532e-07
2.60785e-06
-1.03783e-06
2.83967e-06
-1.13531e-06
2.88814e-06
-1.24793e-06
2.73272e-06
-1.36681e-06
2.41828e-06
-1.47134e-06
2.04423e-06
-1.54375e-06
1.68796e-06
-1.57095e-06
1.40271e-06
-1.54272e-06
1.2148e-06
-1.45385e-06
1.1275e-06
-1.28485e-06
1.1196e-06
-1.01645e-06
1.16341e-06
-6.36479e-07
1.24949e-06
-1.50138e-07
1.37202e-06
3.74512e-07
1.5567e-06
7.06454e-07
1.78396e-06
8.21534e-07
1.98529e-06
8.22652e-07
2.15201e-06
7.37388e-07
2.28174e-06
5.92461e-07
2.36571e-06
4.1788e-07
2.40769e-06
2.44931e-07
2.41722e-06
9.60991e-08
2.40052e-06
-2.40393e-09
2.36662e-06
-4.64508e-08
2.33004e-06
-3.81793e-08
-3.9564e-08
1.13862e-06
-4.39102e-08
1.1414e-06
-4.73879e-08
1.10636e-06
-2.89158e-08
1.11786e-06
-3.9002e-08
1.09346e-06
-1.67469e-09
1.09615e-06
-1.81303e-08
8.72788e-08
-6.09772e-07
3.40238e-07
-6.56539e-07
6.79478e-07
-7.04494e-07
1.06682e-06
-7.5997e-07
1.47053e-06
-8.20224e-07
1.88801e-06
-8.83245e-07
2.31405e-06
-9.54205e-07
2.69502e-06
-1.04424e-06
2.9605e-06
-1.15837e-06
3.05066e-06
-1.29773e-06
2.9346e-06
-1.44977e-06
2.64697e-06
-1.59531e-06
2.2965e-06
-1.72291e-06
1.97386e-06
-1.82792e-06
1.74093e-06
-1.90601e-06
1.61687e-06
-1.94036e-06
1.58317e-06
-1.9049e-06
1.60526e-06
-1.76706e-06
1.64085e-06
-1.49272e-06
1.6899e-06
-1.07842e-06
1.75499e-06
-5.36871e-07
1.83927e-06
8.66956e-08
1.9484e-06
5.37785e-07
2.10333e-06
7.01243e-07
2.25457e-06
7.19072e-07
2.38128e-06
6.37412e-07
2.46576e-06
4.92185e-07
2.50429e-06
3.21103e-07
2.50444e-06
1.57521e-07
2.48264e-06
1.37318e-08
2.44257e-06
-7.86604e-08
2.39202e-06
-5.19175e-08
-5.684e-08
1.15228e-06
-5.18973e-08
1.1695e-06
-5.68683e-08
1.12501e-06
-5.10954e-08
1.15189e-06
-6.24466e-08
1.14014e-06
-6.25647e-08
1.10219e-06
-3.4955e-08
1.11108e-06
-4.79063e-08
1.08367e-06
-1.86634e-09
1.0871e-06
-2.15461e-08
9.58251e-08
-5.67183e-07
3.47413e-07
-6.16316e-07
6.93653e-07
-6.70166e-07
1.09343e-06
-7.30533e-07
1.50612e-06
-7.94989e-07
1.93141e-06
-8.6304e-07
2.37015e-06
-9.38815e-07
2.77611e-06
-1.03484e-06
3.07559e-06
-1.15898e-06
3.20775e-06
-1.31533e-06
3.13405e-06
-1.4971e-06
2.88416e-06
-1.68675e-06
2.56989e-06
-1.86783e-06
2.29422e-06
-2.041e-06
2.13082e-06
-2.21364e-06
2.08174e-06
-2.365e-06
2.10765e-06
-2.45848e-06
2.16081e-06
-2.45528e-06
2.20532e-06
-2.32878e-06
2.23541e-06
-2.03883e-06
2.25635e-06
-1.58358e-06
2.28534e-06
-9.89034e-07
2.32027e-06
-2.9233e-07
2.35212e-06
2.82758e-07
2.42299e-06
5.29583e-07
2.52233e-06
5.76524e-07
2.59971e-06
5.02826e-07
2.63393e-06
3.62231e-07
2.6242e-06
2.01109e-07
2.5827e-06
5.72312e-08
2.53016e-06
-7.41323e-08
2.46243e-06
-7.25416e-08
-7.68539e-08
1.18267e-06
-6.51763e-08
1.20252e-06
-7.67867e-08
1.16738e-06
-7.2434e-08
1.12214e-06
-6.21836e-08
1.15343e-06
-7.5806e-08
1.13636e-06
-7.68384e-08
1.09403e-06
-4.18902e-08
1.10407e-06
-5.79494e-08
1.07208e-06
-1.84311e-09
1.07675e-06
-2.6212e-08
9.64311e-08
-5.21672e-07
3.5197e-07
-5.71093e-07
7.06288e-07
-6.28558e-07
1.11674e-06
-6.92932e-07
1.53765e-06
-7.61492e-07
1.9703e-06
-8.33297e-07
2.42005e-06
-9.12389e-07
2.85013e-06
-1.01238e-06
3.18449e-06
-1.14339e-06
3.35988e-06
-1.31088e-06
3.33073e-06
-1.51188e-06
3.11984e-06
-1.73252e-06
2.84275e-06
-1.95862e-06
2.62461e-06
-2.19551e-06
2.54386e-06
-2.44892e-06
2.5818e-06
-2.70666e-06
2.66937e-06
-2.91893e-06
2.73871e-06
-3.02952e-06
2.78232e-06
-3.02767e-06
2.80019e-06
-2.89234e-06
2.8099e-06
-2.59536e-06
2.81047e-06
-2.11516e-06
2.79683e-06
-1.47397e-06
2.77429e-06
-7.23107e-07
2.74657e-06
-4.84266e-08
2.74224e-06
3.05469e-07
2.78536e-06
3.889e-07
2.80492e-06
3.30957e-07
2.78398e-06
2.02002e-07
2.72207e-06
6.14115e-08
2.64202e-06
-5.49216e-08
2.56147e-06
-8.49862e-08
-8.85092e-08
1.21762e-06
-8.77411e-08
1.23797e-06
-9.73001e-08
1.18432e-06
-8.22095e-08
1.20322e-06
-9.57839e-08
1.17011e-06
-8.92019e-08
1.11693e-06
-7.5078e-08
1.15307e-06
-9.25869e-08
1.13281e-06
-9.27698e-08
1.08419e-06
-4.93252e-08
1.0956e-06
-6.93705e-08
1.05799e-06
-3.30168e-09
1.06393e-06
-3.21383e-08
9.46149e-08
-4.6915e-07
3.53244e-07
-5.22335e-07
7.15829e-07
-5.80262e-07
1.13631e-06
-6.47574e-07
1.56507e-06
-7.19799e-07
2.0038e-06
-7.94417e-07
2.46309e-06
-8.75779e-07
2.91571e-06
-9.77501e-07
3.28514e-06
-1.11269e-06
3.50495e-06
-1.28826e-06
3.5244e-06
-1.50433e-06
3.35512e-06
-1.7468e-06
3.1125e-06
-2.00121e-06
2.94392e-06
-2.27497e-06
2.93935e-06
-2.5852e-06
3.07049e-06
-2.92969e-06
3.23507e-06
-3.26374e-06
3.31486e-06
-3.48691e-06
3.33556e-06
-3.57642e-06
3.31711e-06
-3.54073e-06
3.31826e-06
-3.40129e-06
3.33041e-06
-3.12071e-06
3.31926e-06
-2.64637e-06
3.26199e-06
-1.97199e-06
3.19117e-06
-1.17785e-06
3.12109e-06
-4.3609e-07
3.0749e-06
1.08418e-08
3.0495e-06
1.41788e-07
3.00797e-06
1.05714e-07
2.92677e-06
-3.41408e-09
2.81636e-06
-1.13448e-07
2.70254e-06
-8.9027e-08
-1.07385e-07
1.25788e-06
-1.04987e-07
1.28364e-06
-1.14378e-07
1.22266e-06
-1.07282e-07
1.24309e-06
-1.17843e-07
1.18892e-06
-1.01123e-07
1.20854e-06
-1.15516e-07
1.17241e-06
-1.08647e-07
1.11009e-06
-8.96007e-08
1.15165e-06
-1.11512e-07
1.1282e-06
-1.10946e-07
1.07236e-06
-5.77519e-08
1.08483e-06
-8.18471e-08
1.04e-06
-5.66482e-09
1.04638e-06
-3.84959e-08
8.69469e-08
-4.09165e-07
3.51369e-07
-4.66775e-07
7.204e-07
-5.26401e-07
1.15144e-06
-5.94871e-07
1.58815e-06
-6.70127e-07
2.03159e-06
-7.47027e-07
2.49858e-06
-8.29336e-07
2.97129e-06
-9.30874e-07
3.37495e-06
-1.06695e-06
3.63991e-06
-1.24749e-06
3.71162e-06
-1.47531e-06
3.58721e-06
-1.73607e-06
3.37818e-06
-2.0113e-06
3.24926e-06
-2.30347e-06
3.3031e-06
-2.63273e-06
3.51412e-06
-3.01998e-06
3.73708e-06
-3.42289e-06
3.80604e-06
-3.74648e-06
3.78107e-06
-3.9248e-06
3.72527e-06
-3.97848e-06
3.71476e-06
-3.93494e-06
3.74877e-06
-3.82234e-06
3.77634e-06
-3.58489e-06
3.74306e-06
-3.13771e-06
3.67003e-06
-2.46253e-06
3.57678e-06
-1.64534e-06
3.51279e-06
-8.84525e-07
3.44631e-06
-3.92005e-07
3.37204e-06
-2.25716e-07
3.26814e-06
-2.37719e-07
3.13518e-06
-3.23709e-07
2.988e-06
-1.44878e-07
-2.55413e-07
1.31955e-06
-1.25066e-07
1.37873e-06
-1.66829e-07
1.26636e-06
-1.28371e-07
1.29764e-06
-1.45805e-07
1.22971e-06
-1.28572e-07
1.25302e-06
-1.41283e-07
1.1937e-06
-1.22524e-07
1.21412e-06
-1.36055e-07
1.17259e-06
-1.29691e-07
1.10099e-06
-1.058e-07
1.14925e-06
-1.32647e-07
1.12164e-06
-1.3167e-07
1.05622e-06
-6.75931e-08
1.06993e-06
-9.55733e-08
1.0198e-06
-8.71055e-09
1.02604e-06
-4.47238e-08
8.55631e-08
-3.3783e-07
3.46341e-07
-4.03744e-07
7.20436e-07
-4.66309e-07
1.16043e-06
-5.35001e-07
1.60634e-06
-6.12568e-07
2.05359e-06
-6.91583e-07
2.52642e-06
-7.74294e-07
3.01648e-06
-8.7403e-07
3.45291e-06
-1.00844e-06
3.76298e-06
-1.18985e-06
3.88863e-06
-1.4244e-06
3.81237e-06
-1.70013e-06
3.63599e-06
-1.99273e-06
3.53751e-06
-2.29649e-06
3.63455e-06
-2.62902e-06
3.90528e-06
-3.01568e-06
4.14776e-06
-3.42252e-06
4.17115e-06
-3.77909e-06
4.06698e-06
-4.02285e-06
3.96062e-06
-4.15292e-06
3.93875e-06
-4.19825e-06
3.9871e-06
-4.17288e-06
4.04954e-06
-4.09897e-06
4.05947e-06
-3.90864e-06
4.04155e-06
-3.51946e-06
3.99141e-06
-2.88956e-06
3.96708e-06
-2.11373e-06
3.95077e-06
-1.40244e-06
3.91931e-06
-9.47255e-07
3.84858e-06
-8.1148e-07
3.73954e-06
-8.46157e-07
3.62586e-06
-3.93527e-07
-5.72034e-07
1.49494e-06
-2.6171e-07
1.66758e-06
-4.29544e-07
1.35678e-06
-1.84495e-07
1.47325e-06
-2.83993e-07
1.28531e-06
-1.60825e-07
1.34436e-06
-2.05185e-07
1.23819e-06
-1.52786e-07
1.27207e-06
-1.75356e-07
1.19567e-06
-1.45725e-07
1.22086e-06
-1.61397e-07
1.17259e-06
-1.53149e-07
1.08903e-06
-1.24941e-07
1.14551e-06
-1.56618e-07
1.11247e-06
-1.55193e-07
1.03646e-06
-7.80029e-08
1.05222e-06
-1.11357e-07
9.93002e-07
-1.1185e-08
9.99825e-07
-5.15291e-08
8.52489e-08
-2.61055e-07
3.42149e-07
-3.33173e-07
7.16123e-07
-3.9887e-07
1.16368e-06
-4.69182e-07
1.6197e-06
-5.4787e-07
2.07022e-06
-6.28666e-07
2.54669e-06
-7.113e-07
3.05056e-06
-8.07857e-07
3.51793e-06
-9.38644e-07
3.8723e-06
-1.11757e-06
4.05332e-06
-1.35445e-06
4.02941e-06
-1.64121e-06
3.88514e-06
-1.94822e-06
3.80731e-06
-2.25952e-06
3.93067e-06
-2.5866e-06
4.23826e-06
-2.95438e-06
4.4663e-06
-3.32793e-06
4.43804e-06
-3.68193e-06
4.28148e-06
-3.98353e-06
4.09804e-06
-4.14959e-06
4.0194e-06
-4.22605e-06
4.05316e-06
-4.26192e-06
4.15107e-06
-4.27509e-06
4.18101e-06
-4.22359e-06
4.20923e-06
-4.08223e-06
4.22777e-06
-3.76429e-06
4.2842e-06
-3.21908e-06
4.39554e-06
-2.57535e-06
4.51079e-06
-2.01113e-06
4.56816e-06
-1.67888e-06
4.59466e-06
-1.6755e-06
4.56188e-06
-7.94026e-07
-9.96905e-07
1.88823e-06
-6.16176e-07
2.14497e-06
-8.31094e-07
1.66312e-06
-4.53209e-07
1.89281e-06
-6.61396e-07
1.4677e-06
-3.08625e-07
1.66456e-06
-4.82658e-07
1.33491e-06
-2.24039e-07
1.46419e-06
-3.35352e-07
1.25683e-06
-1.88967e-07
1.32344e-06
-2.42373e-07
1.19951e-06
-1.72794e-07
1.23724e-06
-1.99344e-07
1.1729e-06
-1.80671e-07
1.07381e-06
-1.46574e-07
1.14032e-06
-1.84584e-07
1.10063e-06
-1.82111e-07
1.01161e-06
-8.97843e-08
1.02949e-06
-1.29254e-07
9.63114e-07
-1.36269e-08
9.70573e-07
-5.8968e-08
8.55565e-08
-1.799e-07
3.39909e-07
-2.58419e-07
7.10926e-07
-3.27496e-07
1.16421e-06
-3.99016e-07
1.62797e-06
-4.76993e-07
2.082e-06
-5.59151e-07
2.55989e-06
-6.4132e-07
3.0738e-06
-7.34015e-07
3.56942e-06
-8.58916e-07
3.96638e-06
-1.03249e-06
4.20372e-06
-1.26791e-06
4.23609e-06
-1.56097e-06
4.12573e-06
-1.88087e-06
4.06094e-06
-2.19904e-06
4.19457e-06
-2.51769e-06
4.51486e-06
-2.85708e-06
4.71032e-06
-3.19375e-06
4.64762e-06
-3.53239e-06
4.45537e-06
-3.84925e-06
4.20091e-06
-4.07621e-06
4.04635e-06
-4.162e-06
4.03582e-06
-4.20054e-06
4.13087e-06
-4.23984e-06
4.19444e-06
-4.28945e-06
4.24604e-06
-4.26257e-06
4.30602e-06
-4.16327e-06
4.41135e-06
-3.89647e-06
4.64543e-06
-3.48041e-06
4.9731e-06
-3.05632e-06
5.28384e-06
-2.7458e-06
5.4728e-06
-2.57138e-06
5.6153e-06
-1.2594e-06
-1.48051e-06
2.39744e-06
-1.04905e-06
2.68111e-06
-1.2833e-06
2.15268e-06
-8.78536e-07
2.41702e-06
-1.09815e-06
1.90561e-06
-6.96593e-07
2.16653e-06
-9.25004e-07
1.66829e-06
-5.14713e-07
1.91588e-06
-7.32756e-07
1.45911e-06
-3.60687e-07
1.67085e-06
-5.4926e-07
1.30662e-06
-2.58776e-07
1.44811e-06
-3.8491e-07
1.21103e-06
-2.11142e-07
1.2813e-06
-2.70049e-07
1.17756e-06
-2.18115e-07
1.0536e-06
-1.70749e-07
1.13627e-06
-2.20407e-07
1.08591e-06
-2.14559e-07
9.81804e-07
-1.01006e-07
1.00029e-06
-1.47765e-07
9.28696e-07
-1.50035e-08
9.33441e-07
-6.36895e-08
8.88844e-08
-9.4333e-08
3.40002e-07
-1.7963e-07
7.05927e-07
-2.52936e-07
1.16271e-06
-3.25594e-07
1.63117e-06
-4.0181e-07
2.08911e-06
-4.83643e-07
2.5666e-06
-5.65338e-07
3.08662e-06
-6.53615e-07
3.60678e-06
-7.70938e-07
4.0444e-06
-9.36653e-07
4.33713e-06
-1.16583e-06
4.4299e-06
-1.4616e-06
4.35833e-06
-1.79283e-06
4.30186e-06
-2.11923e-06
4.43269e-06
-2.43185e-06
4.74593e-06
-2.74378e-06
4.90826e-06
-3.05157e-06
4.8206e-06
-3.36337e-06
4.58731e-06
-3.6614e-06
4.24354e-06
-3.88695e-06
3.9946e-06
-4.01296e-06
3.95248e-06
-4.06042e-06
4.02823e-06
-4.08759e-06
4.10719e-06
-4.15035e-06
4.17444e-06
-4.21823e-06
4.28109e-06
-4.23727e-06
4.40172e-06
-4.15168e-06
4.68897e-06
-3.93994e-06
5.18977e-06
-3.7058e-06
5.80144e-06
-3.59063e-06
6.31265e-06
-3.60158e-06
6.65795e-06
-1.73445e-06
-1.89208e-06
2.93997e-06
-1.52105e-06
3.23328e-06
-1.77661e-06
2.69084e-06
-1.32574e-06
2.9571e-06
-1.55246e-06
2.43767e-06
-1.15259e-06
2.70723e-06
-1.37073e-06
2.18248e-06
-9.66058e-07
2.4558e-06
-1.20142e-06
1.92322e-06
-7.69775e-07
2.19353e-06
-1.00608e-06
1.66633e-06
-5.81244e-07
1.92494e-06
-8.10748e-07
1.42538e-06
-4.03938e-07
1.64943e-06
-6.11433e-07
1.24509e-06
-2.79087e-07
1.38671e-06
-4.12735e-07
1.19747e-06
-2.79679e-07
1.02729e-06
-1.97841e-07
1.14026e-06
-2.75063e-07
1.0712e-06
-2.58688e-07
9.43935e-07
-1.11491e-07
9.62611e-07
-1.66474e-07
8.91329e-07
-1.51489e-08
8.92119e-07
-6.44528e-08
9.92775e-08
-6.98822e-09
3.42385e-07
-9.63968e-08
7.01558e-07
-1.7484e-07
1.15862e-06
-2.48491e-07
1.62926e-06
-3.23325e-07
2.0918e-06
-4.04066e-07
2.5677e-06
-4.84247e-07
3.08986e-06
-5.68055e-07
3.62998e-06
-6.7637e-07
4.10542e-06
-8.31626e-07
4.45197e-06
-1.05139e-06
4.60869e-06
-1.34453e-06
4.58216e-06
-1.68487e-06
4.53382e-06
-2.02255e-06
4.65358e-06
-2.33526e-06
4.94762e-06
-2.62932e-06
5.08627e-06
-2.91894e-06
4.97477e-06
-3.20362e-06
4.69014e-06
-3.46583e-06
4.25405e-06
-3.67108e-06
3.93234e-06
-3.81864e-06
3.82853e-06
-3.87619e-06
3.83891e-06
-3.85341e-06
3.86462e-06
-3.83235e-06
3.91496e-06
-3.88653e-06
4.08141e-06
-4.01518e-06
4.29759e-06
-4.12803e-06
4.60874e-06
-4.0636e-06
5.19257e-06
-3.93605e-06
6.03684e-06
-3.9444e-06
6.89913e-06
-4.18612e-06
7.40966e-06
-4.3608e-06
3.45892e-06
-1.96245e-06
3.70274e-06
-2.13792e-06
3.22196e-06
-1.78872e-06
3.46706e-06
-2.0243e-06
2.97197e-06
-1.59356e-06
3.22062e-06
-1.80409e-06
2.725e-06
-1.42497e-06
2.98312e-06
-1.63197e-06
2.4679e-06
-1.24361e-06
2.73783e-06
-1.47465e-06
2.19762e-06
-1.04561e-06
2.47314e-06
-1.28488e-06
1.91242e-06
-8.47292e-07
2.18964e-06
-1.09128e-06
1.6138e-06
-6.33623e-07
1.88098e-06
-8.81816e-07
1.32851e-06
-4.11092e-07
1.55182e-06
-6.38392e-07
1.25135e-06
-3.91567e-07
9.94144e-07
-2.29516e-07
1.15946e-06
-3.63926e-07
1.05775e-06
-3.22717e-07
8.99673e-07
-1.19034e-07
9.16024e-07
-1.82879e-07
8.52391e-07
-1.28856e-08
8.47033e-07
-5.90655e-08
9.91693e-08
7.62557e-08
3.45536e-07
-9.86934e-09
6.97557e-07
-9.2033e-08
1.15131e-06
-1.67239e-07
1.62332e-06
-2.42208e-07
2.08971e-06
-3.20853e-07
2.56355e-06
-3.99452e-07
3.08439e-06
-4.78276e-07
3.63919e-06
-5.76796e-07
4.14902e-06
-7.19621e-07
4.54635e-06
-9.25862e-07
4.76875e-06
-1.21141e-06
4.79558e-06
-1.55755e-06
4.7595e-06
-1.90866e-06
4.86451e-06
-2.22904e-06
5.1342e-06
-2.51813e-06
5.26131e-06
-2.80204e-06
5.12723e-06
-3.07032e-06
4.78694e-06
-3.30196e-06
4.27568e-06
-3.48895e-06
3.92908e-06
-3.66524e-06
3.77423e-06
-3.75769e-06
3.70231e-06
-3.72843e-06
3.59123e-06
-3.56771e-06
3.50292e-06
-3.40802e-06
3.62473e-06
-3.41931e-06
3.93913e-06
-3.64443e-06
4.39854e-06
-3.90368e-06
5.08031e-06
-3.93661e-06
6.06235e-06
-3.94678e-06
7.21014e-06
-4.2484e-06
7.7673e-06
-4.53918e-06
-3.79984e-06
7.84748e-06
-2.34244e-06
-2.36246e-06
3.66363e-06
-2.16102e-06
-2.27494e-06
3.43652e-06
-2.00716e-06
3.6028e-06
-2.19276e-06
3.20962e-06
-1.82313e-06
3.38777e-06
-1.98502e-06
2.97955e-06
-1.66991e-06
3.17405e-06
-1.82938e-06
2.73048e-06
-1.50417e-06
2.94581e-06
-1.69317e-06
2.45761e-06
-1.3169e-06
2.6922e-06
-1.52273e-06
2.15758e-06
-1.12733e-06
2.41203e-06
-1.34915e-06
1.82452e-06
-9.09956e-07
2.09497e-06
-1.15586e-06
1.46158e-06
-6.23308e-07
1.72939e-06
-9.09986e-07
1.34408e-06
-5.77849e-07
9.5399e-07
-2.67724e-07
1.20429e-06
-5.11672e-07
1.05089e-06
-4.20374e-07
8.47324e-07
-1.19318e-07
8.57226e-07
-1.92877e-07
8.13735e-07
-4.52753e-09
7.99139e-07
-4.44359e-08
9.47536e-08
1.63078e-07
3.42649e-07
7.93672e-08
6.92243e-07
-4.24647e-09
1.14211e-06
-8.25262e-08
1.61523e-06
-1.58787e-07
2.08367e-06
-2.35808e-07
2.55492e-06
-3.1179e-07
3.07174e-06
-3.86307e-07
3.63547e-06
-4.74089e-07
4.17494e-06
-6.02344e-07
4.61948e-06
-7.92569e-07