/*--------------------------------*- C++ -*----------------------------------*\
  =========                 |
  \\      /  F ield         | OpenFOAM: The Open Source CFD Toolbox
   \\    /   O peration     | Website:  https://openfoam.org
    \\  /    A nd           | Version:  dev
     \\/     M anipulation  |
\*---------------------------------------------------------------------------*/
FoamFile
{
    version     2.0;
    format      ascii;
    class       volScalarField;
    location    "2500";
    object      qr;
}
// * * * * * * * * * * * * * * * * * * * * * * * * * * * * * * * * * * * * * //

dimensions      [1 0 -3 0 0 0 0];

internalField   uniform 0;

boundaryField
{
    lowerOutlet
    {
        type            calculated;
        value           nonuniform List<scalar> 
146
(
1017.53
1020.92
1024.73
1028.93
1033.52
1038.52
1043.94
1049.78
1056.06
1062.81
1070.03
1077.76
1086.01
1094.81
1104.21
1114.23
1124.91
1136.3
1148.46
1161.44
1175.31
1190.16
1206.07
1223.15
1241.57
1261.48
1283.02
1306.42
1331.93
1359.87
1390.62
1424.65
1462.55
1494.84
1541.5
1594.48
1655.15
1725.26
1807.03
1903.5
2019.15
2163.02
2383.54
2648.14
2892.08
3184.76
3516.67
4110.74
4228.5
4345.92
3065.59
2534.99
2227
2020.2
1850.11
1736.55
1646.11
1572.54
1511.42
1459.68
1415.15
1376.34
1342.15
1311.74
1277.62
1253.63
1231.79
1211.78
1193.37
1176.36
1160.57
1145.87
1132.15
1119.32
1107.3
1096
1085.37
1075.34
1065.87
1056.92
1048.45
1040.44
1032.86
1025.68
1018.88
1012.45
1006.37
1000.62
995.197
990.081
985.265
980.742
976.504
972.546
968.863
965.45
962.335
1853.19
1958.57
2086.41
2242.96
2513.53
2821.77
3109.13
3427.7
3806.34
5068.75
-9739.33
3545.23
2641.49
2291.38
2065.64
1919.01
1789.87
1688.92
1607.54
1540.64
1484.53
1688.91
1764.52
2963.2
3263
3563.5
4401.69
4078.29
2932.19
2443.53
2168.5
1978.17
1436.62
1395.1
2752.21
3035.44
3343.89
3605.88
4718.06
3813.73
2769.69
2363.03
2114.91
1517.44
1567.12
1623.75
1358.73
1326.52
1297.74
)
;
    }
    top
    {
        type            calculated;
        value           nonuniform List<scalar> 
100
(
920.85
921.664
922.678
923.544
925.35
926.934
928.442
929.848
931.176
932.872
934.418
935.896
937.411
939.027
940.775
942.647
944.621
946.674
948.769
950.915
952.88
954.546
955.903
956.772
957.049
956.635
955.436
953.261
950.217
946.804
943.624
941.444
941.184
943.273
947.943
955.408
965.315
976.348
983.022
985.519
986.661
987.456
988.078
988.563
988.934
989.181
989.289
989.26
989.122
988.888
988.547
988.109
987.579
986.957
986.26
985.491
984.622
983.669
982.65
981.534
980.333
979.081
977.654
976.194
974.599
972.899
971.111
969.234
967.238
965.141
963.06
960.961
958.93
957.175
956.247
967.647
965.12
962.555
959.955
957.321
954.657
951.965
949.249
946.513
943.759
940.992
938.213
935.425
932.627
929.826
927.03
924.24
921.455
918.678
915.912
910.376
906.957
903.947
901.6
900.549
)
;
    }
    sides
    {
        type            calculated;
        value           nonuniform List<scalar> 
100
(
1017.55
1020.22
1022.53
1024.46
1026.03
1027.24
1028.1
1028.61
1028.79
1028.65
1028.2
1027.46
1026.44
1025.16
1023.64
1021.89
1019.94
1017.8
1015.49
1013.02
1007.54
1007.71
1001.83
998.688
995.678
992.634
989.595
986.467
983.382
980.253
977.127
974.074
970.822
967.594
964.505
961.593
958.534
955.438
952.376
949.329
946.473
943.553
940.683
937.839
936.413
933.485
930.593
927.735
924.912
922.158
962.354
964.975
967.347
969.462
971.323
972.931
974.291
975.407
976.287
976.935
977.358
977.565
977.562
977.359
976.963
976.383
975.628
974.708
973.631
972.406
971.043
969.55
967.937
966.21
964.38
962.453
960.438
958.342
956.171
953.932
951.631
949.272
946.863
944.41
941.92
939.395
936.84
934.258
931.655
929.032
926.393
923.741
921.078
918.405
915.726
913.042
910.353
907.661
904.967
902.307
)
;
    }
    front
    {
        type            empty;
    }
    back
    {
        type            empty;
    }
    roller
    {
        type            calculated;
        value           nonuniform List<scalar> 
142
(
5132.78
4472.08
3195.27
2636.4
1519.87
1255.86
1223.05
1183.57
1135.9
1133.06
6070.87
6235.24
4798.07
4854.92
2593.6
1953.7
2065.99
1552.81
1846.65
1388.26
1234.05
1190.91
1193.29
1160.32
1153.69
1139.46
1154.44
1131.25
3989.47
4249.67
4202.83
2391.75
1850.82
2279.34
2206.02
1496.98
1335.81
1271.72
1134.53
5798.26
6684.87
6459.79
5294.3
3756.8
4559.85
3554.87
3031.7
2357.39
2134.45
1589.11
1902.49
1412.45
1311.4
1289.91
1243.99
1233.57
1148.11
6313.08
5950.53
1997.25
1451.18
1426.54
1358.59
1303.4
1287.88
1364.58
1127.58
1125.5
1127.75
6764.76
6761.54
6669.47
1724.4
1788.53
1662.87
1374.57
1623.48
1516.45
1315.93
1484.61
1265.3
1182.12
1139.69
1128.87
1125.51
1127
5511.86
6505.48
5629.67
3851.32
3386.04
2756.08
2522.56
1673.6
1628.42
1947.81
1408.45
1343.43
1445.5
1206.23
1214.81
1212.98
1173.86
1142.3
1149.13
1145.56
1132.62
1126.56
1125.77
1128.65
3559.74
3282.24
3050.04
2832.75
2886.36
2219.48
2074.78
2437.22
1783.07
1476.43
1745.23
1703.52
1391.21
1585.75
1550.03
1329.2
1274.83
1223.7
1256.57
1243.9
1198.49
1203.11
1174.15
1166.9
1159.94
1166.42
1142.94
1136.81
1130.54
1125.86
1126.32
1129.69
)
;
    }
    burner
    {
        type            calculated;
        value           nonuniform List<scalar> 
14
(
-122977
-120052
-120779
-124099
-120533
-120048
-126402
-122000
-119773
-122126
-125240
-121187
-119751
-124462
)
;
    }
}


// ************************************************************************* //
