/*--------------------------------*- C++ -*----------------------------------*\
  =========                 |
  \\      /  F ield         | OpenFOAM: The Open Source CFD Toolbox
   \\    /   O peration     | Website:  https://openfoam.org
    \\  /    A nd           | Version:  dev
     \\/     M anipulation  |
\*---------------------------------------------------------------------------*/
FoamFile
{
    version     2.0;
    format      ascii;
    class       volScalarField;
    location    "2500";
    object      rAU;
}
// * * * * * * * * * * * * * * * * * * * * * * * * * * * * * * * * * * * * * //

dimensions      [-1 3 1 0 0 0 0];

internalField   nonuniform List<scalar> 
9846
(
0.0082265
0.00829455
0.00825021
0.0082863
0.00840709
0.00819453
0.00827664
0.00840066
0.00841283
0.00815244
0.00826403
0.00839978
0.00840065
0.0084235
0.0081161
0.00826027
0.00839812
0.00839231
0.00841094
0.00843087
0.00808539
0.00825896
0.00840182
0.0083892
0.00839797
0.00842372
0.00843387
0.00805947
0.00826443
0.00840774
0.00838973
0.00838941
0.00841172
0.00843215
0.00843514
0.00803723
0.00827506
0.00841433
0.00839276
0.00838378
0.00839943
0.00842537
0.00843575
0.00843604
0.00801744
0.00828788
0.00842177
0.00839889
0.00835341
0.00838934
0.00841493
0.00843377
0.00843729
0.0084366
0.0079995
0.0082981
0.00842999
0.00840619
0.00833929
0.0083821
0.00840329
0.00842788
0.00843759
0.00843837
0.00843675
0.00798312
0.00831011
0.0084324
0.00841258
0.00836796
0.00828349
0.00839284
0.0084189
0.00843564
0.00843923
0.00843924
0.00843675
0.00796762
0.00832301
0.00843422
0.00841775
0.00838572
0.00822864
0.00838434
0.00840914
0.00843045
0.00843938
0.00844036
0.00843972
0.00843654
0.00795231
0.00833143
0.00843561
0.00842218
0.00839125
0.00831886
0.00837742
0.00839948
0.00842353
0.00843725
0.00844097
0.00844119
0.00843984
0.0084363
0.00793693
0.00833973
0.00843642
0.00842577
0.0083974
0.00837119
0.00837205
0.00839036
0.00841584
0.00843316
0.00844072
0.00844205
0.00844181
0.00843981
0.00843622
0.00792106
0.00834716
0.00843687
0.00842823
0.00840302
0.0083726
0.00836799
0.00838204
0.00840749
0.0084284
0.00843891
0.00844239
0.00844291
0.00844214
0.00843976
0.00843598
0.00790446
0.0083524
0.00843717
0.00842978
0.0084075
0.00837529
0.00836449
0.0083748
0.00839855
0.00842237
0.00843624
0.00844208
0.0084433
0.00844342
0.00844217
0.00843962
0.00843575
0.00788709
0.00834907
0.00843719
0.00843064
0.00841074
0.0083788
0.00836223
0.0083689
0.00838906
0.008415
0.00843269
0.00844088
0.00844367
0.00844393
0.00844378
0.00844217
0.00843943
0.00843542
0.0078685
0.00833762
0.00843687
0.00843102
0.00841291
0.00838231
0.00836135
0.00836437
0.00838196
0.0084059
0.0084276
0.00843888
0.00844358
0.00844449
0.00844445
0.00844394
0.00844201
0.00843932
0.00843521
0.00784887
0.00828388
0.0084361
0.00843103
0.00841419
0.00838529
0.00836113
0.00836075
0.00837511
0.00839848
0.00842109
0.00843565
0.00844261
0.0084279
0.00844497
0.00844465
0.00844391
0.00844178
0.00843908
0.00843493
0.0078282
0.0083144
0.00842251
0.00843077
0.00841476
0.00838748
0.00836123
0.0083572
0.00836904
0.00838409
0.00841395
0.00843116
0.00844031
0.00831693
0.00842534
0.00844517
0.00844469
0.00844374
0.00844156
0.00843882
0.00843451
0.00780671
0.00824139
0.00837028
0.00843026
0.00841474
0.00838886
0.00836148
0.00835371
0.00836347
0.00837355
0.00839975
0.00842572
0.00843714
0.00825378
0.00842423
0.0084429
0.00844515
0.00844454
0.00844343
0.0084413
0.0084385
0.00843411
0.00778466
0.00831335
0.00833828
0.00842933
0.00841423
0.00838933
0.00836162
0.00835063
0.00835849
0.00836833
0.00838874
0.00841939
0.00843323
0.00835252
0.00844463
0.00844104
0.00844629
0.00844496
0.00844415
0.0084431
0.00844096
0.00843818
0.00843368
0.00776213
0.00838509
0.00835638
0.00842762
0.00841286
0.00838901
0.00836123
0.00834725
0.00835038
0.00836913
0.00838261
0.00841214
0.00842833
0.00842811
0.00844228
0.00844552
0.00844707
0.00844613
0.00844456
0.00844366
0.00844272
0.00844067
0.00843788
0.0084332
0.00773973
0.00838879
0.00843282
0.00842661
0.00841116
0.00838811
0.00836024
0.00834532
0.00833747
0.00836026
0.0083821
0.00840416
0.00842223
0.00843337
0.00843947
0.00844307
0.00844579
0.00844695
0.00844575
0.00844398
0.00844304
0.00844226
0.00844041
0.00843766
0.00843294
0.00771859
0.00839106
0.00843114
0.00842398
0.00840907
0.00838648
0.00835883
0.00834236
0.00832978
0.00834669
0.00837531
0.00839572
0.00841495
0.00842801
0.00843562
0.00844008
0.00844308
0.00844557
0.00844651
0.00844515
0.00844328
0.00844234
0.00844177
0.00844015
0.00843751
0.00843297
0.00769861
0.00838637
0.00842971
0.00842076
0.00840597
0.00838438
0.00835699
0.00833885
0.00832466
0.00833713
0.00836795
0.00838703
0.00840659
0.00842105
0.00843016
0.00843586
0.00843964
0.00844243
0.00844487
0.00844575
0.00844438
0.00844254
0.00844167
0.00844127
0.00843991
0.00843761
0.00843293
0.00768005
0.00837826
0.00842832
0.00841758
0.00840217
0.00838159
0.00835476
0.00833479
0.00832204
0.00833102
0.00836079
0.00837821
0.00839719
0.00841231
0.00842265
0.00842966
0.00843458
0.00843821
0.00844106
0.00844367
0.0084447
0.00844348
0.00844181
0.00844109
0.00844085
0.0084399
0.00843759
0.00843288
0.0076634
0.00838085
0.00840196
0.0084151
0.00839852
0.0083783
0.00835206
0.00833027
0.00832119
0.00832743
0.00835374
0.0083694
0.00838678
0.00840161
0.00841269
0.00842069
0.00842677
0.00843165
0.00843567
0.00843904
0.00844207
0.00844345
0.0084425
0.00844113
0.00844068
0.00844078
0.00843981
0.00843761
0.00843286
0.00764915
0.0083806
0.00837936
0.00841266
0.00839515
0.00837492
0.00834898
0.00832533
0.0083219
0.00832542
0.00834659
0.00836048
0.00837549
0.0083892
0.00839996
0.00840818
0.00841516
0.00842144
0.00842716
0.00843221
0.0084365
0.00844019
0.00844205
0.0084415
0.00844055
0.00844063
0.00844078
0.00843979
0.00843771
0.00843289
0.00758187
0.00839002
0.00839932
0.00841061
0.00839221
0.00837178
0.0083459
0.00832018
0.00831554
0.00832486
0.00833917
0.00835144
0.00836377
0.00837535
0.00838461
0.00839211
0.00839952
0.00840743
0.00841512
0.00842221
0.0084284
0.00843363
0.00843803
0.00844046
0.00844045
0.00844019
0.00844072
0.00844088
0.00843986
0.00843787
0.00836709
0.00746941
0.00839808
0.00841973
0.00840849
0.0083896
0.00836911
0.00834298
0.00831514
0.00830869
0.00831729
0.00833172
0.00834265
0.00835208
0.00836042
0.00836661
0.00832909
0.00836232
0.00838955
0.00840025
0.00841033
0.00841882
0.00842562
0.00843123
0.0084359
0.00843884
0.00843944
0.00843993
0.00844085
0.00844109
0.00843989
0.00843801
0.0082443
0.00759763
0.00838959
0.00842345
0.00840668
0.00838734
0.00836689
0.00834049
0.00831028
0.00830134
0.00830903
0.0083243
0.00833446
0.00834092
0.00834508
0.00834641
0.00834725
0.00830847
0.00834351
0.00835532
0.0083029
0.00837553
0.00838614
0.00842476
0.00843011
0.00843466
0.00843765
0.00843872
0.00843981
0.00844116
0.00844137
0.00843967
0.00843805
0.00840225
0.00761493
0.0083811
0.00842262
0.00840522
0.00838554
0.00836525
0.00833863
0.00830624
0.00829365
0.00830019
0.00831621
0.00832648
0.00833071
0.00833029
0.00832572
0.00831939
0.0083153
0.00831544
0.00831985
0.00827483
0.00824433
0.00826491
0.00828912
0.00827683
0.00843031
0.00843416
0.00843737
0.00843857
0.00844009
0.00844165
0.00844152
0.0084392
0.00843787
0.00842354
0.00670089
0.00816762
0.00839292
0.00842177
0.00840403
0.00838407
0.00836416
0.00833754
0.00830325
0.00828602
0.00829118
0.00830788
0.00831845
0.00832108
0.00831679
0.00830612
0.00829146
0.00827645
0.00826535
0.00826073
0.00826237
0.00824799
0.00819515
0.00814882
0.00811662
0.00825429
0.00843059
0.00843437
0.00843749
0.00843902
0.00844065
0.00844224
0.00844145
0.00842838
0.0084871
0.00818543
0.0081843
0.00667666
0.00813792
0.00840521
0.00842085
0.00840281
0.008383
0.00836368
0.00833721
0.00830131
0.00827829
0.00828179
0.00829953
0.00831105
0.00831258
0.00830494
0.0082891
0.00826645
0.00824265
0.00822417
0.00821378
0.00821495
0.00822529
0.00821719
0.00818361
0.00811824
0.00809592
0.00831441
0.00841335
0.00843464
0.00843784
0.00843974
0.00844124
0.00844268
0.00843016
0.00833946
0.00817795
0.0081811
0.00831136
0.00817955
0.00815849
0.00815691
0.00667478
0.00813689
0.00840869
0.00842063
0.00840181
0.00838233
0.00836383
0.00833778
0.00830059
0.00827107
0.00827164
0.00829002
0.00830369
0.00830562
0.00829576
0.00827533
0.00824765
0.00821857
0.00820244
0.00819928
0.00820147
0.00820517
0.00820903
0.00822073
0.00816945
0.00813384
0.0081864
0.00833047
0.0084159
0.0084346
0.0084386
0.00844061
0.00844187
0.00843043
0.0081804
0.00818009
0.00814958
0.0081554
0.0081511
0.00815368
0.00815888
0.00815721
0.00667862
0.00813611
0.00841186
0.00842035
0.00840127
0.00838205
0.00836453
0.00833941
0.00830115
0.00826531
0.00826157
0.00827895
0.00829525
0.00829894
0.00828862
0.00826575
0.00823562
0.00820789
0.00820102
0.00820779
0.00821754
0.00822418
0.00822302
0.00821627
0.0082133
0.00818295
0.00818359
0.0082374
0.00834602
0.00841771
0.00843466
0.00844005
0.00844236
0.00842961
0.0081746
0.00817233
0.00815321
0.00815329
0.00814908
0.00815598
0.00815077
0.00815467
0.00815928
0.00815779
0.0066866
0.00813864
0.00841618
0.00842016
0.00840109
0.00838195
0.00836569
0.00834173
0.00830315
0.00826141
0.00825216
0.00826723
0.00828595
0.00829191
0.00828231
0.0082589
0.00822864
0.00821051
0.00821329
0.00823208
0.0082526
0.00826353
0.00826367
0.00825189
0.00823293
0.00821645
0.00820827
0.00820369
0.00824534
0.00834709
0.00840925
0.00843471
0.00843624
0.00843007
0.00817319
0.0081828
0.00814986
0.00815157
0.00815251
0.00815437
0.00814898
0.00816005
0.00815545
0.00816882
0.00816432
0.00816785
0.00670528
0.00816356
0.00842088
0.00842035
0.00840107
0.00838208
0.00836717
0.0083447
0.00830613
0.00825981
0.00824336
0.00825539
0.00827651
0.00828516
0.00827655
0.00825393
0.00822516
0.0082172
0.00819941
0.00819489
0.00823246
0.00831226
0.00828871
0.00828794
0.00828095
0.00825346
0.00822948
0.00822282
0.00820596
0.00826156
0.00832581
0.00837646
0.00839108
0.00836313
0.0082039
0.00821659
0.0081636
0.00818649
0.00815509
0.00816648
0.00815279
0.00815994
0.00815536
0.00818555
0.00818346
0.00821026
0.00819962
0.00821185
0.00675694
0.00820884
0.0084273
0.00842035
0.00840108
0.00838252
0.00836882
0.00834813
0.00831017
0.00826057
0.00823523
0.00824343
0.00826684
0.00827877
0.00827248
0.00825042
0.00822424
0.00819414
0.00815886
0.00816996
0.00806121
0.00812686
0.00825983
0.00815561
0.00813042
0.0082965
0.00827781
0.00825567
0.00824432
0.00824222
0.00824739
0.00830136
0.0083365
0.00827585
0.00809777
0.00795578
0.00818228
0.00810611
0.00819012
0.00818296
0.00817195
0.00819334
0.00815986
0.00817452
0.00818734
0.00823337
0.00822354
0.00825323
0.00824596
0.00826016
0.00681239
0.00824797
0.00843402
0.00842059
0.00840135
0.00838314
0.00837053
0.00835186
0.00831544
0.00826353
0.00822838
0.00823152
0.0082565
0.00827206
0.00826936
0.00824943
0.00822522
0.00815357
0.00811595
0.00813144
0.00815922
0.00786321
0.00819528
0.00812803
0.00794807
0.0078279
0.00826215
0.008311
0.00829364
0.00827672
0.00826111
0.00826748
0.00829102
0.0082288
0.00783363
0.00765835
0.00799068
0.00783478
0.00810491
0.00798751
0.00818375
0.00810309
0.00819807
0.00818772
0.0081864
0.00819997
0.00821977
0.00827726
0.00825701
0.00828747
0.00828439
0.00829789
0.00686657
0.00827778
0.00844104
0.008421
0.00840197
0.00838393
0.00837226
0.00835578
0.00832138
0.00826887
0.00822361
0.00822016
0.00824492
0.00826445
0.00826619
0.00824897
0.00822723
0.00813119
0.00803373
0.00821477
0.00830898
0.00830253
0.00789684
0.00805007
0.00790095
0.00778761
0.00768946
0.00829609
0.00834563
0.00833495
0.0083163
0.00828973
0.00828013
0.00819604
0.00750008
0.00740352
0.00765861
0.00751703
0.0078317
0.00766249
0.00798119
0.00782428
0.00810592
0.0079745
0.00819306
0.00811168
0.00820912
0.00819769
0.00823908
0.00831094
0.00827569
0.00831087
0.00831401
0.00832605
0.00691867
0.00829944
0.00844866
0.00842164
0.00840281
0.00838496
0.00837401
0.00835977
0.0083279
0.00827537
0.00822192
0.00820965
0.0082316
0.00825566
0.00826233
0.00824844
0.00822858
0.00812668
0.00800802
0.00817394
0.00841208
0.00844681
0.00817493
0.00800133
0.00787399
0.00776174
0.00770929
0.00801917
0.00800571
0.00837559
0.00837578
0.00835691
0.00833367
0.00820014
0.00733082
0.0073212
0.00742575
0.00737494
0.00753437
0.0074485
0.00766311
0.00754814
0.00781447
0.00766196
0.00797424
0.00780957
0.00811742
0.00797516
0.00820932
0.008131
0.00823346
0.00833415
0.00827174
0.00830993
0.0083359
0.00834637
0.00696781
0.00831406
0.00836226
0.00842235
0.00840388
0.00838612
0.00837567
0.00836367
0.00833486
0.00828314
0.00822341
0.00820029
0.00821692
0.00824546
0.00825777
0.00824773
0.00822893
0.00813659
0.00809385
0.00816799
0.00840564
0.00838092
0.00838347
0.0083364
0.00821453
0.00810426
0.0079091
0.00778535
0.00776058
0.00800417
0.00797653
0.00841276
0.00830193
0.00809782
0.00731622
0.00694508
0.00737002
0.00732535
0.00740503
0.00736221
0.0074747
0.00742747
0.00755753
0.007498
0.00765882
0.00756379
0.00781099
0.00766349
0.00798941
0.00782373
0.00814498
0.00801061
0.00816338
0.00834076
0.00820952
0.00828079
0.00835179
0.00835798
0.00700604
0.00832111
0.00834742
0.00842316
0.00840524
0.00838728
0.00837718
0.00836729
0.00834199
0.00829252
0.00822857
0.00819303
0.00820203
0.00823399
0.00825209
0.00824679
0.00822879
0.00815199
0.0081592
0.00825775
0.00839496
0.00833543
0.00838169
0.00844287
0.00844003
0.00842594
0.00823029
0.00811255
0.00802734
0.0077874
0.0076593
0.0079391
0.00819662
0.00799834
0.00760408
0.00722783
0.0067661
0.00723314
0.00705801
0.00727196
0.00713256
0.00734719
0.00721373
0.00742992
0.00729025
0.00752634
0.00735888
0.00766862
0.00746905
0.00785114
0.00764055
0.00803986
0.00788036
0.00810266
0.00831722
0.00814645
0.00818311
0.00836144
0.00834833
0.00695423
0.00824496
0.0083314
0.00842438
0.00840695
0.00838835
0.00837857
0.00837043
0.00834894
0.00830256
0.0082376
0.00818896
0.00818821
0.0082211
0.00824506
0.00824555
0.00822841
0.00817076
0.00817087
0.00830972
0.00838268
0.00834951
0.00834001
0.00844154
0.00812521
0.0080317
0.00820332
0.00836213
0.00829353
0.00812682
0.00795812
0.00767716
0.00792639
0.00772613
0.00779406
0.00698542
0.00604847
0.00706704
0.00712667
0.00694323
0.00714739
0.00692032
0.00718976
0.00703317
0.00715492
0.00714319
0.0071187
0.00725421
0.00713714
0.00741676
0.00729388
0.0076366
0.00742795
0.00792459
0.00766993
0.00796056
0.0082477
0.00802775
0.00810261
0.00836394
0.00830748
0.006828
0.00810011
0.00831694
0.00842598
0.00840905
0.00838974
0.00837973
0.008373
0.00835526
0.00831309
0.00824792
0.00818896
0.00817638
0.00820587
0.0082363
0.00824374
0.00822832
0.00819062
0.00818573
0.00829813
0.00836735
0.0083501
0.0083569
0.00843635
0.0079718
0.00788319
0.00796675
0.00795631
0.00832124
0.00837429
0.00827298
0.00811215
0.00791386
0.00764286
0.00769051
0.00562283
0.00616221
0.00665711
0.00667273
0.00722195
0.00704891
0.00709455
0.00738877
0.0070522
0.00739719
0.00712849
0.00732723
0.00719275
0.00725213
0.00724926
0.00722174
0.00734878
0.00731574
0.0075302
0.00737272
0.00774459
0.00753023
0.00781435
0.00815595
0.00787958
0.00793729
0.0083536
0.00821359
0.00689317
0.00814523
0.00830104
0.0084281
0.00841194
0.00839146
0.00838057
0.00837487
0.00836079
0.00832346
0.00826013
0.00819255
0.00816731
0.00818889
0.00822504
0.00824075
0.00822888
0.00821361
0.00820118
0.00828374
0.00834816
0.00836743
0.00835935
0.00842945
0.00827276
0.00832343
0.00827553
0.00796709
0.00800868
0.00813673
0.00803789
0.00836124
0.00818675
0.00796423
0.00804413
0.00697335
0.0069254
0.00691855
0.00706892
0.00707659
0.007014
0.00722721
0.0071092
0.0072881
0.00718772
0.00731912
0.00720738
0.00734122
0.0072237
0.0073029
0.00718224
0.007257
0.00709221
0.00737926
0.00713478
0.00745734
0.00697179
0.00757057
0.0070543
0.00761061
0.00801486
0.00765148
0.00771582
0.0083129
0.00811771
0.00674873
0.00801424
0.00830262
0.00842163
0.00841583
0.00839404
0.00838135
0.00837638
0.00836522
0.00833328
0.00827345
0.00820141
0.00816193
0.00817231
0.00821146
0.0082357
0.00822994
0.00821379
0.00821887
0.00826655
0.00832692
0.00836876
0.00837882
0.0084229
0.00843211
0.0084332
0.00844605
0.00844758
0.00824569
0.00809144
0.00776706
0.00797945
0.00828655
0.00815017
0.00822694
0.00802244
0.00705294
0.00690988
0.00697451
0.00696127
0.00694334
0.00691144
0.00709334
0.00699961
0.00710167
0.00702229
0.00710278
0.00701348
0.00710029
0.00700347
0.00706311
0.00701097
0.0070023
0.00699962
0.00676782
0.00695059
0.00675746
0.00691612
0.00716473
0.00691564
0.00730949
0.00781376
0.00738928
0.00744696
0.00817735
0.00792811
0.00676912
0.00787368
0.00840693
0.00841885
0.00839811
0.00838262
0.00837757
0.00836901
0.008342
0.00828713
0.0082135
0.00816115
0.00815818
0.00819596
0.00822808
0.00823151
0.00821037
0.008213
0.00824717
0.00830369
0.00836035
0.00838166
0.00841339
0.00842502
0.00843558
0.00844402
0.0084475
0.00845533
0.00838364
0.00812083
0.00763754
0.00774633
0.00817826
0.00827727
0.00827772
0.00699186
0.00700659
0.00697037
0.00699645
0.00690559
0.00692533
0.00688427
0.00690338
0.00695319
0.00689913
0.00695692
0.00691685
0.00693566
0.0069116
0.00692812
0.00688231
0.00692941
0.00689333
0.00692264
0.00689769
0.0069513
0.00691799
0.00695191
0.00694283
0.00707027
0.006978
0.00713364
0.00755685
0.00715957
0.00709065
0.0079523
0.00767009
0.00686233
0.00757151
0.00839625
0.00840298
0.00838512
0.00837888
0.00837204
0.0083497
0.00830047
0.00822768
0.00816428
0.0081477
0.00817913
0.00821809
0.00823186
0.00821241
0.00820163
0.00822695
0.0082779
0.0083352
0.00837535
0.00839695
0.00841472
0.00842769
0.00843867
0.00844495
0.00844926
0.00846881
0.00848548
0.00799403
0.00743495
0.00795041
0.00829063
0.00839835
0.00703217
0.00696784
0.00701304
0.00701398
0.00696325
0.00699634
0.00695261
0.00702029
0.00697011
0.00699752
0.00689028
0.00690599
0.00689948
0.00691457
0.00687355
0.00691019
0.00687107
0.00687599
0.00693799
0.00697703
0.00699098
0.00707901
0.00700164
0.00710997
0.00697531
0.00709716
0.00700484
0.00689704
0.00689089
0.00709024
0.0068
0.00457378
0.00487801
0.00751785
0.00713403
0.00730047
0.00763652
0.00834593
0.00839019
0.00838044
0.00837453
0.00835617
0.00831329
0.00824341
0.0081726
0.00814178
0.0081618
0.00820626
0.0082296
0.00821711
0.00819405
0.00820666
0.00824948
0.0083053
0.00835362
0.00837698
0.00839796
0.00841615
0.00843059
0.00844014
0.00844402
0.00845283
0.008482
0.00837887
0.00786324
0.00779304
0.00813354
0.0083914
0.00803161
0.00701038
0.00697113
0.00712583
0.00711714
0.00708288
0.00711737
0.0070741
0.00717422
0.00693196
0.0069863
0.00692367
0.00692923
0.00688898
0.00678548
0.00689106
0.0067951
0.00699014
0.00692509
0.00712925
0.00696245
0.00721793
0.0071393
0.00723319
0.00720401
0.00708896
0.00727459
0.00683632
0.0049464
0.00483078
0.00469556
0.00473357
0.00460881
0.00505129
0.00471457
0.00456805
0.00481611
0.00479822
0.00441813
0.0071898
0.00474134
0.00489682
0.00522417
0.00774597
0.00752775
0.00829591
0.00838522
0.00837665
0.00836209
0.00832479
0.00825973
0.00818534
0.00814093
0.00814681
0.00819009
0.0082241
0.00822222
0.0081921
0.00818778
0.00821891
0.00826983
0.00832547
0.00835589
0.0083776
0.00839831
0.00841852
0.0082902
0.00843956
0.00843955
0.00808379
0.00845024
0.00836183
0.00813564
0.00809761
0.00836357
0.00828779
0.00711415
0.00714817
0.00710389
0.00709259
0.00726892
0.00725364
0.00724722
0.00727872
0.00722515
0.00730978
0.00688885
0.00694763
0.0068781
0.00691482
0.00684846
0.00672418
0.006875
0.00700945
0.00693122
0.00720731
0.00705504
0.00728474
0.00698952
0.00701323
0.00711521
0.00525024
0.00534076
0.00509361
0.0053148
0.00557992
0.00540186
0.00503373
0.00491114
0.00518925
0.00507019
0.00482172
0.00440205
0.0044356
0.00457163
0.00480739
0.00485449
0.00452882
0.00489204
0.00535601
0.00500476
0.00450409
0.00457236
0.00811498
0.00516391
0.00576443
0.00652853
0.00825337
0.00838219
0.00836715
0.00833551
0.00827616
0.00820083
0.00814451
0.00813662
0.00817163
0.00821419
0.00822625
0.00819694
0.00817372
0.00818846
0.00822929
0.00828735
0.00833167
0.00835662
0.00837769
0.00840036
0.00830758
0.0082905
0.00843498
0.00803382
0.00842569
0.00842452
0.00844294
0.00841828
0.00835335
0.00821206
0.00809281
0.00722258
0.00726721
0.00723489
0.00722433
0.00738514
0.00728072
0.0073914
0.00743846
0.00715363
0.00737993
0.00734934
0.00739549
0.00682771
0.00728883
0.0071846
0.00726705
0.00718748
0.00751998
0.00730639
0.00756997
0.007218
0.00738623
0.00530823
0.00542205
0.00548649
0.00554633
0.00557861
0.00561668
0.00529183
0.00529238
0.00518277
0.00536435
0.00548365
0.0054252
0.00517006
0.0049857
0.00521671
0.00528988
0.00503367
0.00441887
0.00442159
0.00478068
0.00502539
0.00500062
0.00467601
0.00464765
0.00477604
0.00445
0.00450171
0.00653428
0.00783442
0.00751261
0.00505193
0.00561711
0.00821423
0.00837496
0.00834539
0.00829243
0.00821865
0.00815358
0.00813171
0.00815611
0.00820251
0.00822717
0.00820578
0.00816877
0.00816235
0.00818663
0.0082387
0.00829769
0.0083338
0.008357
0.00837968
0.00840555
0.00795346
0.00843045
0.00839266
0.00840522
0.00840322
0.00841269
0.0083938
0.00835652
0.00820053
0.00821127
0.00748071
0.00758558
0.00724926
0.00730059
0.00725731
0.0072331
0.00742206
0.00719131
0.00762502
0.00759448
0.00742494
0.0076413
0.00781278
0.00774744
0.00733324
0.00776845
0.00767362
0.00773038
0.00766107
0.00772932
0.00744417
0.00747381
0.00562188
0.00564877
0.00564062
0.00561271
0.00528366
0.00542669
0.00551571
0.00558457
0.00543636
0.00545531
0.00536766
0.00540121
0.00544815
0.00554871
0.00549629
0.00554514
0.00537658
0.0052394
0.00544224
0.0055394
0.00526728
0.00456324
0.00448121
0.00496995
0.00524116
0.00520915
0.00487271
0.00457972
0.00472868
0.00448317
0.00451345
0.00663286
0.00714912
0.00754555
0.00504269
0.00568075
0.00817349
0.00835748
0.00830804
0.00823769
0.0081677
0.00813219
0.00814344
0.00819027
0.00822464
0.00821669
0.00816977
0.00814606
0.00814773
0.00818289
0.00824639
0.0083036
0.00833512
0.00835895
0.00838404
0.00840879
0.00774372
0.00842446
0.0084101
0.00839359
0.00838331
0.00836105
0.00831798
0.00826052
0.00810409
0.00821418
0.00774615
0.00784508
0.00723679
0.00741061
0.00719952
0.00720119
0.0076831
0.00755339
0.00785868
0.00780222
0.00776954
0.00788809
0.00756615
0.00752729
0.00777025
0.00767264
0.00775913
0.00757809
0.00779923
0.00783076
0.00557617
0.00554741
0.00550906
0.00571431
0.00562094
0.00562821
0.00561867
0.00559663
0.00549676
0.00560078
0.0056564
0.00567859
0.00552302
0.00549155
0.00558441
0.00559015
0.00564372
0.00562324
0.00557837
0.00555764
0.00563015
0.00548529
0.00568247
0.0057404
0.00550877
0.00476783
0.00468765
0.00516422
0.00546238
0.00542639
0.00507565
0.00458465
0.00474604
0.00465385
0.00466189
0.00676206
0.00597864
0.007449
0.00509228
0.00580105
0.00812642
0.00832481
0.00825724
0.00818438
0.00813697
0.00813551
0.00817307
0.00821741
0.00822673
0.00818393
0.00813947
0.00812018
0.00812811
0.00817893
0.00825525
0.00830773
0.00833775
0.00836174
0.00838764
0.00788385
0.00841948
0.00841676
0.00840358
0.00838317
0.00835645
0.00830911
0.00818823
0.00805225
0.00833718
0.0079523
0.00797589
0.00800292
0.0080046
0.00764806
0.00780307
0.00758951
0.00762043
0.0079755
0.00800646
0.0079116
0.00794174
0.00766154
0.007858
0.00720461
0.0072424
0.00735284
0.00724819
0.00783032
0.00761729
0.00750241
0.00752436
0.00557287
0.00555984
0.00553955
0.00576178
0.00567972
0.0056708
0.0056577
0.00563827
0.00566059
0.00571633
0.00573448
0.00573511
0.00566647
0.00566528
0.00574131
0.00572919
0.00569681
0.00560552
0.00572269
0.00563134
0.00582924
0.00572734
0.00587248
0.00579207
0.00572631
0.00499985
0.00494161
0.00535103
0.00567853
0.00563131
0.0052654
0.00472587
0.00488773
0.00490921
0.0049069
0.00693495
0.00518679
0.0078155
0.00527208
0.00602268
0.00806872
0.008279
0.00820446
0.00814666
0.00813254
0.00815735
0.00820528
0.00823075
0.00820162
0.00814601
0.00810815
0.00808535
0.00810763
0.00817971
0.00826545
0.00831244
0.00834045
0.00836281
0.0081557
0.00838646
0.00841496
0.00841201
0.00839725
0.00837452
0.00835951
0.0082425
0.00822419
0.0083962
0.00831982
0.00805163
0.00807222
0.00806041
0.00805568
0.00792397
0.00806285
0.00803315
0.00804079
0.00797658
0.00802527
0.00788409
0.00792528
0.00745581
0.00772979
0.00744028
0.00749847
0.00737207
0.00737419
0.00751046
0.00785937
0.00549944
0.00546219
0.00542878
0.00544682
0.00561765
0.00560761
0.00559041
0.0055827
0.00573132
0.00572599
0.00571843
0.00570257
0.00576472
0.00579154
0.00580011
0.00580346
0.0058117
0.00579318
0.00586776
0.00582909
0.00565825
0.00566846
0.00586454
0.00577113
0.00587538
0.00592039
0.00594119
0.00574101
0.00590512
0.00520512
0.00516245
0.0055301
0.00587419
0.00581191
0.00545488
0.0049656
0.00514276
0.00513788
0.00514306
0.00728924
0.00437101
0.00799686
0.00557636
0.00632817
0.00799977
0.00822216
0.0081626
0.00813478
0.00814669
0.00819332
0.00822832
0.00821949
0.00814927
0.00810781
0.00806257
0.00804766
0.00809298
0.00818548
0.0082764
0.00831702
0.00834089
0.00832807
0.00837001
0.00840558
0.00841109
0.00840725
0.00839577
0.00838891
0.0083891
0.00839659
0.00840689
0.00841807
0.0080075
0.0079972
0.00808878
0.0080883
0.00809964
0.00809221
0.00775291
0.00805782
0.00806346
0.00807761
0.00796029
0.00802827
0.00780898
0.00789883
0.00759857
0.00772513
0.00784763
0.00783418
0.00785567
0.00785352
0.00541519
0.00548842
0.00739707
0.00561719
0.00558659
0.00555895
0.00557521
0.00568296
0.00567088
0.00564931
0.00563835
0.00580683
0.00580852
0.00580432
0.00578782
0.00584556
0.00587049
0.00588708
0.00590006
0.00593719
0.00589403
0.00597192
0.00591803
0.00570409
0.00579798
0.0059914
0.00590801
0.00581141
0.00601515
0.00589152
0.0057538
0.00602497
0.00538895
0.00534437
0.00572197
0.0060356
0.00598181
0.00563722
0.00520842
0.00541972
0.00531938
0.00532907
0.00761002
0.00370544
0.00798771
0.00587338
0.00670784
0.00791748
0.00816594
0.00814141
0.00814233
0.00817986
0.00822246
0.00823209
0.00818264
0.00810513
0.00805856
0.00801003
0.00801548
0.00808548
0.00819844
0.00828695
0.00832024
0.0083434
0.00836947
0.00839173
0.00840264
0.00840706
0.00840589
0.00840514
0.00840544
0.0084083
0.00841277
0.00841918
0.00831126
0.00811156
0.00810204
0.00812476
0.00811927
0.00813437
0.00812874
0.00787813
0.00808955
0.0080776
0.00807559
0.00793792
0.00801619
0.00779448
0.00787625
0.00782265
0.00781659
0.00782801
0.00781255
0.00755505
0.00784901
0.00553772
0.00570743
0.00550036
0.00550878
0.00567657
0.00564384
0.00560614
0.00562656
0.00576464
0.0057472
0.00572038
0.00570438
0.00591049
0.00591629
0.00591277
0.00589401
0.00593897
0.00597604
0.00600372
0.00602546
0.00603958
0.00599467
0.0060781
0.0060263
0.00582272
0.00593263
0.00610011
0.00603645
0.00577476
0.00598586
0.00580671
0.00584237
0.00606389
0.00556251
0.00550485
0.00589488
0.00612498
0.00609273
0.00579921
0.00540763
0.0056302
0.00547447
0.00547646
0.00787568
0.0031476
0.00792925
0.00615729
0.00703371
0.00783106
0.00812659
0.00814194
0.00816724
0.00821352
0.00823711
0.00820939
0.00812756
0.00806275
0.00799681
0.00795907
0.00798958
0.00808619
0.00821842
0.00829599
0.00832452
0.00834622
0.0083723
0.00839108
0.0084001
0.0084054
0.00840896
0.00841082
0.00841258
0.00841492
0.00841885
0.00842593
0.00800093
0.00797809
0.00812691
0.008116
0.00815249
0.00814026
0.00816476
0.00816045
0.00814546
0.0081657
0.00808966
0.00812454
0.00791759
0.00799863
0.00782368
0.00785643
0.00780041
0.00779255
0.00755237
0.00776034
0.00550946
0.005718
0.00750616
0.0055845
0.0055869
0.00565439
0.00562943
0.00575138
0.00571222
0.00565894
0.00568571
0.00586842
0.00584671
0.00581389
0.0057898
0.00604248
0.00605002
0.00604457
0.00602181
0.00606144
0.00611269
0.00615094
0.00617891
0.00614891
0.00612368
0.00621374
0.00616819
0.00596387
0.00606847
0.00622163
0.00615271
0.00581931
0.00590092
0.00583394
0.00596732
0.00591148
0.00571565
0.00565217
0.00602204
0.00591236
0.00590534
0.00594357
0.00555951
0.00581495
0.00561562
0.00561562
0.00799669
0.00264065
0.0078362
0.00638702
0.00724701
0.00775668
0.00810923
0.00815813
0.00820293
0.00823494
0.00822948
0.00816248
0.00807039
0.00799727
0.00793006
0.0079129
0.00797237
0.00809563
0.00818464
0.00830412
0.00832697
0.00834789
0.00837589
0.00839026
0.00839938
0.00840622
0.00841028
0.00841263
0.00841469
0.00841746
0.0084232
0.00829803
0.00812255
0.00810434
0.00813941
0.00812989
0.00816667
0.008152
0.00818649
0.00817964
0.00817705
0.00818657
0.00808062
0.00814476
0.00789553
0.00797789
0.00779983
0.00783378
0.00774855
0.00765438
0.00552779
0.00590181
0.00766969
0.00560048
0.00583309
0.0055352
0.00555268
0.00563732
0.00564381
0.00570429
0.00566717
0.00578098
0.00572482
0.00571652
0.00573298
0.00599173
0.00596398
0.00592479
0.00587431
0.00619623
0.00620084
0.00619104
0.00616101
0.00621731
0.00628092
0.00632414
0.00635258
0.00629921
0.00628646
0.00639275
0.0063436
0.00610504
0.00619665
0.00638621
0.00628442
0.00593809
0.00567049
0.00580448
0.00609912
0.00569396
0.00586665
0.00582404
0.00591078
0.005706
0.00574483
0.0059342
0.00570468
0.00595923
0.00578927
0.00579576
0.00801431
0.00217299
0.00716997
0.00653796
0.00737594
0.00770003
0.00810881
0.00818989
0.00822907
0.00823976
0.0081949
0.00810341
0.00800762
0.00792403
0.00786588
0.00787541
0.00796481
0.00805788
0.00810891
0.00831048
0.00832673
0.00835432
0.00837853
0.00839045
0.00839987
0.00840627
0.00841006
0.00841266
0.0084154
0.00841996
0.00842709
0.00797855
0.00794527
0.00813146
0.00812056
0.00815055
0.00814147
0.00817227
0.00816014
0.00819781
0.00818647
0.00818753
0.00820072
0.0080671
0.00814496
0.00787882
0.0079633
0.00759488
0.0077299
0.00756739
0.00772949
0.00569786
0.00613145
0.00594473
0.00586514
0.00564052
0.00561639
0.00565926
0.00562226
0.0056976
0.00570685
0.00574409
0.00570692
0.00543061
0.00535708
0.00537979
0.00533851
0.00605938
0.00586915
0.00568666
0.00554726
0.00637027
0.00637518
0.00636212
0.00610109
0.00640622
0.0064794
0.00652925
0.0065638
0.00649935
0.00648508
0.00661698
0.00655707
0.0062365
0.00634256
0.00660625
0.00646288
0.00605927
0.00562572
0.00577778
0.00623029
0.00563723
0.00605482
0.00605782
0.005764
0.00560625
0.00558689
0.00579443
0.00583195
0.00605522
0.0060226
0.00596657
0.00706245
0.00187066
0.00594749
0.00662839
0.00691477
0.00766092
0.00813562
0.00822016
0.00824186
0.00822209
0.00814254
0.00801447
0.00793192
0.00785002
0.00780954
0.0078498
0.00796734
0.00790466
0.00797607
0.00831286
0.00833191
0.00836247
0.0083802
0.00839168
0.00839996