/*--------------------------------*- C++ -*----------------------------------*\
  =========                 |
  \\      /  F ield         | OpenFOAM: The Open Source CFD Toolbox
   \\    /   O peration     | Website:  https://openfoam.org
    \\  /    A nd           | Version:  dev
     \\/     M anipulation  |
\*---------------------------------------------------------------------------*/
FoamFile
{
    version     2.0;
    format      ascii;
    class       volScalarField;
    location    "2500";
    object      rDeltaT;
}
// * * * * * * * * * * * * * * * * * * * * * * * * * * * * * * * * * * * * * //

dimensions      [0 0 -1 0 0 0 0];

internalField   nonuniform List<scalar> 
9846
(
100
100
100
100
100
100
100
100
100
100
100
100
100
100
100
100
100
100
100
100
100
100
100
100
100
100
100
100
100
100
100
100
100
100
100
100
100
100
100
100
100
100
100
100
100
100
100
100
100
100
100
100
100
100
100
100
100
100
100
100
100
100
100
100
100
100
100
100
100
100
100
100
100
100
100
100
100
100
100
100
100
100
100
100
100
100
100
100
100
100
100
100
100
100
100
100
100
100
100
100
100
100
100
100
100
100
100
100
100
100
100
100
100
100
100
100
100
100
100
100
100
100
100
100
100
100
100
100
100
100
100
100
100
100
100
100
100
100
100
100
100
100
100
100
100
100
100
100
100
100
100
100
100
100
100
100
100
100
100
100
100
100
100
100
100
100
100
100
100
100
100
100
100
100
100
100
100
100
100
100
100
100
100
100
100
100
100
100
100
100
100
100
100
100
100
100
100
100
100
100
100
100
100
100
100
100
100
100
100
100
100
100
100
100
100
100
100
100
100
100
100
100
100
100
100
100
100
100
100
100
100
100
100
100
100
100
100
100
100
100
100
100
100
100
100
100
100
100
100
100
100
100
100
100
100
100
100
100
100
100
100
100
100
100
100
100
100
100
100
100
100
100
100
100
100
100
100
100
100
100
100
100
100
100
100
100
100
100
100
100
100
100
100
100
100
100
100
100
100
100
100
100
100
100
100
100
100
100
100
100
100
100
100
100
100
100
100
100
100
100
100
100
100
100
100
100
100
100
100
100
100
100
100
100
100
100
100
100
100
100
100
100
100
100
100
100
100
100
100
100
100
100
100
100
100
100
100
100
100
100
100
100
100
100
100
100
100
100
100
100
100
100
100
100
100
100
100
100
100
100
100
100
100
100
100
100
100
100
100
100
100
100
100
100
100
100
100
100
100
100
100
100
100
100
100
100
100
100
100
100
100
100
100
100
100
100
100
100
100
100
100
100
100
100
100
100
100
100
100
100
100
100
100
100
100
100
100
100
100
100
100
100
100
100
100
100
100
100
100
100
100
100
100
100
100
100
100
100
100
100
100
100
100
100
100
100
100
100
100
100
100
100
100
100
100
100
100
100
100
100
100
100
100
100
100
100
100
100
100
100
100
100
100
100
100
100
100
100
100
100
100
100
100
100
100
100
100
100
100
100
100
100
100
100
100
100
100
100
100
100
100
100
100
100
100
100
100
100
100
100
100
100
100
100
100
100
100
100
100
100
100
100
100
100
100
100
100
100
100
100
100
100
100
100
100
100
100
100
100
100
100
100
100
100
100
100
100
100
100
100
100
100
100
100
100
100
100
100
100
100
100
100
100
100
100
100
100
100
100
100
100
100
100
100
100
100
100
100
100
100
100
100
100
100
100
100
100
100
100
100
100
100
100
100
100
100
100
100
100
100
100
100
100
100
100
100
100
100
100
100
100
100
100
100
100
100
100
100
100
100
100
100
100
100
100
100
100
100
100
100
100
100
100
100
100
100
100
100
100
100
100
100
100
100
100
100
100
100
100
100
100
100
100
100
100
100
100
100
100
100
100
100
100
100
100
100
100
100
100
100
100
100
100
100
100
100
100
100
100
100
100
100
100
100
100
100
100
100
100
100
100
100
100
100
100
100
100
100
100
100
100
100
100
100
100
100
100
100
100
100
100
100
100
100
100
100
100
100
100
100
100
100
100
100
100
100
100
100
100
100
100
100
100
100
100
100
100
100
100
100
100
100
100
100
100
100
100
100
100
100
100
100
100
100
100
100
100
100
100
100
100
100
100
100
100
100
100
100
100
100
100
100
100
100
100
100
100
100
100
100
100
100
100
100
100
100
100
100
100
100
100
100
100
100
100
100
100
100
100
100
100
100
100
100
100
100
100
100
100
100
100
100
100
100
100
100
100
100
100
100
100
100
100
100
100
100
100
100
100
100
100
100
100
100
100
100
100
100
100
100
100
100
100
100
100
100
100
100
100
100
100
100
100
100
100
100
100
100
100
100
100
100
100
100
100
100
100
100
100
100
100
100
100
100
100
100
100
100
100
100
100
100
100
100
100
100
100
100
100
100
100
100
100
100
100
100
100
100
100
100
100
100
100
100
100
100
100
100
100
100
100
100
100
100
100
100
100
100
100
100
100
100
100
100
100
100
100
100
100
100
100
100
100
100
100
100
100
100
100
100
100
100
100
100
100
100
100
100
100
100
100
100
100
100
100
100
100
100
100
100
100
100
100
100
100
100
100
100
100
100
100
100
100
100
100
100
100
100
100
100
100
100
100
100
100
100
100
100
100
100
100
100
100
100
100
100
100
100
100
100
100
100
100
100
100
100
100
100
100
100
100
100
100
100
100
100
100
100
100
100
100
100
100
100
100
100
100
100
100
100
100
100
100
100
100
100
100
100
100
100
100
100
100
100
100
100
100
100
100
100
100
100
100
100
100
100
100
100
100
100
100
100
100
100
100
100
100
100
100
100
100
100
100
100
100
100
100
100
100
100
100
100
100
100
100
100
100
100
100
100
100
100
100
100
100
100
100
100
100
100
100
100
100
100
100
100
100
100
100
100
100
100
100
100
100
100
100
100
100
100
100
100
100
100
100
100
100
100
100
100
100
100
100
100
100
100
100
100
100
100
100
100
100
100
100
100
100
100
100
100
100
100
100
100
100
100
100
100
100
100
100
100
100
100
100
100
100
100
100
100
100
100
100
100
100
100
100
100
100
100
100
100
100
100
100
100
100
100
100
100
100
100
100
100
100
100
100
100
100
100
100
100
100
100
100
100
100
100
100
100
100
100
100
100
100
100
100
100
100
100
100
100
100
100
100
100
100
100
100
100
100
100
100
100
100
100
100
100
100
100
100
100
100
100
100
100
100
100
100
100
100
100
100
100
100
100
100
100
100
100
100
100
100
100
100
100
100
100
100
100
100
100
100
100
100
100
100
100
100
100
100
100
100
100
100
100
100
100
100
100
100
100
100
100
100
100
100
100
100
100
100
100
100
100
100
100
100
100
100
100
100
100
100
100
100
100
100
100
100
100
100
100
100
100
100
100
100
100
100
100
100
100
100
100
100
100
100
100
100
100
100
100
100
100
100
100
100
100
100
100
100
100
100
100
100
100
100
100
100
100
100
100
100
100
100
100
100
100
100
100
100
100
100
100
100
100
100
100
100
100
100
100
100
100
100
100
100
100
100
100
100
100
100
100
100
100
100
100
100
100
100
100
100
100
100
100
100
100
100
100
100
100
100
100
100
100
100
100
100
100
100
100
100
100
100
100
100
100
100
100
100
100
100
100
100
100
100
100
100
100
100
100
100
100
100
100
100
100
100
100
100
100
100
100
100
100
100
100
100
100
100
100
100
100
100
100
100
100
100
100
100
100
100
100
100
100
100
100
100
100
100
100
100
100
100
100
100
100
100
100
100
100
100
100
100
100
100
100
100
100
100
100
100
100
100
100
100
100
100
100
100
100
100
100
100
100
100
100
100
100
100
100
100
100
100
100
100
100
100
100
100
100
100
100
100
100
100
100
100
100
100
100
100
100
100
100
100
100
100
100
100
100
100
100
100
100
100
100
100
100
100
100
100
100
100
100
100
100
100
100
100
100
100
100
100
100
100
100
100
100
100
100
100
100
100
100
100
100
100
100
100
100
100
100
100
100
100
100
100
100
100
100
100
100
100
100
100
100
100
100
100
100
100
100
100
100
100
100
100
100
100
100
100
100
100
100
100
100
100
100
100
100
100
100
100
100
100
100
100
100
100
100
100
100
100
100
100
100
100
100
100
100
100
100
100
100
100
100
100
100
100
100
100
100
100
100
100
100
100
100
100
100
100
100
100
100
100
100
100
100
100
100
100
100
100
100
100
100
100
100
100
100
100
100
100
100
100
100
100
100
100
100
100
100
100
100
100
100
100
100
100
100
100
100
100
100
100
100
100
100
100
100
100
100
100
100
100
100
100
100
100
100
100
100
100
100
100
100
100
100
100
100
100
100
100
100
100
100
100
100
100
100
100
100
100
100
100
100
100
100
100
100
100
100
100
100
100
100
100
100
100
100
100
100
100
100
100
100
100
100
100
100
100
100
100
100
100
100
100
100
100
100
100
100
100
100
100
100
100
100
100
100
100
100
100
100
100
100
100
100
100
100
100
100
100
100
100
100
100
100
100
100
100
100
100
100
100
100
100
100
100
100
100
100
100
100
100
100
100
100
100
100
100
100
100
100
100
100
100
100
100
100
100
100
100
100
100
100
100
100
100
100
100
100
100
100
100
100
100
100
100
100
100
100
100
100
100
100
100
100
100
100
100
100
100
100
100
100
100
100
100
100
100
100
100
100
100
100
100
100
100
100
100
100
100
100
100
100
100
100
100
100
100
100
100
100
100
100
100
100
100
100
100
100
100
100
100
100
100
100
100
100
100
100
100
100
100
100
100
100
100
100
100
100
100
100
100
100
100
100
100
100
100
100
100
100
100
100
100
100
100
100
100
100
100
100
100
100
100
100
100
100
100
100
100
100
100
100
100
100
100
100
100
100
100
100
100
100
100
100
100
100
100
100
100
100
100
100
100
100
100
100
100
100
100
100
100
100
100
100
100
100
100
100
100
100
100
100
100
100
100
100
100
100
100
100
100
100
100
100
100
100
100
100
100
100
100
100
100
100
100
100
100
100
100
100
100
100
100
100
100
100
100
100
100
100
100
100
100
100
100
100
100
100
100
100
100
100
100
100
100
100
100
100
100
100
100
100
100
100
100
100
100
100
100
100
100
100
100
100
100
100
100
100
100
100
100
100
100
100
100
100
100
100
100
100
100
100
100
100
100
100
100
100
100
100
100
100
100
100
100
100
100
100
100
100
100
100
100
100
100
100
100
100
100
100
100
100
100
100
100
100
100
100
100
100
100
100
100
100
100
100
100
100
100
100
100
100
100
100
100
100
100
100
100
100
100
100
100
100
100
100
100
100
100
100
100
100
100
100
100
100
100
100
100
100
100
100
100
100
100
100
100
100
100
100
100
100
100
100
100
100
100
100
100
100
100
100
100
100
100
100
100
100
100
100
100
100
100
100
100
100
100
100
100
100
100
100
100
100
100
100
100
100
100
100
100
100
100
100
100
100
100
100
100
100
100
100
100
100
100
100
100
100
100
100
100
100
100
100
100
100
100
100
100
100
100
100
100
100
100
100
100
100
100
100
100
100
100
100
100
100
100
100
100
100
100
100
100
100
100
100
100
100
100
100
100
100
100
100
100
100
100
100
100
100
100
100
100
100
100
100
100
100
100
100
100
100
100
100
100
100
100
100
100
100
100
100
100
100
100
100
100
100
100
100
100
100
100
100
100
100
100
100
100
100
100
100
100
100
100
100
100
100
100
100
100
100
100
100
100
100
100
100
100
100
100
100
100
100
100
100
100
100
100
100
100
100
100
100
100
100
100
100
100
100
100
100
100
100
100
100
100
100
100
100
100
100
100
100
100
100
100
100
100
100
100
100
100
100
100
100
100
100
100
100
100
100
100
100
100
100
100
100
100
100
100
100
100
100.108
100
100
102.475
100
100
100
104.93
106.195
100
100
100
100
100
100
104.349
100
100
100
100
100
100
100
100
100
100
100
100
100
100
100
100
100
100
100
100
100
100
100
100
100
100
100
100
100
100
100
100
100
100
100
100
100
100
100
100
100
100
100
100
100
100
100
100
100
100
100
100
100
100
100
100
100
100
100
101.544
101.823
100
100.503
100
100
100
100.348
100
100
100
100
100
100
100
100
100
100
100
100
100
100
100
100
100
104.697
103.048
100
107.926
100
100
105.855
111.49
113.313
104.291
100
100
100
100
100
128.733
108.126
100
100
100
100
100
100
100
100
100
100
100
100
100
100
100
100
100
100
100
100
100
100
100
100
100
100
100
100
100
100
100
100
100
100
100
100
100
100
100
100
100
100
100
100
100
100
100
100
100
100
100
100
100
100
100
100
100
100
100
100
114.373
115.181
111.633
114.249
101.623
105.772
109.607
112.347
100
100
100
105.404
100
100
100
100
100
100
100
100
100
100
100
100
100.519
108.962
107.596
100
113.542
100.77
100
114.07
118.286
121.951
113.373
100
100
100
100
112.054
153.267
128.219
100
106.101
100
100
100
100
100
100
100
100
100
100
100
100
100
100
100
100
100
100
100
100
100
100
100
100
100
100
100
100
100
100
100
100
100
100
100
100
100
100
100
100
100
100
100
100
100
100
100
100
100
100
100
100
100
100
100
106.699
100
104.633
100
127.763
129.198
126.529
128.898
111.566
116.319
120.805
124.826
100
101.225
107.792
114.645
100
100
100
100
100
100
100
100
100
100
100
100
104.992
113.908
113.233
103.931
120.67
111.476
108.483
124.163
127.116
132.481
124.979
100
100
102.299
100
129.017
178.473
142.748
100
120.275
100
100
100
100
100
100
100
100
100
100
100
100
100
100
100
100
100
100
100
100
100
100
100
100
100
100
100
100
100
100
100
100
100
100
100
100
100
100
100
100
100
100
100
100
100
100
100
100
100
100
100
100
100
100
100
100
120.883
112.495
117.105
107.934
141.813
143.812
141.77
144.056
121.646
127.219
132.645
138.101
102.008
109.087
116.375
123.973
100
100
100
102.091
100
100
101.5
100
103.909
105.28
111.242
108.058
111.533
120.79
120.213
111.199
129.187
124.596
121.104
135.481
137.041
142.11
137.206
100
100
115.973
110.733
136.007
174.647
138.362
105.763
122.581
100
100
100
100
100
100
100
100
100
100
100
100
100
100
100
100
100
100
100
100
100
100
100
100
100
100
100
100
100
100
100
100
100
100
100
100
100
100
100
100
100
100
100
100
100
100
100
100
100
102.791
100.535
107.966
102.523
101.229
100
105.14
107.599
135.161
125.928
129.189
117.801
156.045
158.948
157.222
159.782
131.843
138.436
144.694
151.204
109.543
117.297
125.306
133.549
100
100
102.019
109.867
114.142
104.378
117.463
107.306
113.317
116.35
125.236
120.124
119.612
129.017
128.592
120.537
137.998
136.987
134.401
145.984
145.592
152.282
148.553
106.789
111.052
132.043
131.548
141.834
239.047
213.247
126.232
161.619
100
100
100
100
100
100
100
100
100
100
100
100
100
100
100
100
100
100
100
100
100
100
100
100
100
100
100
100
100
100
100
100
100
100
100
100
100
100
100
100
100
100
100
100
100
100
100
100
100
100
114.644
112.399
118.331
113.467
111.349
109.498
115.43
116.462
149.497
139.819
142.206
128.13
170.701
174.771
173.539
176.305
142.181
150.153
157.161
164.58
117.927
126.339
135.019
143.934
108.414
108.568
111.534
119.436
129.889
122.046
134.413
126.581
124.88
132.4
155.418
142.2
130.426
138.726
142.471
136.536
148.61
149.593
150.012
157.839
159.4
168.699
163.358
136.181
148.244
153.833
159.572
204.224
282.25
233.202
173.426
202.745
100
100
100
100
100
100
100
100
100
100
100
100
100
100
100
100
100
100
100
100
100
100
100
100
100
100
100
100
100
100
100
100
100
100
100
100
100
100
100
100
100
100
100
100
100
100
100
108.323
102.511
100
104.833
125.166
122.524
127.378
122.472
121.514
119.029
125.63
125.288
165.619
155.719
155.63
139.031
185.757
191.29
190.795
193.68
153.341
162.75
170.385
178.454
127.847
136.761
146.359
156.036
128.694
128.732
127.698
131.778
164.132
142.228
167.972
151.639
149.118
168.131
197.97
186.326
152.596
156.86
172.454
171.498
171.227
167.512
174.513
177.828
182.776
194.848
186.4
168.729
185.23
181.396
188.472
223.686
207.261
216.953
203.688
222.345
100
100
100
100
100
100
100
100
100
100
100
100
100
100
100
100
100
100
100
100
100
100
100
100
100
100
100
100
100
100
100
100
100
100
100
100
100
100
100
100
100
100
100
100
100
100
100
100
100
116.849
110.987
106.066
112.45
134.034
131.254
135.577
130.214
131.261
127.61
135.064
134.416
183.199
172.512
169.983
151.146
201.43
208.507
210.005
212.2
165.939
176.005
184.461
193.033
140.343
149.457
160.105
171.092
153.58
151.998
151.498
150.569
193.243
180.712
196.826
191.536
190.495
205.693
220.408
212.645
192.942
190.279
215.435
211.239
202.683
195.961
203.615
205.901
214.781
227.685
218.222
198.577
209.729
209.399
214.493
227.449
239.595
215.854
219.028
226.223
100
100
100
100
100
100
100
100
100
100
100
100
100
100
100
100
100
100
100
100
100
100
100
100
100
100
100
100
100
100
100
100
100
100
100
100
100
100
100
100
100
100
100
100
100
100
100
104.626
100
100
124.487
118.878
111.505
117.998
142.48
139.749
142.109
136.339
141.21
135.847
143.921
143.981
202.968
190.38
187.435
165.53
217.945
226.37
230.584
231.131
181.071
190.57
200.351
208.829
156.727
165.656
176.534
190.983
186.063
186.488
183.849
181.025
246.485
210.382
261.242
226.518
216.73
226.721
150.098
270.303
220.722
227.723
232.655
233.416
237.63
227.68
233.059
240.995
250.739
264.076
253.392
219.094
222.111
234.549
232.582
216.907
241.009
218.359
223.055
215.005
100
100
100
100
100
100
100
100
100
100
100
100
100
100
100
100
100
100
100
100
100
100
100
100
100
100
100
100
100
100
100
100
100
100
100
100
100
100
100
100
100
100
100
100
100
100
100
109.322
102.419
100
130.6
124.816
116.352
123.102
150.774
147.257
148.02
142.252
152.024
144.966
152.25
153.166
224.279
210.023
208.532
181.841
236.023
245.679
253.294
251.984
202.288
208.971
218.78
225.642
181.927
188.717
195.745
210.538
241.593
247.19
241.012
241.555
298.195
267.303
311.122
154.635
268.274
151.664
181.254
326.993
278.362
244.619
152.575
157.451
257.273
259.701
258.732
278.264
270.391
285.139
287.364
230.64
227.054
253.206
245.005
209.927
207.428
203.916
216.849
206.191
100
100
100
100
100
100
100
100
100
100
100
100
100
100
100
100
100
100
100
100
100
100
100
100
100
100
100
100
100
100
100
100
100
100
100
100
100
100
100
100
100
100
100
100
100
100
100
112.875
105.472
100.998
136.55
130.269
120.167
127.232
158.531
153.835
154.051
147.875
163.206
155.193
160.299
162.243
247.242
231.915
234.518
202.575
257.197
267.085
278.095
276.337
223.42
231.304
238.211
242.953
238.758
245.585
249.518
262.561
283.934
286.792
282.013
278.242
349.063
324.481
360.634
183.761
325.598
184.457
212.628
384.902
336.722
156.338
184.011
190.333
161.917
286.371
278.062
297.446
167.278
171.08
295.745
235.818
224.59
265.789
250.22
191.529
439.597
168.19
208.372
191.134
100
100
100
100
100
100
100
100
100
100
100
100
100
100
100
100
100
100
100
100
100
100
100
100
100
100
100
100
100
100
100
100
100
100
100
100
100
100
100
100
100
100
100
100
100
100
100
100
100
115.566
107.847
102.758
141.501
134.516
123.352
131.168
165.605
160.278
160.81
153.519
176.644
166.505
168.171
171.676
272.454
258.033
264.405
230.257
272.849
290.661
303.84
302.836
285.135
277.234
270.941
261.666
276.11
280.588
285.826
298.196
329.973
330.679
324.642
317.875
395.656
380.748
404.758
210.876
386.082
218.392
240.919
437.59
396.024
186.689
218.139
223.377
190.476
296.076
285.868
179.402
193.577
195.369
180.536
236.108
217.78
272.049
251.907
148.609
200.975
100
195.636
165.528
100
100
100
100
100
100
100
100
100
100
100
100
100
100
100
100
100
100
100
100
100
100
100
100
100
100
100
100
100
100
100
100
100
100
100
100
100
100
100
100
100
100
100
100
100
100
100
100
100
118.028
109.863
104.217
145.896
138.596
126.151
134.151
172.169
167.106
167.295
158.879
195.065
178.14
175.796
181.9
298.61
287.055
299.167
265.953
315.191
325.647
326.472
323.185
313.877
175.834
314.269
301.114
316.225
318.599
324.539
334.996
375.047
375.818
367.546
360.009
429.01
237.089
439.405
248.532
446.447
221.642
247.179
251.544
224.379
307.925
324.345
291.795
202.428
226.713
228.212
200.912
229.714
206.606
268.984
247.371
122.031
100
100
177.764
145.319
100
100
100
100
100
100
100
100
100
100
100
100
100
100
100
100
100
100
100
100
100
100
100
100
100
100
100
100
100
100
100
100
100
100
100
100
100
100
100
100
100
100
100
100
100
100
100
100
100
100
100
100
120.39
111.791
104.977
150.158
142.1
128.899
136.813
178.973
173.964
172.775
164.424
222.39
192.498
183.917
193.505
326.66
319.113
333.971
306.409
193.683
337.487
358.856
347.531
343.4
197.611
347.525
335.859
357.584
359.568
365.756
375.477
251.35
252.723
185.021
367.755
294.015
326.658
233.053
253.957
256.106
229.283
221.732
193.203
264.16
242.365
100
100
100
161.244
120.953
100
100
100
100
100
100
100
100
100
100
100
100
100
100
100
100
100
100
100
100
100
100
100
100
100
100
100
100
100
100
100
100
100
100
100
100
100
100
100
100
100
100
100
100
100
100
100
100
100
100
100
100
122.376
113.471
106.166
155.314
145.532
131.058
139.615
186.661
180.414
177.264
169.292
260.935
214.586
194.295
211.168
347.059
345.036
353.113
346.043
211.832
365.904
202.414
376.18
378.189
217.783
383.247
369.941
206.499
422.845
177.649
368.139
257.985
252.375
209.861
180.181
270.99
313.305
230.912
100
100
100
145.057
106.746
100
100
100
100
100
100
100
100
100
100
100
100
100
100
100
100
100
100
100
100
100
100
100
100
100
100
100
100
100
100
100
100
100
100
100
100
100
100
100
100
100
100
100
100
100
100
100
100
100
100
100
100
100
124.854
115.497
107.863
160.607
149.615
134.197
144.223
195.488
186.206
183.027
174.397
306.285
249.943
209.533
240.809
359.651
371.506
355.22
359.474
229.523
397.489
219.623
409.35
238.294
422.289
402.679
233.957
465.273
201.591
417.734
201.318
167.384
270.379
306.964
350.598
220.757
100
113.447
121.841
132.053
101.786
100
100
100
100
100
100
100
100
100
100
100
100
100
100
100
100
100
100
100
100
100
100
100
100
100
100
100
100
100
100
100
100
100
100
100
100
100
100
100
100
100
100
100
100
100
100
100
100
100
100
100
100
100
100
100
127.836
118.166
109.541
166.432
155.521
138.151
149.597
208.422
193.816
191.943
180.156
346.319
294.692
236.073
283.055
387.248
206.258
205.941
384.48
245.263
239.373
439.318
256.078
227.526
455.806
187.327
155.573
166.501
348.662
390.488
206.935
273.997
100.344
117.44
156.707
125.921
105.709
100
100
100
100
100
100
100
100
100
100
100
100
100
100
100
100
100
100
100
100
100
100
100
100
100
100
100
100
100
100
100
100
100
100
100
100
100
100
100
100
100
100
100
100
100
100
100
100
100
100
100
100
102.328
100
100
100
131.706
120.684
112.841
171.508
161.158
144.068
156.446
232.592
207.56
207.46
189.398
355.751
332.137
273.946
320.221
423.064
220.709
200.79
217.814
427.143
254.64
248.276
176.526
149.064
190.342
398.495
423.129
199.931
255.249
309.223
124.428
115.301
181.795
125.198
116.26
100
100
100
100
100
100
100
100
100
100
100
100
100
100
100
100
100
100
100
100
100
100
100
100
100
100
100
100
100
100
100
100
100
100
100
100
100
100
100
100
100
100
100
100
100
100
100
100
100
100
100
100
100
104.142
100
100
100
135.653
124.235
116.271
178.004
167.635
149.691
163.062
268.289
233.023
233.543
204.03
342.614
308.208
326.083
450.263
241.311
213.647
194.587
238.311
458.964
172.014
150.098
215.898
441.338
199.321
247.933
295.554
348.103
147.762
109.776
199.651
126.656
131.657
100
100
100
100
100
100
100
100
100
100
100
100
100
100
100
100
100
100
100
100
100
100
100
100
100
100
100
100
100
100
100
100
100
100
100
100
100
100
100
100
100
100
100
100
100
100
100
100
100
100
100
100
100
100
105.673
100
100
100
140.507
128.719
118.626
186.155
174.322
155.444
169.452
301.567
267.352
264.124
228.699
318.588
182.79
258.096
237.179
209.691
255.72
179.479
152.402
238.523
217.598
249.577
286.79
338.749
385.272
171.804
102.152
208.22
132.673
147.956
100
100
100
100
100
100
100
100
100
100
100
100
100
100
100
100
100
100
100
100
100
100
100
100
100
100
100
100
100
100
100
100
100
100
100
100
100
100
100
100
100
100
100
100
100
100
100
100
100
100
100
100
100
100
100
109.133
100
100
100
146.775
132.813
122.094
199.116
182.164
163.79
177.8
309.386
296.537
287.739
255.372
182.378
201.452
257.979
234.419
196.471
150.955
260.693
264.726
293.267
330.837
379.511
193.173
100
211.038
147.404
161.889
100
100
100
100
100
100
100
100
100
100
100
100
100
100
100
100
100
100
100
100
100
100
100
100
100
100
100
100
100
100
100
100
100
100
100
100
100
100
100
100
100
100
100
100
100
100
100
100
100
100
100
100
100
100
100
100
112.328
100.812
100
151.852
136.347
126.786
218.406
192.301
171.532
186.41
180.11
296.558
292.965
276.028
203.844
228.702
256.313
194.65
162.018
171.791
311.476
340.465
374.587
206.297
100
208.174
157.57
173.749
100
100
100
100
100
100
100
100
100
100
100
100
100
100
100
100
100
100
100
100
100
100
100
100
100
100
100
100
100
100
100
100
100
100
100
100
100
100
100
100
100
100
100
100
100
100
100
100
100
100
100
100
100
100
100
100
100
100
114.778
102.631
157.971
141.962
130.161
240.547
205.806
178.404
194.346
203.321
176.399
301.658
331.037
288.464
231.555
253.527
198.535
278.722
172.448
198.159
362.552
384.926
210.079
109.358
198.924
163.488
176.21
100
100
100
100
100
100
100
100
100
100
100
100
100
100
100
100
100
100
100
100
100
100
100
100
100
100
100
100
100
100
100
100
100
100
100
100
100
100
100
100
100
100
100
100
100
100
100
100
100
100
100
100
100
100
100
100
100
100
100
100
116.872
104.408
165.856
147.079
133.123
262.153
222.014
188.635
206.751
229.993
198.994
181.331
370.12
295.225
256.024
211.125
268.613
322.107
170.71
225.428
411.923
196.285
161.357
217.871
161.206
169.508
100
100
100
100
100
100
100
100
100
100
100
100
100
100
100
100
100
100
100
100
100
100
100
100
100
100
100
100
100
100
100
100
100
100
100
100
100
100
100
100
100
100
100
100
100
100
100
100
100
100
100
100
100
100
100
100
100
100
100
100
119.084
106.859
172.53
151.582
136.413
278.401
241.424
197.002
219.285
254.012
223.905
328.144
204.389
413.503
302.719
268.566
195.289
315.696
167.467
371.766
165.125
251.299
201.831
343.999
255.661
154.608
158.973
100
100
100
100
100
100
100
100
100
100
100
100
100
100
100
100
100
100
100
100
100
100
100
100
100
100
100
100
100
100
100
100
100
100
100
100
100
100
100
100
100
100
100
100
100
100
100
100
100
100
100
100
100
100
100
100
100
100
100
100
100
100
122.22
107.799
179.038
156.334
140.225
285.535
259.813
204.873
230.761
247.542
365.047
185.57
228.389
457.382
226.976
183.217
372.105
196.448
272.174
421.027
159.143
192.3
815.878
288.244
145.016
143.458
100
100
100
100
100
100
100
100
100
100
100
100
100
100
100
100
100
100
100
100
100
100
100
100
100
100
100
100
100
100
100
100
100
100
100
100
100
100
100
100
100
100
100
100
100
100
100
100
100
100
100
100
100
100
100
100
100
100
100
100
100
100
100
123.146
108.193
184.764
160.757
141.926
286.781
271.905
212.927
242.736
405.792
204.35
311.951
251.779
208.866
175.159
421.014
226.489
320.997
253.502
154.408
156.466
165.244
100
134.941
123.075
100
100
100
100
100
100
100
100
100
100
100
100
100
100
100
100
100
100
100
100
100
100
100
100
100
100
100
100
100
100
100
100
100
100
100
100
100
100
100
100
100
100
100
100
100
100
100
100
100
100
100
100
100
100
100
100
100
100
100
100
100
100
100
123.537
108.512
190.394
164.017
142.804
306.411
281.627
220.881
253.298
447.426
224.332
347.202
349.963
200.767
170.057
252.216
373.308
298.279
244.315
148.049
103.673
100
100
123.527
100.602
100
100
100
100
100
100
100
100
100
100
100
100
100
100
100
100
100
100
100
100
100
100
100
100
100
100
100
100
100
100
100
100
100
100
100
100
100
100
100
100
100
100
100
100
100
100
100
100
100
100
100
100
100
100
100
100
100
100
100
100
100
100
100
108.925
123.681
194.058
166.166
143.028
314.444
287.442
225.007
256.385
244.862
384.819
380.545
186.018
197.836
167.356
419.028
347.669
288.19
251.31
137.994
100
100
100
109.224
100
100
100
100
100
100
100
100
100
100
100
100
100
100
100
100
100
100
100
100
100
100
100
100
100
100
100
100
100
100
100
100
100
100
100
100
100
100
100
100
100
100
100
100
100
100
100
100
100.415
100
100
100
100
100
100
100
100
100
100
100
100
100
100
100
109.55
107.725
123.599
194.601
166.754
142.777
282.559
224.614
253.062
420.25
410.684
205.303
308.061
194.966
157.8
390.454
337.03
293.577
241.519
126.97
100
100
100
102.52
100
100
100
100
100
100
100
100
100
100
100
100
100
100
100
100
100
100
100
100
100
100
100
100
100
100
100
100
100
100
100
100
100
100
100
100
100
100
100
100
100
100
100
100
100
100
100.088
100
100
104.517
102.362
102.08
100
100
101.237
100
100
100
100
100
100
100
100
106.128
104.172
123.51
120.742
193.533
166.399
142.153
279.051
221.617
248.891
443.94
223.518
335.682
304.17
191.699
147.264
380.089
340.422
285.719
147.923
120.201
100
153.257
100
101.861
100
100
100
100
100
100
100
100
100
100
100
100
100
100
100
100
100
100
100
100
100
100
100
100
100
100
100
100
100
100
100
100
100
100
100
100
100
100
100
100
100
100
100
100
100
100
103.43
100
100
105.777
105.932
103.613
105.322
104.937
100
101.491
104.06
100
102.601
100
100
100
100
101.531
100
118.054
115.065
138.725
190.677
164.824
273.905
217.397
241.682
240.733
364.818
330.523
298.746
214.665
181.948
137.254
381.904
336.478
176.634
279.179
117.964
100
100
100
100
100
100
100
100
100
100
100
100
100
100
100
100
100
100
100
100
100
100
100
100
100
100
100
100
100
100
100
100
100
100
100
100
100
100
100
100
100
100
100
100
100
100
100
100
100
100
106.969
100
104.99
105.537
100
108.714
108.276
107.854
108.38
107.953
100
104.755
107.166
102.866
106.032
100
102.827
100
100.076
111.363
107.126
135.289
131.338
161.264
187.603
268.174
214.964
240.923
391.225
359.2
323.474
310.153
208.381
171.335
130.84
382.073
207.559
327.194
242.928
115.333
100
100
100
100
100
100
100
100
100
100
100
100
100
100
100
100
100
100
100
100
100
100
100
100
100
100
100
100
100
100
100
100
100
100
100
100
100
100
100
100
100
100
100
100
100
100
100
100
100
110.168
100
106.682
107.505
107.33
108.257
100
112.079
111.059
111.623
111.615
110.985
100
108.235
110.21
106.434
109.838
103.304
106.905
102.759
106.905
126.437
120.905
157.983
153.802
185.262
264.676
214.239
241.756
385.569
350.802
334.39
291.409
192.693
159.794
125.098
235.387
379.173
294.383
143.531
111.878
100
100
100
100
100
100
100
100
100
100
100
100
100
100
100
100
100
100
100
100
100
100
100
100
100
100
100
100
100
100
100
100
100
100
100
100
100
100
100
100
100
100
100
100
100
100
100
100
100
100
113.242
100
100
108.781
108.193
111.054
112.079
100
115.04
113.871
114.96
116.014
115.053
112.33
113.893
110.555
114.09
109.566
112.791
116.61
119.507
148.266
142.206
181.931
265.47
213.178
242.711
375.921
357.55
317.516
293.32
190.252
146.293
121.295
431.398
352.661
173.447
205.781
256.569
112.672
100
100
100
100
100
100
100
100
100
100
100
100
100
100
100
100
100
100
100
100
100
100
100
100
100
100
100
100
100
100
100
100
100
100
100
100
100
100
100
100
100
100
100
100
100
100
100
100
100
100
100
117.217
109.018
100
109.583
100
111.555
109.529
114.833
115.416
118.038
117.126
118.566
120.923
119.73
116.995
118.23
116.223
119.633
120.869
122.86
139.834
140.818
177.101
173.63
265.012
210.392
241.683
375.513
345.112
318.126
288.347
180.783
136.37
122.671
407.383
206.27
314.509
200.779
146.625
105.176
100
100
100
100
100
100
100
100
100
100
100
100
100
100
100
100
100
100
100
100
100
100
100
100
100
100
100
100
100
100
100
100
100
100
100
100
100
100
100
100
100
100
100
100
100
100
100
100
100
100
100
100
100
121.664
112.26
100
108.915
108.807
111.925
114.037
112.314
118.326
118.116
120.834
120.655
122.053
126.364
125.031
122.619
123.551
125.252
127.738
140.908