/*--------------------------------*- C++ -*----------------------------------*\
  =========                 |
  \\      /  F ield         | OpenFOAM: The Open Source CFD Toolbox
   \\    /   O peration     | Website:  https://openfoam.org
    \\  /    A nd           | Version:  dev
     \\/     M anipulation  |
\*---------------------------------------------------------------------------*/
FoamFile
{
    version     2.0;
    format      ascii;
    class       volScalarField;
    location    "2500";
    object      rho;
}
// * * * * * * * * * * * * * * * * * * * * * * * * * * * * * * * * * * * * * //

dimensions      [1 -3 0 0 0 0 0];

internalField   nonuniform List<scalar> 
9846
(
1.17174
1.17157
1.17167
1.1715
1.17122
1.17167
1.1715
1.17102
1.17123
1.17172
1.17152
1.17092
1.17086
1.17127
1.17177
1.1715
1.17086
1.17067
1.17089
1.17135
1.17179
1.17155
1.17083
1.17049
1.17062
1.17097
1.17143
1.17181
1.1715
1.17078
1.17041
1.17036
1.17065
1.17106
1.17147
1.17184
1.1715
1.17084
1.17036
1.17019
1.17037
1.17073
1.17115
1.1715
1.17185
1.17148
1.17084
1.17033
1.17008
1.17015
1.17043
1.17082
1.1712
1.17152
1.17184
1.17147
1.17085
1.17031
1.17
1.16996
1.17018
1.17054
1.17089
1.17124
1.17154
1.17186
1.17146
1.17085
1.17031
1.16995
1.16983
1.16995
1.17026
1.17062
1.17095
1.17126
1.17155
1.17187
1.17145
1.17084
1.17032
1.16992
1.16973
1.16977
1.17001
1.17035
1.17068
1.17099
1.17127
1.17157
1.17186
1.17142
1.17082
1.17032
1.16989
1.16965
1.16962
1.1698
1.1701
1.17043
1.17074
1.17102
1.17129
1.17159
1.17187
1.1714
1.17081
1.17031
1.16988
1.16959
1.1695
1.16961
1.16987
1.17019
1.17049
1.17077
1.17103
1.17131
1.17157
1.17187
1.17138
1.1708
1.17031
1.16987
1.16955
1.1694
1.16944
1.16965
1.16995
1.17026
1.17053
1.17078
1.17104
1.17131
1.17158
1.17187
1.17137
1.17077
1.17031
1.16986
1.16951
1.16932
1.1693
1.16947
1.16974
1.17004
1.17032
1.17057
1.17081
1.17105
1.17131
1.17159
1.17188
1.17135
1.17075
1.17031
1.16986
1.16948
1.16925
1.16919
1.16929
1.16953
1.16983
1.17011
1.17036
1.17059
1.17081
1.17105
1.17132
1.1716
1.17188
1.17134
1.17074
1.1703
1.16985
1.16945
1.16919
1.16909
1.16915
1.16935
1.16961
1.1699
1.17016
1.17038
1.17059
1.17081
1.17105
1.17131
1.1716
1.17189
1.17132
1.17072
1.17029
1.16985
1.16943
1.16914
1.169
1.16902
1.16917
1.16943
1.1697
1.16995
1.17019
1.17039
1.17059
1.17081
1.17105
1.17131
1.1716
1.17188
1.17111
1.1707
1.17027
1.16984
1.16941
1.16909
1.16892
1.1689
1.16902
1.16924
1.16951
1.16977
1.16999
1.1702
1.1704
1.17059
1.1708
1.17105
1.17132
1.17161
1.17189
1.1713
1.17068
1.17026
1.16982
1.1694
1.16905
1.16885
1.1688
1.16888
1.16908
1.16933
1.16958
1.16981
1.17002
1.1702
1.17039
1.17058
1.17081
1.17105
1.17133
1.17162
1.17189
1.17105
1.17067
1.17022
1.16981
1.16938
1.16901
1.16879
1.16871
1.16876
1.16892
1.16916
1.1694
1.16963
1.16984
1.17002
1.1702
1.17039
1.17058
1.1708
1.17105
1.17134
1.17163
1.1719
1.17097
1.17065
1.17023
1.16981
1.16937
1.16898
1.16873
1.16862
1.16865
1.16878
1.169
1.16923
1.16946
1.16966
1.16984
1.17002
1.17019
1.17037
1.17057
1.17079
1.17106
1.17135
1.17165
1.17191
1.17096
1.17062
1.1702
1.16979
1.16934
1.16894
1.16867
1.16854
1.16854
1.16866
1.16885
1.16908
1.16929
1.16949
1.16967
1.16984
1.17001
1.17018
1.17036
1.17056
1.17079
1.17106
1.17136
1.17166
1.17192
1.17095
1.17061
1.17019
1.16976
1.16932
1.16891
1.16862
1.16847
1.16845
1.16854
1.16872
1.16893
1.16914
1.16933
1.1695
1.16967
1.16983
1.16999
1.17016
1.17034
1.17055
1.17079
1.17106
1.17137
1.17167
1.17193
1.17097
1.17061
1.17017
1.16974
1.1693
1.16888
1.16857
1.1684
1.16836
1.16844
1.1686
1.1688
1.169
1.16918
1.16934
1.1695
1.16965
1.16981
1.16997
1.17014
1.17033
1.17054
1.17078
1.17107
1.17138
1.17168
1.17193
1.17097
1.17062
1.17018
1.16973
1.16927
1.16885
1.16853
1.16834
1.16828
1.16834
1.16848
1.16868
1.16887
1.16904
1.16919
1.16934
1.16949
1.16964
1.16979
1.16995
1.17012
1.17031
1.17053
1.17078
1.17108
1.17139
1.17169
1.17193
1.171
1.1706
1.17014
1.1697
1.16924
1.16882
1.16848
1.16828
1.16821
1.16826
1.16838
1.16856
1.16875
1.16892
1.16906
1.16919
1.16932
1.16947
1.16961
1.16977
1.16993
1.1701
1.1703
1.17052
1.17078
1.17109
1.17141
1.1717
1.17193
1.17102
1.17061
1.17016
1.16969
1.16922
1.16879
1.16844
1.16822
1.16815
1.16818
1.1683
1.16847
1.16865
1.1688
1.16893
1.16904
1.16917
1.1693
1.16944
1.16959
1.16974
1.16991
1.17009
1.17028
1.17051
1.17079
1.1711
1.17142
1.1717
1.17193
1.17103
1.17059
1.17013
1.16968
1.16921
1.16877
1.1684
1.16816
1.16808
1.16811
1.16822
1.16839
1.16855
1.16868
1.1688
1.1689
1.169
1.16912
1.16925
1.1694
1.16956
1.16972
1.16989
1.17007
1.17027
1.17051
1.17079
1.17111
1.17143
1.17171
1.17193
1.17108
1.1706
1.17014
1.16967
1.16919
1.16874
1.16836
1.16811
1.16801
1.16804
1.16814
1.16831
1.16845
1.16855
1.16863
1.16869
1.16876
1.16887
1.16901
1.16918
1.16935
1.16952
1.16969
1.16986
1.17005
1.17026
1.1705
1.1708
1.17112
1.17144
1.17171
1.17193
1.17107
1.17057
1.17014
1.16966
1.16918
1.16873
1.16833
1.16806
1.16794
1.16796
1.16806
1.16821
1.16833
1.16839
1.16836
1.16828
1.16822
1.16829
1.1685
1.16879
1.16905
1.16928
1.16948
1.16966
1.16984
1.17003
1.17024
1.1705
1.1708
1.17112
1.17144
1.17171
1.17194
1.17106
1.17061
1.17013
1.16965
1.16917
1.16872
1.16831
1.16802
1.16787
1.16788
1.16797
1.16811
1.1682
1.16816
1.16792
1.16751
1.16706
1.16683
1.16705
1.16764
1.16831
1.16883
1.16918
1.16943
1.16963
1.16981
1.17001
1.17023
1.17049
1.1708
1.17112
1.17144
1.17172
1.17203
1.17193
1.17109
1.17063
1.17012
1.16965
1.16917
1.16871
1.1683
1.16799
1.16781
1.1678
1.16789
1.16801
1.16806
1.16788
1.16734
1.16641
1.16529
1.16438
1.16411
1.16475
1.16611
1.16752
1.16848
1.16904
1.16936
1.16959
1.16979
1.16999
1.17022
1.17048
1.17079
1.17111
1.17145
1.17182
1.17171
1.17203
1.17193
1.17118
1.17066
1.17014
1.16966
1.16917
1.16871
1.16829
1.16796
1.16776
1.16773
1.1678
1.16791
1.16791
1.16758
1.1667
1.16517
1.16329
1.16161
1.16066
1.1608
1.16203
1.1642
1.16656
1.16807
1.16887
1.16929
1.16955
1.16975
1.16996
1.17019
1.17046
1.17077
1.17125
1.17108
1.17157
1.17129
1.17142
1.17183
1.17171
1.17203
1.17193
1.17122
1.17064
1.17015
1.16967
1.16917
1.16871
1.16828
1.16795
1.16773
1.16766
1.16771
1.1678
1.16776
1.16729
1.16607
1.16401
1.16141
1.15894
1.15723
1.15671
1.15757
1.15963
1.16247
1.16553
1.16764
1.16869
1.16921
1.1695
1.16971
1.16992
1.17016
1.17043
1.17089
1.17071
1.17112
1.17158
1.17125
1.17142
1.17182
1.17171
1.17203
1.17193
1.17124
1.17068
1.17016
1.16967
1.16918
1.16871
1.16828
1.16794
1.16771
1.16763
1.16764
1.1677
1.16763
1.16703
1.1655
1.16302
1.1599
1.15677
1.15431
1.15297
1.15315
1.15487
1.15775
1.16122
1.16469
1.16726
1.1685
1.1691
1.16942
1.16965
1.16986
1.17011
1.17052
1.17034
1.17092
1.17072
1.17107
1.17157
1.17124
1.17141
1.17182
1.1717
1.17203
1.17192
1.17125
1.17074
1.17017
1.16968
1.16919
1.16872
1.16829
1.16793
1.16769
1.16761
1.16761
1.16763
1.16751
1.16684
1.16511
1.16222
1.15881
1.15536
1.15239
1.15031
1.14951
1.15047
1.15294
1.15646
1.16037
1.16409
1.16691
1.16827
1.16893
1.16928
1.16952
1.16976
1.17015
1.16997
1.17052
1.17032
1.17087
1.17067
1.17105
1.17156
1.17122
1.17139
1.17182
1.17169
1.17203
1.17192
1.17127
1.17076
1.1702
1.1697
1.1692
1.16874
1.1683
1.16793
1.16767
1.16758
1.16759
1.16761
1.16747
1.16674
1.16491
1.16177
1.15805
1.15463
1.1516
1.14916
1.14753
1.14736
1.14878
1.15164
1.15542
1.15957
1.16355
1.16644
1.16785
1.16852
1.16886
1.16909
1.16975
1.16942
1.17011
1.16987
1.17046
1.17024
1.17084
1.17062
1.17102
1.17154
1.17119
1.17136
1.17181
1.17168
1.17202
1.17192
1.17135
1.17083
1.17026
1.16972
1.16921
1.16876
1.16832
1.16793
1.16766
1.16753
1.16755
1.16759
1.16745
1.16673
1.1649
1.16178
1.15843
1.15533
1.15212
1.14931
1.14729
1.14631
1.14642
1.14786
1.15054
1.1541
1.15826
1.16255
1.16542
1.1667
1.16714
1.16708
1.16873
1.16701
1.1695
1.1687
1.16997
1.16955
1.17038
1.17009
1.17079
1.17054
1.17097
1.17152
1.17115
1.17133
1.1718
1.17167
1.17202
1.17191
1.17139
1.17088
1.17031
1.16974
1.16922
1.16878
1.16834
1.16795
1.16765
1.1675
1.1675
1.16755
1.16744
1.16675
1.16496
1.16199
1.15945
1.15725
1.1545
1.15111
1.14825
1.1465
1.14593
1.14607
1.14714
1.14908
1.15192
1.15582
1.16011
1.16277
1.16315
1.16244
1.16443
1.16041
1.16689
1.16361
1.16863
1.16653
1.16962
1.16857
1.17023
1.16971
1.17072
1.17039
1.1709
1.1715
1.17109
1.17128
1.1718
1.17165
1.17202
1.17191
1.17143
1.17094
1.17036
1.16978
1.16925
1.1688
1.16837
1.16797
1.16765
1.16746
1.16745
1.1675
1.16743
1.1668
1.1651
1.16246
1.16054
1.159
1.15733
1.15533
1.15171
1.14806
1.14635
1.1459
1.14595
1.14626
1.14696
1.14862
1.15179
1.15503
1.15623
1.15418
1.15674
1.15149
1.1596
1.15505
1.16292
1.15853
1.16618
1.1622
1.16854
1.16586
1.16984
1.16856
1.17057
1.17
1.17076
1.17146
1.17097
1.17119
1.17179
1.17164
1.17202
1.1719
1.17148
1.17097
1.1704
1.1698
1.16927
1.16883
1.1684
1.16799
1.16766
1.16744
1.1674
1.16744
1.16742
1.16688
1.16531
1.16298
1.16148
1.16039
1.15976
1.15937
1.15776
1.15352
1.14879
1.1468
1.14619
1.14589
1.14515
1.14415
1.14419
1.14572
1.14654
1.14498
1.14712
1.14083
1.15001
1.1446
1.15356
1.14815
1.15743
1.15206
1.16147
1.15627
1.16562
1.16074
1.16866
1.16551
1.1702
1.16887
1.17044
1.17141
1.17071
1.17101
1.17178
1.1716
1.17201
1.1719
1.17153
1.17101
1.17046
1.16982
1.16931
1.16885
1.16843
1.16802
1.16767
1.16743
1.16735
1.16739
1.16739
1.16697
1.16555
1.16347
1.16226
1.16151
1.16164
1.16262
1.16261
1.16016
1.1556
1.15075
1.14824
1.14692
1.14543
1.14325
1.14031
1.13817
1.13681
1.1337
1.13569
1.13041
1.13886
1.13262
1.14239
1.13632
1.14623
1.1401
1.15049
1.14426
1.15505
1.14878
1.16008
1.15377
1.16561
1.15954
1.16918
1.16598
1.16959
1.1713
1.17005
1.17055
1.17176
1.17155
1.17201
1.17189
1.17155
1.17105
1.17051
1.16984
1.16934
1.16888
1.16847
1.16806
1.16769
1.16743
1.16731
1.16733
1.16736
1.16704
1.1658
1.16391
1.16289
1.16241
1.16305
1.16474
1.16531
1.16431
1.1617
1.15823
1.15453
1.15126
1.14804
1.14429
1.13996
1.13475
1.12969
1.12415
1.11682
1.12705
1.11954
1.13001
1.12364
1.13375
1.12718
1.13771
1.13102
1.14213
1.13525
1.14694
1.1398
1.15252
1.14498
1.15931
1.15134
1.16655
1.15962
1.16736
1.17103
1.16832
1.16936
1.17174
1.17142
1.172
1.17188
1.17157
1.17108
1.17055
1.16989
1.16936
1.16889
1.1685
1.16809
1.16772
1.16743
1.16728
1.16728
1.16732
1.16711
1.16605
1.1643
1.16341
1.16313
1.1641
1.16599
1.16667
1.16646
1.1654
1.16349
1.16077
1.1576
1.15403
1.14896
1.14193
1.13471
1.12683
1.11883
1.11374
1.1111
1.11106
1.11731
1.1128
1.12054
1.11433
1.12434
1.11754
1.12821
1.12129
1.13253
1.12541
1.1373
1.12974
1.14302
1.13473
1.15052
1.14112
1.16055
1.15018
1.16224
1.17033
1.1641
1.16625
1.1717
1.1711
1.172
1.17187
1.17159
1.17111
1.1706
1.16993
1.16939
1.16892
1.16853
1.16813
1.16775
1.16745
1.16726
1.16723
1.16728
1.16716
1.1663
1.16466
1.16384
1.16369
1.16485
1.16664
1.16731
1.16743
1.16711
1.1661
1.16421
1.16162
1.1586
1.15481
1.14875
1.13761
1.12701
1.11871
1.11436
1.11148
1.11281
1.10995
1.11096
1.11098
1.10981
1.11221
1.10968
1.11483
1.11067
1.11841
1.11287
1.12245
1.11599
1.12692
1.11992
1.13231
1.12441
1.13975
1.13021
1.15051
1.13891
1.15218
1.16841
1.15506
1.15936
1.1716
1.17018
1.17199
1.17185
1.17158
1.17112
1.17064
1.16997
1.16945
1.16897
1.16856
1.16817
1.16779
1.16747
1.16725
1.16718
1.16722
1.16718
1.16652
1.16499
1.16419
1.16411
1.16534
1.16697
1.16759
1.16781
1.1678
1.16735
1.16624
1.16406
1.1611
1.15805
1.15412
1.14603
1.13032
1.11974
1.11641
1.11477
1.11695
1.11345
1.11715
1.11142
1.11545
1.10909
1.10955
1.10893
1.1087
1.10975
1.10851
1.11176
1.10952
1.11467
1.11136
1.11835
1.11428
1.12285
1.11794
1.12901
1.12252
1.13896
1.12885
1.14025
1.16371
1.14304
1.14794
1.1713
1.16769
1.172
1.17175
1.17156
1.17108
1.17065
1.17
1.16953
1.16903
1.1686
1.16821
1.16783
1.16749
1.16725
1.16715
1.16717
1.16718
1.16671
1.16532
1.16448
1.1644
1.16562
1.16711
1.16766
1.16791
1.16802
1.16791
1.16735
1.16553
1.16171
1.15775
1.1545
1.14992
1.13889
1.12305
1.11843
1.12342
1.12064
1.12508
1.12059
1.12569
1.11821
1.1248
1.10966
1.1126
1.10871
1.11041
1.10859
1.10922
1.1097
1.10929
1.11176
1.11033
1.11466
1.1126
1.11839
1.11576
1.12296
1.11955
1.12965
1.12399
1.13122
1.15472
1.13391
1.13827
1.17023
1.16213
1.17171
1.17004
1.17096
1.17059
1.17001
1.16959
1.16909
1.16863
1.16825
1.16787
1.16752
1.16726
1.16712
1.16712
1.16717
1.16687
1.16567
1.16473
1.16462
1.16575
1.16714
1.16765
1.16791
1.16807
1.1681
1.16791
1.1668
1.16274
1.1568
1.15236
1.14975
1.14305
1.12961
1.12165
1.12449
1.13492
1.13567
1.13007
1.1332
1.13127
1.13674
1.12931
1.13702
1.11463
1.12148
1.11181
1.11733
1.11051
1.11409
1.11062
1.1126
1.11164
1.11253
1.11393
1.1136
1.11718
1.11585
1.12097
1.11915
1.12541
1.12261
1.12706
1.14451
1.12918
1.13222
1.16463
1.15051
1.16602
1.15826
1.17042
1.16997
1.16962
1.16916
1.16866
1.1683
1.16792
1.16756
1.16727
1.1671
1.16707
1.16712
1.16699
1.16603
1.16494
1.16478
1.16579
1.16712
1.16763
1.16786
1.16805
1.16813
1.16815
1.16767
1.16498
1.15739
1.15008
1.14614
1.14302
1.13373
1.12585
1.12532
1.13547
1.13461
1.14378
1.14356
1.14071
1.14298
1.14354
1.14824
1.1426
1.15005
1.12516
1.13395
1.12073
1.12924
1.11728
1.12472
1.11556
1.1214
1.11517
1.11937
1.11623
1.11871
1.11856
1.11956
1.12155
1.1219
1.1244
1.12405
1.12605
1.13598
1.12759
1.12901
1.13112
1.14952
1.13809
1.16739
1.15281
1.16984
1.16962
1.16922
1.16872
1.16835
1.16796
1.1676
1.16729
1.1671
1.16702
1.16707
1.16704
1.16637
1.16515
1.16489
1.16576
1.16707
1.16758
1.1678
1.16795
1.16811
1.1682
1.1681
1.16687
1.16118
1.15072
1.14388
1.14027
1.13459
1.12895
1.12725
1.13686
1.14279
1.14239
1.15174
1.15096
1.15097
1.15193
1.15535
1.15845
1.15488
1.15933
1.13873
1.14778
1.13387
1.14337
1.12948
1.1386
1.12637
1.13475
1.1242
1.13202
1.12329
1.12994
1.12387
1.12821
1.12548
1.12866
1.12647
1.12846
1.12692
1.12714
1.12799
1.12991
1.1333
1.13057
1.12824
1.12891
1.12858
1.12874
1.14017
1.13099
1.13165
1.13487
1.16936
1.15452
1.16957
1.16926
1.1688
1.16838
1.16802
1.16764
1.16732
1.1671
1.16699
1.16701
1.16705
1.16664
1.16542
1.16497
1.16567
1.16693
1.16747
1.16773
1.16787
1.16799
1.16816
1.16822
1.16785
1.16529
1.15666
1.14572
1.13993
1.13536
1.13117
1.1294
1.13665
1.14766
1.14674
1.14974
1.14859
1.15885
1.15775
1.15967
1.15957
1.16211
1.16379
1.15964
1.162
1.15098
1.15623
1.14612
1.1512
1.14169
1.14623
1.13855
1.14249
1.13687
1.14042
1.13548
1.14023
1.13385
1.13494
1.13829
1.13013
1.13238
1.13754
1.13478
1.13006
1.12935
1.13141
1.13206
1.13013
1.12913
1.12931
1.12894
1.13054
1.13053
1.12899
1.13239
1.14136
1.13509
1.12947
1.12977
1.17048
1.14083
1.15052
1.16063
1.16923
1.16886
1.1684
1.16808
1.16769
1.16735
1.1671
1.16696
1.16696
1.16703
1.16683
1.16578
1.16504
1.16547
1.16662
1.16726
1.16757
1.16777
1.16788
1.16802
1.16821
1.16819
1.16734
1.16362
1.15482
1.14367
1.13769
1.13376
1.13216
1.13801
1.15129
1.15517
1.1553
1.15665
1.15571
1.16481
1.16421
1.16472
1.16504
1.16371
1.16504
1.15902
1.16017
1.15497
1.15748
1.14935
1.15056
1.14419
1.14304
1.14065
1.13717
1.14027
1.13493
1.14028
1.14071
1.13986
1.13676
1.13997
1.14139
1.1406
1.14123
1.13433
1.137
1.14157
1.13952
1.13367
1.13228
1.1349
1.13612
1.13289
1.12892
1.12875
1.13025
1.13305
1.13278
1.12979
1.13087
1.13413
1.12863
1.12878
1.16204
1.1718
1.17032
1.14079
1.15125
1.16888
1.16846
1.16812
1.16774
1.16739
1.16712
1.16695
1.16691
1.16697
1.16693
1.16618
1.16515
1.16522
1.16616
1.16683
1.16731
1.16758
1.16777
1.16788
1.16808
1.16823
1.16809
1.1669
1.16305
1.15465
1.14467
1.13923
1.13757
1.14281
1.15548
1.16373
1.16477
1.16292
1.16323
1.16356
1.16308
1.16746
1.16765
1.16611
1.16694
1.16167
1.1636
1.1492
1.15023
1.15007
1.14931
1.13935
1.13486
1.13045
1.12199
1.12461
1.11322
1.13228
1.12612
1.11985
1.11279
1.14088
1.13861
1.13434
1.12834
1.14207
1.14132
1.14159
1.14004
1.13875
1.14122
1.14241
1.14244
1.13757
1.1357
1.13864
1.14024
1.1361
1.12925
1.12868
1.13211
1.136
1.13544
1.13116
1.13002
1.1337
1.12823
1.12833
1.1637
1.17196
1.17108
1.14113
1.15259
1.16851
1.16812
1.1678
1.16742
1.16713
1.16694
1.16687
1.16691
1.16696
1.16651
1.16537
1.16507
1.16568
1.16629
1.16683
1.16728
1.16758
1.16777
1.1679
1.16816
1.16824
1.16803
1.16679
1.16305
1.15661
1.15121
1.1494
1.15388
1.16172
1.16741
1.16802
1.16839
1.16757
1.16774
1.16762
1.16756
1.168
1.16859
1.16551
1.16702
1.15296
1.15689
1.13018
1.13235
1.13126
1.1297
1.11453
1.10884
1.10343
1.09528
1.10684
1.10062
1.09627
1.09177
1.12129
1.11391
1.10681
1.10037
1.13659
1.13107
1.12406
1.1163
1.1408
1.13882
1.13742
1.1342
1.14243
1.14307
1.14024
1.14246
1.14143
1.13929
1.14224
1.14322
1.13948
1.13007
1.12901
1.13438
1.13917
1.13832
1.13297
1.12961
1.13365
1.12821
1.12814
1.16583
1.17203
1.17166
1.14193
1.15482
1.16813
1.16785
1.16748
1.16716
1.16694
1.16683
1.16685
1.16694
1.16674
1.16575
1.16504
1.16525
1.16576
1.1662
1.16678
1.16727
1.16758
1.16779
1.16794
1.16819
1.16825
1.16803
1.16691
1.16438
1.16189
1.16128
1.16302
1.16621
1.16855
1.1693
1.16933
1.16926
1.16933
1.16912
1.16919
1.16892
1.16906
1.1672
1.16855
1.16109
1.1647
1.13721
1.14391
1.1074
1.11108
1.10603
1.10584
1.09119
1.09021
1.08423
1.08294
1.09486
1.09033
1.08678
1.08444
1.10858
1.10144
1.0952
1.09002
1.12762
1.11981
1.11167
1.10388
1.136
1.13174
1.1293
1.1242
1.14354
1.14246
1.13463
1.13972
1.1438
1.14268
1.1442
1.14393
1.1427
1.13136
1.12974
1.1369
1.14225
1.14118
1.13505
1.12943
1.13377
1.12845
1.1281
1.16832
1.17205
1.17188
1.14316
1.15825
1.16787
1.16753
1.16718
1.16694
1.16681
1.16679
1.16688
1.16685
1.16615
1.1651
1.16495
1.16526
1.16554
1.16593
1.16676
1.16728
1.16761
1.16781
1.16799
1.16822
1.16831
1.16818
1.1676
1.16701
1.16682
1.16735
1.16834
1.16909
1.16944
1.16954
1.16953
1.16955
1.16955
1.1695
1.16954
1.16914
1.16939
1.16376
1.16715
1.15135
1.15834
1.11766
1.12664
1.09514
1.09862
1.09096
1.0926
1.08372
1.08578
1.07999
1.0802
1.08185
1.08083
1.08597
1.08296
1.08099
1.08012
1.0969
1.091
1.08628
1.08274
1.11588
1.10754
1.09985
1.09315
1.12713
1.12106
1.11832
1.11235
1.14248
1.13935
1.12534
1.13347
1.14427
1.14446
1.14458
1.14265
1.14452
1.13294
1.13079
1.13942
1.14427
1.14353
1.13724
1.12931
1.13396
1.12893
1.12816
1.16999
1.17206
1.17198
1.14494
1.16177
1.16757
1.16723
1.16696
1.16679
1.16674
1.16681
1.16687
1.16649
1.16536
1.16484
1.16482
1.16492
1.16507
1.16582
1.16676
1.16732
1.16765
1.16781
1.16804
1.16829
1.1684
1.16842
1.16843
1.16847
1.16867
1.16898
1.16924
1.16943
1.16959
1.16957
1.16962
1.1696
1.16964
1.16963
1.16959
1.16964
1.16879
1.1694
1.15712
1.16378
1.13708
1.14779
1.10365
1.11119
1.09286
1.09573
1.08798
1.0904
1.08297
1.08449
1.08823
1.07934
1.08013
1.08303
1.08132
1.08033
1.07905
1.07862
1.07877
1.08765
1.08343
1.08042
1.07862
1.10399
1.09645
1.09009
1.08502
1.11609
1.10934
1.10688
1.10096
1.13907
1.13267
1.11439
1.12401
1.14298
1.14488
1.14346
1.13916
1.14504
1.13468
1.13199
1.14186
1.14497
1.14465
1.13938
1.12923
1.13423
1.12956
1.12828
1.17111
1.17207
1.17202
1.14701
1.1651
1.16727
1.16697
1.16677
1.1667
1.16674
1.16684
1.1667
1.1658
1.16487
1.16454
1.16438
1.16429
1.16471
1.16578
1.16683
1.16739
1.16768
1.16785
1.16811
1.16835
1.16849
1.16863
1.16876
1.16892
1.16909
1.16925
1.1694
1.16954
1.16964
1.16962
1.16968
1.16965
1.16973
1.1697
1.16959
1.16973
1.1675
1.16908
1.14761
1.15813
1.12195
1.13482
1.09951
1.10498
1.09668
1.09813
1.0919
1.09481
1.08505
1.08714
1.09445
1.09792
1.07975
1.08129
1.08569
1.08328
1.07787
1.07778
1.07809
1.07878
1.08128
1.0788
1.07755
1.07714
1.09366
1.08763
1.08301
1.07972
1.10497
1.09851
1.09659
1.09138
1.13235
1.12326
1.10357
1.11323
1.13966
1.14407
1.14056
1.13268
1.14468
1.13642
1.13321
1.14361
1.14504
1.14494
1.1413
1.12918
1.13467
1.13021
1.12842
1.1716
1.17208
1.17204
1.14972
1.16745
1.167
1.16677
1.16666
1.16667
1.16677
1.16677
1.16622
1.16502
1.16448
1.16402
1.16362
1.16369
1.16456
1.16586
1.16696
1.16745
1.16772
1.16791
1.16815
1.16838
1.16857
1.16874
1.16891
1.16906
1.16921
1.16934
1.16948
1.16963
1.16959
1.16969
1.16966
1.16979
1.16975
1.16983
1.16982
1.16945
1.16976
1.16497
1.16829
1.13769
1.15103
1.11311
1.12424
1.10039
1.10444
1.10737
1.10655
1.1002
1.1024
1.10712
1.08849
1.09152
1.10038
1.10416
1.08108
1.08315
1.08875
1.08569
1.07721
1.07766
1.07842
1.07943
1.07773
1.07688
1.0767
1.07686
1.0857
1.08146
1.07862
1.07708
1.09513
1.08961
1.08827
1.08419
1.1232
1.11272
1.09409
1.10267
1.13369
1.14191
1.13542
1.12405
1.14339
1.13796
1.13431
1.14433
1.14455
1.14483
1.1426
1.12918
1.13537
1.13078
1.12854
1.17179
1.17208
1.17205
1.15259
1.16876
1.16677
1.16663
1.16661
1.16669
1.16678
1.16652
1.16544
1.16452
1.16392
1.16319
1.16285
1.1633
1.16451
1.1661
1.1671
1.16752
1.16778
1.16796
1.16818
1.16839
1.16858
1.16878
1.16896
1.16912
1.16927
1.16942
1.16956
1.1697
1.16966
1.16979
1.16975
1.16986
1.16982
1.16988
1.16988
1.16914
1.16975
1.16127
1.16698
1.13266
1.14605
1.11102
1.12051
1.1067
1.10878
1.11743
1.11666
1.11751
1.10735
1.10907
1.11822
1.11811
1.09232
1.09628
1.10631
1.11103
1.08274
1.08511
1.09177
1.08809
1.07736
1.07808
1.07918
1.08084
1.07653
1.07647
1.07667
1.07727
1.08032
1.07788
1.07673
1.07638
1.08726
1.08307
1.08225
1.07952
1.11301
1.10239
1.08654
1.09344
1.12589
1.13804
1.12904
1.1144
1.14089
1.13924
1.13518
1.14443
1.14323
1.14432
1.14315
1.12922
1.1362
1.13126
1.12866
1.17186
1.17209
1.17205
1.15477
1.16932
1.16661
1.16655
1.16661
1.16673
1.16667
1.16595
1.16469
1.16394
1.16307
1.16227
1.16222
1.16314
1.16462
1.16643
1.16723
1.16759
1.16783
1.16801
1.16821
1.16841
1.1686
1.1688
1.16901
1.16918
1.16934
1.16949
1.16969
1.16963
1.16977
1.16973
1.16984
1.1698
1.16993
1.16988
1.16993
1.16995
1.16881
1.16973
1.15802
1.16568
1.13274
1.1454
1.11375
1.12183
1.1168
1.1175
1.1235
1.12184
1.12707
1.1262
1.11473
1.11715
1.12472
1.12504
1.09619
1.10119
1.11228
1.11796
1.08411
1.08672
1.09433
1.09006
1.07795
1.07904
1.08039
1.08204
1.07639
1.07663
1.07721
1.0779
1.07741
1.07658
1.07637
1.07648
1.08163
1.07895
1.07854
1.0772
1.10294
1.09333
1.08116
1.08609
1.11728
1.13318
1.12181
1.10486
1.13747
1.1401
1.13593
1.14422
1.1411
1.14317
1.14305
1.12925
1.13687
1.13174
1.12872
1.17182
1.17208
1.17198
1.15572
1.16925
1.1665
1.16653
1.16664
1.16669
1.16634
1.16512
1.16404
1.1631
1.16205
1.16144
1.16184
1.16311
1.16503
1.16673
1.16734
1.16765
1.16788
1.16806
1.16826
1.16845
1.16864
1.16886
1.16908
1.16925
1.1694
1.16955
1.16973
1.16969
1.16982
1.16978
1.16991
1.16987
1.17
1.16996
1.16997
1.17002
1.16876
1.16974
1.15743
1.16546
1.13773
1.14874
1.12139
1.12828
1.12596
1.12633
1.13019
1.12996
1.1285
1.1337
1.13269
1.12214
1.12446
1.13123
1.13161
1.09968
1.10595
1.11772
1.12456
1.08567
1.08852
1.0969
1.09218
1.0789
1.08012
1.08161
1.08341
1.07679
1.07727
1.078
1.07896
1.07659
1.07651
1.07674
1.07708
1.07838
1.07716
1.07735
1.07678
1.09407
1.08613
1.07852
1.08093
1.10858
1.12721
1.11395
1.09643
1.13274
1.14068
1.13654
1.14349
1.13757
1.1409
1.14263
1.12923
1.13697
1.13215
1.12873
1.17149
1.17203
1.17139
1.15577
1.1682
1.16644
1.16656
1.16667
1.16655
1.16571
1.16429
1.1632
1.16206
1.16103
1.16081
1.16171
1.16334
1.16563
1.16698
1.16742
1.16771
1.16794
1.16812
1.16831
1.16849
1.16868
1.16893
1.16915
1.1693
1.16945
1.16967
1.16979
1.16973
1.16988
1.16984
1.16997
1.16993
1.17004
1.17001
1.17001
1.17005
1.16898
1.1698
1.15942
1.16626
1.1469
1.15561
1.13338
1.13912
1.1321
1.13166
1.14365
1.14174
1.13637
1.135
1.14119
1.14069
1.12924
1.13128
1.13756
1.1379
1.10287
1.11003
1.12252
1.13021
1.08733
1.0904
1.09956
1.09437
1.08009
1.08141
1.083
1.08492
1.07773
1.07847
1.07937
1.08039
1.07682
1.07712
1.0775
1.07831
1.07771
1.07715
1.07761
1.07727
1.08715
1.08133
1.07821
1.07896
1.10054
1.12024
1.1062
1.08964
1.12705
1.14063
1.13685
1.14233
1.13342
1.13832
1.14187
1.12908
1.13648
1.13226
1.12865
1.16961
1.17115
1.16906
1.1538
1.16452
1.16643
1.16661
1.16661
1.16617
1.16486
1.16344
1.16216
1.16096
1.16016
1.16048
1.16175
1.16391
1.16626
1.16716
1.1675
1.16777
1.168
1.16819
1.16836
1.16853
1.16874
1.16901
1.16921
1.16935
1.16954
1.16975
1.16977
1.16967
1.16982
1.16991
1.16987
1.17
1.16996
1.17007
1.17004
1.17007
1.17009
1.16943
1.16994
1.1636
1.16783
1.15795
1.16369
1.14894
1.15245
1.14056
1.14077
1.14886
1.14861
1.14308
1.14212
1.1489
1.14859
1.13568
1.13761
1.14377
1.14384
1.10619
1.11408
1.12727
1.13543
1.08908
1.09233
1.10216
1.09655
1.08155
1.08291
1.08455
1.08656
1.0791
1.08
1.08096
1.08203
1.07764
1.07845
1.07937
1.08016
1.07811
1.07788
1.07854
1.07833
1.0826
1.0798
1.0788
1.07894
1.09371
1.11328
1.09942
1.08472
1.12141
1.14023
1.13685
1.14078
1.12929
1.13527
1.14084
1.12851
1.13417
1.1323
1.12826
1.16412
1.1526
1.14981
1.14529
1.14731
1.16645
1.1666
1.16643
1.16552
1.16392
1.16241
1.16103
1.15993
1.15956
1.16039
1.16214
1.16473
1.16673
1.16728
1.16758
1.16783
1.16805
1.16825
1.16842
1.16858
1.1688
1.16908
1.16924
1.16941
1.1696
1.16978
1.16975
1.16969
1.16983
1.16993
1.16988
1.17002
1.16998
1.17011
1.17007
1.17012
1.17013
1.16985
1.17007
1.16762
1.16923
1.16645
1.16852
1.15975
1.16154
1.16479
1.14849
1.14847
1.15861
1.15776
1.14968
1.14932
1.1562
1.15639
1.14108
1.1433
1.14969
1.14949
1.10944
1.11808
1.13184
1.14047
1.09089
1.09429
1.10461
1.09867
1.08322
1.0846
1.08625
1.08829
1.08109
1.08198
1.08297
1.08398
1.07952
1.0807
1.08156
1.08259
1.0794
1.07911
1.08009
1.08066
1.08127
1.08012
1.08063
1.07989
1.08789
1.1068
1.0922
1.08358
1.11533
1.13927
1.1363
1.13857
1.12367
1.13051
1.13909
1.12752
1.12854
1.13216
1.12788
1.13773
1.12641
1.12697
1.13029
1.12775
1.1665
1.16652
1.16603
1.16465
1.16289
1.16125
1.15995
1.15906
1.15929
1.16056
1.16288
1.1657
1.16699
1.16738
1.16765
1.16789
1.16811
1.16831
1.16848
1.16863
1.16888
1.1691
1.16928
1.16945
1.16964
1.16981
1.16978
1.16972
1.16986
1.16996
1.16991
1.17006
1.17001
1.17014
1.1701
1.17018
1.17017
1.17011
1.17017
1.16951
1.16994
1.16966
1.16994
1.16412
1.1645
1.16912
1.16855
1.15673
1.15718
1.16387
1.16359
1.1558
1.15603
1.16202
1.16241
1.14619
1.14861
1.15547
1.15486
1.11251
1.12188
1.13605
1.14524
1.09266
1.09623
1.1068
1.1007
1.08514
1.08646
1.08803
1.09006
1.08358
1.08453
1.08543
1.08636
1.08224
1.08347
1.08482
1.08595
1.08172
1.08205
1.08434
1.08327
1.08212
1.08214
1.08705
1.08427
1.08647
1.09812
1.08983
1.08458
1.10608
1.13746
1.13459
1.13464
1.11531
1.12346
1.13564
1.12508
1.123
1.13069
1.12575
1.12079
1.11727
1.11474
1.1209
1.11736
1.16649
1.16633
1.16538
1.16365
1.16172
1.16009
1.15896
1.15851
1.15927
1.16112
1.16393
1.16646
1.16715
1.16746
1.16772
1.16795
1.16816
1.16836
1.16853
1.16868
1.16894
1.16912
1.16931
1.1695
1.16973
1.16975
1.16964
1.16984
1.16981
1.16989
1.17
1.16995
1.17009
1.17005
1.17018
1.17013
1.17024
1.17021
1.17025
1.17025
1.17015
1.17022
1.16966
1.17024
1.17029
1.17035
1.16823
1.16833
1.1697
1.16279
1.16321
1.16808
1.16786
1.16115
1.16164
1.16641
1.16689
1.15099
1.15363
1.16059
1.1597
1.11521
1.12536
1.13965
1.14971
1.09415
1.09764
1.10832
1.10215
1.08736
1.08856
1.08992
1.09173
1.08691
1.08783
1.08846
1.08912
1.08509
1.08708
1.08824
1.08937
1.08852
1.08733
1.09092
1.09016
1.08453
1.08681
1.08832
1.08844
1.08749
1.09442
1.091
1.0871
1.09992
1.13437
1.13111
1.12778
1.10645
1.11341
1.12884
1.12171
1.11843
1.12624
1.12222
1.11284
1.11276
1.10962
1.11527
1.11192
1.16641
1.16593
1.16451
1.16249
1.16047
1.15903
1.15815
1.1583
1.1596
1.16207
1.1652
1.16683
1.16726
1.16754
1.16779
1.16801
1.16822
1.16841
1.16857
1.16874
1.16898
1.16915
1.16936
1.16955
1.16978
1.16973
1.16967
1.16987
1.16984
1.16993
1.17003
1.16998
1.17013
1.17008
1.17021
1.17017
1.17028
1.17025
1.17034
1.17032
1.17036
1.17036
1.17024
1.17038
1.17038
1.17044
1.17044
1.1697
1.16972
1.17023
1.16728
1.16759
1.16962
1.16951
1.16535
1.16595
1.1687
1.16898
1.1554
1.15824
1.16471
1.16367
1.11684
1.12782
1.14165
1.1536
1.09545
1.09846
1.10904
1.10285
1.08975
1.09084
1.09219
1.0934
1.09003
1.091
1.09167
1.09251
1.09262
1.09284
1.09406
1.09416
1.11303
1.09069
1.11339
1.09331
1.08885
1.08899
1.11106
1.11121
1.09036
1.09468
1.09306
1.0902
1.09943
1.12749
1.1248
1.11809
1.1047
1.10988
1.12038
1.11799
1.11463
1.12227
1.11819
1.10891
1.10888
1.10679
1.11153
1.10875
1.16624
1.16528
1.16346
1.16121
1.15929
1.15813
1.15766
1.15839
1.16036
1.16336
1.16626
1.16703
1.16736
1.16762
1.16785
1.16807
1.16827
1.16845
1.16859
1.1688
1.16901
1.16919
1.16941
1.1696
1.16981
1.16976
1.1697
1.1699
1.16987
1.16996
1.17006
1.17001
1.17016
1.17011
1.17024
1.1702
1.17032
1.17028
1.1704
1.17036
1.17045
1.17043
1.17037
1.17042
1.17044
1.17046
1.17047
1.17016
1.17021
1.17034
1.16917
1.16935
1.17008
1.17001
1.16799
1.16847
1.16948
1.16966
1.15911
1.16217
1.16756
1.1665
1.11748
1.12889
1.14219
1.15561
1.09709
1.09961
1.10972
1.10358
1.09292
1.09322
1.09381
1.09581
1.09425
1.09452
1.09472
1.0951
1.11537
1.1151
1.11483
1.11527
1.12982
1.1126
1.13042
1.11352
1.11013
1.10995
1.12935
1.1291
1.10963
1.09713
1.10952
1.10787
1.10194
1.12107
1.12066
1.11381
1.10698
1.11152
1.11622
1.11465
1.11153
1.11775
1.11527
1.10659
1.10367
1.10533
1.10882
1.10664
1.16591
1.16439
1.16225
1.15989
1.15826
1.15741
1.15753
1.15891
1.16154
1.16491
1.16672
1.16717
1.16745
1.16769
1.16792
1.16813
1.16832
1.16849
1.16862
1.16886
1.16904
1.16924
1.16944
1.16962
1.16971
1.16983
1.16977
1.16993
1.16989
1.16999
1.17009
1.17004
1.17018
1.17014
1.17027
1.17023
1.17036
1.17032
1.17045
1.17041
1.17049
1.17047
1.17039
1.17041
1.17046
1.1705
1.17048
1.17021
1.17029
1.17031
1.16978
1.16989
1.17011
1.17003
1.16902
1.16933
1.16951
1.16967
1.16204
1.16524
1.16871
1.16795
1.11764
1.12921
1.14129
1.15612
1.09863
1.10143
1.10998
1.10412
1.09549
1.09595
1.09587
1.09691
1.115
1.11515
1.11492
1.11496
1.13116
1.13101
1.13073
1.13096
1.14755
1.12964
1.14788
1.13053
1.12834
1.12871
1.14731
1.14714
1.12738
1.11025
1.12689
1.12738
1.1109
1.11758
1.11707
1.1147
1.11302
1.11466
1.11638
1.11207
1.10922
1.11582
1.11282
1.10513
0.906376
1.10139
1.10695
1.10533
1.16539
1.16326
1.16093
1.15867
1.15744
1.15702
1.15778
1.15989
1.1631
1.16615
1.16695
1.16727
1.16753
1.16776
1.16798
1.16818
1.16837
1.16852
1.16868
1.16889
1.16908
1.16928
1.16946
1.16965
1.16973
1.16974
1.16984
1.16979
1.16995
1.16991
1.17001
1.17012
1.17006
1.17021
1.17017
1.17031
1.17026
1.17041
1.17036
1.17049
1.17045
1.17054
1.1705
1.17054
1.17053
1.17026
1.17023
1.17042
1.17045
1.16994
1.17015
1.16996
1.16979
1.1699
1.16973
1.16949
1.16913
1.16939
1.16861
1.16881
1.16326
1.16675
1.16891
1.16812
1.11698
1.12834
1.13745
1.15387
1.10051
1.10246
1.1092
1.10458
1.11417
1.09983
1.0986
1.09973
1.13044
1.13048
1.12984