/*--------------------------------*- C++ -*----------------------------------*\
  =========                 |
  \\      /  F ield         | OpenFOAM: The Open Source CFD Toolbox
   \\    /   O peration     | Website:  https://openfoam.org
    \\  /    A nd           | Version:  dev
     \\/     M anipulation  |
\*---------------------------------------------------------------------------*/
FoamFile
{
    version     2.0;
    format      ascii;
    class       volScalarField;
    location    "2500";
    object      T;
}
// * * * * * * * * * * * * * * * * * * * * * * * * * * * * * * * * * * * * * //

dimensions      [0 0 0 1 0 0 0];

internalField   nonuniform List<scalar> 
9846
(
300.093
300.135
300.111
300.152
300.224
300.11
300.153
300.275
300.223
300.097
300.146
300.301
300.316
300.212
300.085
300.152
300.315
300.365
300.309
300.191
300.08
300.137
300.323
300.411
300.377
300.289
300.171
300.075
300.15
300.334
300.429
300.443
300.371
300.265
300.161
300.068
300.15
300.319
300.442
300.486
300.442
300.348
300.243
300.154
300.064
300.153
300.318
300.449
300.515
300.498
300.425
300.326
300.229
300.148
300.066
300.155
300.314
300.453
300.534
300.545
300.489
300.399
300.308
300.22
300.142
300.062
300.158
300.313
300.453
300.547
300.578
300.548
300.468
300.378
300.292
300.215
300.14
300.06
300.159
300.315
300.451
300.554
300.604
300.593
300.534
300.446
300.362
300.283
300.211
300.135
300.062
300.166
300.322
300.449
300.56
300.623
300.632
300.586
300.51
300.425
300.346
300.275
300.206
300.131
300.058
300.171
300.323
300.45
300.563
300.637
300.662
300.635
300.568
300.485
300.409
300.34
300.272
300.203
300.134
300.06
300.174
300.325
300.45
300.565
300.648
300.687
300.677
300.624
300.547
300.467
300.398
300.336
300.271
300.202
300.132
300.06
300.178
300.33
300.45
300.566
300.656
300.707
300.711
300.67
300.601
300.524
300.454
300.39
300.329
300.267
300.201
300.131
300.058
300.18
300.334
300.449
300.566
300.664
300.723
300.74
300.714
300.654
300.578
300.507
300.444
300.385
300.329
300.268
300.2
300.127
300.057
300.182
300.337
300.45
300.566
300.67
300.738
300.764
300.751
300.701
300.632
300.558
300.494
300.438
300.385
300.329
300.267
300.202
300.129
300.054
300.188
300.342
300.453
300.567
300.675
300.75
300.787
300.784
300.745
300.68
300.611
300.546
300.486
300.435
300.383
300.329
300.266
300.201
300.129
300.057
300.24
300.347
300.456
300.569
300.679
300.762
300.806
300.812
300.783
300.728
300.659
300.593
300.537
300.482
300.433
300.385
300.33
300.267
300.199
300.126
300.055
300.192
300.35
300.459
300.572
300.683
300.772
300.824
300.838
300.818
300.768
300.704
300.64
300.582
300.529
300.482
300.434
300.386
300.329
300.268
300.196
300.124
300.053
300.254
300.352
300.469
300.576
300.685
300.781
300.839
300.861
300.849
300.807
300.748
300.685
300.627
300.575
300.528
300.483
300.436
300.387
300.33
300.266
300.193
300.121
300.053
300.275
300.357
300.466
300.574
300.688
300.789
300.854
300.882
300.877
300.843
300.788
300.728
300.67
300.619
300.573
300.529
300.485
300.439
300.389
300.332
300.265
300.191
300.116
300.049
300.277
300.365
300.472
300.58
300.695
300.798
300.868
300.902
300.903
300.874
300.825
300.768
300.713
300.662
300.616
300.574
300.532
300.489
300.443
300.392
300.333
300.265
300.189
300.113
300.046
300.277
300.365
300.475
300.585
300.7
300.806
300.881
300.921
300.926
300.903
300.858
300.804
300.752
300.704
300.659
300.617
300.577
300.536
300.493
300.446
300.395
300.335
300.264
300.187
300.111
300.045
300.272
300.366
300.479
300.59
300.705
300.813
300.893
300.938
300.948
300.929
300.889
300.837
300.787
300.742
300.699
300.66
300.621
300.581
300.54
300.497
300.451
300.398
300.335
300.263
300.184
300.108
300.044
300.271
300.361
300.477
300.593
300.711
300.82
300.904
300.953
300.968
300.953
300.918
300.869
300.819
300.775
300.737
300.7
300.663
300.626
300.586
300.545
300.502
300.455
300.4
300.336
300.261
300.18
300.105
300.044
300.264
300.367
300.484
300.599
300.718
300.828
300.914
300.967
300.985
300.975
300.943
300.897
300.849
300.807
300.772
300.739
300.705
300.669
300.631
300.592
300.551
300.507
300.459
300.402
300.336
300.258
300.177
300.103
300.043
300.259
300.364
300.48
300.602
300.722
300.834
300.925
300.981
301.002
300.994
300.964
300.921
300.875
300.836
300.804
300.775
300.745
300.712
300.676
300.638
300.599
300.557
300.512
300.462
300.404
300.335
300.255
300.174
300.101
300.043
300.254
300.367
300.486
300.603
300.725
300.839
300.934
300.996
301.018
301.011
300.984
300.94
300.9
300.867
300.837
300.813
300.787
300.757
300.723
300.686
300.646
300.605
300.563
300.517
300.466
300.405
300.333
300.252
300.171
300.1
300.043
300.242
300.365
300.484
300.606
300.728
300.844
300.943
301.009
301.037
301.029
301.003
300.961
300.926
300.898
300.88
300.866
300.848
300.82
300.783
300.741
300.698
300.655
300.612
300.569
300.522
300.469
300.406
300.332
300.25
300.169
300.099
300.043
300.244
300.37
300.484
300.608
300.731
300.848
300.95
301.021
301.054
301.048
301.024
300.984
300.955
300.94
300.946
300.968
300.983
300.966
300.912
300.841
300.773
300.716
300.666
300.62
300.575
300.527
300.472
300.407
300.331
300.249
300.169
300.099
300.043
300.245
300.362
300.485
300.61
300.732
300.85
300.955
301.031
301.071
301.068
301.045
301.009
300.986
300.997
301.058
301.163
301.277
301.336
301.28
301.131
300.963
300.83
300.741
300.679
300.629
300.582
300.532
300.475
300.409
300.332
300.249
300.169
300.098
300.02
300.044
300.235
300.356
300.486
300.608
300.731
300.851
300.958
301.039
301.085
301.088
301.066
301.035
301.022
301.067
301.205
301.442
301.726
301.958
302.027
301.866
301.519
301.162
300.918
300.777
300.695
300.638
300.589
300.538
300.479
300.411
300.334
300.251
300.165
300.071
300.1
300.019
300.044
300.212
300.348
300.481
300.605
300.731
300.851
300.96
301.044
301.098
301.107
301.089
301.061
301.06
301.143
301.368
301.755
302.236
302.665
302.91
302.874
302.558
302.006
301.405
301.024
300.82
300.714
300.649
300.597
300.544
300.485
300.417
300.339
300.216
300.259
300.135
300.206
300.174
300.07
300.099
300.019
300.044
300.202
300.351
300.477
300.602
300.73
300.85
300.96
301.046
301.105
301.123
301.111
301.088
301.097
301.218
301.528
302.052
302.716
303.35
303.791
303.926
303.705
303.175
302.447
301.666
301.131
300.866
300.735
300.662
300.607
300.554
300.494
300.425
300.308
300.355
300.25
300.133
300.217
300.173
300.071
300.1
300.019
300.045
300.197
300.339
300.475
300.601
300.728
300.849
300.96
301.048
301.107
301.13
301.128
301.113
301.132
301.282
301.67
302.303
303.102
303.909
304.547
304.893
304.846
304.401
303.657
302.767
301.882
301.228
300.913
300.762
300.681
300.624
300.569
300.508
300.403
300.449
300.3
300.351
300.263
300.135
300.219
300.176
300.072
300.102
300.02
300.046
300.192
300.324
300.472
300.596
300.725
300.846
300.958
301.05
301.112
301.135
301.135
301.129
301.16
301.331
301.769
302.508
303.382
304.273
305.043
305.585
305.794
305.545
304.902
303.991
302.986
302.034
301.318
300.971
300.805
300.718
300.657
300.596
300.496
300.543
300.402
300.453
300.313
300.365
300.268
300.139
300.223
300.181
300.073
300.105
300.02
300.046
300.186
300.319
300.463
300.591
300.722
300.841
300.954
301.05
301.118
301.142
301.14
301.135
301.171
301.355
301.822
302.621
303.578
304.461
305.25
305.884
306.311
306.357
305.985
305.24
304.258
303.19
302.17
301.435
301.079
300.908
300.823
300.764
300.599
300.681
300.507
300.568
300.418
300.475
300.322
300.378
300.276
300.142
300.231
300.188
300.074
300.107
300.02
300.047
300.166
300.3
300.448
300.586
300.719
300.835
300.948
301.048
301.121
301.153
301.149
301.14
301.174
301.357
301.822
302.62
303.48
304.28
305.112
305.845
306.374
306.633
306.603
306.226
305.524
304.601
303.526
302.428
301.696
301.37
301.259
301.273
300.857
301.291
300.662
300.863
300.542
300.648
300.439
300.512
300.333
300.397
300.287
300.147
300.241
300.196
300.076
300.11
300.021
300.048
300.155
300.286
300.433
300.579
300.713
300.829
300.942
301.044
301.121
301.162
301.162
301.149
301.176
301.352
301.808
302.564
303.217
303.785
304.495
305.374
306.122
306.58
306.732
306.694
306.413
305.905
305.164
304.153
303.051
302.371
302.274
302.455
301.947
302.972
301.322
302.155
300.881
301.413
300.631
300.897
300.476
300.607
300.351
300.435
300.305
300.153
300.257
300.209
300.077
300.114
300.022
300.049
300.142
300.271
300.42
300.57
300.706
300.822
300.934
301.039
301.12
301.169
301.174
301.162
301.178
301.337
301.77
302.444
302.935
303.333
303.762
304.28
305.219
306.17
306.62
306.739
306.724
306.642
306.459
306.023
305.196
304.358
304.047
304.577
303.914
305.272
303.18
304.351
302.331
303.454
301.503
302.516
300.904
301.584
300.576
300.898
300.389
300.534
300.34
300.162
300.287
300.232
300.079
300.119
300.022
300.05
300.13
300.261
300.407
300.564
300.699
300.814
300.925
301.032
301.118
301.174
301.187
301.175
301.181
301.317
301.717
302.312
302.694
302.974
303.137
303.237
303.652
304.748
305.98
306.501
306.66
306.741
306.934
307.195
307.183
306.781
306.566
306.973
306.411
308.068
305.659
307.073
304.737
306.142
303.737
305.124
302.702
304.035
301.643
302.888
300.872
301.671
300.483
300.819
300.422
300.177
300.352
300.278
300.082
300.127
300.023
300.052
300.117
300.251
300.394
300.559
300.69
300.808
300.916
301.023
301.114
301.176
301.198
301.189
301.187
301.295
301.655
302.186
302.496
302.688
302.654
302.405
302.408
303.033
304.21
305.467
306.123
306.47
306.86
307.432
308.207
308.773
309.135
309.965
309.432
310.848
308.587
310.253
307.654
309.263
306.646
308.26
305.533
307.163
304.349
305.978
303.055
304.681
301.644
303.194
300.741
301.552
300.637
300.205
300.519
300.393
300.086
300.141
300.024
300.055
300.111
300.24
300.38
300.551
300.682
300.801
300.907
301.013
301.108
301.176
301.208
301.203
301.195
301.275
301.591
302.073
302.333
302.457
302.295
301.863
301.719
301.973
302.639
303.53
304.486
305.334
306.174
307.157
308.3
309.685
311.042
312.54
314.546
311.752
313.8
310.955
312.678
309.95
311.719
308.893
310.681
307.722
309.55
306.458
308.339
305.005
306.972
303.253
305.311
301.407
303.174
301.201
300.271
300.957
300.695
300.093
300.172
300.025
300.057
300.104
300.232
300.368
300.537
300.675
300.795
300.899
301.003
301.1
301.174
301.215
301.216
301.205
301.259
301.527
301.972
302.199
302.271
302.026
301.544
301.372
301.425
301.695
302.181
302.875
303.693
304.615
305.933
307.778
309.695
311.813
313.994
315.397
316.131
316.141
314.412
315.658
313.526
315.234
312.488
314.349
311.439
313.319
310.276
312.197
309.001
311.028
307.488
309.688
305.523
307.989
302.934
305.612
302.503
300.449
302.028
301.481
300.104
300.253
300.027
300.06
300.1
300.222
300.355
300.527
300.668
300.787
300.89
300.992
301.091
301.17
301.219
301.228
301.216
301.246
301.464
301.881
302.09
302.129
301.833
301.379
301.209
301.179
301.26
301.516
301.996
302.658
303.435
304.412
305.986
308.922
311.764
314.028
315.227
316.025
315.655
316.45
316.171
316.164
316.49
315.822
316.528
315.097
316.25
314.109
315.64
313.002
314.775
311.789
313.694
310.336
312.47
308.351
310.898
305.526
308.573
305.091
300.932
304.343
303.238
300.129
300.485
300.028
300.066
300.101
300.22
300.344
300.517
300.65
300.775
300.881
300.982
301.08
301.165
301.22
301.239
301.229
301.24
301.407
301.796
302.001
302.022
301.709
301.296
301.139
301.082
301.086
301.198
301.48
302.034
302.79
303.573
304.586
306.696
310.871
313.743
314.66
315.112
314.511
315.478
314.455
316.042
314.924
316.69
316.564
316.737
316.8
316.508
316.854
315.948
316.572
315.14
316.059
314.125
315.25
312.896
314.24
311.223
312.986
308.561
311.266
308.217
302.124
307.479
306.194
300.204
301.115
300.028
300.089
300.106
300.23
300.341
300.509
300.63
300.76
300.871
300.971
301.07
301.157
301.22
301.248
301.242
301.239
301.358
301.71
301.926
301.947
301.636
301.26
301.121
301.057
301.029
301.058
301.197
301.66
302.632
303.647
304.486
305.678
308.579
312.838
314.102
312.738
313.497
312.287
313.51
312.12
314.163
312.362
316.533
315.714
316.798
316.324
316.832
316.655
316.521
316.637
315.947
316.346
315.144
315.716
314.116
314.841
312.864
313.799
311.05
312.585
310.627
304.43
309.905
308.742
300.472
302.526
300.098
300.52
300.259
300.354
300.505
300.612
300.742
300.862
300.961
301.058
301.149
301.218
301.255
301.256
301.243
301.317
301.621
301.862
301.891
301.603
301.252
301.122
301.057
301.017
301.008
301.056
301.337
302.369
303.89
305.04
305.72
307.476
311.058
313.219
312.447
309.634
309.433
310.936
310.093
310.613
309.149
311.142
309.076
315.152
313.268
315.933
314.405
316.297
315.303
316.265
315.715
315.983
315.734
315.347
315.437
314.448
314.816
313.409
313.908
312.199
312.963
311.75
307.091
311.179
310.359
301.89
305.521
301.535
303.517
300.398
300.513
300.605
300.724
300.854
300.947
301.046
301.139
301.213
301.258
301.268
301.253
301.288
301.53
301.807
301.85
301.592
301.256
301.128
301.068
301.02
300.999
300.997
301.116
301.797
303.737
305.632
306.66
307.482
309.951
312.076
312.219
309.486
309.715
307.284
307.342
308.096
307.494
307.349
306.114
307.596
305.642
312.265
309.895
313.473
311.159
314.42
312.385
314.897
313.292
315.004
313.847
314.712
314.03
314.07
313.796
313.252
313.158
312.475
312.571
312.027
309.353
311.61
311.226
310.655
305.78
308.79
301.19
304.925
300.546
300.605
300.707
300.836
300.932
301.035
301.128
301.207
301.259
301.279
301.267
301.273
301.444
301.753
301.819
301.601
301.269
301.139
301.084
301.045
301.005
300.983
301.008
301.318
302.765
305.464
307.255
308.209
309.72
311.235
311.695
309.115
307.544
307.65
305.201
305.404
305.402
305.152
304.268
303.469
304.392
303.244
308.621
306.237
309.917
307.393
311.096
308.655
311.937
309.681
312.527
310.414
312.776
310.975
312.62
311.443
312.184
311.323
311.915
311.377
311.793
311.732
311.502
310.982
310.07
310.805
311.435
311.255
311.344
311.3
308.238
310.69
310.513
309.648
300.692
304.48
300.617
300.698
300.816
300.925
301.018
301.115
301.2
301.258
301.286
301.281
301.27
301.375
301.685
301.798
301.623
301.303
301.166
301.102
301.066
301.035
300.991
300.977
301.071
301.718
303.926
306.769
308.298
309.512
310.636
311.113
309.171
306.264
306.505
305.723
306.022
303.368
303.648
303.156
303.182
302.533
302.104
303.164
302.561
305.401
304.042
306.671
305.345
307.837
306.642
308.67
307.626
309.117
308.174
309.489
308.225
309.925
309.635
308.74
310.925
310.32
308.941
309.677
310.944
311.137
310.582
310.408
310.925
311.194
311.144
311.246
310.815
310.818
311.233
310.315
307.922
309.59
311.101
311.02
300.41
308.063
305.518
302.91
300.703
300.8
300.918
301.002
301.104
301.191
301.256
301.292
301.295
301.275
301.327
301.591
301.781
301.673
301.382
301.22
301.142
301.092
301.063
301.027
300.979
300.984
301.2
302.143
304.399
307.309
308.89
309.94
310.37
308.808
305.316
304.312
304.279
303.932
304.173
301.843
301.997
301.867
301.787
302.125
301.787
303.322
303.029
304.367
303.721
305.827
305.511
307.177
307.48
308.112
309.032
308.212
309.63
308.213
308.097
308.323
309.143
308.296
307.919
308.128
307.96
309.8
309.086
307.871
308.416
309.976
310.348
309.647
309.322
310.184
311.249
311.297
310.892
310.142
310.215
311.018
310.721
309.847
311.329
311.286
302.55
300.076
300.449
308.073
305.328
300.794
300.902
300.991
301.089
301.18
301.252
301.296
301.307
301.29
301.301
301.49
301.753
301.735
301.498
301.329
301.207
301.139
301.092
301.064
301.013
300.973
301.01
301.309
302.288
304.444
307.044
308.48
308.922
307.536
304.232
302.117
301.853
302.323
302.245
302.161
302.283
301.172
301.124
301.515
301.304
302.644
302.153
305.861
305.595
305.637
305.834
308.452
309.648
310.83
313.122
312.41
315.536
310.34
312
313.709
315.656
308.053
308.652
309.789
311.401
307.74
307.936
307.865
308.275
308.62
307.966
307.649
307.643
308.936
309.435
308.65
308.226
309.328
311.162
311.317
310.393
309.353
309.503
310.648
310.952
309.963
311.436
311.408
302.126
300.037
300.257
307.984
304.98
300.89
300.989
301.074
301.171
301.246
301.297
301.317
301.306
301.294
301.406
301.695
301.773
301.618
301.464
301.327
301.214
301.14
301.091
301.059
300.992
300.972
301.025
301.338
302.288
303.936
305.334
305.807
304.642
302.628
301.181
301.029
300.934
301.142
301.1
301.131
301.146
301.034
300.885
301.667
301.283
304.886
303.871
310.903
310.32
310.613
311.033
315.173
316.755
318.271
320.587
317.314
319.066
320.302
321.594
313.314
315.345
317.321
319.137
309.189
310.664
312.561
314.684
308.074
308.598
308.969
309.827
307.646
307.476
308.22
307.636
307.913
308.478
307.698
307.438
308.428
310.943
311.227
309.785
308.511
308.737
310.164
311.062
309.977
311.441
311.459
301.585
300.02
300.113
307.773
304.403
300.988
301.059
301.156
301.239
301.296
301.324
301.321
301.298
301.348
301.6
301.78
301.728
301.599
301.488
301.341
301.217
301.14
301.085
301.048
300.985
300.97
301.024
301.306
301.948
302.582
302.739
302.296
301.485
300.893
300.703
300.697
300.715
300.697
300.75
300.734
300.802
300.767
301.238
300.896
302.793
301.872
309.022
307.248
317.163
316.136
317.544
317.598
321.761
322.047
323.775
324.152
320.705
322.006
323.032
323.715
316.825
318.832
320.608
322.095
311.594
313.721
315.965
318.145
309.347
310.486
311.141
312.521
307.352
307.635
309.711
308.358
307.286
307.581
307.18
307.251
307.576
310.596
311.03
309.115
307.696
307.979
309.607
311.111
309.945
311.379
311.471
300.955
300.014
300.057
307.446
303.52
301.054
301.141
301.232
301.294
301.33
301.335
301.313
301.321
301.496
301.763
301.804
301.726
301.654
301.557
301.347
301.216
301.13
301.082
301.035
300.977
300.953
300.987
301.133
301.282
301.329
301.197
300.947
300.757
300.669
300.643
300.645
300.641
300.641
300.654
300.645
300.746
300.682
302.109
301.249
305.301
303.497
314.315
311.861
320.633
319.641
321.831
321.359
323.925
323.328
325.011
324.949
324.467
324.765
323.267
324.144
324.72
324.975
320.121
321.811
323.176
324.207
314.799
317.115
319.283
321.194
311.728
313.378
314.129
315.776
307.632
308.458
312.213
310.023
307.162
307.112
307.079
307.586
307.096
310.17
310.748
308.444
307.163
307.359
309.023
311.143
309.894
311.249
311.454
300.532
300.01
300.03
306.978
302.617
301.13
301.22
301.291
301.335
301.347
301.332
301.315
301.41
301.697
301.83
301.838
301.813
301.774
301.585
301.346
301.206
301.12
301.08
301.021
300.958
300.93
300.924
300.923
300.911
300.861
300.784
300.718
300.67
300.631
300.636
300.623
300.628
300.619
300.62
300.631
300.619
300.834
300.679
303.809
302.105
309.056
306.23
318.218
316.108
321.286
320.466
322.689
321.994
324.14
323.697
322.612
325.199
324.968
324.117
324.618
324.91
325.285
325.411
325.367
322.778
324.004
324.884
325.411
318.113
320.248
322.072
323.54
314.74
316.612
317.3
318.968
308.531
310.235
315.209
312.572
307.5
307.001
307.374
308.508
306.96
309.705
310.426
307.799
306.979
307.064
308.456
311.167
309.821
311.079
311.424
300.251
300.008
300.021
306.436
301.769
301.208
301.286
301.338
301.358
301.349
301.321
301.358
301.585
301.823
301.906
301.951
301.974
301.867
301.595
301.329
301.187
301.114
301.07
301.003
300.943
300.907
300.872
300.838
300.798
300.756
300.717
300.678
300.643
300.617
300.623
300.609
300.614
300.597
300.603
300.63
300.594
301.159
300.759
306.277
303.549
313.138
309.659
319.389
317.846
320.191
319.78
321.554
320.724
323.531
322.925
320.816
319.829
325.076
324.625
323.338
324.043
325.63
325.656
325.564
325.36
324.632
325.359
325.724
325.844
321.045
322.782
324.126
325.087
317.835
319.662
320.206
321.698
310.322
312.777
318.23
315.532
308.374
307.213
308.137
310.233
307.054
309.241
310.1
307.337
306.959
306.987
307.947
311.18
309.704
310.905
311.387
300.126
300.006
300.016
305.727
301.174
301.279
301.338
301.367
301.365
301.339
301.339
301.478
301.784
301.92
302.04
302.142
302.127
301.906
301.577
301.297
301.172
301.102
301.056
300.994
300.936
300.888
300.845
300.801
300.762
300.726
300.692
300.656
300.62
300.628
300.604
300.612
300.58
300.589
300.57
300.572
300.666
300.588
301.801
300.959
308.896
305.384
315.575
312.515
319.142
317.998
317.169
317.403
319.18
318.562
317.235
322.529
321.656
319.127
318.059
324.681
324.075
322.448
323.335
325.823
325.689
325.464
325.168
325.668
325.918
325.971
325.923
323.342
324.575
325.406
325.858
320.621
322.208
322.594
323.778
312.791
315.671
320.92
318.482
309.964
307.78
309.501
312.561
307.392
308.832
309.804
307.148
307.089
307.015
307.602
311.179
309.515
310.75
311.353
300.078
300.005
300.014
304.981
300.842
301.336
301.375
301.38
301.361
301.338
301.402
301.677
301.91
302.066
302.251
302.341
302.227
301.918
301.515
301.262
301.154
301.088
301.043
300.987
300.933
300.884
300.835
300.787
300.747
300.711
300.672
300.637
300.601
300.612
300.579
300.589
300.562
300.571
300.557
300.556
300.744
300.591
302.743
301.29
310.239
306.686
316.157
313.535
317.361
316.78
314.377
314.589
314.355
317.167
316.688
314.158
314.185
321.421
320.29
317.453
316.136
324.191
323.5
321.575
322.636
325.775
325.56
325.238
324.748
326.021
326.037
325.976
325.798
324.907
325.624
325.959
326.062
322.885
324.103
324.341
325.139
315.591
318.559
323.092
321.105
312.061
308.804
311.211
315.205
308.051
308.492
309.572
307.119
307.433
307.148
307.459
311.169
309.292
310.622
311.321
300.061
300.004
300.014
304.416
300.702
301.38
301.395
301.38
301.348
301.365
301.546
301.868
302.059
302.282
302.488
302.501
302.268
301.89
301.432
301.227
301.137
301.074
301.03
300.977
300.927
300.879
300.828
300.774
300.732
300.693
300.654
300.603
300.619
300.584
300.594
300.565
300.575
300.545
300.555
300.543
300.538
300.827
300.595
303.577
301.619
310.219
306.857
315.397
313.175
314.553
314.362
312.714
313.167
311.748
311.982
315.115
314.449
312.381
312.294
320.311
318.894
315.787
314.221
323.788
323.029
320.839
322.065
325.594
325.273
324.876
324.394
326.057
325.984
325.811
325.605
325.757
326.001
326.059
326.027
324.518
325.305
325.422
325.817
318.403
321.135
324.652
323.219
314.411
310.097
313.17
317.862
308.955
308.263
309.372
307.176
307.994
307.45
307.482
311.159
309.115
310.491
311.304
300.072
300.005
300.031
304.17
300.719
301.408
301.399
301.371
301.358
301.447
301.757
302.033
302.273
302.544
302.7
302.598
302.275
301.787
301.355
301.201
301.121
301.061
301.015
300.966
300.917
300.87
300.813
300.756
300.715
300.677
300.637
300.594
300.604
300.57
300.581
300.547
300.558
300.525
300.535
300.534
300.521
300.84
300.592
303.728
301.675
308.887
305.984
313.295
311.42
312.048
311.948
310.905
310.965
311.358
309.961
310.232
313.08
312.451
310.621
310.518
319.317
317.55
314.284
312.419
323.33
322.503
320.103
321.45
325.31
324.95
324.514
323.987
325.933
325.79
325.573
325.287
325.993
326.014
325.943
325.843
325.462
325.823
325.764
325.933
320.921
323.205
325.417
324.717
316.819
311.702
315.327
320.243
310.214
308.108
309.208
307.365
308.928
308.046
307.594
311.165
309.088
310.38
311.3
300.153
300.018
300.179
304.157
300.983
301.423
301.393
301.363
301.394
301.607
301.967
302.246
302.54
302.805
302.862
302.632
302.216
301.633
301.29
301.178
301.106
301.046
301
300.954
300.907
300.858
300.794
300.738
300.701
300.662
300.607
300.578
300.592
300.554
300.566
300.532
300.543
300.515
300.522
300.523
300.512
300.784
300.575
303.219
301.471
306.466
304.199
310.048
308.516
310.392
310.508
307.32
307.822
309.247
309.613
307.968
308.1
311.153
310.606
308.93
308.839
318.412
316.408
312.969
310.889
322.843
321.958
319.344
320.819
324.955
324.566
324.101
323.542
325.647
325.427
325.161
324.86
325.917
325.827
325.712
325.471
325.65
325.819
325.678
325.779
322.909
324.596
325.497
325.283
319.076
313.597
317.48
322.185
311.742
308.121
309.125
307.669
310.031
308.73
307.791
311.206
309.218
310.35
311.321
300.628
300.24
300.767
304.666
301.918
301.426
301.378
301.379
301.489
301.823
302.184
302.514
302.82
303.027
302.946
302.622
302.072
301.474
301.246
301.158
301.091
301.032
300.983
300.94
300.895
300.844
300.774
300.725
300.689
300.641
300.588
300.583
300.608
300.571
300.547
300.558
300.526
300.536
300.507
300.516
300.508
300.504
300.67
300.542
302.148
301.075
303.595
302.126
305.931
305.017
308.134
308.079
305.951
306.017
307.468
307.723
305.943
306.022
309.427
308.915
307.287
307.266
317.478
315.284
311.678
309.491
322.332
321.399
318.606
320.194
324.52
324.122
323.643
323.06
325.235
324.971
324.687
324.373
325.666
325.423
325.148
324.914
325.524
325.592
325.392
325.458
324.221
325.033
325.315
325.276
321.016
315.508
319.387
323.601
313.274
308.227
309.123
308.079
311.14
309.539
308.064
311.358
309.835
310.34
311.428
302.02
304.974
305.7
306.886
306.353
301.421
301.381
301.423
301.655
302.062
302.449
302.802
303.087
303.183
302.97
302.522
301.864
301.356
301.215
301.139
301.075
301.017
300.966
300.924
300.884
300.827
300.758
300.716
300.672
300.624
300.58
300.588
300.602
300.567
300.542
300.554
300.519
300.531
300.498
300.508
300.494
300.493
300.563
300.509
301.128
300.72
301.423
300.901
303.135
302.677
301.846
306.05
306.056
303.426
303.645
305.739
305.833
304.047
303.998
307.995
307.408
305.734
305.789
316.566
314.18
310.448
308.152
321.803
320.831
317.911
319.585
324.023
323.62
323.142
322.552
324.639
324.378
324.089
323.793
325.098
324.749
324.492
324.188
325.13
325.218
324.921
324.755
324.596
324.924
324.757
324.987
322.677
317.309
321.431
323.91
314.938
308.48
309.268
308.664
312.656
310.808
308.526
311.626
311.346
310.376
311.525
308.877
311.907
311.759
310.871
311.551
301.408
301.4
301.524
301.874
302.324
302.746
303.081
303.308
303.251
302.927
302.333
301.616
301.29
301.19
301.121
301.059
301.003
300.952
300.909
300.871
300.808
300.75
300.705
300.661
300.615
300.573
300.58
300.595
300.56
300.534
300.547
300.51
300.522
300.488
300.499
300.48
300.482
300.497
300.483
300.65
300.54
300.613
300.541
302.017
301.921
300.748
300.893
303.912
303.794
302.08
302.153
304.151
304.091
302.553
302.453
306.649
306.016
304.235
304.394
315.711
313.139
309.321
306.895
321.287
320.27
317.295
319.006
323.455
323.072
322.617
322.035
323.897
323.62
323.357
323.086
324.285
323.919
323.523
323.189
324.43
324.335
323.648
323.971
324.325
324.312
322.836
323.665
323.063
319.737
322.08
323.598
317.491
308.962
309.726
309.706
314.932
312.704
309.442
312.284
312.845
310.766
312.1
313.439
314.398
315.097
313.414
314.379
301.409
301.448
301.69
302.131
302.625
303.042
303.334
303.452
303.258
302.783
302.066
301.422
301.248
301.168
301.102
301.043
300.989
300.939
300.895
300.858
300.793
300.745
300.697
300.65
300.592
300.587
300.615
300.565
300.572
300.551
300.525
300.538
300.502
300.513
300.48
300.491
300.465
300.471
300.462
300.462
300.489
300.469
300.613
300.465
300.453
300.437
300.973
300.95
300.601
302.358
302.249
301.013
301.067
302.775
302.65
301.435
301.315
305.394
304.711
302.919
303.146
314.962
312.19
308.364
305.726
320.854
319.863
316.867
318.592
322.798
322.452
322.063
321.544
322.909
322.642
322.461
322.271
323.436
322.847
322.508
322.179
322.4
322.762
321.694
321.928
323.602
322.912
322.459
322.424
322.741
320.764
321.72
322.845
319.2
309.779
310.649
311.536
317.367
315.433
311.25
313.196
314.088
311.965
313.047
315.619
315.639
316.511
314.953
315.873
301.428
301.549
301.91
302.426
302.944
303.314
303.543
303.505
303.173
302.541
301.743
301.328
301.218
301.147
301.085
301.028
300.975
300.927
300.886
300.842
300.782
300.737
300.685
300.636
300.58
300.591
300.606
300.557
300.564
300.543
300.516
300.529
300.493
300.504
300.471
300.482
300.454
300.462
300.439
300.445
300.434
300.436
300.466
300.43
300.431
300.414
300.415
300.603
300.598
300.469
301.216
301.137
300.622
300.65
301.706
301.552
300.856
300.786
304.253
303.52
301.867
302.133
314.509
311.521
307.834
304.714
320.474
319.624
316.663
318.389
322.095
321.781
321.398
321.055
321.989
321.706
321.516
321.275
321.207
321.146
320.795
320.771
315.301
321.764
315.2
320.998
322.313
322.264
315.858
315.814
321.894
320.663
321.122
321.934
319.313
311.615
312.347
314.149
317.829
316.385
313.527
314.204
315.127
313.029
314.143
316.705
316.711
317.295
315.981
316.747
301.472
301.713
302.177
302.753
303.247
303.546
303.668
303.482
302.979
302.211
301.475
301.276
301.193
301.127
301.067
301.012
300.961
300.915
300.88
300.828
300.773
300.727
300.672
300.624
300.572
300.583
300.6
300.549
300.557
300.534
300.508
300.521
300.484
300.495
300.464
300.474
300.445
300.454
300.424
300.435
300.412
300.416
300.433
300.42
300.415
300.409
300.407
300.485
300.474
300.442
300.736
300.69
300.507
300.524
301.035
300.914
300.659
300.612
303.297
302.515
301.143
301.414
314.333
311.232
307.693
304.196
319.996
319.289
316.464
318.178
321.16
321.086
320.922
320.351
320.746
320.674
320.621
320.515
314.646
314.728
314.806
314.683
310.613
315.427
310.448
315.166
316.126
316.174
310.74
310.808
316.276
319.959
316.312
316.774
318.598
313.342
313.446
315.298
317.185
315.922
314.636
315.113
315.974
314.249
314.926
317.346
318.176
317.696
316.725
317.33
301.556
301.94
302.487
303.092
303.512
303.733
303.701
303.349
302.677
301.815
301.356
301.243
301.171
301.108
301.051
300.998
300.948
300.905
300.872
300.812
300.765
300.715
300.664
300.619
300.597
300.567
300.58
300.541
300.551
300.527
300.501
300.514
300.478
300.489
300.455
300.466
300.433
300.445
300.412
300.422
300.4
300.405
300.429
300.423
300.411
300.4
300.404
300.473
300.453
300.449
300.582
300.554
300.499
300.52
300.774
300.695
300.651
300.611
302.549
301.733
300.852
301.046
314.287
311.142
307.928
304.063
319.546
318.76
316.383
318.013
320.407
320.286
320.317
320.033
314.767
314.726
314.799
314.787
310.248
310.292
310.37
310.308
305.809
310.664
305.723
310.419
311.018
310.917
305.873
305.92
311.286
316.121
311.426
311.287
315.948
314.263
314.419
315.043
315.376
314.931
314.576
315.812
316.605
314.754
315.59
317.749
386.002
318.808
317.238
317.69
301.686
302.227
302.824
303.406
303.724
303.834
303.638
303.096
302.276
301.5
301.299
301.217
301.151
301.091
301.035
300.984
300.936
300.898
300.858
300.804
300.756
300.705
300.66
300.612
300.592
300.588
300.562
300.575
300.536
300.546
300.521
300.494
300.508
300.47
300.482
300.445
300.458
300.421
300.433
300.402
300.41
300.39
300.399
300.389
300.391
300.459
300.467
300.419
300.411
300.541
300.489
300.535
300.579
300.553
300.595
300.654
300.747
300.682
300.878
300.827
302.237
301.347
300.803
301.003
314.463
311.372
308.941
304.641
318.993
318.459
316.585
317.872
315.021
319.153
319.531
319.208
310.457
310.446
310.627
310.629
305.681
305.744