/*--------------------------------*- C++ -*----------------------------------*\
  =========                 |
  \\      /  F ield         | OpenFOAM: The Open Source CFD Toolbox
   \\    /   O peration     | Website:  https://openfoam.org
    \\  /    A nd           | Version:  dev
     \\/     M anipulation  |
\*---------------------------------------------------------------------------*/
FoamFile
{
    version     2.0;
    format      ascii;
    class       volVectorField;
    location    "2500";
    object      U;
}
// * * * * * * * * * * * * * * * * * * * * * * * * * * * * * * * * * * * * * //

dimensions      [0 1 -1 0 0 0 0];

internalField   nonuniform List<vector> 
9846
(
(0.0041608 0.0069721 0)
(0.00976045 0.00647463 -2.30981e-28)
(0.00398931 0.0179327 -4.05202e-27)
(0.0130465 0.00577576 -4.34096e-27)
(0.0103509 0.0186584 0)
(0.00323171 0.025348 -5.63038e-27)
(0.0152296 0.00491293 4.95012e-27)
(0.0142975 0.0187869 -1.08812e-26)
(0.00939026 0.0267102 -6.99719e-27)
(0.00249055 0.0308398 -2.21614e-27)
(0.0165983 0.00437548 -5.59509e-27)
(0.0166165 0.018145 6.00562e-27)
(0.0140634 0.0280656 3.15876e-30)
(0.00769965 0.0321257 -5.45493e-27)
(0.00198241 0.0353171 -5.69525e-27)
(0.0171906 0.00391068 2.06123e-28)
(0.0177387 0.0167597 -6.62691e-27)
(0.0172647 0.0287938 -3.27746e-27)
(0.0124907 0.0340973 3.04316e-27)
(0.00609134 0.0362693 -1.90846e-27)
(0.00162866 0.0390201 -1.87984e-27)
(0.0172923 0.00352213 0)
(0.018139 0.0152498 0)
(0.0191379 0.0286262 -3.57055e-27)
(0.0163297 0.035981 -5.73768e-27)
(0.0102951 0.0380764 -6.0868e-27)
(0.00493876 0.0397062 2.08319e-27)
(0.00136373 0.0421542 -1.72705e-27)
(0.017044 0.00322495 0)
(0.0180751 0.0137802 1.25586e-28)
(0.0199161 0.0276893 -9.53998e-28)
(0.01906 0.037341 -6.19014e-27)
(0.0141971 0.0404272 0)
(0.00831525 0.0410805 1.65364e-27)
(0.00411011 0.0426876 -2.36436e-27)
(0.00115442 0.044813 7.54424e-28)
(0.0164976 0.00302146 0)
(0.0176209 0.0124864 -6.07143e-29)
(0.0198814 0.0263043 -1.05716e-27)
(0.0207403 0.0378306 -9.55493e-28)
(0.0174393 0.0427913 0)
(0.01169 0.0431928 8.89388e-28)
(0.00681637 0.043683 -2.85259e-27)
(0.00348313 0.0452317 2.79244e-28)
(0.000997118 0.0471599 -1.13976e-27)
(0.015688 0.00295334 3.52752e-28)
(0.0168564 0.0114816 3.43255e-28)
(0.0192256 0.0246337 -1.43256e-27)
(0.0212154 0.0374967 4.99668e-28)
(0.0198426 0.0446858 0)
(0.0148582 0.0457811 0)
(0.00954458 0.0453065 -1.6342e-27)
(0.00571646 0.0459598 -4.05606e-27)
(0.00300384 0.0474893 -2.76541e-27)
(0.000880412 0.0492916 2.09897e-27)
(0.0146234 0.00300501 3.45564e-28)
(0.0158251 0.0107491 0)
(0.0181765 0.0229105 1.26982e-27)
(0.0209992 0.0367589 0)
(0.0212235 0.0459631 1.66584e-35)
(0.0175795 0.0484344 0)
(0.0122223 0.0475098 -2.79046e-27)
(0.00791535 0.0471801 -1.51925e-27)
(0.00490661 0.0480005 0)
(0.00265395 0.0495445 0)
(0.000798752 0.0512124 6.7397e-28)
(0.0133389 0.00309433 1.67332e-28)
(0.0145978 0.0102309 7.28586e-28)
(0.0169009 0.0212791 2.17612e-27)
(0.0201096 0.0354348 0)
(0.0214839 0.0464504 1.86292e-28)
(0.0195598 0.0509558 -2.01105e-27)
(0.0147136 0.0501281 -2.92528e-27)
(0.0100743 0.0488793 -1.0735e-27)
(0.00671438 0.0488895 -1.97764e-28)
(0.00432018 0.0498735 3.06093e-27)
(0.00241581 0.0514122 0)
(0.000752572 0.0530379 0)
(0.0118553 0.00324454 3.45745e-28)
(0.0131951 0.00995122 8.70803e-28)
(0.0153871 0.0198769 1.66529e-42)
(0.0186812 0.0338343 0)
(0.0212067 0.0463173 1.84919e-28)
(0.0206738 0.0528021 -1.55323e-27)
(0.0168464 0.0529993 0)
(0.0121018 0.0510185 -4.94425e-28)
(0.00845614 0.0501409 0)
(0.00586368 0.0504968 3.50577e-27)
(0.00392178 0.0515875 0)
(0.00227374 0.0531859 0)
(0.000735918 0.05485 -7.67784e-27)
(0.0102014 0.00349635 7.21698e-28)
(0.0115785 0.00986992 0)
(0.013674 0.0187984 -1.00663e-27)
(0.0168951 0.0322325 0)
(0.0202804 0.0457511 -1.47024e-27)
(0.0209863 0.0541243 1.55981e-27)
(0.0184119 0.0557749 -1.02344e-27)
(0.0139348 0.05356 5.15588e-28)
(0.0100733 0.0517349 4.9548e-28)
(0.00730447 0.0513572 -3.13326e-27)
(0.00529669 0.0519869 7.959e-28)
(0.00369129 0.0532173 0)
(0.00222041 0.0549534 -7.8192e-27)
(0.000742005 0.056651 0)
(0.00850006 0.00384285 7.79587e-28)
(0.00976807 0.00994038 -1.60379e-28)
(0.0118 0.0180653 -9.73794e-28)
(0.0148758 0.0307657 0)
(0.0185209 0.0447482 -2.88237e-27)
(0.0204674 0.0549257 3.09416e-27)
(0.0192263 0.0582414 5.08581e-28)
(0.0154578 0.0563751 -1.06529e-27)
(0.011514 0.0536799 1.06552e-27)
(0.0086192 0.0524482 -2.87721e-27)
(0.0065462 0.052551 -3.3357e-27)
(0.00496439 0.0534231 0)
(0.00360721 0.0548605 0)
(0.0022372 0.0567312 8.46323e-27)
(0.000766812 0.0585315 3.65304e-28)
(0.00690695 0.00431403 8.84216e-28)
(0.00786737 0.0101967 0)
(0.00977971 0.0176522 -2.95473e-28)
(0.0126734 0.029513 1.19195e-27)
(0.0163792 0.0436708 2.77516e-35)
(0.0191786 0.0551607 4.76512e-32)
(0.0192812 0.0603123 -1.29524e-27)
(0.0164871 0.0592624 2.05142e-27)
(0.0127242 0.0559657 -9.30544e-28)
(0.00975661 0.0538038 3.87216e-32)
(0.00766072 0.0532333 -3.30006e-27)
(0.00610818 0.0537316 0)
(0.00485579 0.0548761 1.66063e-27)
(0.00364462 0.056556 4.52162e-27)
(0.00230342 0.05859 0)
(0.000805266 0.0604947 9.98138e-27)
(0.00567393 0.00507479 3.61628e-28)
(0.00594705 0.0107298 7.77277e-28)
(0.0076138 0.0175552 1.75554e-27)
(0.0103006 0.0285711 2.0379e-27)
(0.013917 0.0426244 1.2185e-27)
(0.0172675 0.0550398 -1.46771e-27)
(0.0185322 0.06188 4.68915e-32)
(0.0168978 0.0620308 1.22755e-27)
(0.0136007 0.058518 -3.88687e-28)
(0.0106645 0.0554273 7.51817e-32)
(0.00859725 0.0540705 -2.19357e-27)
(0.00711748 0.0540607 1.35563e-28)
(0.00597245 0.0549423 0)
(0.00492854 0.0564334 -6.63738e-27)
(0.00377204 0.0583312 -3.77496e-27)
(0.00242511 0.0605409 -2.32439e-32)
(0.000860464 0.0625492 0)
(0.00529353 0.00663833 8.31923e-28)
(0.00405186 0.0116632 -1.51336e-28)
(0.0053455 0.0178071 9.77698e-28)
(0.0077577 0.0280153 2.00109e-27)
(0.0111868 0.0417396 -2.21539e-28)
(0.014829 0.0547316 1.30349e-27)
(0.0170091 0.0630071 1.3465e-27)
(0.0165753 0.0645266 0)
(0.0140231 0.0612226 8.50296e-28)
(0.0112661 0.057303 -6.18499e-28)
(0.00930248 0.0550807 8.64357e-29)
(0.00794584 0.054451 0)
(0.00694495 0.0549597 5.8859e-37)
(0.00608023 0.0563098 -4.15044e-27)
(0.00513855 0.0581004 -9.82279e-28)
(0.00398385 0.0602026 -8.51033e-27)
(0.00258577 0.0625952 0)
(0.000921233 0.0647537 0)
(0.00631747 0.00997997 1.59481e-27)
(0.00217558 0.0132765 -1.4536e-28)
(0.00298343 0.0184931 0)
(0.00505626 0.0278958 2.12882e-27)
(0.00823506 0.0411266 1.137e-27)
(0.0119569 0.054407 1.1594e-27)
(0.0147963 0.0638085 -1.47143e-27)
(0.0154721 0.0667104 -1.11736e-28)
(0.0138576 0.0639411 1.48236e-27)
(0.0114789 0.0593982 0)
(0.00969709 0.05625 3.68543e-28)
(0.0085462 0.0549289 0)
(0.0077353 0.0549688 1.27993e-27)
(0.00708598 0.0560829 -7.0088e-37)
(0.00637715 0.0578265 -5.23489e-28)
(0.00545382 0.0598828 7.18434e-27)
(0.00425115 0.0622125 5.11881e-27)
(0.00275685 0.0648274 1.06395e-26)
(0.000977725 0.0670872 0)
(0.00825984 0.0176917 -4.41523e-28)
(-1.66236e-05 0.0159776 3.05327e-27)
(0.00041359 0.0197203 1.00253e-27)
(0.00219106 0.0282576 2.2973e-27)
(0.00508478 0.040871 1.11896e-27)
(0.00872967 0.0542095 -7.13175e-29)
(0.011996 0.0644245 7.36388e-29)
(0.0135673 0.0685809 1.18016e-27)
(0.0130023 0.0665781 2.56537e-28)
(0.0112081 0.0616571 1.579e-28)
(0.00971143 0.0575649 -7.02785e-28)
(0.00884908 0.055477 0)
(0.00832273 0.0549964 1.42785e-27)
(0.00791726 0.055752 -6.4061e-28)
(0.00748242 0.0573939 1.52859e-28)
(0.00682722 0.0595117 -5.37562e-27)
(0.00584996 0.061835 8.80946e-27)
(0.00454167 0.0644192 1.00914e-26)
(0.00292199 0.0671933 -3.10988e-28)
(0.00102877 0.0695654 0)
(-0.0337991 0.0156785 1.67543e-27)
(-0.00413687 0.0189816 3.9535e-27)
(-0.00265397 0.0215051 1.35713e-27)
(-0.000906347 0.0291249 1.15017e-27)
(0.0017304 0.0410271 0)
(0.00520218 0.0542512 1.29841e-27)
(0.00867909 0.0649866 1.15531e-27)
(0.0109774 0.0702103 2.63281e-27)
(0.0113565 0.0690301 1.00833e-27)
(0.0103359 0.0640082 3.04595e-28)
(0.00926392 0.0590177 0)
(0.00877091 0.0560648 -7.81869e-28)
(0.00859505 0.0549853 1.62451e-27)
(0.00856544 0.0553415 -1.46684e-28)
(0.00845161 0.0567935 0)
(0.00809193 0.0589291 -4.81379e-27)
(0.0073853 0.0613959 0)
(0.0062933 0.0640027 5.50203e-27)
(0.00483645 0.0667868 -5.70625e-27)
(0.00307646 0.0697115 0)
(0.00106731 0.0721426 0)
(0.0116334 0.013825 3.1482e-27)
(-0.015202 0.0191516 1.70553e-27)
(-0.00677434 0.0234962 1.61224e-27)
(-0.00437382 0.0304298 1.27824e-27)
(-0.00184828 0.0416274 1.18266e-27)
(0.00141506 0.0546076 2.24437e-27)
(0.00494145 0.065633 9.50227e-29)
(0.00776542 0.0717041 2.10442e-27)
(0.00893903 0.071324 9.7782e-28)
(0.00880755 0.0664181 -1.40423e-28)
(0.00825259 0.0605972 3.62806e-28)
(0.00821601 0.0566809 0)
(0.00855358 0.0548985 6.1605e-28)
(0.00897403 0.0548198 2.25299e-28)
(0.00924803 0.0560361 0)
(0.00924441 0.0581179 -1.4687e-27)
(0.00884588 0.0607093 -3.20725e-28)
(0.00801177 0.0635245 1.00905e-26)
(0.00674071 0.0663752 -8.05024e-27)
(0.00510747 0.0693239 0)
(0.00320253 0.0723425 0)
(0.00109108 0.0747923 1.20762e-26)
(-0.0306179 0.0228827 3.8811e-27)
(-0.0124978 0.0199814 6.2242e-29)
(-0.012242 0.024502 3.26205e-27)
(-0.00835144 0.0319483 1.32713e-27)
(-0.00568648 0.0426335 1.20371e-27)
(-0.00259799 0.0553277 2.24674e-27)
(0.000863897 0.0664899 1.03949e-27)
(0.00394809 0.073175 1.89365e-27)
(0.0058195 0.0735315 0)
(0.00651482 0.0688056 5.13023e-28)
(0.00658206 0.0622918 -8.074e-28)
(0.00709728 0.0573508 4.28452e-28)
(0.00805651 0.0547572 2.31555e-28)
(0.00904216 0.0541524 1.65078e-27)
(0.00982951 0.05508 1.68933e-28)
(0.0102728 0.0570939 0)
(0.0102347 0.0597506 -2.61506e-27)
(0.00969588 0.0627861 4.69456e-27)
(0.0086501 0.06592 -5.96514e-27)
(0.00715021 0.0689417 -1.20834e-30)
(0.00532673 0.0720047 0)
(0.00327464 0.0750544 1.24905e-26)
(0.00109295 0.0775054 0)
(-0.0372294 0.0148818 -1.68616e-27)
(-0.0226783 0.0218824 -2.12977e-27)
(-0.0150719 0.025348 3.27243e-27)
(-0.0127834 0.0332496 1.43917e-27)
(-0.00978266 0.0439398 1.18793e-27)
(-0.0068088 0.0564115 2.1159e-27)
(-0.00349477 0.0676454 2.06542e-27)
(-0.000349354 0.0747767 1.63072e-27)
(0.00204318 0.0757426 0)
(0.00341857 0.0711778 1.29099e-27)
(0.00417217 0.0640958 6.5721e-28)
(0.00530688 0.0580974 1.16753e-27)
(0.00690556 0.0545528 5.0003e-28)
(0.00861783 0.0533093 2.23893e-27)
(0.0101016 0.0538727 1.04526e-27)
(0.0111293 0.0557929 -1.96111e-27)
(0.0115498 0.0585287 -2.60792e-27)
(0.0113549 0.0617541 3.03381e-27)
(0.010569 0.0652058 -6.3076e-28)
(0.00924075 0.0685512 1.01917e-27)
(0.00748043 0.0716889 -9.62167e-27)
(0.00545782 0.0748093 0)
(0.00328083 0.0778354 0)
(0.00106468 0.0801998 -5.93514e-27)
(-0.0354606 0.00844745 -1.11633e-41)
(-0.0282109 0.0195018 -3.43039e-27)
(-0.0208533 0.0263689 3.46077e-27)
(-0.0167283 0.0344247 2.59249e-27)
(-0.0140536 0.0453722 6.78966e-28)
(-0.0111684 0.0578088 1.21467e-27)
(-0.00806165 0.0691278 1.73086e-27)
(-0.00500596 0.0766173 1.67406e-27)
(-0.00233086 0.0780079 0)
(-0.000449106 0.0736084 6.86877e-28)
(0.00097753 0.0660331 5.8343e-28)
(0.00274164 0.0589411 1.7141e-27)
(0.00507378 0.0543193 1.27151e-27)
(0.0076102 0.0522938 -1.18802e-27)
(0.00993422 0.0523842 1.76992e-27)
(0.0117242 0.0541389 -2.25808e-27)
(0.0127636 0.0569658 2.05381e-27)
(0.0130071 0.0604231 3.62512e-28)
(0.0125197 0.0641804 -1.63067e-27)
(0.0113895 0.0679253 5.93361e-27)
(0.00972358 0.0714251 -8.54306e-27)
(0.00768125 0.0746065 0)
(0.0054721 0.0776927 -1.12742e-27)
(0.00320452 0.0806073 -6.23186e-27)
(0.00100699 0.0828422 0)
(-0.0344361 0.00569158 4.6947e-28)
(-0.0303365 0.0158139 -7.95312e-28)
(-0.0258463 0.0257558 1.29354e-27)
(-0.021096 0.0355651 1.21671e-27)
(-0.0181664 0.0468517 3.43309e-28)
(-0.0155706 0.0594379 9.49496e-28)
(-0.0127375 0.0709434 1.04014e-27)
(-0.0098963 0.0787345 1.45142e-28)
(-0.00716886 0.0804397 -9.25871e-33)
(-0.0049802 0.0762153 3.64186e-28)
(-0.00302729 0.0681524 0)
(-0.000672477 0.059946 1.75814e-28)
(0.00240338 0.0540994 -7.06336e-28)
(0.00586614 0.0511062 -8.58388e-28)
(0.00918003 0.0505799 1.52559e-27)
(0.0119335 0.0520681 1.29773e-27)
(0.0137967 0.0549566 -2.28793e-27)
(0.0146519 0.0586943 2.47665e-27)
(0.0145478 0.0628308 -6.77437e-27)
(0.0136363 0.0669987 6.78504e-27)
(0.0120786 0.0709716 -1.11564e-27)
(0.0100312 0.0745211 -1.02786e-26)
(0.0077103 0.0776293 4.30553e-27)
(0.0053459 0.0806071 -7.29434e-27)
(0.00303342 0.0833185 -7.51442e-28)
(0.000918345 0.0853703 0)
(-0.0324719 0.00441444 4.21503e-28)
(-0.0313185 0.0137231 8.243e-28)
(-0.0287241 0.0244417 -7.86967e-28)
(-0.0251733 0.0361543 -1.56293e-27)
(-0.0222174 0.048345 -9.5948e-28)
(-0.0198299 0.0612331 1.27893e-27)
(-0.017389 0.0730545 7.26883e-28)
(-0.0148835 0.08116 -1.41592e-28)
(-0.0123399 0.0831874 -2.08715e-28)
(-0.0100961 0.0790989 -3.17171e-28)
(-0.0078179 0.0705457 3.10491e-28)
(-0.00498732 0.0612083 2.0262e-28)
(-0.00122038 0.0539764 1.09658e-27)
(0.00321245 0.0497873 -8.91444e-28)
(0.0076783 0.0484411 1.09035e-27)
(0.0116017 0.0495153 -7.43967e-28)
(0.0145368 0.0524018 4.81022e-27)
(0.0162293 0.0564346 -5.00044e-27)
(0.0166814 0.0610528 2.12137e-27)
(0.0160541 0.0657547 -3.44797e-27)
(0.0145997 0.0702458 1.33581e-27)
(0.0125473 0.0743087 -7.83208e-27)
(0.010104 0.077771 1.16368e-26)
(0.0075332 0.0807131 -8.63251e-27)
(0.00505857 0.0834772 0)
(0.00275907 0.0859145 -9.61607e-28)
(0.000798695 0.0877136 0)
(-0.0327894 0.00391405 0)
(-0.0317213 0.0127259 1.27439e-27)
(-0.0304236 0.023611 7.26758e-28)
(-0.0282472 0.0363941 -2.71599e-27)
(-0.0259406 0.0496896 -1.37164e-27)
(-0.0238618 0.0631427 0)
(-0.0218582 0.0754157 -6.57594e-28)
(-0.0198166 0.0839118 2.88264e-29)
(-0.0176802 0.0863508 -5.17801e-28)
(-0.0156545 0.0823818 -7.14304e-28)
(-0.0133156 0.0733398 1.17534e-28)
(-0.0102033 0.0628519 -1.86003e-27)
(-0.00588321 0.0540823 1.06479e-27)
(-0.000515719 0.0484256 1.39328e-27)
(0.0052213 0.0459843 2.29579e-27)
(0.0105445 0.0464285 1.46349e-27)
(0.0148238 0.0491906 2.24027e-27)
(0.0176433 0.0535149 0)
(0.0188883 0.0586918 -1.68678e-31)
(0.0187052 0.0640839 5.77325e-27)
(0.0173896 0.0692323 4.82947e-28)
(0.0153007 0.0738796 1.18463e-27)
(0.0127157 0.0778679 7.67611e-27)
(0.00989521 0.0811134 -9.81892e-28)
(0.00711585 0.0837768 0)
(0.0046047 0.0862418 0)
(0.00237242 0.0883208 5.46892e-28)
(0.000636318 0.0898081 5.43319e-28)
(-0.0319459 0.00360628 -3.69579e-28)
(-0.0319742 0.0124156 9.05611e-30)
(-0.0314427 0.0233959 8.20939e-28)
(-0.0304039 0.0367504 3.13111e-28)
(-0.029006 0.0509144 -1.34522e-27)
(-0.0275095 0.0650901 0)
(-0.0260186 0.0779738 -1.17226e-27)
(-0.024541 0.0869917 -1.06551e-27)
(-0.0230037 0.0899732 -1.04334e-28)
(-0.0214518 0.0861623 -1.15823e-27)
(-0.0193752 0.0766773 -1.09997e-28)
(-0.0162672 0.0650381 -1.8942e-27)
(-0.0116268 0.0546067 -3.87933e-27)
(-0.00547721 0.0471977 -5.55811e-28)
(0.0015503 0.0432903 1.44521e-28)
(0.00850241 0.0427864 4.03838e-27)
(0.0144531 0.0452094 0)
(0.0187461 0.0497743 0)
(0.0210955 0.0555876 1.5292e-27)
(0.021585 0.0618095 6.38918e-27)
(0.0205423 0.0678274 5.13355e-28)
(0.0184119 0.0732206 -2.89552e-27)
(0.0156289 0.0778313 0)
(0.0125168 0.0815756 -5.79064e-28)
(0.00936393 0.08446 3.72214e-27)
(0.00645952 0.0867289 -9.32737e-29)
(0.00398447 0.0888148 5.27417e-34)
(0.00190077 0.0904784 6.09977e-28)
(0.000430212 0.0915904 4.42683e-28)
(-0.0322657 0.00343913 1.48995e-26)
(-0.032 0.0124481 1.52219e-28)
(-0.0320573 0.023661 0)
(-0.0318704 0.0374106 0)
(-0.0313481 0.0521838 -1.70799e-27)
(-0.0305963 0.0670586 -2.08865e-27)
(-0.0297424 0.0806721 -3.16852e-27)
(-0.0289188 0.0903842 2.15088e-27)
(-0.0281183 0.0940512 -1.33927e-27)
(-0.0272588 0.0905125 -1.9954e-27)
(-0.0257799 0.0806965 0)
(-0.0230471 0.0679601 -2.4279e-27)
(-0.018434 0.0558083 3.32983e-28)
(-0.0118021 0.0463959 -3.96866e-27)
(-0.00362758 0.0405768 -4.26749e-27)
(0.00509453 0.0386393 1.03656e-27)
(0.0130995 0.0403643 0)
(0.0193327 0.045008 -2.11604e-27)
(0.0232065 0.0515214 0)
(0.0246782 0.0587633 4.07639e-27)
(0.0241089 0.0658469 0)
(0.0220345 0.0722273 2.72719e-27)
(0.0190063 0.0776299 -1.87883e-27)
(0.0155019 0.0820079 1.44671e-27)
(0.0118785 0.0853678 3.77586e-27)
(0.00843901 0.087751 1.10088e-27)
(0.00551963 0.0895068 6.94889e-28)
(0.00318417 0.0911056 0)
(0.00133948 0.0923032 -5.20314e-28)
(0.000194246 0.0930031 9.91365e-28)
(-0.031094 0.00324838 2.35431e-28)
(-0.0318779 0.0126822 1.17763e-26)
(-0.032338 0.0242609 -1.24899e-28)
(-0.0328135 0.0383721 4.09763e-27)
(-0.0330443 0.0536122 3.22142e-27)
(-0.0330452 0.0690919 1.04233e-29)
(-0.0329114 0.0834716 0)
(-0.0328176 0.0940446 -2.85856e-27)
(-0.0328328 0.0985313 2.47271e-27)
(-0.0328396 0.0954648 2.13229e-27)
(-0.0322646 0.0855121 -2.97807e-27)
(-0.0303141 0.0718197 -1.39279e-27)
(-0.0261952 0.0580025 0)
(-0.0195522 0.0464454 9.94739e-28)
(-0.0106153 0.0382789 -2.31103e-27)
(-0.000203764 0.0342828 -4.97433e-27)
(0.0101934 0.0347118 0)
(0.0189494 0.0390649 2.47233e-27)
(0.0249672 0.0461881 1.33454e-27)
(0.0278852 0.0546461 2.43757e-27)
(0.0280446 0.0631543 1.17939e-31)
(0.0261474 0.070804 9.77517e-27)
(0.0229451 0.0772187 6.10208e-28)
(0.0190513 0.0822936 0)
(0.0149316 0.0861858 5.29288e-27)
(0.0108751 0.0890161 1.03399e-27)
(0.007216 0.0908576 -2.4811e-28)
(0.00432826 0.0920739 0)
(0.00220653 0.0931125 -2.83338e-27)
(0.000656821 0.0937411 3.91168e-27)
(-7.63572e-05 0.0940078 7.63432e-28)
(-0.0297981 0.00367667 4.54318e-33)
(-0.0314221 0.0130111 -1.49026e-26)
(-0.0323402 0.0250486 -3.79201e-27)
(-0.0333386 0.0395709 -5.02699e-30)
(-0.0341921 0.0552166 5.40449e-27)
(-0.0348674 0.0712202 -3.27764e-27)
(-0.0354547 0.0863568 -1.613e-27)
(-0.0361151 0.0978864 0)
(-0.0369849 0.103346 -4.95851e-27)
(-0.037979 0.10101 0)
(-0.0385463 0.0911895 1.26141e-28)
(-0.0377669 0.0767998 0)
(-0.0346844 0.0615372 3.17581e-27)
(-0.0286936 0.0479429 -2.16677e-27)
(-0.0197854 0.0371212 -5.65628e-27)
(-0.00828628 0.0303557 0)
(0.00453983 0.0286619 4.46119e-28)
(0.016499 0.0319804 4.21486e-27)
(0.0256738 0.0393877 3.54849e-27)
(0.0311112 0.0489942 0)
(0.0326353 0.0591954 -3.62497e-27)
(0.0310433 0.0686945 1.34234e-26)
(0.0274704 0.0767047 0)
(0.0229194 0.0829266 2.37039e-27)
(0.0181635 0.0873735 4.95387e-27)
(0.0135992 0.0904109 -1.14885e-27)
(0.00937899 0.0923845 -1.20016e-27)
(0.00571953 0.0935518 0)
(0.00295553 0.0942612 -5.69407e-27)
(0.00109264 0.0947287 -1.16617e-27)
(-0.000110723 0.094707 2.21335e-27)
(-0.000396069 0.0944913 -2.5106e-27)
(-0.0294579 0.00426829 -1.70941e-26)
(-0.0307528 0.0135578 2.28656e-28)
(-0.0320267 0.0259525 -1.95016e-26)
(-0.0334753 0.0409283 -4.93972e-28)
(-0.0348574 0.0569468 9.21137e-28)
(-0.0361048 0.0734278 5.59034e-27)
(-0.0373496 0.0892983 -8.33093e-27)
(-0.0387419 0.101849 5.27278e-27)
(-0.0404635 0.108437 8.06086e-27)
(-0.0424941 0.107092 -6.55305e-27)
(-0.0443527 0.0977263 5.68748e-27)
(-0.0450619 0.0830183 0)
(-0.0435473 0.0667327 4.13669e-27)
(-0.0390236 0.0515387 8.21128e-27)
(-0.031202 0.038912 0)
(-0.0201807 0.030164 -5.07612e-27)
(-0.00651004 0.0260357 -6.71107e-27)
(0.00829692 0.0268168 1.36704e-27)
(0.0217906 0.0329623 9.77986e-27)
(0.0311028 0.0426245 -7.21644e-28)
(0.0362166 0.0537208 -5.55395e-27)
(0.036885 0.0648016 4.19734e-27)
(0.0338505 0.0746341 -4.68579e-27)
(0.0285157 0.0827373 -7.37869e-27)
(0.0223388 0.0887439 7.91132e-28)
(0.0164399 0.0926306 -1.28462e-27)
(0.0113701 0.09476 -1.16806e-27)
(0.00722603 0.0956545 8.22467e-31)
(0.00383384 0.0959138 0)
(0.00137772 0.0960533 1.01306e-26)
(-0.00017616 0.0959254 3.04623e-27)
(-0.000925872 0.09521 0)
(-0.00077499 0.0943591 -3.86673e-27)
(-0.0299134 0.00418666 0)
(-0.0300723 0.0141199 -1.68294e-26)
(-0.0314444 0.0269247 -2.27902e-28)
(-0.0332453 0.0423402 -3.86594e-27)
(-0.0350703 0.058733 0)
(-0.0368002 0.0756625 0)
(-0.0386066 0.0922639 2.11914e-26)
(-0.0406658 0.105864 -1.62539e-27)
(-0.0431931 0.1137 9.20563e-27)
(-0.0462378 0.113602 6.35326e-27)
(-0.0494357 0.105045 4.25044e-27)
(-0.0518302 0.0904757 0)
(-0.0523162 0.0737558 0)
(-0.0500417 0.0577735 1.04836e-26)
(-0.0445952 0.0442036 0)
(-0.0359455 0.0343443 5.83798e-28)
(-0.0241916 0.0289793 -5.54683e-27)
(-0.00938585 0.0281211 -3.01591e-32)
(0.00779404 0.0315768 7.22765e-27)
(0.0236611 0.0394399 1.09362e-26)
(0.0333773 0.0506197 -1.12162e-26)
(0.037977 0.062156 6.41839e-27)
(0.0382599 0.0726369 1.43542e-27)
(0.03491 0.0816663 -7.39799e-27)
(0.0287552 0.0887575 6.20461e-27)
(0.0214964 0.0940003 -7.23628e-28)
(0.014451 0.0971824 1.29315e-27)
(0.00869359 0.0986352 0)
(0.00458102 0.0986097 -9.09918e-28)
(0.00159467 0.0979164 2.55592e-26)
(-0.000401897 0.0973661 4.29354e-27)
(-0.00168461 0.0966244 0)
(-0.00186115 0.095191 2.11552e-27)
(-0.000616244 0.093639 1.03121e-26)
(-0.0015359 0.0935746 8.17848e-27)
(-0.02828 0.00361873 1.5183e-28)
(-0.0292492 0.014436 7.37828e-29)
(-0.0306597 0.0278733 -4.07026e-28)
(-0.0326781 0.0437349 -7.96097e-27)
(-0.0348491 0.0604953 0)
(-0.0369874 0.0778618 7.39909e-27)
(-0.0392518 0.0951775 7.27257e-27)
(-0.0418838 0.10987 1.45703e-26)
(-0.0451374 0.119049 3.13104e-27)
(-0.0491171 0.12039 -1.26993e-26)
(-0.0536034 0.112989 0)
(-0.0577258 0.0990295 5.20496e-27)
(-0.0604458 0.0825349 1.39675e-26)
(-0.0609891 0.0667547 -1.43778e-27)
(-0.0590081 0.0536548 2.36057e-26)
(-0.0543641 0.0446133 -3.59049e-27)
(-0.0466999 0.0400541 -1.86986e-26)
(-0.0352896 0.0393647 0)
(-0.0197304 0.0414881 8.67565e-27)
(1.98887e-05 0.0456487 0)
(0.0202739 0.0524754 0)
(0.0322888 0.0630978 1.34185e-26)
(0.0368438 0.0739731 6.95697e-27)
(0.0366734 0.0829843 1.17124e-27)
(0.0331329 0.0904335 1.2227e-26)
(0.0268743 0.0957647 3.01905e-27)
(0.0192981 0.0994904 0)
(0.0117573 0.10131 3.45365e-27)
(0.00563969 0.101827 -3.71298e-27)
(0.00143937 0.101113 8.43526e-27)
(-0.000905886 0.0996488 0)
(-0.00235449 0.0983325 2.92959e-27)
(-0.00323755 0.0966741 0)
(-0.00264968 0.0941648 3.78191e-27)
(-0.00308032 0.0950084 2.35283e-27)
(-0.000586885 0.0930663 1.95344e-27)
(-0.00190123 0.0929819 0)
(-0.0256847 0.0036026 2.96702e-28)
(-0.0278966 0.0145094 1.07453e-28)
(-0.0296142 0.0287015 0)
(-0.0318102 0.045056 -1.63067e-26)
(-0.0342295 0.0621943 1.08776e-31)
(-0.0367007 0.0799538 1.8918e-27)
(-0.0393213 0.09795 7.41327e-27)
(-0.0424109 0.113757 7.42254e-27)
(-0.0462764 0.124369 -1.07097e-26)
(-0.0510873 0.127327 1.95501e-26)
(-0.0567492 0.121366 -1.30727e-26)
(-0.0625048 0.10843 -8.10352e-27)
(-0.0674421 0.0927641 6.77625e-27)
(-0.0709907 0.0781367 -8.55649e-27)
(-0.0730032 0.066817 1.7567e-26)
(-0.0732777 0.0600446 1.01262e-26)
(-0.0708411 0.0576455 -1.95254e-26)
(-0.0646517 0.0580151 -1.22832e-26)
(-0.0533599 0.0598169 2.06568e-26)
(-0.0364369 0.0626042 0)
(-0.0142598 0.0660354 0)
(0.0109169 0.0701636 1.9218e-27)
(0.0275018 0.0775956 0)
(0.0330819 0.0865195 4.82983e-27)
(0.0334297 0.0936043 7.20893e-27)
(0.0296856 0.099161 2.29257e-27)
(0.0233309 0.10278 0)
(0.0157779 0.104714 -7.71181e-28)
(0.00843026 0.105033 -5.87383e-27)
(0.00228774 0.104358 -8.74404e-27)
(-0.00198876 0.102873 1.33553e-26)
(-0.00365774 0.100989 3.42911e-27)
(-0.00409579 0.0979048 3.79335e-27)
(-0.00448634 0.0991109 6.57802e-28)
(-0.00415711 0.0957386 2.23441e-28)
(-0.00496519 0.0979174 3.92512e-27)
(-0.00483877 0.0967117 0)
(-0.00309741 0.0936738 6.30763e-28)
(-0.00397196 0.0944812 -1.8673e-27)
(-0.000652196 0.0922982 0)
(-0.00228915 0.0921977 0)
(-0.0238399 0.00398445 8.41306e-29)
(-0.0261412 0.0146873 8.1457e-30)
(-0.0282141 0.0293883 0)
(-0.0306288 0.0462613 -1.65776e-26)
(-0.0332486 0.0637864 -1.59558e-26)
(-0.0359789 0.0818999 7.69117e-27)
(-0.0388626 0.100506 1.87445e-27)
(-0.0422854 0.117422 -1.86999e-27)
(-0.0466233 0.129526 5.258e-27)
(-0.0521172 0.134242 -1.06121e-26)
(-0.0588057 0.129984 1.36813e-26)
(-0.0660388 0.118391 2.33484e-26)
(-0.0730002 0.104003 -1.57596e-26)
(-0.0793408 0.0912376 -1.44847e-26)
(-0.0852153 0.0827126 0)
(-0.0903989 0.0791094 1.9278e-26)
(-0.0935842 0.07928 -2.64469e-26)
(-0.0931051 0.0811131 -1.17071e-27)
(-0.0876365 0.0830925 0)
(-0.0755595 0.0848318 1.24335e-26)
(-0.0568852 0.0866435 1.36718e-26)
(-0.0324875 0.0886997 -6.16655e-27)
(-0.00363543 0.0900101 -7.08431e-27)
(0.0187279 0.0929069 2.04347e-26)
(0.0271385 0.0988426 5.67868e-27)
(0.0282847 0.104041 -6.4095e-27)
(0.0247159 0.107567 1.35954e-27)
(0.0184673 0.109264 -8.72334e-28)
(0.011199 0.10933 -1.58008e-27)
(0.00455425 0.108226 -8.56665e-27)
(-0.00137561 0.106204 -9.51532e-27)
(-0.00503594 0.103802 1.44108e-26)
(-0.00545882 0.100515 -1.59416e-26)
(-0.00597927 0.101984 -7.63046e-27)
(-0.0057939 0.0990655 0)
(-0.00504277 0.0953163 1.08852e-27)
(-0.00601195 0.0979513 4.31353e-27)
(-0.00609225 0.0964044 -2.31533e-28)
(-0.00368879 0.0929881 8.48678e-27)
(-0.00486291 0.0938659 -9.56273e-27)
(-0.000755063 0.0913185 -5.01928e-27)
(-0.00269139 0.0911807 -1.17959e-27)
(-0.0222289 0.00420059 0)
(-0.0242848 0.014936 8.94852e-29)
(-0.026474 0.0299654 1.66876e-26)
(-0.0291058 0.0473241 8.50526e-28)
(-0.0319229 0.065225 -1.38873e-26)
(-0.0348472 0.0836649 -7.77306e-27)
(-0.0379234 0.102794 -2.96445e-27)
(-0.0415652 0.120788 0)
(-0.0462262 0.134407 -6.03127e-27)
(-0.0522331 0.140976 0)
(-0.059749 0.13863 6.98455e-27)
(-0.0682487 0.128627 8.39153e-28)
(-0.0769408 0.115768 2.29182e-26)
(-0.0856315 0.105253 -1.47859e-26)
(-0.0946808 0.100057 2.97727e-27)
(-0.104255 0.100204 1.33608e-26)
(-0.112923 0.103014 -1.16589e-26)
(-0.118154 0.106248 0)
(-0.11851 0.1086 -7.55297e-27)
(-0.112805 0.109845 -8.13207e-27)
(-0.0997006 0.110641 0)
(-0.0794342 0.110823 2.08428e-26)
(-0.0525396 0.110802 -3.12858e-26)
(-0.0211221 0.109641 2.89472e-26)
(0.00617344 0.108562 9.22357e-27)
(0.0187281 0.110878 -2.2359e-26)
(0.021248 0.114016 2.37695e-27)
(0.0182874 0.115457 4.65728e-27)
(0.0123067 0.114971 1.79249e-27)
(0.00582101 0.113151 2.07634e-27)
(6.49747e-05 0.11075 0)
(-0.00514541 0.107276 3.21261e-27)
(-0.00689665 0.103517 7.5385e-28)
(-0.00755873 0.10504 3.98773e-27)
(-0.00674455 0.100482 -7.91476e-28)
(-0.00754288 0.102066 -1.09962e-27)
(-0.00715275 0.0992739 -1.0081e-26)
(-0.00607609 0.0948038 7.88718e-27)
(-0.00736328 0.0977786 1.71838e-28)
(-0.00740387 0.0960224 -5.20814e-27)
(-0.00435356 0.0920828 3.60922e-27)
(-0.00580037 0.0930793 -3.22477e-27)
(-0.00087839 0.0900908 1.05053e-26)
(-0.00313466 0.0899014 -5.58288e-28)
(-0.020089 0.00418437 0)
(-0.0222784 0.0150845 3.39139e-28)
(-0.0244966 0.0304303 1.64284e-26)
(-0.0272528 0.048242 1.67078e-26)
(-0.0302494 0.0664821 -1.07249e-26)
(-0.0333266 0.085214 0)
(-0.0365414 0.104783 -7.53674e-27)
(-0.04031 0.123792 0)
(-0.0451558 0.138932 -3.8615e-27)
(-0.0515068 0.147408 -2.75061e-27)
(-0.0596312 0.147128 6.3523e-28)
(-0.069154 0.13888 1.12297e-26)
(-0.0792432 0.12762 -5.86021e-27)
(-0.089688 0.119369 -1.00072e-26)
(-0.101037 0.117603 -9.84567e-27)
(-0.113901 0.121621 0)
(-0.127502 0.127412 4.81333e-28)
(-0.138077 0.131433 6.05727e-27)
(-0.143572 0.133386 -5.06232e-28)
(-0.14313 0.133939 -2.68621e-27)
(-0.136763 0.134562 -2.19933e-27)
(-0.12336 0.134645 4.18868e-27)
(-0.102423 0.133313 -1.15838e-26)
(-0.0737005 0.131125 1.18396e-26)
(-0.0403817 0.127961 2.54074e-27)
(-0.00959937 0.124263 1.38273e-26)
(0.00768124 0.122995 0)
(0.0120834 0.123628 4.10414e-27)
(0.00994146 0.122716 2.88358e-27)
(0.00475356 0.119863 9.42913e-27)
(-0.000495034 0.116358 1.2141e-26)
(-0.00513967 0.112478 2.73896e-26)
(-0.00829215 0.106798 -5.08077e-27)
(-0.00893763 0.10864 -2.4194e-27)
(-0.00846817 0.103768 -3.55048e-28)
(-0.00929721 0.105508 4.6343e-27)
(-0.0082679 0.100786 1.64095e-26)
(-0.00930112 0.102474 -3.91488e-27)
(-0.00866875 0.0993323 -1.07393e-26)
(-0.00727203 0.0941235 8.05478e-27)
(-0.00886173 0.0975891 5.64315e-27)
(-0.00887388 0.0955313 -7.04325e-27)
(-0.00509291 0.0909202 -2.32561e-26)
(-0.00685075 0.0920589 -8.91055e-27)
(-0.00101805 0.0885869 1.88061e-29)
(-0.00361825 0.0883288 -2.43003e-26)
(-0.0177685 0.00398644 4.69596e-29)
(-0.0199761 0.0150787 4.58549e-28)
(-0.0223262 0.0307375 0)
(-0.0250975 0.0489881 -1.328e-27)
(-0.0282362 0.0675555 -1.28137e-26)
(-0.0314421 0.0865198 -1.55793e-26)
(-0.0347516 0.106451 1.56852e-26)
(-0.0385714 0.126389 -7.32287e-27)
(-0.0434861 0.143027 3.64972e-27)
(-0.0500256 0.153446 4.3463e-27)
(-0.0585521 0.155355 -1.72925e-27)
(-0.0688549 0.148981 6.11255e-27)
(-0.0800332 0.13926 4.66862e-27)
(-0.091692 0.132985 -4.29479e-27)
(-0.104356 0.134228 -5.53222e-27)
(-0.119315 0.142022 -1.29541e-26)
(-0.13645 0.150578 0)
(-0.152 0.154886 -1.06899e-26)
(-0.162112 0.155846 -2.82177e-26)
(-0.165591 0.154927 8.18829e-27)
(-0.163712 0.155078 3.99328e-27)
(-0.157605 0.156319 0)
(-0.145361 0.155954 5.39152e-27)
(-0.124695 0.153357 -1.24669e-26)
(-0.0949766 0.149384 0)
(-0.059891 0.144891 1.88409e-26)
(-0.0274732 0.14022 -5.20597e-26)
(-0.00674192 0.13637 -8.14886e-27)
(-0.000295629 0.133917 0)
(-0.00147758 0.130263 4.91761e-27)
(-0.00549809 0.125513 1.05701e-26)
(-0.00947349 0.120427 5.99715e-26)
(-0.00935608 0.111339 7.58836e-27)
(-0.0114672 0.114769 -7.26713e-27)
(-0.010142 0.107382 -5.14926e-27)
(-0.01108 0.109556 0)
(-0.0102659 0.10431 0)
(-0.0111979 0.106248 0)
(-0.00993898 0.101026 0)
(-0.0110992 0.102889 0)
(-0.0103625 0.0993399 -5.9164e-27)
(-0.00863513 0.0932394 -3.496e-27)
(-0.0105982 0.0973136 6.10392e-27)
(-0.0105874 0.0948752 0)
(-0.00591154 0.0894677 -1.08006e-26)
(-0.00802839 0.0907544 -1.9877e-26)
(-0.00116905 0.0867734 -1.8421e-26)
(-0.00413641 0.0864196 -2.79118e-26)
(-0.0144709 0.00378755 1.0959e-33)
(-0.0173623 0.0149248 -1.70329e-26)
(-0.0198767 0.0308398 0)
(-0.0226755 0.049508 0)
(-0.0258903 0.0684304 -1.59213e-26)
(-0.0292138 0.0875755 -1.54342e-26)
(-0.0325903 0.107791 9.54607e-27)
(-0.0363985 0.128542 7.19211e-27)
(-0.0412878 0.146632 -7.13231e-27)
(-0.0478751 0.159002 3.52442e-27)
(-0.0566115 0.163206 4.71605e-27)
(-0.0674796 0.158831 0)
(-0.0794971 0.150544 3.38767e-27)
(-0.0919854 0.145811 2.18261e-27)
(-0.105246 0.149387 0)
(-0.121059 0.160166 -2.75085e-26)
(-0.139997 0.17092 2.28705e-26)
(-0.157146 0.173331 2.2765e-26)
(-0.169665 0.170431 -3.55393e-26)
(-0.176043 0.167883 6.51735e-30)
(-0.178285 0.167851 1.76276e-26)
(-0.177217 0.170916 0)
(-0.173479 0.173339 -2.69468e-27)
(-0.163841 0.173185 -1.12546e-26)
(-0.144534 0.17021 -8.67396e-27)
(-0.115315 0.16632 -1.08458e-26)
(-0.0803366 0.162673 -3.15405e-26)
(-0.0484488 0.158897 -6.72858e-27)
(-0.0272253 0.154199 1.78973e-26)
(-0.0196879 0.149398 0)
(-0.0199871 0.142984 0)
(-0.0234282 0.137434 7.12589e-26)
(-0.0153903 0.121756 0)
(-0.0277657 0.135046 -4.05298e-27)