/*--------------------------------*- C++ -*----------------------------------*\
  =========                 |
  \\      /  F ield         | OpenFOAM: The Open Source CFD Toolbox
   \\    /   O peration     | Website:  https://openfoam.org
    \\  /    A nd           | Version:  dev
     \\/     M anipulation  |
\*---------------------------------------------------------------------------*/
FoamFile
{
    version     2.0;
    format      ascii;
    class       volScalarField;
    location    "2500";
    object      a;
}
// * * * * * * * * * * * * * * * * * * * * * * * * * * * * * * * * * * * * * //

dimensions      [0 -1 0 0 0 0 0];

internalField   nonuniform List<scalar> 
9842
(
0.100011
0.100011
0.100011
0.100011
0.100011
0.100011
0.100011
0.100011
0.100011
0.100011
0.10001
0.100011
0.100011
0.100011
0.100011
0.10001
0.10001
0.100011
0.100011
0.100011
0.100011
0.10001
0.10001
0.10001
0.100011
0.100011
0.100011
0.100011
0.10001
0.10001
0.10001
0.10001
0.100011
0.100011
0.100011
0.100011
0.100009
0.10001
0.10001
0.10001
0.10001
0.100011
0.100011
0.100011
0.100011
0.100009
0.100009
0.10001
0.10001
0.10001
0.10001
0.100011
0.100011
0.100011
0.100011
0.100009
0.100009
0.100009
0.10001
0.10001
0.10001
0.10001
0.100011
0.100011
0.100011
0.100011
0.100009
0.100009
0.100009
0.100009
0.10001
0.10001
0.10001
0.10001
0.100011
0.100011
0.100011
0.100011
0.100009
0.100009
0.100009
0.100009
0.100009
0.10001
0.10001
0.10001
0.10001
0.100011
0.100011
0.100011
0.100011
0.100008
0.100009
0.100009
0.100009
0.100009
0.100009
0.10001
0.10001
0.10001
0.10001
0.100011
0.100011
0.100011
0.100011
0.100008
0.100008
0.100009
0.100009
0.100009
0.100009
0.100009
0.10001
0.10001
0.10001
0.10001
0.100011
0.100011
0.100011
0.100011
0.100008
0.100008
0.100008
0.100009
0.100009
0.100009
0.100009
0.100009
0.10001
0.10001
0.10001
0.10001
0.100011
0.100011
0.100011
0.100011
0.100008
0.100008
0.100008
0.100008
0.100009
0.100009
0.100009
0.100009
0.100009
0.10001
0.10001
0.10001
0.10001
0.100011
0.100011
0.100011
0.100011
0.100007
0.100008
0.100008
0.100008
0.100008
0.100009
0.100009
0.100009
0.100009
0.100009
0.10001
0.10001
0.10001
0.10001
0.100011
0.100011
0.100011
0.100011
0.100007
0.100007
0.100008
0.100008
0.100008
0.100008
0.100009
0.100009
0.100009
0.100009
0.100009
0.10001
0.10001
0.10001
0.10001
0.100011
0.100011
0.100011
0.100011
0.100007
0.100007
0.100007
0.100008
0.100008
0.100008
0.100008
0.100009
0.100009
0.100009
0.100009
0.100009
0.10001
0.10001
0.10001
0.10001
0.100011
0.100011
0.100011
0.100011
0.100007
0.100007
0.100007
0.100007
0.100008
0.100008
0.100008
0.100008
0.100009
0.100009
0.100009
0.100009
0.100009
0.10001
0.10001
0.10001
0.10001
0.100011
0.100011
0.100011
0.100011
0.100006
0.100007
0.100007
0.100007
0.100007
0.100008
0.100008
0.100008
0.100008
0.100009
0.100009
0.100009
0.100009
0.100009
0.10001
0.10001
0.10001
0.10001
0.100011
0.100011
0.100011
0.100011
0.100006
0.100006
0.100007
0.100007
0.100007
0.100007
0.100008
0.100008
0.100008
0.100008
0.100009
0.100009
0.100009
0.100009
0.100009
0.10001
0.10001
0.10001
0.10001
0.100011
0.100011
0.100011
0.100011
0.100006
0.100006
0.100006
0.100007
0.100007
0.100007
0.100007
0.100008
0.100008
0.100008
0.100008
0.100009
0.100009
0.100009
0.100009
0.100009
0.10001
0.10001
0.10001
0.10001
0.100011
0.100011
0.100011
0.100011
0.100006
0.100006
0.100006
0.100006
0.100007
0.100007
0.100007
0.100007
0.100008
0.100008
0.100008
0.100008
0.100009
0.100009
0.100009
0.100009
0.100009
0.10001
0.10001
0.10001
0.10001
0.100011
0.100011
0.100011
0.100011
0.100006
0.100006
0.100006
0.100006
0.100006
0.100007
0.100007
0.100007
0.100007
0.100008
0.100008
0.100008
0.100008
0.100009
0.100009
0.100009
0.100009
0.100009
0.10001
0.10001
0.10001
0.10001
0.100011
0.100011
0.100011
0.100011
0.100005
0.100006
0.100006
0.100006
0.100006
0.100006
0.100007
0.100007
0.100007
0.100007
0.100008
0.100008
0.100008
0.100008
0.100009
0.100009
0.100009
0.100009
0.100009
0.10001
0.10001
0.10001
0.10001
0.100011
0.100011
0.100011
0.100011
0.100005
0.100005
0.100006
0.100006
0.100006
0.100006
0.100006
0.100007
0.100007
0.100007
0.100007
0.100008
0.100008
0.100008
0.100008
0.100009
0.100009
0.100009
0.100009
0.100009
0.10001
0.10001
0.10001
0.10001
0.100011
0.100011
0.100011
0.100011
0.100005
0.100005
0.100005
0.100006
0.100006
0.100006
0.100006
0.100006
0.100007
0.100007
0.100007
0.100007
0.100008
0.100008
0.100008
0.100008
0.100009
0.100009
0.100009
0.100009
0.100009
0.10001
0.10001
0.10001
0.10001
0.100011
0.100011
0.100011
0.100011
0.100005
0.100005
0.100005
0.100005
0.100006
0.100006
0.100006
0.100006
0.100006
0.100007
0.100007
0.100007
0.100007
0.100008
0.100008
0.100008
0.100008
0.100009
0.100009
0.100009
0.100009
0.100009
0.10001
0.10001
0.10001
0.10001
0.100011
0.100011
0.100011
0.100011
0.100004
0.100005
0.100005
0.100005
0.100005
0.100006
0.100006
0.100006
0.100006
0.100006
0.100007
0.100007
0.100007
0.100007
0.100008
0.100008
0.100008
0.100008
0.100009
0.100009
0.100009
0.100009
0.100009
0.10001
0.10001
0.10001
0.10001
0.100011
0.100011
0.100011
0.100011
0.100004
0.100004
0.100005
0.100005
0.100005
0.100005
0.100006
0.100006
0.100006
0.100006
0.100006
0.100007
0.100007
0.100007
0.100007
0.100008
0.100008
0.100008
0.100008
0.100009
0.100009
0.100009
0.100009
0.100009
0.10001
0.10001
0.10001
0.10001
0.100011
0.100011
0.100011
0.100011
0.100004
0.100004
0.100004
0.100005
0.100005
0.100005
0.100005
0.100006
0.100006
0.100006
0.100006
0.100006
0.100007
0.100007
0.100007
0.100007
0.100008
0.100008
0.100008
0.100008
0.100009
0.100009
0.100009
0.100009
0.100009
0.10001
0.10001
0.10001
0.10001
0.100011
0.100011
0.100011
0.100011
0.100004
0.100004
0.100004
0.100004
0.100005
0.100005
0.100005
0.100005
0.100006
0.100006
0.100006
0.100006
0.100006
0.100007
0.100007
0.100007
0.100007
0.100008
0.100008
0.100008
0.100008
0.100009
0.100009
0.100009
0.100009
0.100009
0.10001
0.10001
0.10001
0.10001
0.100011
0.100011
0.100011
0.100011
0.100011
0.100004
0.100004
0.100004
0.100004
0.100004
0.100005
0.100005
0.100005
0.100005
0.100006
0.100006
0.100006
0.100006
0.100006
0.100007
0.100007
0.100007
0.100007
0.100008
0.100008
0.100008
0.100008
0.100009
0.100009
0.100009
0.100009
0.100009
0.10001
0.10001
0.10001
0.10001
0.100011
0.100011
0.100011
0.100011
0.100011
0.100011
0.100003
0.100004
0.100004
0.100004
0.100004
0.100004
0.100005
0.100005
0.100005
0.100005
0.100006
0.100006
0.100006
0.100006
0.100006
0.100007
0.100007
0.100007
0.100007
0.100008
0.100008
0.100008
0.100008
0.100009
0.100009
0.100009
0.100009
0.100009
0.10001
0.10001
0.10001
0.10001
0.100011
0.10001
0.100011
0.100011
0.100011
0.100011
0.100011
0.100011
0.100011
0.100003
0.100003
0.100004
0.100004
0.100004
0.100004
0.100004
0.100005
0.100005
0.100005
0.100005
0.100006
0.100006
0.100006
0.100006
0.100006
0.100007
0.100007
0.100007
0.100007
0.100008
0.100008
0.100008
0.100008
0.100009
0.100009
0.100009
0.100009
0.100009
0.10001
0.10001
0.10001
0.10001
0.10001
0.10001
0.100011
0.100011
0.100011
0.100011
0.100011
0.100011
0.100011
0.100003
0.100003
0.100003
0.100004
0.100004
0.100004
0.100004
0.100004
0.100005
0.100005
0.100005
0.100005
0.100006
0.100006
0.100006
0.100006
0.100006
0.100007
0.100007
0.100007
0.100007
0.100008
0.100008
0.100008
0.100008
0.100009
0.100009
0.100009
0.100009
0.100009
0.10001
0.10001
0.10001
0.10001
0.10001
0.10001
0.10001
0.100011
0.100011
0.100011
0.100011
0.100011
0.100011
0.100011
0.100003
0.100003
0.100003
0.100003
0.100004
0.100004
0.100004
0.100004
0.100004
0.100005
0.100005
0.100005
0.100005
0.100006
0.100006
0.100006
0.100006
0.100006
0.100007
0.100007
0.100007
0.100007
0.100008
0.100008
0.100008
0.100008
0.100009
0.100009
0.100009
0.100009
0.100009
0.10001
0.10001
0.10001
0.10001
0.10001
0.10001
0.10001
0.10001
0.100011
0.100011
0.100011
0.100011
0.100011
0.100011
0.100011
0.100002
0.100003
0.100003
0.100003
0.100003
0.100004
0.100004
0.100004
0.100004
0.100004
0.100005
0.100005
0.100005
0.100005
0.100006
0.100006
0.100006
0.100006
0.100006
0.100007
0.100007
0.100007
0.100007
0.100008
0.100008
0.100008
0.100008
0.100009
0.100009
0.100009
0.100009
0.10001
0.10001
0.100011
0.10001
0.100011
0.10001
0.100011
0.10001
0.10001
0.100011
0.100011
0.100011
0.100011
0.100011
0.100011
0.100011
0.100011
0.100002
0.100002
0.100003
0.100003
0.100003
0.100003
0.100004
0.100004
0.100004
0.100004
0.100004
0.100005
0.100005
0.100005
0.100005
0.100006
0.100006
0.100006
0.100006
0.100006
0.100007
0.100007
0.100007
0.100007
0.100008
0.100008
0.100008
0.100008
0.100009
0.100009
0.10001
0.100014
0.100014
0.100024
0.100013
0.100021
0.100012
0.100017
0.100011
0.100014
0.100011
0.100012
0.100011
0.100011
0.100011
0.100011
0.100011
0.100011
0.100011
0.100011
0.100002
0.100002
0.100002
0.100003
0.100003
0.100003
0.100003
0.100004
0.100004
0.100004
0.100004
0.100004
0.100005
0.100005
0.100005
0.100005
0.100006
0.100006
0.100006
0.100006
0.100006
0.100007
0.100007
0.100007
0.100007
0.100008
0.100008
0.100008
0.100008
0.100009
0.100015
0.100039
0.100047
0.100106
0.100044
0.100106
0.100034
0.100083
0.100023
0.100055
0.100016
0.100032
0.100012
0.100018
0.100012
0.100011
0.100013
0.100012
0.100011
0.100011
0.100011
0.100011
0.100002
0.100002
0.100002
0.100002
0.100003
0.100003
0.100003
0.100003
0.100004
0.100004
0.100004
0.100004
0.100004
0.100005
0.100005
0.100005
0.100005
0.100006
0.100006
0.100006
0.100006
0.100006
0.100007
0.100007
0.100007
0.100007
0.100008
0.100008
0.100008
0.10001
0.100022
0.100139
0.100237
0.100545
0.100266
0.10065
0.100223
0.100596
0.100152
0.100437
0.100088
0.100267
0.100044
0.100136
0.100021
0.100058
0.100023
0.100012
0.100023
0.100021
0.100011
0.100012
0.100011
0.100011
0.100001
0.100002
0.100002
0.100002
0.100002
0.100003
0.100003
0.100003
0.100003
0.100004
0.100004
0.100004
0.100004
0.100004
0.100005
0.100005
0.100005
0.100005
0.100006
0.100006
0.100006
0.100006
0.100006
0.100007
0.100007
0.100007
0.100007
0.100008
0.100008
0.100011
0.10007
0.100273
0.100993
0.101809
0.101461
0.10312
0.101532
0.103693
0.101234
0.103323
0.100807
0.102366
0.100439
0.101398
0.100197
0.100679
0.100071
0.100267
0.10008
0.100017
0.100079
0.100068
0.100011
0.100015
0.100011
0.100011
0.100001
0.100001
0.100002
0.100002
0.100002
0.100002
0.100003
0.100003
0.100003
0.100003
0.100004
0.100004
0.100004
0.100004
0.100004
0.100005
0.100005
0.100005
0.100005
0.100006
0.100006
0.100006
0.100006
0.100006
0.100007
0.100007
0.100007
0.100007
0.100008
0.100012
0.10011
0.101248
0.103015
0.102463
0.105398
0.109126
0.107743
0.114109
0.108108
0.117191
0.106575
0.116067
0.104258
0.111759
0.102262
0.107118
0.100986
0.10342
0.100335
0.101326
0.100376
0.100049
0.100378
0.100324
0.100013
0.100032
0.100011
0.100012
0.100001
0.100001
0.100001
0.100002
0.100002
0.100002
0.100002
0.100003
0.100003
0.100003
0.100003
0.100004
0.100004
0.100004
0.100004
0.100004
0.100005
0.100005
0.100005
0.100005
0.100006
0.100006
0.100006
0.100006
0.100006
0.100007
0.100007
0.100007
0.100007
0.10001
0.100099
0.101828
0.11542
0.112617
0.120261
0.122187
0.132118
0.129585
0.144591
0.131991
0.15158
0.128084
0.151025
0.119322
0.143157
0.110947
0.12928
0.104837
0.115543
0.101643
0.106302
0.101827
0.100231
0.101847
0.101621
0.10002
0.100135
0.100011
0.100014
0.100001
0.100001
0.100001
0.100001
0.100002
0.100002
0.100002
0.100002
0.100003
0.100003
0.100003
0.100003
0.100004
0.100004
0.100004
0.100004
0.100004
0.100005
0.100005
0.100005
0.100005
0.100006
0.100006
0.100006
0.100006
0.100006
0.100007
0.100007
0.100007
0.100009
0.100078
0.101653
0.118442
0.160111
0.167635
0.142399
0.152375
0.160543
0.176876
0.172632
0.193717
0.176447
0.202128
0.171808
0.201634
0.159614
0.192789
0.140654
0.176495
0.120508
0.152623
0.107538
0.125032
0.108186
0.101186
0.108157
0.107205
0.100064
0.100697
0.100012
0.100027
0.100001
0.100001
0.100001
0.100001
0.100001
0.100002
0.100002
0.100002
0.100002
0.100003
0.100003
0.100003
0.100003
0.100004
0.100004
0.100004
0.100004
0.100004
0.100005
0.100005
0.100005
0.100005
0.100006
0.100006
0.100006
0.100006
0.100006
0.100007
0.100007
0.100007
0.100047
0.10148
0.116949
0.172503
0.175448
0.215009
0.223015
0.191806
0.204635
0.213546
0.231995
0.226457
0.248981
0.230474
0.257444
0.225974
0.257496
0.213844
0.249776
0.193713
0.234746
0.1643
0.210688
0.128454
0.17401
0.130172
0.105336
0.129769
0.12603
0.100301
0.103172
0.100014
0.100092
0.1
0.100001
0.100001
0.100001
0.100001
0.100001
0.100002
0.100002
0.100002
0.100002
0.100003
0.100003
0.100003
0.100003
0.100004
0.100004
0.100004
0.100004
0.100004
0.100005
0.100005
0.100005
0.100005
0.100006
0.100006
0.100006
0.100006
0.100006
0.100007
0.100007
0.100021
0.101017
0.116858
0.175058
0.168967
0.228544
0.230759
0.270262
0.277132
0.247719
0.260495
0.269009
0.286824
0.281746
0.303296
0.286423
0.312209
0.283436
0.313863
0.27365
0.308907
0.255847
0.297366
0.226727
0.276382
0.180992
0.240564
0.184401
0.11925
0.181875
0.170978
0.101387
0.11183
0.100022
0.100404
0.1
0.1
0.100001
0.100001
0.100001
0.100001
0.100001
0.100002
0.100002
0.100002
0.100002
0.100003
0.100003
0.100003
0.100003
0.100004
0.100004
0.100004
0.100004
0.100004
0.100005
0.100005
0.100005
0.100005
0.100006
0.100006
0.100006
0.100006
0.100006
0.100007
0.100011
0.100466
0.11431
0.197831
0.23072
0.235828
0.281335
0.281451
0.318971
0.319767
0.301106
0.311816
0.321317
0.336257
0.334188
0.352214
0.34039
0.362375
0.340246
0.366983
0.334499
0.366289
0.321145
0.359835
0.295661
0.343973
0.251348
0.3127
0.257244
0.153869
0.256235
0.244458
0.105452
0.135302
0.100059
0.101494
0.1
0.100001
0.100001
0.100001
0.100001
0.100001
0.100001
0.100002
0.100002
0.100002
0.100002
0.100003
0.100003
0.100003
0.100003
0.100004
0.100004
0.100004
0.100004
0.100004
0.100005
0.100005
0.100005
0.100005
0.100006
0.100006
0.100006
0.100006
0.100007
0.100009
0.100192
0.107854
0.180616
0.271621
0.264838
0.279972
0.276903
0.317437
0.31254
0.344188
0.33634
0.346607
0.34775
0.365574
0.372417
0.37936
0.391221
0.388471
0.404206
0.392667
0.413375
0.392229
0.418123
0.384747
0.417708
0.365217
0.408298
0.325805
0.383837
0.33348
0.219737
0.333282
0.321722
0.116786
0.180087
0.100189
0.104367
0.1
0.100001
0.100002
0.100003
0.100002
0.100001
0.100001
0.100002
0.100002
0.100002
0.100002
0.100003
0.100003
0.100003
0.100003
0.100004
0.100004
0.100004
0.100004
0.100004
0.100005
0.100005
0.100005
0.100005
0.100006
0.100006
0.100006
0.100006
0.100008
0.100085
0.103551
0.156542
0.25756
0.241593
0.294622
0.289683
0.306478
0.30064
0.327456
0.318591
0.348355
0.333965
0.369428
0.360983
0.393861
0.387914
0.414207
0.413761
0.427647
0.435265
0.437526
0.450024
0.44308
0.460976
0.442192
0.467024
0.429903
0.464643
0.398139
0.448516
0.406379
0.296234
0.406719
0.399551
0.352072
0.141435
0.247112
0.1003
0.107131
0.100001
0.100003
0.100004
0.100004
0.100002
0.100001
0.100001
0.100002
0.100002
0.100002
0.100002
0.100003
0.100003
0.100003
0.100003
0.100004
0.100004
0.100004
0.100004
0.100004
0.100005
0.100005
0.100005
0.100005
0.100006
0.100006
0.100006
0.100008
0.100054
0.101714
0.136797
0.25026
0.282029
0.280763
0.297227
0.292948
0.310258
0.303172
0.318559
0.304343
0.332107
0.307049
0.374821
0.35578
0.405822
0.388486
0.433324
0.423312
0.455217
0.452104
0.471498
0.474307
0.483475
0.492013
0.489443
0.504664
0.484708
0.509131
0.462338
0.497396
0.480445
0.439993
0.46893
0.387813
0.31765
0.375998
0.435731
0.471155
0.468245
0.43158
0.142276
0.199779
0.353846
0.329607
0.261252
0.100213
0.158096
0.104322
0.125436
0.100002
0.100006
0.100008
0.100004
0.100001
0.100001
0.100001
0.100002
0.100002
0.100002
0.100002
0.100003
0.100003
0.100003
0.100003
0.100004
0.100004
0.100004
0.100004
0.100004
0.100005
0.100005
0.100005
0.100005
0.100006
0.100006
0.100008
0.100042
0.100958
0.122348
0.22717
0.282391
0.27503
0.28863
0.286075
0.279573
0.277137
0.292805
0.284581
0.284006
0.265732
0.292341
0.258319
0.36171
0.328414
0.402045
0.369869
0.440774
0.417615
0.470187
0.457948
0.492887
0.487839
0.511694
0.511112
0.513258
0.51866
0.522458
0.524624
0.510073
0.520999
0.52553
0.534045
0.528534
0.501677
0.490405
0.509951
0.516763
0.494199
0.422305
0.407396
0.467645
0.496914
0.496868
0.462337
0.224455
0.387089
0.359139
0.293271
0.100613
0.106632
0.178815
0.135656
0.100004
0.100013
0.100009
0.100003
0.100001
0.100001
0.100001
0.100002
0.100002
0.100002
0.100002
0.100003
0.100003
0.100003
0.100003
0.100004
0.100004
0.100004
0.100004
0.100004
0.100005
0.100005
0.100005
0.100005
0.100006
0.100007
0.100033
0.100619
0.112704
0.197088
0.273329
0.277401
0.277296
0.276303
0.276674
0.244777
0.245688
0.253377
0.2467
0.230936
0.213039
0.237339
0.197917
0.329493
0.28337
0.383026
0.339074
0.434575
0.400659
0.474736
0.451906
0.504985
0.491151
0.525169
0.524038
0.521445
0.516282
0.53015
0.532411
0.532751
0.527567
0.534996
0.537135
0.541834
0.53947
0.523458
0.513675
0.5281
0.533289
0.517086
0.452678
0.438112
0.49464
0.518806
0.518789
0.489378
0.250834
0.417306
0.388541
0.322502
0.114649
0.110265
0.100162
0.102037
0.200423
0.149079
0.100009
0.100018
0.100007
0.100002
0.100001
0.100001
0.100001
0.100002
0.100002
0.100002
0.100002
0.100003
0.100003
0.100003
0.100003
0.100004
0.100004
0.100004
0.100004
0.100004
0.100005
0.100005
0.100005
0.100005
0.100007
0.100027
0.100365
0.107072
0.165568
0.262976
0.267638
0.270819
0.258605
0.264149
0.248557
0.253423
0.203741
0.208777
0.203983
0.201992
0.17196
0.160202
0.178057
0.145743
0.287228
0.229656
0.356916
0.304465
0.420023
0.379356
0.468881
0.438721
0.51038
0.501765
0.491886
0.479137
0.531508
0.528545
0.523708
0.517043
0.538651
0.538525
0.537019
0.539279
0.542555
0.542577
0.544323
0.544028
0.537056
0.531404
0.539263
0.541706
0.533527
0.480336
0.466299
0.516852
0.53454
0.534648
0.512409
0.276873
0.445686
0.416535
0.350538
0.163694
0.1187
0.100227
0.102358
0.222286
0.100017
0.100018
0.100005
0.100001
0.100001
0.100001
0.100001
0.100002
0.100002
0.100002
0.100002
0.100003
0.100003
0.100003
0.100003
0.100004
0.100004
0.100004
0.100004
0.100004
0.100005
0.100005
0.100005
0.100006
0.100023
0.100217
0.104025
0.142142
0.243836
0.270147
0.251891
0.258514
0.234479
0.243563
0.216524
0.225355
0.167684
0.177315
0.158421
0.160969
0.129971
0.124853
0.147343
0.126293
0.243695
0.186295
0.330336
0.273659
0.401178
0.357003
0.465625
0.449136
0.432504
0.412746
0.508612
0.497939
0.485336
0.470704
0.533964
0.529181
0.522425
0.513529
0.542101
0.540493
0.537342
0.543849
0.544401
0.543507
0.541982
0.543722
0.542708
0.540518
0.542864
0.543617
0.541168
0.504575
0.491759
0.533469
0.541689
0.542108
0.530511
0.302258
0.471914
0.442995
0.37745
0.243486
0.176951
0.122043
0.100469
0.104316
0.100026
0.100013
0.100003
0.100001
0.100001
0.100001
0.100001
0.100002
0.100002
0.100002
0.100002
0.100003
0.100003
0.100003
0.100003
0.100004
0.100004
0.100004
0.100004
0.100004
0.100005
0.100005
0.100006
0.10002
0.100179
0.102504
0.127517
0.218714
0.270123
0.252093
0.260411
0.233563
0.243548
0.21133
0.222736
0.188181
0.199685
0.142719
0.154019
0.126085
0.132667
0.115889
0.111463
0.141235
0.124164
0.217598
0.171839
0.306614
0.257266
0.376388
0.333488
0.454659
0.437125
0.418753
0.399462
0.502503
0.489334
0.474233
0.457543
0.532372
0.525346
0.516062
0.504462
0.541466
0.537954
0.532659
0.542577
0.540279
0.539256
0.533587
0.537301
0.541883
0.542342
0.538971
0.538527
0.541727
0.52477
0.514162
0.542428
0.541716
0.54278
0.54203
0.326693
0.495898
0.4679
0.403113
0.263077
0.188047
0.129473
0.101722
0.10987
0.100028
0.100007
0.100001
0.100001
0.100001
0.100001
0.100001
0.100002
0.100002
0.100002
0.100002
0.100003
0.100003
0.100003
0.100003
0.100004
0.100004
0.100004
0.100004
0.100004
0.100005
0.100006
0.100017
0.100128
0.101791
0.118846
0.193061
0.266607
0.264391
0.238432
0.247041
0.216245
0.227783
0.191532
0.204088
0.166172
0.178794
0.125664
0.136479
0.11153
0.116459
0.114113
0.108512
0.15238
0.135551
0.21124
0.174536
0.292627
0.256595
0.367257
0.348975
0.318292
0.33371
0.439823
0.421542
0.40302
0.384536
0.490678
0.475017
0.457994
0.440371
0.525233
0.515428
0.503182
0.488741
0.535249
0.529504
0.52156
0.534215
0.529479
0.528843
0.518667
0.524382
0.532957
0.535844
0.526701
0.525957
0.533571
0.539418
0.532665
0.544849
0.533216
0.535763
0.547251
0.349881
0.517688
0.491161
0.427495
0.281034
0.201798
0.142573
0.104248
0.117742
0.100019
0.100003
0.100001
0.100001
0.100001
0.100001
0.100001
0.100002
0.100002
0.100002
0.100002
0.100003
0.100003
0.100003
0.100003
0.100004
0.100004
0.100004
0.100004
0.100004
0.100005
0.100016
0.100128
0.101585
0.113901
0.170172
0.256105
0.272976
0.244141
0.253875
0.223827
0.234393
0.199862
0.212185
0.174085
0.187087
0.148431
0.161098
0.111943
0.120968
0.10596
0.106926
0.119848
0.109208
0.188742
0.164514
0.226447
0.206446
0.305438
0.293573
0.290737
0.362976
0.350564
0.331405
0.340233
0.422748
0.405971
0.390553
0.376326
0.47267
0.455783
0.439
0.423704
0.511144
0.49829
0.483461
0.467596
0.522531
0.514046
0.503112
0.518837
0.511947
0.511707
0.497605
0.505061
0.516383
0.520988
0.506734
0.506159
0.51734
0.548272
0.546082
0.541172
0.517328
0.522238
0.548175
0.371821
0.536321
0.512999
0.450648
0.299377
0.21898
0.157892
0.104129
0.119772
0.100009
0.100001
0.100001
0.100001
0.100001
0.100001
0.100001
0.100002
0.100002
0.100002
0.100002
0.100003
0.100003
0.100003
0.100003
0.100004
0.100004
0.100004
0.100004
0.100005
0.100017
0.10013
0.101164
0.110832
0.152951
0.240827
0.275635
0.260375
0.230287
0.239314
0.208042
0.21955
0.183066
0.195816
0.156904
0.170008
0.131912
0.144085
0.104313
0.10793
0.104711
0.10324
0.136614
0.115234
0.239764
0.204031
0.27909
0.263835
0.324106
0.317211
0.350078
0.343611
0.374315
0.369061
0.361187
0.364804
0.410661
0.399268
0.389261
0.380947
0.451919
0.437978
0.427016
0.418484
0.490008
0.475592
0.461309
0.448913
0.502872
0.491938
0.479535
0.496976
0.48895
0.488948
0.474008
0.481416
0.492768
0.498745
0.480477
0.480888
0.494503
0.553822
0.555713
0.532064
0.495951
0.504614
0.545146
0.393
0.551179
0.532944
0.47255
0.318409
0.23664
0.16596
0.101501
0.114343
0.100004
0.100001
0.100001
0.100001
0.100001
0.100001
0.100001
0.100002
0.100002
0.100002
0.100002
0.100003
0.100003
0.100003
0.100003
0.100004
0.100004
0.100004
0.100005
0.100017
0.100113
0.100997
0.108742
0.142466
0.22512
0.27498
0.271268
0.234407
0.245032
0.213793
0.224348
0.190164
0.202296
0.16457
0.177542
0.138598
0.1515
0.115582
0.126501
0.101767
0.102591
0.105165
0.102328
0.162481
0.127184
0.285157
0.241405
0.336902
0.326076
0.320151
0.357785
0.35412
0.383566
0.374547
0.405464
0.404763
0.400525
0.403222
0.412478
0.408797
0.406868
0.405943
0.439686
0.434302
0.432967
0.434151
0.467171
0.456539
0.449369
0.447577
0.47915
0.469276
0.460928
0.471694
0.464824
0.466896
0.456839
0.45948
0.465477
0.471539
0.452738
0.45507
0.468245
0.557169
0.563515
0.520403
0.473053
0.487534
0.540413
0.41341
0.56361
0.55078
0.493549
0.33657
0.2497
0.161847
0.100309
0.106613
0.100004
0.100002
0.100001
0.100001
0.100001
0.100001
0.100001
0.100002
0.100002
0.100002
0.100002
0.100003
0.100003
0.100003
0.100003
0.100004
0.100004
0.100006
0.100021
0.100125
0.100987
0.10801
0.135986
0.210545
0.272385
0.278706
0.249664
0.216241
0.225476
0.194178
0.205573
0.169537
0.182092
0.14383
0.156727
0.119375
0.131327
0.105054
0.110133
0.101149
0.100938
0.108275
0.102366
0.191333
0.143841
0.31712
0.293294
0.268577
0.363746
0.351481
0.333914
0.354424
0.396438
0.39079
0.410707
0.398303
0.449569
0.448689
0.439235
0.445117
0.437284
0.441551
0.445581
0.448518
0.449265
0.455751
0.464524
0.474222
0.457365
0.457569
0.462167
0.472232
0.46161
0.46092
0.462898
0.448771
0.446624
0.457003
0.45195
0.446957
0.440269
0.445212
0.429797
0.434782
0.445382
0.559317
0.570994
0.50986
0.455971
0.476217
0.536518
0.432825
0.574686
0.566372
0.513586
0.352994
0.255361
0.147326
0.100051
0.102165
0.100011
0.100006
0.100003
0.100002
0.100001
0.100001
0.100002
0.100002
0.100002
0.100002
0.100002
0.100003
0.100003
0.100003
0.100003
0.100004
0.100008
0.100031
0.10014
0.100985
0.107923
0.133509
0.198711
0.267435
0.284126
0.264003
0.214869
0.225526
0.194259
0.204717
0.171096
0.182976
0.146091
0.158675
0.121583
0.133582
0.106107
0.111851
0.101435
0.102963
0.101101
0.100567
0.114187
0.103393
0.216657
0.163057
0.333887
0.31236
0.31097
0.279853
0.384718
0.370011
0.353916
0.372106
0.431376
0.42178
0.432874
0.41886
0.494881
0.489536
0.471048
0.481372
0.483325
0.490713
0.495304
0.4964
0.485976
0.501272
0.516012
0.528572
0.470324
0.482663
0.500178
0.520856
0.462107
0.471679
0.485654
0.433715
0.436402
0.462913
0.459954
0.445632
0.423737
0.426369
0.418176
0.422803
0.432655
0.561969
0.578486
0.503937
0.448735
0.473182
0.536298
0.451331
0.585446
0.580542
0.532058
0.367919
0.2514
0.128561
0.100019
0.10081
0.10004
0.100019
0.100008
0.100003
0.100002
0.100002
0.100002
0.100002
0.100002
0.100002
0.100002
0.100003
0.100003
0.100003
0.100005
0.100013
0.100054
0.100182
0.101069
0.108073
0.133554
0.191923
0.261742
0.287782
0.274728
0.227491
0.189836
0.199333
0.168243
0.179337
0.144827
0.156637
0.121069
0.132473
0.10643
0.111957
0.101533
0.103227
0.100438
0.100726
0.101305
0.100535
0.122668
0.105741
0.254471
0.221135
0.186451
0.358586
0.335404
0.338542
0.308288
0.404275
0.388823
0.379454
0.397856
0.459234
0.446395
0.455796
0.442372
0.532753
0.522658
0.497139
0.51051
0.537567
0.542073
0.542603
0.539984
0.541019
0.558988
0.573168
0.582711
0.506694
0.532326
0.557903
0.581142
0.477643
0.50089
0.532172
0.42704
0.438203
0.480602
0.480096
0.454861
0.416683
0.420318
0.416687
0.42034
0.430953
0.56622
0.587623
0.505292
0.450459
0.479348
0.541627
0.468627
0.597341
0.594527
0.549267
0.378989
0.23592
0.11759
0.100016
0.100502
0.100134
0.100051
0.100017
0.100006
0.100003
0.100002
0.100002
0.100002
0.100002
0.100002
0.100002
0.100003
0.100004
0.100008
0.100032
0.100108
0.100292
0.10132
0.108584
0.134517
0.191149
0.257971
0.290083
0.28262
0.242477
0.172486
0.160758
0.17195
0.138626
0.149982
0.117617
0.127604
0.105785
0.11043
0.101455
0.102976
0.100324
0.10069
0.100234
0.100186
0.102064
0.100693
0.134864
0.10942
0.276353
0.244302
0.193801
0.234283
0.391951
0.366695
0.373517
0.340303
0.42867
0.414089
0.413976
0.432682
0.483268
0.469395
0.484928
0.473427
0.563899
0.551071
0.523124
0.537177
0.586572
0.586675
0.583605
0.574761
0.600491
0.615075
0.624447
0.627912
0.565569
0.595272
0.619741
0.639183
0.512027
0.551637
0.592184
0.430993
0.449059
0.51836
0.52083
0.478566
0.417408
0.422268
0.420278
0.424845
0.436961
0.575378
0.600306
0.518033
0.464707
0.508537
0.557024
0.484813
0.610534
0.607144
0.565526
0.384297
0.216371
0.113808
0.100395
0.10122
0.100375
0.100119
0.100034
0.100011
0.100004
0.100002
0.100002
0.100002
0.100002
0.100002
0.100003
0.100005
0.100016
0.100082
0.100237
0.100605
0.102013
0.10991
0.136923
0.192332
0.257726
0.292114
0.288374
0.254323
0.187491
0.118536
0.138655
0.126674
0.128332
0.112505
0.119269
0.104342
0.107652
0.101165
0.102301
0.10027
0.100569
0.100073
0.100128
0.100214
0.100089
0.10352
0.100809
0.154381
0.115494
0.305053
0.268957
0.217037
0.256187
0.431012
0.403932
0.408555
0.373577
0.461546
0.448365
0.454459
0.473947
0.509536
0.496796
0.521651
0.512226
0.593845
0.580501
0.553817
0.566846
0.628134
0.625528
0.616965
0.606153
0.653455
0.662613
0.666209
0.667012
0.62685
0.653718
0.673561
0.687539
0.56558
0.612437
0.652009
0.441552
0.470737
0.572924
0.569461
0.513955
0.424427
0.432722
0.434581
0.439852
0.460077
0.594854
0.615853
0.549837
0.508127
0.550251
0.587928
0.498468
0.622674
0.618017
0.578395
0.387412
0.212372
0.115597
0.115276
0.109616
0.100892
0.100232
0.100058
0.100018
0.100007
0.100004
0.100003
0.100002
0.100003
0.100003
0.100008
0.100042
0.10021
0.100605
0.101543
0.103923
0.113057
0.141502
0.196042
0.25877
0.294397
0.292667
0.263166
0.199967
0.125366
0.111924
0.104266
0.10796
0.107472
0.102589
0.104501
0.100759
0.101431
0.100191
0.100387
0.100047
0.100094
0.100035
0.100029
0.100343
0.100081
0.105544
0.101268
0.198723
0.155957
0.125095
0.335863
0.296298
0.238473
0.280717
0.46904
0.440421
0.437309
0.402179
0.501962
0.489672
0.49432
0.515463
0.541881
0.531285
0.56278
0.554622
0.626838
0.614169
0.589782
0.601446
0.665893
0.659492
0.650025
0.639211
0.696987
0.702203
0.704139
0.704175
0.680901
0.701356
0.715573
0.725339
0.625064
0.669646
0.701609
0.470797
0.521159
0.630914
0.665433
0.590567
0.450147
0.464785
0.48511
0.48612
0.513231
0.615954
0.630407
0.587423
0.557536
0.591147
0.613596
0.511148
0.633347
0.626882
0.589563
0.394503
0.222758
0.134786
0.124124
0.137118
0.101741
0.100374
0.10009
0.100028
0.100011
0.100007
0.100004
0.100003
0.100004
0.100015
0.100103
0.100521
0.101749
0.104293
0.1088
0.120159
0.150553
0.203291
0.261766
0.29682
0.295773
0.268714
0.209119
0.132677
0.102623
0.102302
0.100698
0.101598
0.101276
0.100394
0.100717
0.10011
0.10021
0.100031
0.100057
0.100014
0.100018
0.100032
0.100016
0.100475
0.100129
0.108212
0.102043
0.213472
0.170468
0.121672
0.149135
0.363948
0.323087
0.25749
0.301653
0.499147
0.469528
0.451374
0.418425
0.544891
0.532315
0.526781
0.550923
0.579539
0.570818
0.603141
0.595048
0.664909
0.6532
0.629794
0.641026
0.702551
0.695773
0.686787
0.676816
0.732099
0.73675
0.739081
0.739873
0.721465
0.734615
0.743048
0.748756
0.686936
0.724876
0.741121
0.55411
0.63236
0.716979
0.717417
0.685641
0.527186
0.529483
0.563332
0.588778
0.568275
0.631898
0.644451
0.615293
0.595386
0.613087
0.632549
0.523372
0.642899
0.637653
0.600292
0.411833
0.269855
0.225969
0.245734
0.297265
0.102747
0.10053
0.10013
0.100042
0.100022
0.10001
0.100007
0.100008
0.100026
0.100238
0.101303
0.104939
0.111595
0.120313
0.134726
0.165084
0.214238
0.267842
0.299649
0.297531
0.271006
0.214511
0.138551
0.103767
0.100119
0.100317
0.100332
0.100103
0.100172
0.100053
0.100094
0.100018
0.10003
0.10001
0.100012
0.10001
0.100009
0.10005
0.100016
0.100564
0.100241
0.12604
0.114381
0.106482
0.102785
0.22923
0.187202
0.156452
0.38309
0.344081
0.272766
0.314437
0.516057
0.483498
0.451776
0.420585
0.584466
0.570325
0.547856
0.576986
0.619658
0.611051
0.643554
0.632472
0.707991
0.697566
0.674688
0.68587
0.739176
0.733791
0.727537
0.719166
0.75257
0.755862
0.758224
0.760273
0.751362
0.759346
0.763529
0.768392
0.741056
0.75785
0.768428
0.649489
0.669214
0.730787
0.715022
0.695175
0.60322
0.583672
0.612002
0.631987
0.608147
0.649804
0.65863
0.63439
0.615403