/*--------------------------------*- C++ -*----------------------------------*\
  =========                 |
  \\      /  F ield         | OpenFOAM: The Open Source CFD Toolbox
   \\    /   O peration     | Website:  https://openfoam.org
    \\  /    A nd           | Version:  dev
     \\/     M anipulation  |
\*---------------------------------------------------------------------------*/
FoamFile
{
    version     2.0;
    format      ascii;
    class       volScalarField;
    location    "2500";
    object      alphat;
}
// * * * * * * * * * * * * * * * * * * * * * * * * * * * * * * * * * * * * * //

dimensions      [1 -1 -1 0 0 0 0];

internalField   nonuniform List<scalar> 
9842
(
0.000150749
0.00015478
0.000146736
0.000141485
0.000183969
0.000130789
0.000130715
0.000193866
0.000173326
0.00012421
0.000126066
0.000187418
0.000197364
0.000148743
0.000122374
0.000122581
0.000169804
0.00021229
0.000182635
0.000136094
0.00012098
0.000120656
0.000151402
0.000211995
0.000207268
0.000156715
0.000130742
0.000119998
0.000119979
0.000140419
0.000203577
0.000221943
0.000186216
0.00014255
0.000127402
0.000119341
0.000119693
0.000132368
0.000182558
0.000229057
0.000212708
0.000160502
0.000136029
0.000125146
0.000118841
0.000119514
0.000127632
0.000160635
0.000225012
0.000228039
0.000187146
0.000146117
0.00013194
0.000123605
0.000118517
0.000119379
0.00012492
0.000147227
0.000211419
0.000239111
0.000215111
0.000162667
0.000139336
0.000128915
0.000122329
0.000118329
0.000119182
0.000123358
0.000138099
0.000185283
0.000239159
0.000234152
0.000186411
0.000148398
0.000135153
0.0001268
0.000121335
0.000118169
0.000118885
0.000122466
0.000132531
0.000164228
0.000231354
0.000245469
0.000215362
0.000163717
0.00014126
0.000131893
0.000125172
0.000120629
0.000118032
0.000118621
0.000122034
0.000129242
0.000150408
0.000210837
0.000251514
0.000237988
0.000185544
0.000150396
0.000136976
0.000129389
0.000123827
0.000120047
0.000117934
0.000118445
0.000121725
0.000127754
0.000141644
0.000182216
0.000247522
0.000250646
0.000214676
0.000163756
0.000143171
0.000133755
0.00012744
0.000122777
0.000119527
0.000117851
0.000118337
0.000121422
0.000126672
0.000136445
0.000164061
0.000233889
0.00026042
0.000239508
0.000185013
0.000151245
0.000138532
0.000131212
0.000125778
0.000121896
0.000119157
0.000117727
0.000118235
0.000121014
0.000125478
0.000134037
0.000151527
0.000204416
0.000260007
0.000256332
0.000211809
0.000163882
0.00014428
0.000135124
0.000129099
0.000124459
0.000121048
0.000118904
0.000117577
0.000118146
0.000120577
0.000124552
0.000132666
0.00014372
0.000178586
0.000251433
0.000266692
0.0002401
0.000183903
0.000151647
0.000139592
0.000132496
0.000127314
0.00012338
0.000120331
0.000118693
0.000117438
0.000118069
0.000120263
0.000123921
0.000131265
0.000139294
0.000162044
0.000229739
0.000271863
0.000260496
0.000208287
0.000164285
0.00014474
0.000136108
0.000130378
0.00012587
0.000122401
0.000119812
0.00011843
0.000117336
0.000117997
0.000120083
0.000123354
0.000129586
0.000137018
0.000151301
0.000196304
0.00026752
0.000271519
0.00023867
0.000181412
0.000152536
0.000140237
0.000133426
0.000128478
0.000124631
0.000121502
0.000119445
0.000118123
0.000117272
0.000117937
0.000119962
0.000122876
0.000127958
0.000135493
0.000144674
0.000175366
0.000253205
0.000281286
0.000261428
0.000206149
0.0001635
0.000145428
0.000136942
0.000131262
0.000126877
0.000123521
0.000120698
0.000119111
0.000117801
0.000117239
0.000117886
0.000119822
0.000122457
0.000126778
0.000134013
0.000140787
0.000160205
0.000222173
0.00028006
0.000277707
0.000233916
0.000179972
0.000152709
0.000140731
0.000134269
0.000129274
0.00012556
0.000122531
0.000120112
0.000118743
0.00011752
0.000117216
0.000117842
0.000119678
0.000122083
0.000125994
0.00013228
0.000138455
0.00015091
0.000189388
0.000271739
0.000286511
0.000262435
0.0002026
0.000162945
0.000145924
0.000137303
0.000132023
0.000127662
0.000124372
0.000121589
0.000119644
0.000118293
0.000117333
0.000117179
0.000117796
0.000119561
0.000121728
0.000125344
0.00013054
0.000137011
0.00014524
0.000171822
0.000250592
0.000292069
0.000280897
0.000228759
0.000178051
0.000152742
0.000141355
0.000134605
0.000129994
0.000126286
0.000123287
0.000120772
0.000119178
0.000117846
0.000117206
0.000117151
0.000117744
0.000119462
0.000121381
0.000124787
0.000129225
0.000135582
0.000141807
0.000159058
0.000214501
0.000288275
0.000291644
0.000259027
0.000198262
0.000162146
0.000146201
0.000137929
0.000132431
0.000128296
0.00012502
0.000122303
0.000120104
0.000118699
0.000117495
0.000117082
0.00011713
0.000117687
0.000119362
0.000121095
0.000124287
0.000128209
0.000134031
0.000139586
0.000150965
0.000186651
0.000274785
0.000301228
0.000281235
0.00022396
0.000175865
0.000152525
0.00014157
0.000135161
0.000130472
0.000126858
0.00012389
0.000121401
0.000119549
0.000118211
0.000117256
0.000116992
0.000117121
0.000117647
0.000119246
0.000120846
0.000123691
0.000127218
0.000132446
0.000138132
0.000145934
0.000170095
0.000245655
0.000302427
0.00029756
0.000251852
0.000194136
0.000161624
0.000146245
0.000138067
0.000132933
0.000128796
0.000125576
0.000122874
0.000120622
0.000119046
0.00011775
0.000117042
0.000116934
0.000117124
0.000117601
0.000119066
0.000120584
0.000123084
0.000126429
0.000131001
0.00013672
0.000142682
0.000158669
0.000207928
0.000295578
0.000305414
0.000280962
0.000217783
0.000173189
0.000152571
0.000141783
0.000135402
0.000130966
0.000127356
0.000124419
0.000121986
0.00011996
0.00011856
0.000117415
0.000116878
0.000116905
0.000117124
0.000117556
0.000118866
0.000120329
0.000122519
0.00012577
0.000129747
0.000135271
0.000140481
0.000151171
0.000184778
0.000278089
0.000315096
0.00029894
0.000244672
0.000190245
0.000159981
0.00014639
0.000138443
0.000133247
0.000129285
0.000126076
0.000123391
0.000121172
0.000119393
0.000118079
0.000117164
0.000116786
0.000116929
0.000117128
0.000117511
0.000118672
0.000120096
0.000122039
0.000125162
0.000128597
0.000133811
0.000139015
0.000146247
0.000169007
0.000242461
0.000311785
0.000313319
0.000273937
0.000211265
0.000171406
0.000151698
0.000141986
0.000135821
0.000131403
0.000127837
0.000124921
0.000122508
0.000120427
0.000118883
0.000117668
0.000116993
0.000116774
0.00011698
0.000117172
0.000117455
0.000118494
0.000119871
0.000121575
0.000124495
0.000127549
0.000132437
0.000137681
0.000143019
0.000158157
0.000203193
0.000302586
0.000321198
0.000300376
0.000236857
0.0001856
0.000159421
0.000146103
0.000138724
0.000133661
0.000129781
0.000126579
0.000123948
0.00012171
0.000119792
0.000118459
0.000117377
0.000116941
0.000116929
0.000117043
0.000117126
0.000117393
0.000118278
0.000119602
0.000121129
0.000123825
0.000126745
0.000131089
0.000136327
0.000140794
0.000150944
0.000183396
0.000281112
0.000329068
0.000316462
0.000265252
0.00020493
0.000168501
0.000151529
0.000142065
0.000136182
0.000131873
0.000128413
0.000125517
0.000123097
0.000121012
0.000119318
0.000118159
0.000117248
0.000117028
0.000117272
0.000117368
0.000117185
0.000117333
0.00011803
0.000119333
0.000120742
0.000123193
0.000126004
0.000129721
0.000134967
0.000139191
0.000146253
0.000168459
0.00024148
0.000323828
0.000329195
0.000294873
0.000228618
0.000181751
0.000157741
0.000146083
0.000139067
0.000134131
0.000130372
0.00012726
0.000124633
0.000122387
0.000120458
0.000118995
0.000118023
0.000117335
0.000117275
0.000117629
0.00011758
0.000117287
0.000117278
0.000117761
0.000119091
0.00012034
0.000122536
0.00012528
0.000128441
0.000133619
0.000137808
0.000143028
0.000158142
0.000202628
0.000311586
0.000337987
0.000318668
0.00025529
0.000198604
0.000166634
0.000150739
0.000142212
0.000136678
0.000132469
0.00012914
0.000126347
0.000123947
0.000121869
0.000120082
0.000118863
0.000118133
0.000117762
0.000117907
0.00011828
0.000118188
0.000117253
0.000117625
0.000117239
0.000117489
0.000118832
0.000119795
0.000121789
0.00012454
0.000127265
0.000132311
0.000136527
0.000140739
0.000151196
0.000183568
0.000285542
0.000344091
0.000334254
0.000285645
0.00021956
0.000177578
0.00015686
0.000145861
0.000139381
0.000134767
0.000131161
0.000128213
0.000125686
0.000123464
0.000121547
0.000119952
0.000118999
0.000118688
0.000118888
0.000119263
0.000119228
0.000118089
0.000118642
0.000117291
0.000117738
0.000117216
0.000117225
0.000118507
0.000119162
0.000121017
0.000123772
0.000126315
0.000131022
0.000135357
0.000138961
0.000146509
0.000169751
0.000244911
0.000337228
0.000345683
0.000315133
0.000245569
0.000192359
0.000164102
0.000150291
0.000142358
0.000137216
0.000133335
0.000130196
0.000127609
0.00012532
0.00012328
0.000121474
0.00012002
0.000119436
0.000119632
0.000120232
0.000119909
0.000120686
0.000119607
0.000120464
0.000120604
0.00011818
0.000118932
0.000117338
0.0001178
0.000117166
0.000117015
0.000118114
0.000118618
0.000120276
0.000122982
0.000125513
0.000129784
0.00013425
0.000137576
0.000143268
0.000159654
0.000206305
0.000323268
0.000354793
0.000336903
0.000273148
0.000211363
0.000173959
0.000155463
0.000145764
0.000139796
0.000135607
0.000132364
0.000129652
0.000127409
0.000125348
0.000123534
0.000121997
0.000120811
0.000120603
0.000121156
0.000121296
0.000121931
0.000121378
0.00012006
0.000121401
0.000120893
0.000118276
0.000119279
0.000117403
0.00011783
0.000117112
0.000116913
0.00011761
0.000118201
0.000119495
0.000122195
0.000124745
0.000128766
0.000133168
0.00013647
0.000140892
0.000152682
0.000186362
0.000295968
0.000360391
0.000351849
0.000304849
0.000233791
0.000186433
0.000162084
0.000149669
0.000142579
0.000137994
0.000134533
0.000131797
0.000129589
0.000127642
0.000125912
0.000124553
0.000123461
0.000122781
0.000122896
0.000122389
0.000123219
0.000122006
0.000122666
0.000122157
0.000120242
0.000121566
0.000120837
0.00011848
0.000119507
0.00011745
0.000117874
0.000117093
0.000116857
0.000117132
0.000117979
0.000118713
0.00012139
0.000123876
0.00012776
0.0001322
0.000135551
0.00013914
0.000147794
0.000173896
0.000256372
0.000352891
0.000362804
0.000333973
0.000261304
0.000202596
0.000170182
0.000154328
0.000145644
0.000140378
0.000136764
0.000133984
0.000131832
0.000130068
0.000128541
0.000127262
0.000126529
0.000126043
0.000125489
0.000123846
0.000124845
0.000123134
0.000123782
0.00012272
0.000123162
0.000122147
0.000120117
0.000121311
0.000120443
0.000118697
0.00011951
0.000117458
0.000117998
0.000117112
0.000116805
0.00011684
0.000117822
0.000118062
0.000120604
0.000122942
0.000126577
0.000131333
0.0001348
0.000137807
0.000144394
0.000163693
0.000218258
0.000339451
0.00037185
0.000354677
0.00028933
0.000222993
0.000180873
0.000159858
0.000149057
0.00014287
0.000138941
0.000136213
0.000134091
0.000132522
0.000131379
0.000130493
0.000125645
0.000125438
0.000128269
0.000125746
0.00012688
0.000124363
0.000125117
0.000123532
0.000123902
0.000122578
0.000122896
0.000121712
0.000119717
0.000120694
0.00011978
0.000118785
0.000119229
0.00011746
0.00011811
0.000117187
0.000116913
0.000116889
0.00011773
0.000117736
0.000119847
0.000122014
0.000125465
0.000130474
0.000134396
0.000136881
0.000141974
0.000156438
0.000193971
0.00031381
0.000377914
0.00036911
0.000321537
0.000246564
0.000194325
0.000166781
0.000153006
0.000145477
0.000141069
0.000138244
0.000136347
0.000134897
0.000132905
0.000120558
0.000110284
0.000105144
0.000106531
0.00012792
0.000118317
0.000125795
0.000126536
0.000124288
0.000124631
0.000123129
0.000123219
0.000121971
0.000122065
0.000120885
0.000119108
0.000119794
0.000118887
0.000118658
0.000118674
0.000110425
0.000114527
0.000117386
0.000117321
0.000117343
0.000117809
0.00011768
0.000119109
0.00012123
0.000124204
0.000129349
0.000134062
0.000136744
0.000140414
0.000151363
0.000180872
0.000278309
0.000371513
0.000380092
0.000350321
0.000274416
0.000211536
0.0001753
0.000157655
0.00014835
0.000143166
0.00014014
0.0001384
0.000137186
0.000126267
0.000111704
0.000101184
9.3099e-05
9.0427e-05
0.000105768
0.00010459
0.000126614
0.000125365
0.000124702
0.00012346
0.000123261
0.000122285
0.000122055
0.000121437
0.000120911
0.000120606
0.000119759
0.000118244
0.000118724
0.000117886
0.000116151
0.000117824
8.8076e-05
9.10649e-05
0.000117909
0.000118244
0.000118176
0.000118233
0.000118033
0.000118735
0.000120675
0.000123231
0.000128535
0.000133889
0.000136861
0.000140008
0.000148105
0.000171978
0.00024232
0.000360991
0.000388841
0.000370851
0.000302766
0.000232481
0.000186491
0.000163162
0.000151575
0.000145329
0.000141728
0.000140119
0.000139309
0.000122841
0.00010588
9.38598e-05
8.58101e-05
9.28773e-05
0.000107722
0.000120901
0.000121125
0.000114108
0.000119615
0.000111698
0.000119348
0.000112308
0.000119657
0.000114583
0.000119718
0.000116974
0.000119305
0.000118052
0.000118143
0.000117236
0.000117189
0.000116456
9.37561e-05
9.35295e-05
7.01624e-05
7.24842e-05
0.000118536
0.000119823
0.000119597
0.00011919
0.000118807
0.000118748
0.000120528
0.00012271
0.00012732
0.000133421
0.000137618
0.000140074
0.000146644
0.000165242
0.000212389
0.000340692
0.000395189
0.000385348
0.000334526
0.000256745
0.00020055
0.000170119
0.000155254
0.000147493
0.000143445
0.000141463
0.000140883
0.000122333
0.000103416
8.92246e-05
8.50902e-05
9.70593e-05
0.000119193
0.000121697
0.000109491
0.0001147
0.000103851
0.000104567
0.000102135
9.78086e-05
0.000104494
9.5883e-05
0.000109577
9.77301e-05
0.000114183
0.000104807
0.000116522
0.000111547
0.000115272
9.73357e-05
0.000114369
0.000105555
7.45774e-05
7.35802e-05
5.55182e-05
5.81628e-05
0.000119845
0.000122919
0.000121915
0.000120602
0.000119855
0.000119316
0.000120699
0.000122684
0.000126586
0.000132444
0.00013842
0.000141657
0.000146477
0.000161199
0.000195605
0.000314546
0.000395287
0.000396483
0.000362654
0.000283747
0.000218258
0.000178899
0.000159637
0.000149941
0.000144902
0.000142534
0.000141918
0.000124146
0.000103854
8.78686e-05
8.63549e-05
0.000138123
0.000131156
0.000107944
0.000125343
0.000146384
0.000123401
0.000151849
0.000111899
0.000149551
0.000100604
0.000132812
9.44394e-05
0.000110524
9.37904e-05
9.74629e-05
0.000100882
9.31382e-05
0.000109233
9.77505e-05
0.000107582
7.76954e-05
0.000106679
8.79668e-05
5.77833e-05
5.97022e-05
4.47478e-05
4.5123e-05
0.000122095
0.000128465
0.000126932
0.000123234
0.000121517
0.000120592
0.000121323
0.000122995
0.000126334
0.000130526
0.000137999
0.000143061
0.000147612
0.000159658
0.00018687
0.000285122
0.000387974
0.000405073
0.000384758
0.000312109
0.000238971
0.000190282
0.00016507
0.000152785
0.000146526
0.000143304
0.000142736
0.000128014
0.000105976
8.88515e-05
8.62542e-05
0.000150558
0.000204148
0.00016499
0.000196627
0.000185967
0.000227767
0.000197268
0.000256741
0.000192631
0.000265087
0.000167851
0.000250993
0.000129627
0.000215368
0.000103703
0.000159764
9.51125e-05
0.000112693
9.55735e-05
9.7237e-05
9.43369e-05
6.57657e-05
9.41218e-05
8.34671e-05
4.69313e-05
4.99075e-05
3.66221e-05
3.57646e-05
0.000125536
0.000139489
0.000136425
0.000128497
0.000124206
0.000122623
0.000122507
0.000123785
0.000126206
0.00012941
0.000135978
0.000143449
0.000151299
0.000160121
0.000182869
0.000259046
0.000376593
0.000412809
0.000399775
0.000341222
0.000262768
0.000204429
0.00017197
0.000156229
0.000148211
0.000144232
0.000143361
0.000134308
0.000110162
9.08814e-05
8.66777e-05
0.000150229
0.000235439
0.000365825
0.000411703
0.000275546
0.0003248
0.000321219
0.000389605
0.000340635
0.000413515
0.000334036
0.000409309
0.00030636
0.000388611
0.000259948
0.000351333
0.000192821
0.000297923
0.000122943
0.000223151
9.82176e-05
0.00013227
9.88214e-05
6.42558e-05
9.9929e-05
9.79929e-05
3.8718e-05
4.68579e-05
2.99048e-05
3.0023e-05
0.000130647
0.000161163
0.000156111
0.000139219
0.000129099
0.000125648
0.000124235
0.00012489
0.000126079
0.000128971
0.000133515
0.000142271
0.000151268
0.000163379
0.00018216
0.000239841
0.000360272
0.000417749
0.000411339
0.000369732
0.00028799
0.000221666
0.000180746
0.000160337
0.000150154
0.000145122
0.000143347
0.000142172
0.000116321
9.45155e-05
8.55176e-05
0.000149414
0.000236895
0.000440762
0.000478205
0.000551842
0.00058911
0.00045316
0.000506318
0.000476001
0.000527946
0.000470813
0.000517544
0.000452121
0.000499536
0.000423516
0.000477051
0.000384153
0.00044777
0.000328445
0.000408899
0.000247444
0.000352092
0.000137097
0.000261665
0.000136692
9.16634e-05
0.000134314
0.000126208
3.33414e-05
6.83063e-05
2.44204e-05
2.52278e-05
0.000145703
0.000194722
0.0001938
0.00016252
0.00013946
0.000129818
0.00012657
0.000126395
0.000126512
0.000128938
0.000133007
0.000140606
0.000150502
0.000164952
0.000183668
0.000228968
0.000344424
0.000418822
0.000420664
0.000393528
0.000315032
0.000241437
0.000191826
0.000165505
0.000152513
0.000146033
0.000143134
0.000143672
0.000123459
9.9619e-05
8.38546e-05
0.00014546
0.000242267
0.000494621
0.000494539
0.00062035
0.000646681
0.000644759
0.000674537
0.000571541
0.000609707
0.000557216
0.000592419
0.00053449
0.000564664
0.000512324
0.000540728
0.000491423
0.000522027
0.000465629
0.000503382
0.000428787
0.000480151
0.000369268
0.000444126
0.000266808
0.000380156
0.000264788
0.000112318
0.00025297
0.000223458
4.01585e-05
0.000102418
2.02242e-05
2.37622e-05
0.000155361
0.000218229
0.000235005
0.00020665
0.000162578
0.000138453
0.000129535
0.000128046
0.000127585
0.000129405
0.000133879
0.000141512
0.000149505
0.00016419
0.000185003
0.000225041
0.000331741
0.00041633
0.000428758
0.000410655
0.000341043
0.000263431
0.000205354
0.000172084
0.000155764
0.000147223
0.000143278
0.000142682
0.000134226
0.000107955
8.60088e-05
0.000136665
0.000232791
0.000603997
0.000663263
0.000704468
0.000702309
0.000724472
0.000692331
0.000724442
0.000626144
0.000659604
0.000594918
0.000630878
0.000566125
0.000595447
0.000544237
0.000566599
0.000528588
0.000549117
0.000513438
0.000535822
0.000492174
0.000522403
0.00045589
0.000502352
0.000386008
0.000464774
0.000386194
0.000176758
0.000376569
0.000352365
7.93416e-05
0.000142742
1.72259e-05
3.36327e-05
0.000171452
0.000241802
0.000243604
0.000206903
0.000159071
0.000135863
0.000130447
0.000129229
0.000130695
0.000135887
0.000144864
0.000151911
0.000163361
0.000185209
0.000226421
0.000323562
0.00041283
0.000436887
0.000423659
0.000368021
0.000286821
0.000221199
0.000180485
0.000159666
0.000148755
0.000143712
0.000141767
0.000143296
0.000118063
9.4171e-05
0.000105931
0.000193145
0.000580501
0.000774355
0.000782513
0.000746532
0.000762892
0.000753998
0.00077967
0.000742479
0.000777368
0.000667542
0.000706064
0.000630611
0.000671016
0.000593842
0.000625955
0.000567021
0.000588147
0.000552087
0.000566588
0.000541732
0.000555379
0.000530381
0.000546833
0.000511511
0.000536473
0.000470814
0.000518693
0.000472395
0.000307862
0.000467836
0.000452738
0.000108782
0.000232205
1.64038e-05
6.65209e-05
0.000158371
0.000242307
0.000242994
0.000199892
0.000151269
0.000136256
0.000132442
0.000134185
0.000140521
0.000154276
0.00015887
0.000164919
0.000185203
0.000232098
0.000319895
0.000410001
0.000444129
0.000434472
0.000392326
0.000310554
0.000239328
0.000190722
0.000164442
0.000150981
0.000144435
0.000141253
0.000141644
0.000130104
0.000104929
9.82383e-05
0.00015136
0.000492299
0.000781131
0.000771277
0.00083589
0.000843896
0.000802365
0.000820614
0.000807614
0.000832988
0.000790676
0.000813232
0.000712794
0.000755993
0.000668426
0.000717329
0.000619895
0.000664458
0.000586021
0.000614296
0.000569577
0.000587327
0.000560411
0.000574808
0.000552531
0.000565503
0.000543326
0.000557558
0.00052373
0.000548946
0.000527142
0.000419377
0.000527356
0.00052361
0.00048571
0.000157356
0.000350167
1.73407e-05
7.57653e-05
0.000145051
0.000239905
0.000236204
0.000182368
0.000150605
0.00014068
0.000142408
0.000150795
0.00016939
0.000177723
0.000171197
0.000186744
0.000237361
0.000319912
0.000408383
0.000450623
0.000444346
0.000412697
0.000334133
0.000258819
0.000202965
0.000170417
0.000153866
0.00014523
0.000141075
0.000139986
0.00014238
0.000116661
0.000101877
0.000131911
0.000380362
0.000794924
0.000847766
0.000856497
0.000892508
0.000904603
0.000855748
0.000875595
0.000832218
0.000853427
0.000792603
0.000810871
0.000755382
0.000777977
0.000709095
0.000736786
0.000655325
0.000690284
0.000611387
0.000643456
0.000592471
0.000611408
0.000580332
0.000597576
0.000569146
0.000583563
0.000560389
0.000570154
0.000553312
0.000560902
0.000557399
0.000545738
0.000554236
0.000513315
0.000447266
0.000504345
0.000546111
0.000556198
0.000553262
0.000543274
0.00015915
0.000269253
0.000483543
0.00045843
0.000371104
1.56538e-05
0.000188318
6.43812e-05
0.00011633
0.000143609
0.000236603
0.000222849
0.00017782
0.000158233
0.000159973
0.00017295
0.000192707
0.000202573
0.000189704
0.000192454
0.000241489
0.000321699
0.000408743
0.000456505
0.00045344
0.000429705
0.000356588
0.000278841
0.000216972
0.000177941
0.000157441
0.000146281
0.000141267
0.00013894
0.000140065
0.000131104
0.000111061
0.000126422
0.00030869
0.000766225
0.000919205
0.000904426
0.000912776
0.00092021
0.000929546
0.000957086
0.0008754
0.00090091
0.000830049
0.000850632
0.000773831
0.000768127
0.000754818
0.000770839
0.000709213
0.000730098
0.000666177
0.000684806
0.000633227
0.000645621
0.000614953
0.000626645
0.000600515
0.000616841
0.000576508
0.000584241
0.000591542
0.000600959
0.000564127
0.000568286
0.000584574
0.000582613
0.000574024
0.000560402
0.000558911
0.000560081
0.000563294
0.000558575
0.000538964
0.000529913
0.000556942
0.000560929
0.000559774
0.000556742
0.000313591
0.00051564
0.000491719
0.000416427
3.80355e-05
7.19666e-05
0.000232475
0.000142659
0.000156171
0.000237174
0.000214261
0.000185486
0.000189418
0.00020627
0.000221721
0.00022887
0.000217354
0.000207094
0.000246155
0.000323603
0.000408641
0.000462107
0.00046183
0.000442939
0.000377606
0.000298922
0.000232268
0.000186997
0.000162054
0.000148547
0.000141858
0.000138446
0.000137931
0.000140665
0.000125802
0.000126754
0.000254251
0.000728038
0.000942907
0.000999733
0.00101397
0.000977578
0.00099012
0.000937859
0.000976371
0.000872865
0.000902529
0.000766183
0.000777354
0.000658308
0.000614153
0.00073104
0.000708519
0.000693312
0.000680909
0.000654336
0.000654425
0.000634152
0.00063458
0.00062498
0.000630818
0.00060837
0.000612042
0.000621877
0.000591607
0.000592268
0.000600847
0.000609362
0.000567228
0.00057307
0.000591494
0.000590957
0.000581192
0.000562162
0.000560034
0.000561286
0.000565867
0.000559906
0.000554354
0.000548839
0.000561578
0.000559913
0.000559809
0.000562077
0.000357415
0.000538039
0.000518054
0.000453782
9.81139e-05
8.25886e-05
3.18646e-05
5.20719e-05
0.000275685
0.00017638
0.000180743
0.000242143
0.000217538
0.000218437
0.000237258
0.00024969
0.000254227
0.000244977
0.000230802
0.000254485
0.000326481
0.0004087
0.000466576
0.000470563
0.000454573
0.000398071
0.000318478
0.000248514
0.000197538
0.00016767
0.000151599
0.000142606
0.000138408
0.000136666
0.000137995
0.000140399
0.00012782
0.000210054
0.000644682
0.000893898
0.00109933
0.00108912
0.00107885
0.00109411
0.00101721
0.00105358
0.000901948
0.000964994
0.000797016
0.000841162
0.000595378
0.000604746
0.000442049
0.000369506
0.000630045
0.000540385
0.000627722
0.000561391
0.000620672
0.000585882
0.000624432
0.00060645
0.000629634
0.000593175
0.000627889
0.000614658
0.000606474
0.000600956
0.00058783
0.000587966
0.000600925
0.000598185
0.000580342
0.000572088
0.000580825
0.00060112
0.000583328
0.000591321
0.000564616
0.000560202
0.000563199
0.000571105
0.000558995
0.00056172
0.000559357
0.000560064
0.0005575
0.00055604
0.000560728
0.000397244
0.000552463
0.000537424
0.00048471
0.000210506
0.000110998
3.58806e-05
5.37942e-05
0.000316346
0.00021859
0.000251154
0.000241102
0.000260451
0.000273215
0.00027671
0.000269411
0.000255565
0.000267303
0.000329853
0.000409068
0.000467486
0.000478764
0.000465094
0.000416234
0.000337278
0.000265024
0.000209285
0.000174137
0.00015498
0.000143685
0.000138729
0.000136098
0.000135871
0.000137375
0.000127745
0.000174728
0.00049683
0.000806156
0.00114072
0.00119806
0.00122878
0.00113212
0.0011732
0.00102517
0.00108059
0.000797006
0.000889941
0.000634851
0.000708738
0.00034547
0.000358055
0.000275733
0.000228282
0.00046515
0.000357874
0.000526617
0.000451902
0.000574178
0.000526323
0.00061414
0.000602068
0.000586689
0.000568129
0.000585335
0.000591676
0.000598595
0.000612693
0.0005658
0.000557129
0.000551564
0.00055083
0.000576973
0.000554822
0.000537238
0.00058059
0.00059193
0.000553087
0.000532707
0.000564445
0.000569964
0.000561307
0.000568087
0.000580214
0.000558721
0.000561648
0.000561937
0.000555019
0.000555408
0.00055175
0.000554868
0.000431924
0.000559298
0.000549897
0.000509327
0.000352822
0.000241828
0.000125565
4.04711e-05
6.58485e-05
0.000260808
0.000268136
0.00027744
0.000291356
0.000295101
0.00029009
0.000278411
0.000284935
0.000335615
0.000409282
0.000467683
0.000484392
0.000474472
0.000432197
0.000354777
0.000281175
0.000221571
0.000181415
0.000158673
0.000145718
0.00013924
0.000135979
0.000134602
0.000135141
0.000127083
0.000149916
0.000366772
0.000725104
0.00107486
0.00132696
0.0013279
0.00126762
0.00131014
0.00114536
0.0012109
0.000982074
0.00106895
0.000643278
0.0007635
0.00042198
0.000528111
0.000208147
0.000214077
0.000225211
0.000188529
0.000367393
0.000284872
0.000466648
0.000399172
0.000524
0.000472124
0.000603629
0.00058817
0.000569611
0.000548911
0.000551447
0.000557739
0.000565578
0.000580308
0.00052536
0.000518927
0.000515813
0.000515496
0.000528849
0.000510558
0.000497643
0.0005855
0.000546909
0.000505419
0.000485287
0.000512081
0.000578869
0.000565079
0.000576019
0.000571191
0.000560623
0.000555767
0.000557506
0.000548357
0.00055467
0.000547661
0.000546094
0.000461154
0.00055879
0.000555536
0.000527806
0.000384403
0.000269236
0.000153646
5.03443e-05
0.000105289
0.000313041
0.000297186
0.000305698
0.000310423
0.000306825
0.000298883
0.00030302
0.00034309
0.00040843
0.000467448
0.000486116
0.000481492
0.000446158
0.00037074
0.000296586
0.000234051
0.000189703
0.000163271
0.000148697
0.000139994
0.000136209
0.000134055
0.000133778
0.000126813
0.000135148
0.000294469
0.000697834
0.000988232
0.00140178
0.00140464
0.00145626
0.00128698
0.00135559
0.00110783
0.00120427
0.000884071
0.00100019
0.000451491
0.000589396
0.000240826
0.000321961
0.000165045
0.000153112
0.000211582
0.000177165
0.000328308
0.000261183
0.000417494
0.000366958
0.000507253
0.000484489
0.000442836
0.000464054
0.000589207
0.000571521
0.00055131
0.000529531
0.00051882
0.000525872
0.000537316
0.000554711
0.00048971
0.00048605
0.00048535
0.00048791
0.000486295
0.000473572
0.000465672
0.000528741
0.000492862
0.000465739
0.000448409
0.000466661
0.000552822
0.000571109
0.000533803
0.000509546
0.000563801
0.000545686
0.000547568
0.000540674
0.000554286
0.000543088
0.000534998
0.000485164
0.000551563
0.000554458
0.000540498
0.000411516
0.000300241
0.00020008
7.73671e-05
0.000156901
0.000336343
0.000321077
0.000324964
0.000320854
0.000316186
0.000322056
0.000353768
0.000408697
0.000465074
0.000487156
0.000484964
0.000457747
0.000385108
0.000310949
0.000246802
0.000199054
0.000169148
0.000152615
0.000142193
0.000136683
0.000134015
0.000133174
0.000126897
0.000127067
0.000260342
0.00067238
0.000910505
0.0013687
0.00154922
0.00156544
0.00142788
0.00149565
0.00124804
0.00134637
0.00100943
0.00113509
0.000732391
0.000873903
0.00025317
0.000376706
0.000164234
0.000196321
0.000150962
0.000137752
0.000239145
0.000199638
0.000319515
0.000277607
0.000425027
0.00040659
0.000390039
0.000491344
0.000473964
0.00044416
0.000458279
0.000569108
0.000550569
0.000530604
0.000510593
0.000494585
0.00050594
0.000522373
0.000544907
0.000461976
0.000462255
0.000465989
0.000473976
0.000453503
0.000446896
0.000444814
0.000474318
0.000449824
0.000439127
0.000428936
0.000435245
0.000489259
0.000517243
0.000471375
0.000456151
0.000505743
0.00053193
0.00053295
0.000531691
0.000499063
0.000493162
0.000521386
0.000504291
0.000538678
0.000547095
0.000547519
0.000435743
0.000335281
0.000250522
8.11512e-05
0.000177613
0.000358052
0.00033955
0.000337852
0.00033166
0.000340864
0.000366492
0.000410664
0.000460862
0.000487941
0.000485829
0.000465746
0.000397673
0.00032408
0.000259425
0.000209155
0.000176005
0.00015681
0.000145392
0.000137449
0.000134272
0.000133152
0.000127155
0.000123176
0.000243874
0.000646209
0.000846861
0.00128532
0.00163999
0.00155379
0.00162631
0.00137867
0.00147482
0.00113893
0.00126622
0.000847066
0.000998297
0.000531228
0.000689125
0.000173074
0.000213858
0.000132144
0.000143244
0.000158502
0.000128434
0.000292198
0.000242566
0.000362439
0.000331593
0.000431377
0.000419193
0.000433966
0.000424341
0.000482652
0.000471684
0.000454319
0.000462251
0.000544563
0.000527513
0.000511007
0.000495902
0.000486547
0.000503203
0.000524873
0.000534304
0.000446833
0.000453444
0.000464299
0.000478754
0.000434102
0.000434476
0.000439631
0.000435257
0.000426814
0.000428835
0.000434344
0.00042652
0.000439965
0.000457389
0.000427384
0.00042471
0.000449991
0.000514553
0.000513919
0.000493431
0.000442176
0.000439519
0.000505179
0.00051874
0.000520486
0.000532481
0.000549015
0.000456972
0.000369693
0.000285554
5.19479e-05
0.000154418
0.000378807
0.000353926
0.000353445
0.000356797
0.000380276
0.000414237
0.000456215
0.000484743
0.000486529
0.000469622
0.000407792
0.000335821
0.000271397
0.000219305
0.000183147
0.000161318
0.000148342
0.00013918
0.000134615
0.00013339
0.000127556
0.000122087
0.000234154
0.00062482
0.00079379
0.00118091
0.00164956
0.00164707
0.00169936
0.00148157
0.00157348
0.00124824
0.00137291
0.000955704
0.0011084
0.000623306
0.000792213
0.000302
0.000452668
0.00013243
0.000155823
0.000120946
0.000121197
0.000185554
0.000134723
0.000347442
0.000290509
0.000415105
0.000400862
0.000389867
0.000447252
0.000440507
0.000456105
0.000448684
0.000482363
0.00047703
0.000469246
0.00047283
0.000520451
0.000507876
0.000497285
0.000488903
0.000496031
0.000515799
0.000521212
0.000510422
0.000450384
0.000465096
0.000480126
0.000496654
0.00043364
0.000444996
0.00045882
0.000423274
0.000432773
0.00044554
0.000455793
0.000445502
0.000417864
0.000419126
0.000413493
0.00042445
0.000412739
0.000493968
0.000491289
0.000451248
0.000409122
0.00041495
0.000473257
0.000528089
0.000497349
0.000512701
0.000543982
0.00047548