/*--------------------------------*- C++ -*----------------------------------*\
  =========                 |
  \\      /  F ield         | OpenFOAM: The Open Source CFD Toolbox
   \\    /   O peration     | Website:  https://openfoam.org
    \\  /    A nd           | Version:  dev
     \\/     M anipulation  |
\*---------------------------------------------------------------------------*/
FoamFile
{
    version     2.0;
    format      ascii;
    class       volScalarField;
    location    "2500";
    object      CO2;
}
// * * * * * * * * * * * * * * * * * * * * * * * * * * * * * * * * * * * * * //

dimensions      [0 0 0 0 0 0 0];

internalField   nonuniform List<scalar> 
9842
(
8.59082e-34
2.67115e-33
1.07883e-33
4.15152e-33
6.608e-33
1.70683e-33
8.30121e-33
1.76885e-32
7.56591e-33
5.33385e-34
6.3835e-33
2.70242e-32
2.21718e-32
6.54196e-33
1.76186e-34
1.08264e-32
3.97318e-32
3.68537e-32
1.98191e-32
2.62362e-33
1.81251e-34
1.64107e-32
5.36647e-32
7.04072e-32
4.16399e-32
1.47984e-32
1.30364e-33
7.64556e-35
2.28859e-32
5.7083e-32
9.36013e-32
8.53894e-32
3.15753e-32
6.51662e-33
5.31167e-34
2.85604e-35
2.02395e-32
1.03898e-31
1.56274e-31
1.47278e-31
8.9001e-32
2.87328e-32
2.34506e-33
1.98456e-34
1.12073e-35
3.58418e-32
1.90026e-31
2.49733e-31
2.18382e-31
1.59515e-31
7.51078e-32
1.36505e-32
1.60512e-33
9.51175e-35
4.04543e-36
9.9515e-32
3.747e-31
4.56469e-31
3.40042e-31
2.42978e-31
1.54314e-31
5.70833e-32
8.00164e-33
4.6206e-34
3.6062e-35
9.0598e-37
4.25927e-31
8.42293e-31
8.0063e-31
7.98627e-31
5.33163e-31
2.82709e-31
1.37506e-31
3.36551e-32
2.59692e-33
1.88771e-34
7.73824e-36
4.07403e-37
9.66669e-31
1.80166e-30
1.78216e-30
1.64008e-30
1.01726e-30
5.48052e-31
2.63521e-31
8.79284e-32
1.52194e-32
1.54899e-33
6.86714e-35
4.52073e-36
1.6762e-37
1.95865e-30
6.61072e-30
6.80797e-30
4.02738e-30
2.18744e-30
9.94292e-31
4.88155e-31
1.89206e-31
4.0334e-32
7.17466e-33
6.44998e-34
3.75627e-35
1.25269e-36
1.42878e-37
4.43873e-30
1.32267e-29
1.89819e-29
1.19787e-29
7.86454e-30
3.02034e-30
1.05406e-30
4.32701e-31
1.38829e-31
1.7327e-32
2.25395e-33
2.45309e-34
1.55307e-35
1.86291e-36
3.14874e-37
9.50279e-30
2.55023e-29
4.69654e-29
4.11763e-29
1.88607e-29
8.5017e-30
3.21565e-30
8.61258e-31
3.51126e-31
5.52314e-32
1.1022e-32
1.06815e-33
6.96663e-35
1.19769e-35
3.79926e-36
3.59353e-37
2.08035e-29
6.58229e-29
9.54481e-29
1.01396e-28
6.92129e-29
2.18319e-29
9.58804e-30
3.08173e-30
8.50742e-31
2.64175e-31
4.16451e-32
4.68348e-33
3.97859e-34
4.92165e-35
2.68303e-35
3.83594e-36
8.83655e-37
5.55632e-29
3.68894e-28
3.22468e-28
3.08533e-28
1.7751e-28
9.29721e-29
2.81124e-29
8.92432e-30
2.25865e-30
5.70517e-31
1.46989e-31
1.93276e-32
2.24799e-33
3.1653e-34
1.42147e-34
4.48808e-35
2.45389e-35
5.95954e-36
2.49425e-28
7.46244e-28
1.08219e-27
1.15927e-27
5.24718e-28
2.64318e-28
9.38155e-29
3.0711e-29
7.908e-30
1.68674e-30
3.97037e-31
7.91072e-32
7.08185e-33
9.29098e-34
5.4597e-34
4.25063e-34
2.26229e-34
2.04637e-34
3.06968e-35
5.38235e-28
1.77878e-27
2.43827e-27
2.93579e-27
2.11907e-27
6.59672e-28
2.93158e-28
1.03335e-28
2.63757e-29
6.59576e-30
1.11833e-30
2.73419e-31
3.2933e-32
4.161e-33
1.76088e-33
1.97651e-33
1.61079e-33
1.27173e-33
5.22499e-34
7.07363e-34
5.9429e-28
3.66833e-27
5.87665e-27
8.82938e-27
4.56551e-27
2.65615e-27
1.12027e-27
3.60949e-28
1.08231e-28
1.97454e-29
4.82036e-30
7.86871e-31
1.35979e-31
1.58126e-32
6.18872e-33
7.97609e-33
9.14688e-33
6.46663e-33
5.35783e-33
7.56803e-33
7.44013e-33
7.64356e-28
5.4917e-27
1.23152e-26
2.18584e-26
1.54494e-26
1.13564e-26
3.83362e-27
1.40469e-27
4.05969e-28
9.46865e-29
1.68792e-29
3.34417e-30
4.70561e-31
7.08635e-32
1.97725e-32
2.26695e-32
3.8066e-32
3.43807e-32
3.52198e-32
6.19329e-32
8.74285e-32
1.04026e-31
6.75728e-28
8.31994e-27
2.72729e-26
3.75775e-26
5.00297e-26
2.62839e-26
1.46948e-26
4.46752e-27
1.41112e-27
3.48449e-28
6.84809e-29
1.2012e-29
2.09515e-30
2.90877e-31
7.19659e-32
5.64248e-32
1.14447e-31
1.67568e-31
3.58526e-31
4.46095e-31
8.53078e-31
1.09222e-30
2.2058e-30
7.03589e-28
7.12091e-27
2.9943e-26
7.79589e-26
8.6439e-26
8.63527e-26
4.49439e-26
1.90415e-26
4.34135e-27
1.25168e-27
2.81083e-28
4.84352e-29
7.4244e-30
1.14907e-30
2.32268e-31
1.68127e-31
3.1873e-31
4.34589e-31
1.69381e-30
4.23046e-30
6.68772e-30
1.21971e-29
2.99399e-29
3.51761e-29
1.20875e-27
8.20908e-27
4.21693e-26
1.17666e-25
1.77821e-25
1.62204e-25
1.17931e-25
6.47343e-26
2.16242e-26
4.67578e-27
9.58824e-28
1.99772e-28
2.92232e-29
4.25996e-30
7.80626e-31
5.17234e-31
7.83742e-31
1.97912e-30
6.61774e-30
2.11526e-29
7.3377e-29
1.56506e-28
3.04035e-28
5.06776e-28
3.878e-28
8.36633e-27
1.99234e-26
7.60648e-26
1.28722e-25
2.42975e-25
3.18893e-25
2.64061e-25
1.84754e-25
6.95911e-26
1.55247e-26
4.51534e-27
7.49449e-28
1.25746e-28
1.23547e-29
2.65375e-30
1.26237e-30
2.25236e-30
5.24809e-30
2.16591e-29
8.95602e-29
3.92135e-28
1.38287e-27
3.48871e-27
5.95516e-27
1.21965e-26
1.12623e-26
7.24758e-27
5.86552e-26
1.4197e-25
2.5888e-25
4.34407e-25
4.75796e-25
4.80791e-25
3.88667e-25
1.85245e-25
6.80092e-26
1.56827e-26
3.48875e-27
5.07173e-28
8.59931e-29
7.95976e-30
2.94633e-30
4.88798e-30
1.47015e-29
6.60649e-29
3.15534e-28
1.80387e-27
8.23305e-27
2.59625e-26
7.72281e-26
1.37646e-25
2.59768e-25
2.85378e-25
1.40823e-26
4.85136e-26
2.60538e-25
3.79062e-25
6.55467e-25
9.99456e-25
1.03378e-24
7.58902e-25
4.67046e-25
1.66638e-25
5.7332e-26
1.24312e-26
2.34331e-27
3.30378e-28
4.11282e-29
6.55061e-30
9.34646e-30
2.84465e-29
1.95391e-28
1.07642e-27
6.28998e-27
4.43843e-26
1.77394e-25
5.80495e-25
2.00731e-24
3.7553e-24
5.87185e-24
4.63799e-24
1.13001e-25
1.71245e-25
2.85939e-25
8.12596e-25
1.07198e-24
1.35873e-24
2.08578e-24
1.55686e-24
1.2562e-24
5.1821e-25
1.41061e-25
4.73624e-26
7.24577e-27
1.33067e-27
1.88916e-28
2.82774e-29
2.56473e-29
1.12455e-28
5.19143e-28
3.66847e-27
2.00871e-26
1.71865e-25
1.29642e-24
6.40445e-24
1.62707e-23
6.6278e-23
1.32226e-22
1.19482e-22
4.76483e-23
6.16964e-25
8.66485e-25
6.7697e-25
8.80919e-25
2.17284e-24
2.35202e-24
2.89806e-24
3.43056e-24
2.1351e-24
1.39711e-24
4.85917e-25
1.37927e-25
3.77369e-26
5.58474e-27
8.95701e-28
9.01432e-29
6.68952e-29
2.88814e-28
2.03414e-27
1.43712e-26
9.55917e-26
6.31826e-25
5.2935e-24
4.9578e-23
2.91619e-22
6.80236e-22
2.11606e-21
3.09751e-21
2.5514e-21
8.94684e-22
4.00961e-24
6.07358e-24
2.66541e-24
1.99283e-24
2.42299e-24
4.1978e-24
5.55099e-24
4.6383e-24
5.72185e-24
2.62369e-24
1.23481e-24
4.26909e-25
1.16477e-25
2.24044e-26
3.8125e-27
5.80338e-28
2.26733e-28
8.88749e-28
4.95004e-27
4.30656e-26
3.26259e-25
2.43634e-24
2.20093e-23
2.58074e-22
2.24762e-21
1.21404e-20
2.68465e-20
5.86693e-20
6.43183e-20
3.01572e-20
1.12543e-20
3.74724e-23
6.43707e-23
2.32897e-23
1.51239e-23
6.47413e-24
5.74078e-24
1.14825e-23
9.11959e-24
9.2209e-24
7.14095e-24
3.07399e-24
1.1515e-24
3.4289e-25
7.26833e-26
1.40311e-26
2.44794e-27
7.76805e-28
2.5016e-27
1.78646e-26
1.02781e-25
9.33449e-25
1.04247e-23
9.55003e-23
1.27074e-21
1.29658e-20
1.38406e-19
4.58674e-19
1.0601e-18
1.3077e-18
8.92093e-19
3.66879e-19
7.46859e-20
5.67435e-23
3.32761e-22
2.19847e-22
1.08286e-22
3.79516e-23
1.55279e-23
1.76336e-23
2.1804e-23
1.57208e-23
1.3434e-23
7.31663e-24
2.75235e-24
8.21727e-25
2.56954e-25
4.69371e-26
8.74739e-27
2.8061e-27
7.2355e-27
3.85029e-26
3.61677e-25
3.00418e-24
2.91965e-23
4.89872e-22
6.05478e-21
7.21898e-20
6.98043e-19
6.00688e-18
1.78614e-17
2.48095e-17
2.78577e-17
1.41262e-17
3.79324e-18
2.86356e-19
5.44726e-22
1.51909e-21
1.43361e-21
6.08622e-22
2.58573e-22
8.26954e-23
3.23949e-23
3.70523e-23
3.84337e-23
2.45782e-23
1.5802e-23
5.95549e-24
2.36306e-24
6.6684e-25
1.68663e-25
2.48146e-26
6.86344e-27
1.78801e-26
9.18982e-26
8.88118e-25
7.19697e-24
9.68528e-23
1.68953e-21
3.01608e-20
4.16573e-19
5.44121e-18
3.7126e-17
1.8553e-16
4.55564e-16
5.1532e-16
3.38602e-16
1.29533e-16
1.31541e-17
9.67519e-19
1.02167e-17
2.32939e-21
6.79096e-21
7.04324e-21
3.97157e-21
1.92347e-21
6.29029e-22
1.50173e-22
6.71303e-23
5.33098e-23
5.39033e-23
3.24253e-23
1.58531e-23
5.57449e-24
1.79964e-24
4.91511e-25
1.16885e-25
2.71243e-26
3.51798e-26
2.87068e-25
1.59973e-24
1.92738e-23
1.68361e-22
3.73715e-21
1.2294e-19
2.27328e-18
3.29893e-17
2.76699e-16
1.53463e-15
4.88961e-15
9.89541e-15
1.02222e-14
4.74264e-15
0
1.24143e-16
1.47761e-15
6.15361e-18
7.43893e-17
1.03356e-20
1.55e-20
3.93247e-20
2.89783e-20
1.18418e-20
3.47224e-21
1.15307e-21
2.70716e-22
1.2516e-22
9.43482e-23
6.50846e-23
3.53913e-23
1.38535e-23
3.96982e-24
1.2882e-24
2.91475e-25
1.04259e-25
1.05954e-25
4.3879e-25
4.68888e-24
3.42626e-23
4.33954e-22
6.34905e-21
2.4126e-19
1.11832e-17
1.72919e-16
2.07415e-15
1.23706e-14
5.16912e-14
1.43134e-13
2.22415e-13
1.4819e-13
1.791e-14
1.01905e-13
1.17487e-14
1.12571e-13
1.1699e-13
1.10192e-15
9.74199e-15
2.42185e-17
5.27614e-16
1.78891e-20
1.19807e-19
1.43698e-19
1.11045e-19
7.55385e-20
2.73523e-20
9.58762e-21
1.99083e-21
3.73685e-22
1.82186e-22
1.28139e-22
7.53901e-23
3.14136e-23
1.15437e-23
3.20403e-24
9.05897e-25
2.96104e-25
3.28014e-25
1.35372e-24
7.56143e-24
7.97271e-23
6.96966e-22
1.05762e-20
3.33162e-19
1.76523e-17
9.88438e-16
1.25961e-14
8.90272e-14
4.85411e-13
1.61017e-12
3.42706e-12
3.50204e-12
6.28228e-13
3.88456e-12
7.5871e-13
1.03453e-13
9.40572e-13
9.66262e-13
6.5869e-15
7.96853e-14
2.42893e-16
3.45043e-15
1.01919e-19
5.59007e-19
3.82434e-19
4.38148e-19
3.41222e-19
1.80056e-19
6.66409e-20
1.57646e-20
2.39893e-21
6.19396e-22
2.20704e-22
1.32472e-22
7.0689e-23
2.21253e-23
7.04182e-24
2.67134e-24
9.10972e-25
8.38266e-25
2.56269e-24
1.67026e-23
1.5355e-22
1.28036e-21
1.61822e-20
4.35067e-19
2.59525e-17
1.36042e-15
7.91129e-14
7.55411e-13
3.54924e-12
1.5432e-11
4.00574e-11
6.18289e-11
1.9035e-11
8.66426e-11
4.89828e-12
2.86623e-11
6.84736e-12
8.4813e-13
7.96051e-12
7.8414e-12
4.96127e-14
6.08416e-13
1.08992e-15
2.41571e-14
8.87815e-19
2.5243e-18
1.52923e-18
2.32906e-18
1.2287e-18
8.60944e-19
3.64122e-19
9.57779e-20
1.99457e-20
3.62608e-21
6.81367e-22
2.85855e-22
1.514e-22
6.06413e-23
2.09015e-23
6.84224e-24
2.76208e-24
2.25401e-24
5.48872e-24
2.98733e-23
2.63634e-22
3.13216e-21
2.77316e-20
5.11859e-19
2.79428e-17
2.32051e-15
1.04876e-13
4.08958e-12
2.393e-11
1.10911e-10
3.87272e-10
8.02755e-10
3.6017e-10
1.43963e-09
1.49002e-10
6.92074e-10
4.3281e-11
2.43271e-10
5.6666e-11
6.50466e-12
6.29926e-11
5.94742e-11
3.52152e-13
4.36497e-12
6.40133e-15
1.5466e-13
3.59851e-18
7.51859e-18
1.03603e-17
8.85784e-18
5.55027e-18
3.07875e-18
1.62373e-18
6.11476e-19
1.56039e-19
2.59134e-20
4.7003e-21
7.80357e-22
2.75067e-22
1.34488e-22
4.44056e-23
2.05963e-23
8.08581e-24
5.99545e-24
1.1785e-23
5.84585e-23
4.23708e-22
5.18853e-21
5.89474e-20
7.15844e-19
2.8534e-17
2.37991e-15
2.18541e-13
6.01673e-12
1.62514e-10
6.29112e-10
2.7804e-09
7.75795e-09
5.07098e-09
1.7253e-08
2.87435e-09
1.08081e-08
1.20069e-09
5.25801e-09
3.4564e-10
1.85113e-09
4.34605e-10
4.66398e-11
4.63391e-10
4.21281e-10
2.3287e-12
2.9306e-11
3.65619e-14
9.19799e-13
1.02042e-17
1.76989e-17
2.60651e-17
3.36263e-17
2.22215e-17
1.32553e-17
8.82838e-18
3.04697e-18
8.54753e-19
1.71247e-19
3.03418e-20
4.72071e-21
9.91259e-22
2.74847e-22
1.4723e-22
5.53361e-23
3.2421e-23
2.00408e-23
2.91423e-23
1.08985e-22
7.82488e-22
7.08033e-21
9.62683e-20
1.21998e-18
2.67735e-17
2.32955e-15
2.18389e-13
1.68971e-11
2.57239e-10
5.05514e-09
1.58512e-08
5.64391e-08
5.26301e-08
1.53238e-07
3.7375e-08
1.20346e-07
2.07466e-08
7.43862e-08
8.67654e-09
3.60012e-08
2.54081e-09
1.2863e-08
3.08049e-09
3.13841e-10
3.17841e-09
2.79811e-09
1.42526e-11
1.83263e-10
1.87324e-13
5.05085e-12
3.75324e-17
9.80218e-17
7.30765e-17
1.08947e-16
9.98099e-17
5.87179e-17
4.57329e-17
1.71342e-17
3.99867e-18
1.07469e-18
1.94213e-19
2.9574e-20
4.20331e-21
1.10379e-21
3.7583e-22
2.38174e-22
1.24173e-22
6.09498e-23
1.00529e-22
2.16174e-22
1.34011e-21
1.31128e-20
1.73944e-19
2.34818e-18
3.04386e-17
1.58051e-15
2.20558e-13
1.77987e-11
6.53718e-10
7.31907e-09
7.73693e-08
3.35763e-07
4.09611e-07
1.05726e-06
3.62525e-07
1.02829e-06
2.45955e-07
7.61133e-07
1.34614e-07
4.59812e-07
5.68965e-08
2.2286e-07
1.71632e-08
8.14467e-08
2.01802e-08
1.97818e-09
2.03986e-08
1.74269e-08
8.12282e-11
1.074e-09
9.5252e-13
2.78482e-11
3.34162e-16
6.34014e-16
3.83144e-16
4.17447e-16
2.86238e-16
2.23412e-16
1.91195e-16
8.17973e-17
2.52748e-17
5.08328e-18
1.13907e-18
1.94177e-19
2.68183e-20
4.47168e-21
1.33752e-21
7.34488e-22
5.43701e-22
2.77557e-22
2.80185e-22
5.28421e-22
1.82405e-21
2.13357e-20
2.49847e-19
4.00611e-18
5.43117e-17
1.10323e-15
1.28954e-13
2.32347e-11
1.02893e-09
2.56789e-08
1.65648e-07
1.49968e-06
2.50183e-06
5.95021e-06
2.74653e-06
6.89237e-06
2.22308e-06
6.16562e-06
1.46045e-06
4.39419e-06
7.90239e-07
2.59581e-06
3.39408e-07
1.25774e-06
1.06321e-07
4.72239e-07
1.22516e-07
1.17232e-08
1.22229e-07
1.01844e-07
4.62135e-10
6.1629e-09
4.98943e-12
1.57159e-10
3.09268e-15
5.29792e-15
3.28683e-15
1.71554e-15
1.08087e-15
7.95006e-16
4.73236e-16
3.37832e-16
1.24351e-16
3.81132e-17
5.11817e-18
1.08868e-18
1.64529e-19
2.5349e-20
6.73499e-21
3.53079e-21
2.0916e-21
1.28643e-21
1.02377e-21
1.2329e-21
3.86903e-21
2.67876e-20
4.79246e-19
5.80773e-18
8.94491e-17
1.21831e-15
5.34281e-14
1.13291e-11
1.58937e-09
4.44869e-08
7.48673e-07
3.12426e-06
1.1043e-05
2.03878e-05
1.57781e-05
3.41457e-05
1.61183e-05
3.92809e-05
1.26783e-05
3.45928e-05
8.08837e-06
2.40867e-05
4.29435e-06
1.39407e-05
1.85912e-06
6.64566e-06
6.05135e-07
2.53458e-06
6.87916e-07
6.69952e-08
6.85092e-07
5.68663e-07
2.6907e-09
3.61023e-08
2.66875e-11
8.95493e-10
4.21078e-14
8.02473e-14
4.93809e-14
1.91078e-14
7.58396e-15
3.8558e-15
2.16433e-15
1.36632e-15
6.79364e-16
1.70192e-16
4.15159e-17
5.86995e-18
8.13661e-19
1.12263e-19
3.09128e-20
1.28732e-20
9.97632e-21
5.89646e-21
4.4215e-21
4.63024e-21
7.77331e-21
4.72971e-20
6.51568e-19
9.14635e-18
1.30244e-16
2.01148e-15
3.89174e-14
3.64024e-12
9.19365e-10
5.78079e-08
1.28568e-06
1.46304e-05
3.4477e-05
2.88031e-05
5.97506e-05
0.000101837
8.35466e-05
0.000153544
8.52279e-05
0.000183091
6.77443e-05
0.000167405
4.29226e-05
0.000120234
2.24507e-05
7.13443e-05
9.63616e-06
3.38032e-05
3.19625e-06
1.29325e-05
3.59528e-06
3.86025e-07
3.6221e-06
3.10481e-06
1.5858e-08
2.13083e-07
1.45491e-10
5.14935e-09
4.86793e-13
1.06066e-12
7.32539e-13
2.8436e-13
8.04462e-14
2.68973e-14
1.36271e-14
8.59509e-15
2.9727e-15
7.83094e-16
1.85885e-16
3.88711e-17
5.64815e-18
7.69496e-19
1.04638e-19
5.5882e-20
4.54414e-20
2.4737e-20
1.58735e-20
1.31241e-20
1.75125e-20
7.30692e-20
7.67937e-19
1.17333e-17
1.82284e-16
2.73886e-15
5.03663e-14
1.53181e-12
2.86478e-10
3.30472e-08
1.17283e-06
2.19754e-05
0.000175889
0.000141699
0.000229021
0.000243165
0.000353856
0.000317951
0.00048262
0.000337903
0.000550484
0.000291004
0.000537133
0.000195849
0.000447045
0.000109409
0.000296685
4.76507e-05
0.000155174
1.60197e-05
6.19573e-05
1.78248e-05
2.19134e-06
1.80618e-05
1.59109e-05
9.37597e-08
1.24399e-06
8.02889e-10
2.93368e-08
4.28962e-12
1.09786e-11
8.97583e-12
3.96075e-12
1.13197e-12
2.80014e-13
9.81145e-14
5.12751e-14
1.70058e-14
3.65137e-15
7.74853e-16
1.59468e-16
3.26264e-17
4.60928e-18
5.94977e-19
2.50082e-19
1.74982e-19
9.81383e-20
5.37908e-20
5.50124e-20
5.00897e-20
1.23064e-19
1.0435e-18
1.36293e-17
2.26226e-16
3.87807e-15
6.66903e-14
1.31907e-12
7.87475e-11
1.83494e-08
9.28707e-07
2.02393e-05
0.000213481
0.000670979
0.000757785
0.000469486
0.000582444
0.00065961
0.000842725
0.000782312
0.00101809
0.000814807
0.00110097
0.000756188
0.00108602
0.00061838
0.000980206
0.000412932
0.000796122
0.000204711
0.000536181
7.40928e-05
0.000249979
8.0629e-05
1.16935e-05
8.06409e-05
7.14972e-05
5.40476e-07
6.89676e-06
4.39445e-09
1.61447e-07
2.55299e-11
8.04572e-11
8.28573e-11
4.44293e-11
1.49345e-11
3.70813e-12
9.65433e-13
3.16793e-13
9.20095e-14
2.01938e-14
3.67437e-15
7.61995e-16
1.42554e-16
2.55049e-17
4.14007e-18
7.89036e-19
6.38477e-19
3.95907e-19
2.6772e-19
1.58056e-19
1.37028e-19
2.41523e-19
1.06124e-18
1.63619e-17
2.7678e-16
5.00364e-15
9.92907e-14
1.58464e-12
3.87038e-11
4.46786e-09
5.419e-07
1.82227e-05
0.00019889
0.000815023
0.000852741
0.00128072
0.00137505
0.00101222
0.00115972
0.00124364
0.001457
0.00137789
0.0016395
0.0014128
0.0017258
0.00135249
0.00171624
0.00120879
0.00161846
0.000980354
0.00143982
0.000657499
0.00116446
0.000284662
0.00075938
0.000302635
5.32698e-05
0.000299245
0.000262038
2.94914e-06
3.19708e-05
2.26425e-08
8.33724e-07
8.15723e-11
3.39524e-10
5.25609e-10
3.67627e-10
1.58551e-10
4.91723e-11
1.13843e-11
2.10946e-12
4.71097e-13
1.03374e-13
1.96366e-14
3.40098e-15
5.86981e-16
1.11453e-16
1.84867e-17
4.65521e-18
2.39483e-18
1.65092e-18
1.16084e-18
7.16099e-19
6.5105e-19
6.49054e-19
1.39843e-18
1.70065e-17
3.12223e-16
5.28441e-15
1.18537e-13
2.38657e-12
3.90248e-11
1.43751e-09
1.96628e-07
1.27041e-05
0.000197341
0.000850063
0.000786253
0.00144174
0.0014711
0.00191259
0.00199722
0.001642
0.00179444
0.00187695
0.00209208
0.00201483
0.00227665
0.00205908
0.00237252
0.00201402
0.00238234
0.00189096
0.0023136
0.00167761
0.00216749
0.00134076
0.00191301
0.000833877
0.0014954
0.000871137
0.000194792
0.000845412
0.000731536
1.41456e-05
0.000120947
1.12027e-07
4.08841e-06
1.3026e-10
7.29563e-10
1.54154e-09
2.05227e-09
1.24002e-09
5.716e-10
1.20539e-10
1.66393e-11
2.6119e-12
5.1159e-13
9.94512e-14
1.72001e-14
2.21093e-15
4.12571e-16
8.26457e-17
2.02642e-17
9.35836e-18
5.68367e-18
4.1456e-18
2.04229e-18
1.8462e-18
2.07429e-18
2.48752e-18
1.99683e-17
3.02327e-16
5.23084e-15
1.19729e-13
2.67499e-12
5.0138e-11
1.06659e-09
6.01694e-08
6.17832e-06
0.000169549
0.00110569
0.00147224
0.00153199
0.00204985
0.00205178
0.00249043
0.00249523
0.00226773
0.00240027
0.00250045
0.00268904
0.00264668
0.00287595
0.00271221
0.00299247
0.00270069
0.00304046
0.00262122
0.00302259
0.00245019
0.00293255
0.00213767
0.00272703
0.00161794
0.00234029
0.00168671
0.00055757
0.00167842
0.00154907
5.65457e-05
0.000367068
4.92741e-07
1.5664e-05
7.32389e-10
2.8629e-09
5.22165e-09
6.20728e-09
4.05841e-09
9.68817e-10
1.34393e-10
1.6553e-11
2.60236e-12
4.81163e-13
8.33289e-14
1.21367e-14
1.64781e-15
3.0139e-16
7.74212e-17
3.06732e-17
1.76677e-17
1.16227e-17
8.3702e-18
5.21376e-18
5.60067e-18
8.35202e-18
3.08387e-17
3.43003e-16
5.10066e-15
1.15675e-13
2.63309e-12
5.36639e-11
1.01726e-09
3.0697e-08
2.48541e-06
9.67112e-05
0.000921804
0.00193553
0.00185617
0.00203414
0.00199749
0.00246467
0.00240094
0.00278863
0.00268798
0.00282172
0.0028349
0.00305017
0.00314098
0.00321481
0.00337247
0.00332043
0.00353065
0.00336466
0.00363991
0.00334956
0.00369267
0.00324433
0.00367722
0.00298923
0.0035446
0.00249852
0.00322327
0.00259422
0.00128002
0.00259668
0.00246541
0.000176825
0.000852743
1.8985e-06
4.68072e-05
2.25156e-09
9.00004e-09
1.48761e-08
1.85526e-08
6.26e-09
9.80516e-10
1.22826e-10
1.5203e-11
2.33133e-12
3.72664e-13
4.71433e-14
5.28082e-15
7.73357e-16
2.85228e-16
1.1777e-16
6.69853e-17
4.16513e-17
2.38387e-17
1.5299e-17
1.7615e-17
1.38287e-17
3.86084e-17
3.18394e-16
4.84516e-15
1.05753e-13
2.45078e-12
5.25191e-11
9.94512e-10
2.2035e-08
1.0274e-06
4.38291e-05
0.000652184
0.00177374
0.00159482
0.00217832
0.00211923
0.00232423
0.00225127
0.00257415
0.00246049
0.0028343
0.00264747
0.0031041
0.00299673
0.00341291
0.00333868
0.00366912
0.00366843
0.0038347
0.0039439
0.00395599
0.00413022
0.0040201
0.00426828
0.00399758
0.00433941
0.00382512
0.0042959
0.00340629
0.00407078
0.00351572
0.00217269
0.00352629
0.0034417
0.00284563
0.000444765
0.00161595
3.21196e-06
7.97901e-05
6.46036e-09
2.4549e-08
3.94933e-08
3.05108e-08
6.08398e-09
8.41285e-10
9.65198e-11
1.18591e-11
1.58085e-12
1.92444e-13
1.97884e-14
2.76258e-15
6.8252e-16
3.61833e-16
2.36255e-16
1.17654e-16
7.84851e-17
5.266e-17
3.80005e-17
4.01658e-17
5.50999e-17
3.76948e-16
4.80316e-15
9.64062e-14
2.13033e-12
4.78771e-11
9.58535e-10
1.89493e-08
5.51816e-07
2.06401e-05
0.000425103
0.00168266
0.00203271
0.00201808
0.00219062
0.00213825
0.00235424
0.00226452
0.00244902
0.00226705
0.00262349
0.00230567
0.00317235
0.00292677
0.00356838
0.00334848
0.00392272
0.0037962
0.00420826
0.00417023
0.00441829
0.00446473
0.00457209
0.00469673
0.00464232
0.00486021
0.00456588
0.00490954
0.00425606
0.00473675
0.00450322
0.00395945
0.00434546
0.00329667
0.00243804
0.00315524
0.00391019
0.00437941
0.00433655
0.00385994
0.000461293
0.00109449
0.00288667
0.00260048
0.0017891
2.48174e-06
0.000642023
5.1273e-05
0.000292114
1.6603e-08
6.02978e-08
7.68899e-08
2.90411e-08
4.74451e-09
5.65117e-10
6.17086e-11
6.82739e-12
7.52246e-13
7.59287e-14
8.35408e-15
2.07688e-15
1.12232e-15
9.15399e-16
4.6435e-16
2.90271e-16
1.48764e-16
1.08168e-16
1.0397e-16
1.35507e-16
4.4031e-16
4.9059e-15
9.19326e-14
1.88581e-12
4.06113e-11
8.67247e-10
1.68821e-08
3.97898e-07
1.08502e-05
0.000258225
0.00142722
0.00201874
0.00194116
0.00208792
0.0020595
0.00195499
0.00192541
0.0021207
0.00201722
0.00201689
0.00179039
0.00213486
0.00171867
0.0030054
0.00258345
0.00352499
0.0031131
0.00402442
0.00372604
0.00441071
0.00425003
0.0047161
0.00464601
0.00496541
0.00495962
0.00497105
0.00504911
0.00510446
0.00513682
0.00491368
0.00506698
0.00514011
0.00525236
0.00517353
0.00479261
0.00463688
0.00490498
0.00500282
0.00468855
0.00374543
0.00356018
0.00433573
0.00472809
0.00472605
0.00426951
0.00138106
0.00331091
0.00297137
0.00217521
8.05035e-06
8.0562e-05
0.000884017
0.000414175
4.11064e-08
1.29446e-07
8.60071e-08
2.11522e-08
2.85255e-09
3.152e-10
3.14067e-11
3.00039e-12
2.81492e-13
3.10804e-14
7.54331e-15
3.071e-15
2.81642e-15
1.90965e-15
1.046e-15
4.42222e-16
3.23763e-16
2.68221e-16
3.07293e-16
6.54755e-16
5.73141e-15
9.16853e-14
1.75757e-12
3.49711e-11
7.24797e-10
1.45652e-08
2.98393e-07
6.9763e-06
0.000146269
0.00109522
0.00191156
0.00193747
0.00193987
0.00191743
0.00192318
0.00153258
0.00154307
0.00163875
0.00155677
0.00138943
0.00117639
0.00149031
0.00102751
0.00260553
0.0020393
0.00328203
0.00272993
0.00394364
0.00350427
0.00446974
0.0041647
0.00487318
0.00468225
0.00514631
0.0051304
0.00509392
0.00502045
0.00520653
0.00523969
0.00524543
0.00515374
0.00525806
0.00529692
0.00535582
0.00532118
0.0050918
0.00495507
0.00515202
0.00522729
0.00500096
0.00414753
0.00396417
0.00469959
0.00502328
0.00502281
0.00463259
0.00169307
0.00370392
0.00334862
0.00253561
0.000185284
0.000127393
2.23945e-06
2.8481e-05
0.00113634
0.000576073
9.29654e-08
1.79791e-07
7.31239e-08
1.20815e-08
1.44559e-09
1.44118e-10
1.25998e-11
1.07567e-12
1.27091e-13
3.0842e-14
1.40039e-14
9.479e-15
7.73268e-15
3.57989e-15
1.80658e-15
1.08651e-15
1.11533e-15
8.47756e-16
1.59637e-15
7.3964e-15
9.65207e-14
1.72477e-12
3.22396e-11
6.0684e-10
1.19585e-08
2.31048e-07
4.11659e-06
8.03353e-05
0.000740183
0.00180748
0.00181428
0.00186056
0.00170013
0.0017684
0.00157715
0.0016359
0.00106305
0.00111915
0.00106919
0.00104409
0.000729776
0.00059373
0.000831319
0.000478034
0.00209734
0.00141756
0.0029505
0.00230713
0.00374495
0.00322224
0.00437675
0.00397152
0.00493614
0.00481342
0.00467428
0.00449633
0.00522746
0.00518473
0.00511606
0.00502022
0.00531919
0.00531835
0.00529726
0.00531049
0.0053576
0.00536781
0.00538681
0.00538056
0.00527282
0.00519294
0.00529685
0.00533716
0.00521612
0.00451759
0.0043394
0.00499703
0.00522597
0.00522525
0.00494014
0.00200771
0.00407894
0.00371422
0.00288872
0.000750378
0.000239696
3.22018e-06
3.40093e-05
0.00139544
1.73946e-07
1.79649e-07
4.38658e-08
5.87502e-09
6.16873e-10
5.34241e-11
4.37675e-12
5.63865e-13
1.45233e-13
6.95755e-14
4.26692e-14
2.55848e-14
1.51731e-14
7.96612e-15
4.88505e-15
4.22309e-15
2.79717e-15
3.77827e-15
1.21436e-14
1.15616e-13
1.77866e-12
3.13456e-11
5.59901e-10
9.84391e-09
1.88291e-07
2.31048e-06
4.4806e-05
0.000469949
0.00159683
0.00185665
0.00162244
0.00170175
0.0014155
0.00152256
0.00120734
0.00130901
0.000670826
0.000775737
0.000571315
0.000598537
0.00030325
0.000240104
0.000521377
0.000289595
0.00159047
0.000949369
0.00261234
0.00193475
0.0034814
0.00292307
0.00431072
0.00408845
0.00386798
0.0036114
0.0048984
0.00474592
0.00456847
0.00436606
0.00525377
0.00518414
0.00508508
0.00495567
0.00536253
0.00533998
0.00529394
0.00536913
0.00537937
0.00537669
0.00535027
0.00537254
0.00534442
0.00530663
0.0053379
0.00535811
0.0053089
0.00484139
0.00467949
0.00521104
0.00530995
0.00530992
0.00517491
0.00232055
0.00442881
0.00406436
0.00323402
0.0016507
0.000912004
0.000289357
7.72176e-06
6.25359e-05
2.57891e-07
1.35804e-07
2.1533e-08
2.4374e-09
2.17833e-10
1.8516e-11
2.71662e-12
7.68026e-13
3.86164e-13
2.32635e-13
1.31044e-13
7.04989e-14
3.79257e-14
2.2685e-14
1.81252e-14
1.40588e-14
1.29343e-14
2.8194e-14
1.66467e-13
2.04329e-12
3.21147e-11
5.42584e-10
9.00216e-09
1.58573e-07
1.85481e-06
2.71717e-05
0.000302048
0.00131513
0.00186159
0.00162854
0.00173059
0.0014098
0.00152628
0.00115448
0.0012846
0.000895307
0.0010233
0.000412191
0.00053148
0.000247004
0.000307665
0.000171412
0.00011658
0.000466921
0.000276561
0.00130565
0.0008026
0.00231466
0.00175788
0.00314951
0.00263534
0.00414904
0.00391721
0.00367916
0.0034347
0.00479696
0.00461057
0.0044015
0.00417639
0.0052201
0.00511611
0.00497991
0.00481246
0.00534759
0.00529586
0.00521677
0.00534666
0.00531911
0.00531222
0.00523062
0.00528105
0.00532477
0.00532083
0.00527393
0.00528281
0.00530192
0.00510497
0.00497581
0.00531115
0.00529038
0.00529732
0.00530953
0.00262693
0.00474987
0.00439593
0.00356816
0.00189194
0.00105518
0.000386077
2.66866e-05
0.000135901
2.85674e-07
7.12975e-08
8.99433e-09
8.47441e-10
7.96925e-11
1.38638e-11
4.38081e-12
2.25422e-12
1.28964e-12
7.00261e-13
3.57127e-13
1.87099e-13
1.09575e-13
7.99373e-14
7.06448e-14
4.8375e-14
8.37456e-14
3.09477e-13
2.74532e-12
3.60451e-11
5.53589e-10
8.51422e-09
1.21623e-07
1.29552e-06
1.87179e-05
0.000203214
0.0010241
0.00182807
0.00177986
0.00146998
0.00157078
0.00121512
0.00134676
0.000938277
0.00107803
0.000661497
0.000798349
0.000241176
0.000351781
0.000109571
0.000149717
0.000160227
9.3201e-05
0.000612157
0.000422378
0.00124552
0.000850578
0.00216971
0.00177087
0.00305704
0.00284413
0.00250355
0.00267051
0.00394472
0.00371199
0.0034808
0.00325907
0.00461783
0.00440272
0.00417667
0.00395009
0.00510606
0.00496192
0.00478592
0.00458454
0.00525354
0.00516779
0.00504956
0.00522949
0.00516952
0.00516273
0.00502409
0.00510274
0.00519678
0.00521855
0.0050994
0.00510919
0.00517294
0.00528365
0.00520961
0.005322
0.00515242
0.00517277
0.00535722
0.00292255
0.0050353
0.00470835
0.00388937
0.00211862
0.0012265
0.000543317
6.36801e-05
0.000235239
1.98553e-07
3.11078e-08
3.18218e-09
3.56208e-10
7.37741e-11
2.62825e-11
1.35768e-11
7.33298e-12
3.77795e-12
1.8478e-12
9.22813e-13
5.24424e-13
3.71178e-13
3.48033e-13
1.98875e-13
2.85836e-13
7.38299e-13
4.5785e-12
4.66393e-11
6.02453e-10
8.71563e-09
1.09419e-07
1.27536e-06
1.65522e-05
0.000147196
0.000765004
0.00171811
0.00188581
0.0015388
0.00165301
0.00130467
0.00142589
0.00103464
0.00117267
0.000751255
0.000893286
0.000476755
0.00061131
0.000106673
0.000194351
6.05659e-05
6.40677e-05
0.000238206
0.000108218
0.00103715
0.000758509
0.00145166
0.00123693
0.00236323
0.00223462
0.00222597
0.00304048
0.00290524
0.00270123
0.00279461
0.0037337
0.00353621
0.00335848
0.00319181
0.00436858
0.00415043
0.0039462
0.00377101
0.00489749
0.00471563
0.00451441
0.00430931
0.00506989
0.00494537
0.00478901
0.00502048
0.00493372
0.00492499
0.00474307
0.00484385
0.00496953
0.00500668
0.00482657
0.00484434
0.0049387
0.00538299
0.00536952
0.00523806
0.00491707
0.00496242
0.00533844
0.00320594
0.00526848
0.00499573
0.00419583
0.00234988
0.00143028
0.000719235
6.62411e-05
0.000266472
9.51454e-08
1.17213e-08
1.68366e-09
4.14344e-10
1.64763e-10
8.36658e-11
4.2604e-11
2.07553e-11
9.69289e-12
4.5842e-12
2.4626e-12
1.6787e-12
1.63257e-12
8.32747e-13
1.02414e-12
2.08636e-12
9.39102e-12
7.50318e-11
7.57801e-10
9.24643e-09
1.25364e-07
1.29076e-06
1.2067e-05
0.000113402
0.000567942
0.00154253
0.00192377
0.00173181
0.00138117
0.00148537
0.00112889
0.00125872
0.000852025
0.000992539
0.0005691
0.000709899
0.000306551
0.000433313
3.92633e-05
7.11427e-05
5.14304e-05
3.20506e-05
0.000435891
0.000183436
0.00161584
0.00120053
0.00209193
0.00190467
0.00262321
0.00254756
0.00294918
0.00286255
0.00323541
0.00318185
0.00309592
0.00313684
0.00362374
0.00349546
0.00338726
0.00330256
0.0041196
0.00396489
0.00384721
0.00376278
0.00460937
0.00442263
0.00425138
0.0041154
0.00479927
0.00464874
0.00448809
0.00473355
0.00463548
0.00462632
0.00444997
0.00454141
0.00465791
0.00470205
0.004483
0.00452014
0.0046224
0.00543347
0.005477
0.00508116
0.00461379
0.00470107
0.00525962
0.00348113
0.00544865
0.0052517
0.00448784
0.00258686
0.00163488
0.000816709
2.65327e-05
0.0002019
4.10131e-08
8.41333e-09
2.56406e-09
1.10026e-09
5.2911e-10
2.53051e-10
1.15997e-10
5.15717e-11
2.30284e-11
1.15004e-11
7.33352e-12
6.26429e-12
3.74934e-12
3.67055e-12
6.38712e-12
2.25522e-11
1.49429e-10
1.20517e-09
1.14983e-08
1.24703e-07
1.11435e-06
1.0212e-05
9.05036e-05
0.000448801
0.0013614
0.0019176
0.00186416
0.00143131
0.00155373
0.00119615
0.00131591
0.000932477
0.00106713
0.000653379
0.000793976
0.00037751
0.000513517
0.000142357
0.000251525
1.70677e-05
2.34396e-05
6.03435e-05
2.49913e-05
0.000724862
0.000319515
0.00212175
0.00160816
0.00277263
0.00263228
0.00254972
0.00305376
0.00300512
0.00335289
0.00323211
0.0036686
0.00365941
0.00359334
0.00363484
0.00370991
0.00368261
0.00367294
0.00367051
0.00402664
0.00399414
0.00400105
0.00403907
0.00434028
0.00422623
0.0041761
0.0041797
0.00450048
0.00438306
0.00430647
0.00441647
0.00434036
0.00436809
0.00427621
0.00428657
0.00431428
0.00434566
0.00413549
0.00420379
0.00427401
0.00544932
0.00556713
0.00489239
0.00430109
0.00445524
0.00515881
0.00374781
0.00559645
0.00547197
0.00476862
0.00281196
0.00178778
0.000772533
5.29235e-06
9.43266e-05
4.03893e-08
1.68642e-08
7.85564e-09
3.50441e-09
1.54149e-09
6.61486e-10
2.77489e-10
1.16926e-10
5.38512e-11
3.13868e-11
2.46949e-11
1.76545e-11
1.30133e-11
2.02725e-11
6.00478e-11
3.51774e-10
2.4318e-09
1.81096e-08
1.64191e-07
1.22427e-06
1.00196e-05
8.16455e-05
0.000375582
0.00119201
0.00188911
0.001953
0.00160904
0.00122658
0.00133183
0.000979339
0.00110639
0.000709137
0.000846002
0.000434084
0.000571014
0.00018108
0.000302492
4.54424e-05
9.2186e-05
1.19237e-05
8.94881e-06
9.79475e-05
2.63105e-05
0.00103484
0.000499824
0.00251144
0.00222071
0.00191975
0.00309122
0.00293464