/*--------------------------------*- C++ -*----------------------------------*\
  =========                 |
  \\      /  F ield         | OpenFOAM: The Open Source CFD Toolbox
   \\    /   O peration     | Website:  https://openfoam.org
    \\  /    A nd           | Version:  dev
     \\/     M anipulation  |
\*---------------------------------------------------------------------------*/
FoamFile
{
    version     2.0;
    format      ascii;
    class       volScalarField;
    location    "2500";
    object      G;
}
// * * * * * * * * * * * * * * * * * * * * * * * * * * * * * * * * * * * * * //

dimensions      [1 0 -3 0 0 0 0];

internalField   nonuniform List<scalar> 
9842
(
4079.42
4085.38
4086.89
4090.58
4092.86
4095.14
4095.03
4098.07
4101.13
4104.19
4098.73
4102.53
4106.35
4110.19
4114.05
4101.7
4106.23
4110.8
4115.41
4120.06
4124.74
4103.95
4109.19
4114.49
4119.85
4125.28
4130.76
4136.27
4105.5
4111.43
4117.43
4123.51
4129.69
4135.96
4142.3
4148.68
4106.38
4112.97
4119.64
4126.42
4133.32
4140.35
4147.48
4154.71
4161.99
4106.59
4113.82
4121.15
4128.59
4136.18
4143.92
4151.83
4159.87
4168.02
4176.24
4106.18
4114.02
4121.95
4130.03
4138.28
4146.71
4155.34
4164.16
4173.15
4182.27
4191.47
4105.16
4113.57
4122.1
4130.77
4139.64
4148.72
4158.04
4167.59
4177.38
4187.36
4197.5
4207.73
4103.57
4112.53
4121.6
4130.84
4140.29
4149.98
4159.94
4170.18
4180.71
4191.51
4202.54
4213.75
4225.08
4101.43
4110.9
4120.49
4130.26
4140.25
4150.51
4161.07
4171.95
4183.17
4194.72
4206.59
4218.73
4231.09
4243.57
4098.78
4108.73
4118.8
4129.06
4139.55
4150.34
4161.45
4172.92
4184.78
4197.03
4209.66
4222.67
4235.99
4249.56
4263.29
4095.65
4106.04
4116.56
4127.27
4138.23
4149.5
4161.12
4173.13
4185.56
4198.45
4211.79
4225.58
4239.8
4254.38
4269.25
4284.31
4092.07
4102.86
4113.8
4124.93
4136.32
4148.02
4160.1
4172.6
4185.56
4199.01
4212.99
4227.49
4242.51
4258.03
4273.97
4290.24
4306.73
4088.07
4099.24
4110.55
4122.06
4133.84
4145.95
4158.44
4171.37
4184.8
4198.76
4213.3
4228.44
4244.18
4260.52
4277.43
4294.83
4312.62
4330.65
4083.68
4095.19
4106.85
4118.71
4130.84
4143.31
4156.17
4169.49
4183.32
4197.73
4212.76
4228.45
4244.83
4261.9
4279.66
4298.07
4317.06
4336.49
4356.22
4078.94
4090.76
4102.73
4114.91
4127.35
4140.14
4153.32
4166.98
4181.18
4195.97
4211.42
4227.58
4244.51
4262.21
4280.72
4300.01
4320.05
4340.75
4361.98
4383.55
4073.87
4085.97
4098.22
4110.68
4123.41
4136.47
4149.95
4163.9
4178.4
4193.52
4209.32
4225.88
4243.26
4261.5
4280.64
4300.68
4321.64
4343.45
4366.04
4389.23
4412.84
4068.5
4080.86
4093.36
4106.06
4119.04
4132.35
4146.07
4160.27
4175.03
4190.42
4206.52
4223.41
4241.15
4259.82
4279.47
4300.15
4321.87
4344.63
4368.39
4393.04
4418.41
4444.26
4062.87
4075.45
4088.17
4101.1
4114.29
4127.81
4141.74
4156.15
4171.13
4186.74
4203.07
4220.21
4238.24
4257.24
4277.29
4298.47
4320.82
4344.36
4369.1
4394.99
4421.92
4449.7
4478.04
4057
4069.78
4082.69
4095.8
4109.18
4122.88
4136.99
4151.57
4166.72
4182.5
4199.01
4216.34
4234.58
4253.83
4274.18
4295.73
4318.55
4342.72
4368.24
4395.15
4423.4
4452.86
4483.32
4514.45
4050.92
4063.86
4076.94
4090.22
4103.75
4117.61
4131.86
4146.58
4161.85
4177.76
4194.4
4211.86
4230.25
4249.66
4270.21
4292
4315.16
4339.77
4365.91
4393.62
4422.92
4453.78
4486.07
4519.54
4553.88
4044.65
4057.74
4070.96
4084.37
4098.03
4112.01
4126.37
4141.2
4156.57
4172.57
4189.29
4206.82
4225.29
4244.79
4265.45
4287.39
4310.74
4335.63
4362.19
4390.49
4420.59
4452.54
4486.32
4521.78
4558.71
4596.71
4038.22
4051.43
4064.76
4078.29
4092.06
4106.13
4120.58
4135.48
4150.91
4166.96
4183.72
4201.29
4219.78
4239.3
4259.99
4281.98
4305.41
4330.42
4357.19
4385.87
4416.54
4449.3
4484.2
4521.25
4560.35
4601.23
4643.31
4031.65
4044.96
4058.39
4072
4085.85
4100
4114.51
4129.45
4144.92
4160.98
4177.74
4195.3
4213.76
4233.25
4253.9
4275.85
4299.25
4324.27
4351.09
4379.9
4410.89
4444.18
4479.88
4518.09
4558.87
4602.12
4647.46
4694.24
4024.97
4038.34
4051.85
4065.53
4079.44
4093.64
4108.19
4123.16
4138.63
4154.68
4171.41
4188.91
4207.3
4226.71
4247.25
4269.08
4292.36
4317.27
4344
4372.77
4403.81
4437.34
4473.52
4512.5
4554.48
4599.52
4647.45
4697.88
4750.08
4018.18
4031.62
4045.17
4058.9
4072.85
4087.08
4101.65
4116.62
4132.07
4148.09
4164.75
4182.18
4200.46
4219.72
4240.11
4261.76
4284.84
4309.54
4336.06
4364.63
4395.5
4428.96
4465.29
4504.69
4547.39
4593.64
4643.48
4696.77
4753.13
4811.63
4011.31
4024.79
4038.38
4052.14
4066.11
4080.35
4094.92
4109.87
4125.28
4141.24
4157.82
4175.13
4193.27
4212.37
4232.54
4253.96
4276.77
4301.17
4327.37
4355.61
4386.16
4419.32
4455.43
4494.85
4537.86
4584.78
4635.84
4691.16
4750.67
4813.96
4879.89
4004.37
4017.88
4031.5
4045.27
4059.24
4073.48
4088.02
4102.94
4118.3
4134.17
4150.65
4167.83
4185.8
4204.69
4224.62
4245.75
4268.23
4292.26
4318.06
4345.85
4375.93
4408.61
4444.25
4483.28
4526.14
4573.23
4624.86
4681.39
4743.04
4809.81
4881.26
4955.95
3997.39
4010.9
4024.53
4038.3
4052.27
4066.48
4080.98
4095.85
4111.13
4126.91
4143.27
4160.29
4178.07
4196.74
4216.4
4237.2
4259.32
4282.92
4308.23
4335.48
4364.97
4397.01
4431.98
4470.32
4512.57
4559.3
4610.93
4667.9
4730.71
4799.69
4875.03
4956.19
5041.28
3990.37
4003.87
4017.5
4031.27
4045.21
4059.38
4073.83
4088.63
4103.82
4119.49
4135.7
4152.55
4170.13
4188.55
4207.92
4228.38
4250.09
4273.22
4297.99
4324.63
4353.42
4384.7
4418.84
4456.28
4497.56
4543.39
4594.42
4651.15
4714.19
4784.23
4861.79
4947.45
5040.16
5112.14
5113.91
3983.34
3996.81
4010.43
4024.17
4038.08
4052.2
4066.59
4081.31
4096.4
4111.94
4128
4144.66
4162.02
4180.17
4199.23
4219.33
4240.61
4263.24
4287.43
4313.4
4341.43
4371.84
4405
4441.37
4481.48
4526.02
4575.8
4631.58
4694.07
4764.08
4842.51
4930.11
5028.63
5112.67
5108.18
5163.61
5165.15
3976.3
3989.74
4003.33
4017.03
4030.9
4044.97
4059.28
4073.91
4088.89
4104.29
4120.19
4136.65
4153.77
4171.64
4190.37
4210.09
4230.92
4253.04
4276.63
4301.9
4329.11
4358.58
4390.67
4425.83
4464.58
4507.59
4555.7
4609.8
4670.9
4739.93
4817.94
4906.23
4993.55
4980.77
5100.82
5033.47
5090.17
5163.25
5157.91
5218.73
5219.94
3969.28
3982.67
3996.21
4009.87
4023.68
4037.69
4051.92
4066.44
4081.3
4096.57
4112.29
4128.55
4145.43
4163.01
4181.4
4200.72
4221.09
4242.67
4265.64
4290.19
4316.57
4345.06
4376.02
4409.86
4447.1
4488.41
4534.57
4586.51
4645.39
4712.48
4788.95
4876.24
4966.52
4950.36
5019.92
5149.24
5076.79
5137.23
5217.31
5210.93
5277.9
5278.69
3962.29
3975.62
3989.1
4002.7
4016.45
4030.38
4044.53
4058.94
4073.67
4088.78
4104.33
4120.37
4137
4154.3
4172.35
4191.27
4211.18
4232.21
4254.54
4278.36
4303.88
4331.38
4361.17
4393.65
4429.3
4468.75
4512.77
4562.29
4618.41
4682.59
4756.39
4841.43
4932.95
4914.01
5004.01
4986.13
5061.26
5200.86
5122.28
5187.22
5275.21
5267.59
5341.52
5341.89
3955.32
3968.58
3982
3995.53
4009.21
4023.05
4037.11
4051.41
4066.01
4080.96
4096.32
4112.16
4128.53
4145.53
4163.25
4181.77
4201.21
4221.71
4243.41
4266.48
4291.13
4317.62
4346.24
4377.34
4411.37
4448.89
4490.65
4537.53
4590.61
4651.28
4721.32
4802.73
4894.04
4872.78
4966.76
4945.98
5043.4
5023.52
5104.78
5255.96
5170.37
5240.45
5337.38
5328.31
5410.13
5410.01
3948.4
3961.58
3974.93
3988.38
4001.97
4015.73
4029.68
4043.86
4058.33
4073.12
4088.3
4103.92
4120.04
4136.75
4154.12
4172.25
4191.23
4211.2
4232.27
4254.62
4278.42
4303.91
4331.34
4361.06
4393.46
4429.05
4468.5
4512.63
4562.46
4619.34
4684.96
4761.49
4850.7
4827.73
4923.97
4900.78
5002.05
4979.15
5084.79
5062.66
5150.69
5314.86
5221.4
5297.18
5404.32
5393.52
5484.24
5483.64
3941.52
3954.62
3967.89
3981.26
3994.76
4008.41
4022.26
4036.32
4050.64
4065.28
4080.27
4095.67
4111.55
4127.96
4145
4162.74
4181.27
4200.71
4221.18
4242.82
4265.8
4290.32
4316.61
4344.95
4375.72
4409.39
4446.55
4487.91
4534.41
4587.33
4648.24
4719.18
4804.36
4780.63
4876.63
4851.69
4954.96
4929.59
5038.87
5013.6
5128.34
5103.71
5199.21
5377.9
5275.56
5357.66
5476.65
5463.77
5564.63
5563.49
3934.7
3947.71
3960.89
3974.17
3987.58
4001.13
4014.85
4028.79
4042.97
4057.44
4072.24
4087.43
4103.06
4119.19
4135.9
4153.26
4171.36
4190.29
4210.16
4231.12
4253.29
4276.88
4302.08
4329.13
4358.33
4390.1
4424.98
4463.62
4506.82
4555.71
4611.78
4676.91
4756.85
4733.16
4826.31
4800.67
4903.23
4876.12
4987.01
4959.24
5077.29
5049.36
5174.23
5146.78
5250.51
5445.56
5333.06
5422.29
5554.93
5539.59
5652.1
5650.24
3927.94
3940.86
3953.95
3967.13
3980.44
3993.88
4007.48
4021.28
4035.32
4049.62
4064.23
4079.21
4094.59
4110.45
4126.83
4143.83
4161.5
4179.95
4199.26
4219.55
4240.96
4263.64
4287.79
4313.61
4341.36
4371.35
4404.04
4440.01
4479.97
4524.88
4576.12
4635.35
4709.61
4686.38
4775.02
4749.52
4848.59
4820.88
4930.46
4901
5020.12
4989.69
5117.36
5086.47
5222.54
5191.87
5304.75
5518.33
5394.26
5491.53
5639.86
5621.72
5747.74
5744.99
3921.25
3934.08
3947.07
3960.15
3973.35
3986.67
4000.15
4013.82
4027.7
4041.83
4056.26
4071.02
4086.16
4101.74
4117.82
4134.45
4151.72
4169.7
4188.47
4208.14
4228.83
4250.65
4273.79
4298.43
4324.8
4353.17
4383.84
4417.32
4454.21
4495.28
4541.69
4595.13
4663.39
4640.92
4724.29
4699.41
4793.23
4765.86
4871.17
4841.28
4958.31
4926.35
5054.28
5020.94
5159.12
5124.96
5273.32
5239.03
5362.19
5596.83
5459.56
5565.84
5732.55
5711.12
5852.81
5848.99
3914.64
3927.36
3940.25
3953.23
3966.32
3979.52
3992.88
4006.4
4020.13
4034.1
4048.33
4062.88
4077.78
4093.09
4108.87
4125.16
4142.03
4159.55
4177.81
4196.89
4216.9
4237.93
4260.13
4283.67
4308.72
4335.54
4364.38
4395.6
4429.69
4467.24
4509.12
4556.7
4618.77
4597.77
4674.93
4650.93
4738.87
4712.33
4811.6
4782.31
4894.17
4862.08
4986.83
4952.39
5089.58
5053.21
5202.63
5164.96
5326.78
5288.44
5423.17
5681.8
5529.27
5645.73
5834.07
5808.67
5968.78
5963.58
3908.09
3920.71
3933.5
3946.38
3959.35
3972.44
3985.66
3999.05
4012.62
4026.41
4040.46
4054.8
4069.46
4084.51
4099.99
4115.94
4132.43
4149.53
4167.3
4185.82
4205.17
4225.47
4246.81
4269.32
4293.17
4318.55
4345.68
4374.84
4406.41
4440.84
4478.72
4521.03
4569.65
4627.55
4604.98
4686.25
4660.69
4753.47
4725.12
4830.25
4798.81
4917.83
4883.26
5016.39
4979.34
5126.35
5087.02
5248.13
5206.93
5383.2
5340.49
5487.93
5774.05
5603.76
5731.92
5945.56
5915.47
6097.52
6090.56
3901.63
3914.15
3926.83
3939.6
3952.46
3965.42
3978.52
3991.76
4005.18
4018.8
4032.65
4046.78
4061.22
4076
4091.19
4106.82
4122.95
4139.63
4156.93
4174.92
4193.67
4213.26
4233.8
4255.39
4278.15
4302.22
4327.8
4355.08
4384.37
4415.99
4450.41
4488.22
4530.89
4589.27
4567.83
4635.89
4612.11
4697.32
4670.12
4767.89
4737.58
4848.99
4815.23
4942.04
4904.81
5047.23
5007.26
5165.14
5122.62
5296.28
5251.66
5443.07
5396.1
5557.04
5874.66
5683.92
5825.62
6068.65
6032.88
6241.44
6232.27
3895.25
3907.66
3920.24
3932.89
3945.64
3958.48
3971.44
3984.54
3997.8
4011.25
4024.92
4038.84
4053.05
4067.58
4082.48
4097.8
4113.57
4129.86
4146.72
4164.2
4182.38
4201.33
4221.12
4241.84
4263.61
4286.51
4310.7
4336.33
4363.59
4392.73
4424.06
4458
4495.76
4547.12
4527.88
4595.15
4572.75
4643.88
4618.9
4707.95
4679.04
4782.06
4749.57
4867.91
4831.51
4967.08
4926.88
5079.75
5036.62
5206.56
5160.8
5348.28
5300.23
5507.55
5456.94
5632.08
5984.89
5771.74
5928.97
6205.28
6162.39
6403.73
6391.77
3888.95
3901.25
3913.73
3926.27
3938.9
3951.62
3964.45
3977.41
3990.51
4003.79
4017.27
4030.99
4044.97
4059.25
4073.88
4088.89
4104.32
4120.23
4136.67
4153.68
4171.32
4189.65
4208.75
4228.68
4249.53
4271.38
4294.34
4318.5
4344.01
4371.02
4399.68
4430.24
4463.69
4509.37
4492.51
4551.53
4531.65
4600.29
4577.09
4651.28
4625.03
4717.84
4686.99
4795.72
4760.65
4886.9
4847.38
4993.09
4949.35
5114.47
5067.6
5251.75
5202.22
5405.81
5354.13
5578.84
5525.21
5716
6106.82
5870.74
6045.81
6358.21
6306.86
6587.91
6572.46
3882.81
3894.93
3907.3
3919.74
3932.25
3944.85
3957.55
3970.36
3983.31
3996.42
4009.72
4023.23
4036.99
4051.03
4065.38
4080.09
4095.2
4110.75
4126.78
4143.33
4160.47
4178.24
4196.7
4215.9
4235.91
4256.81
4278.65
4301.53
4325.51
4350.7
4377.16
4404.93
4434.5
4468.36
4512.9
4495.07
4555.38
4535.12
4604.17
4580.29
4657.54
4629.93
4726.45
4693.38
4808.49
4770.36
4905.73
4862.56
5020.06
4972.15
5151.71
5100.34
5301.54
5247.38
5470.51
5414.37
5659.91
5602.74
5812.55
6244.86
5985.46
6181.76
6530.98
6471.44
6797.46
6778.29
3888.77
3900.95
3913.28
3925.68
3938.16
3950.73
3963.41
3976.2
3989.15
4002.26
4015.57
4029.11
4042.91
4057
4071.42
4086.21
4101.41
4117.05
4133.18
4149.85
4167.09
4184.95
4203.48
4222.73
4242.76
4263.61
4285.34
4307.99
4331.61
4356.23
4381.8
4408.35
4438.03
4480.96
4465.12
4516.11
4498.1
4558.25
4537.87
4606.37
4582.06
4662.07
4633.03
4733.25
4697.71
4820.07
4778.43
4924.31
4876.97
5048.06
4995.31
5191.8
5135.04
5356.59
5296.72
5543.57
5481.83
5753.03
5691.02
5924.06
6406.02
6118.9
6340.56
6728.04
6663.1
7036.98
7014.65
3894.78
3906.92
3919.21
3931.57
3944.01
3956.55
3969.2
3981.97
3994.91
4008.02
4021.34
4034.9
4048.74
4062.88
4077.36
4092.22
4107.5
4123.23
4139.45
4156.19
4173.5
4191.41
4209.96
4229.2
4249.15
4269.86
4291.34
4313.61
4336.67
4360.45
4384.82
4411.06
4449.77
4435.73
4484.22
4468.38
4518.87
4501.03
4559.95
4539.7
4606.84
4582.32
4664.53
4634.22
4738.09
4700
4830.39
4784.89
4942.67
4890.66
5077.23
5018.96
5234.99
5171.88
5417.44
5350.55
5626.01
5557.09
5859.73
5790.73
6052.26
6596.95
6273.61
6459.94
6498.36
6956.14
6889.36
7310.95
7284.73
3900.73
3912.82
3925.07
3937.39
3949.79
3962.29
3974.91
3987.66
4000.58
4013.69
4027.02
4040.61
4054.48
4068.67
4083.21
4098.13
4113.47
4129.26
4145.54
4162.33
4179.66
4197.57
4216.09
4235.23
4255.03
4275.48
4296.59
4318.31
4340.57
4363.25
4386.9
4416.19
4453.28
4438.83
4487.12
4471.57
4520.98
4503.52
4560.35
4540.49
4605.59
4581.13
4665
4633.5
4741.25
4700.56
4839.69
4790.15
4960.97
4903.98
5107.69
5043.27
5281.48
5210.94
5484.21
5409.07
5718.38
5640.73
5981.9
5855.82
5895.6
6182.35
6143.18
6595.68
6781.5
6741.16
6423.79
6383.33
6259.01
6557.36
7174.78
7137.85
6896.52
7062.87
7103.99
7624.35
7313.32
7527.64
7500.03
3906.61
3918.66
3930.86
3943.13
3955.49
3967.95
3980.53
3993.26
4006.17
4019.28
4032.62
4046.22
4060.12
4074.35
4088.93
4103.9
4119.29
4135.12
4151.42
4168.22
4185.54
4203.4
4221.82
4240.8
4260.34
4280.42
4301
4321.99
4343.25
4364.95
4390.76
4428.36
4415.23
4456.68
4442.33
4489.51
4474.36
4522.29
4505.41
4559.62
4540.39
4603.07
4578.99
4663.73
4631.2
4743.1
4699.9
4848.43
4794.85
4979.53
4917.3
5139.57
5068.42
5331.36
5252.3
5560.05
5519.04
5477.64
5435.37
5816.32
5774.29
5598.53
5686.13
5731.25
5954.93
6105.02
6062.85
5914.03
6219.48
6701.95
6857.18
6517.25
6475.02
6342.63
6660.68
7280.36
7022.92
7202.25
7243.55
7976.61
7686.54
7467.47
7662.07
3912.43
3924.43
3936.58
3948.8
3961.11
3973.53
3986.08
3998.78
4011.67
4024.78
4038.12
4051.73
4065.65
4079.9
4094.51
4109.51
4124.92
4140.77
4157.08
4173.85
4191.11
4208.86
4227.11
4245.84
4265.03
4284.62
4304.52
4324.59
4344.8
4367.55
4397.3
4431.88
4418.59
4459.77
4445.63
4491.28
4476.55
4522.89
4506.65
4558.16
4539.71
4600.13
4576.64
4661.42
4628.15
4744.56
4699.02
4857.16
4799.8
4998.59
4931.11
5172.87
5094.46
5392.73
5349.87
5306.51
5263.34
5555.76
5511.69
5466.7
5871.41
5826.75
5640.29
5732.31
5780.3
6019.81
6177.94
6133.82
5975.27
6299.95
6814.97
6980.23
6617.13
6430.96
6571.37
6770.14
7432.71
7157.84
7349.5
7393.57
8048.01
7863.96
8277.99
8272.64
7631.11
7836.86
3918.19
3930.14
3942.24
3954.4
3966.66
3979.03
3991.53
4004.21
4017.07
4030.16
4043.49
4057.11
4071.04
4085.3
4099.93
4114.94
4130.36
4146.21
4162.48
4179.19
4196.34
4213.92
4231.93
4250.32
4269.05
4288.03
4307.09
4326.13
4346.52
4373.06
4408.57
4396.18
4434.83
4421.58
4462.29
4448.4
4492.33
4477.98
4522.91
4507.24
4556.52
4538.71
4597.79
4574.78
4659.11
4625.44
4746.61
4699.04
4866.56
4805.79
5018.43
4945.85
5220.13
5177.6
5135.31
5094.15
5421.37
5375.81
5329.95
5284.23
5594.06
5546.89
5498.91
5929.25
5881.29
5683.34
5780.1
5831.4
6087.5
6255.14
6207.88
6039.28
6384.69
6934.2
7110.48
6722.66
6523.43
6672.38
6885.02
7595.19
7300.81
7505.71
7553.4
8023.77
8252.85
8490.58
8484.99
7805.73
3923.88
3935.78
3947.81
3959.91
3972.11
3984.42
3996.88
4009.51
4022.35
4035.41
4048.74
4062.35
4076.28
4090.55
4105.18
4120.19
4135.6
4151.4
4167.61
4184.21
4201.19
4218.54
4236.23
4254.2
4272.36
4290.58
4308.7
4327.42
4350.74
4379.17
4411.16
4398.78
4437.02
4423.95
4464.02
4450.38
4492.55
4478.48
4522.4
4507.11
4554.95
4537.3
4596.66
4573.28
4658.16
4624.38
4750.16
4701.09
4877.06
4813.28
5053.61
5014.55
4976.25
4939.88
5238.83
5194.04
5149.92
5106.83
5450.69
5402.3
5353.76
5305.47
5633.62
5583.1
5531.88
5989.52
5937.82
5727.58
5829.12
5884.19
6158.02
6336.06
6284.93
6105.94
6473
7059.61
7248.02
6832.86
6619.6
6777.38
7005.09
7768.15
7452.15
7671
7723.26
7992.32
8226.39
8466.49
8716.94
8710.14
3929.51
3941.34
3953.29
3965.32
3977.44
3989.7
4002.11
4014.7
4027.5
4040.53
4053.84
4067.44
4081.36
4095.62
4110.25
4125.24
4140.6
4156.34
4172.44
4188.87
4205.63
4222.69
4239.98
4257.43
4274.91
4292.29
4309.85
4330.44
4356.42
4388.42
4376.94
4412.81
4400.5
4438.27
4425.41
4464.78
4451.38
4491.71
4477.86
4521.15
4506.06
4552.98
4534.99
4595.94
4571.37
4659.39
4624.79
4755.74
4705.24
4888.5
4822.22
5064.88
5024.21
4984.8
4946.92
5257.7
5210.68
5164.6
5119.71
5480.56
5429.2
5377.84
5326.89
5674.16
5620.06
5565.41
6051.98
5996.15
5772.71
5879.23
5938.48
6231.09
6419.96
6364.33
6174.72
6564.39
7191.18
7393.05
6947.2
6719.03
6885.87
7130.21
7952.35
7611.64
7845.59
7903.48
8192.52
8440.56
8691.25
8960.85
8953.17
3935.08
3946.81
3958.67
3970.61
3982.66
3994.85
4007.2
4019.74
4032.5
4045.5
4058.78
4072.36
4086.27
4100.52
4115.11
4130.06
4145.36
4161
4176.94
4193.16
4209.64
4226.32
4243.15
4259.98
4276.73
4293.48
4311.99
4335.4
4360.99
4389.8
4378.51
4413.53
4401.51
4438.45
4425.86
4464.41
4451.29
4489.56
4475.98
4518.73
4503.72
4550.12
4531.54
4595.04
4568.51
4662.17
4625.92
4762.97
4710.64
4915.93
4880.17
4813.7
4845.79
5076.19
5034.04
4993.31
4954
5276.67
5227.42
5179.36
5132.73
5510.8
5456.33
5402.03
5348.35
5715.4
5657.53
5599.24
6116.23
6055.95
5818.53
5930.01
5993.89
6306.06
6506.48
6445.85
6245.06
6658.34
7328.96
7545.63
7065.51
6821.33
6997.48
7260.27
8148.73
7779.35
8030.27
8094.68
8405.26
8666.39
8933.83
9226.87
9220.25
3940.53
3952.16
3963.92
3975.78
3987.76
3999.87
4012.16
4024.64
4037.35
4050.32
4063.56
4077.12
4090.99
4105.21
4119.76
4134.65
4149.86
4165.35
4181.1
4197.05
4213.2
4229.45
4245.74
4261.92
4278.05
4295.12
4316.08
4340.05
4368.2
4357.78
4390.27
4379.15
4413.33
4401.66
4437.54
4425.29
4462.84
4450.05
4486.1
4472.84
4515.03
4500.05
4545.95
4526.78
4593.16
4564.29
4665.65
4626.85
4783.11
4755.17
4715.37
4922.58
4885.8
4817.78
4850.83
5087.6
5043.96
5001.93
4961.44
5295.65
5244.15
5194.09
5145.73
5541.19
5483.49
5426.17
5369.73
5757.07
5695.22
5633.12
6181.73
6116.62
5864.7
5980.91
6049.7
6382.61
6594.91
6528.75
6316.55
6754.19
7473.18
7705.47
7187.77
6925.99
7111.94
7395.56
8357.78
7956.23
8226.18
8297.94
8630.64
8908.93
9200.85
9511.68
9508.4
3945.87
3957.39
3969.06
3980.82
3992.71
4004.75
4016.96
4029.38
4042.04
4054.95
4068.16
4081.68
4095.53
4109.7
4124.19
4139
4154.09
4169.41
4184.91
4200.56
4216.31
4232.09
4247.78
4263.39
4279.5
4298.4
4320.56
4343.01
4368.61
4358.47
4389.92
4379.13
4412.22
4400.95
4435.55
4423.74
4460.05
4447.64
4481.5
4468.55
4510.14
4495.24
4540.29
4520.61
4589.51
4558.58
4667.84
4625.89
4786.65
4757.58
4730.34
4704
4928.78
4890.98
4821.2
4855.14
5098.97
5053.76
5010.36
4968.68
5314.51
5260.75
5208.63
5158.39
5571.5
5510.48
5450.12
5390.89
5798.86
5732.83
5666.82
6248.02
6177.6
5910.9
6031.74
6105.48
6460.03
6684.54
6612.37
6388.58
6851.73
7623.79
7873.27
7314.22
7032.83
7229.57
7536.29
8580.04
8143.54
8434.49
8514.31
8871.5
9172.81
9490.85
9802.65
9803.88
3951.07
3962.49
3974.05
3985.72
3997.52
4009.47
4021.6
4033.95
4046.54
4059.41
4072.58
4086.05
4099.86
4113.98
4128.42
4143.12
4158.06
4173.16
4188.39
4203.68
4218.99
4234.24
4249.41
4264.83
4282.12
4302.52
4323.92
4348.58
4339.22
4368.25
4358.35
4388.78
4378.39
4410.23
4399.39
4432.58
4421.28
4456.16
4444.18
4475.99
4463.35
4504.04
4489.43
4533.34
4513.22
4584.04
4551.64
4678.83
4656.23
4622.18
4789.24
4759.15
4730.57
4703.3
4934.03
4895.07
4823.43
4858.25
5109.89
5063.06
5018.19
4975.17
5333.11
5276.97
5222.65
5170.35
5601.56
5537.19
5473.74
5411.6
5840.58
5770.23
5700.24
6314.56
6238.63
5957.14
6082.56
6161.21
6537.76
6775.32
6696.76
6460.64
6951.02
7781.81
8050.68
7445.07
7142.07
7350.81
7683.89
8816.91
8342.34
8656.59
8744.8
9130.45
9457.62
9792.09
10091.6
10095.7
3956.15
3967.45
3978.9
3990.47
4002.16
4014.02
4026.07
4038.34
4050.87
4063.68
4076.8
4090.25
4104.01
4118.08
4132.43
4147.01
4161.76
4176.61
4191.51
4206.39
4221.23
4236.01
4250.91
4266.99
4285.76
4305.99
4325.61
4348.38
4339.3
4367.27
4357.73
4386.92
4376.99
4407.42
4397.06
4428.79
4418
4451.34
4439.86
4469.66
4457.48
4496.83
4482.64
4525.44
4504.92
4587.83
4570.37
4543.47
4677.86
4654.33
4607.57
4628.27
4790.67
4759.82
4729.52
4701.68
4937.86
4897.69
4824.26
4859.87
5119.93
5071.32
5024.83
4980.34
5351.08
5292.34
5235.55
5180.95
5631.3
5563.44
5496.65
5431.35
5882.34
5807.5
5733.28
6381.09
6299.67
6003.37
6133.37
6216.95
6615.96
6867.29
6781.9
6533.02
7052.14
7948.92
8239.09
7581.9
7254.3
7477.36
7840.25
9069.74
8554.29
8893.69
8990.42
9407.34
9756.18
10092
10376.7
10380.7
3961.09
3972.26
3983.6
3995.05
4006.63
4018.39
4030.35
4042.54
4055.01
4067.77
4080.85
4094.25
4107.97
4121.99
4136.24
4150.67
4165.19
4179.74
4194.25
4208.69
4223.09
4237.6
4252.8
4270.12
4289.15
4308.16
4329.91
4321.42
4347.55
4338.7
4365.7
4356.55
4384.45
4374.99
4403.95
4394.1
4424.32
4414.02
4445.94
4434.93
4462.61
4451.06
4488.68
4474.97
4516.87
4495.92
4583.99
4565.95
4543.97
4529.33
4675.75
4651.39
4603.71
4624.92
4790.78
4759.28
4727.32
4699.15
4939.98
4898.69
4823.65
4859.96
5128.42
5077.92
5029.74
4983.76
5367.8
5306.15
5246.63
5189.48
5660.42
5588.77
5518.3
5449.43
5923.89
5844.35
5765.7
6447.78
6360.86
6049.31
6184.17
6272.91
6694.74
6960.66
6868.13
6605.69
7156.11
8126.51
8440.2
7727.05
7371.36
7611.38
8006.86
9338.83
8781.41
9146.97
9251.89
9698.7
10059.1
10382.2
10658.3
10660.9
3965.88
3976.92
3988.13
3999.46
4010.93
4022.58
4034.44
4046.55
4058.95
4071.66
4084.7
4098.08
4111.76
4125.7
4139.84
4154.09
4168.35
4182.54
4196.62
4210.63
4224.75
4239.35
4255.46
4273.28
4291.54
4308.77
4329.3
4321.08
4346.23
4337.71
4363.62
4354.86
4381.5
4372.5
4399.98
4390.64
4419.45
4409.58
4440.11
4429.61
4454.97
4444.17
4479.8
4466.61
4515.83
4504.21
4486.07
4579.3
4560.92
4538.83
4524.05
4672.81
4648.05
4599.24
4620.71
4789.55
4757.48
4724.05
4695.64
4940.27
4898.02
4821.61
4858.5
5134.78
5082.41
5032.55
4985.18
5382.49
5317.72
5255.32
5195.6
5688.49
5612.5
5537.81
5465.01
5964.84
5880.46
5797
6514.67
6422.12
6094.78
6234.32
6328.68
6774.29
7056.64
6956.35
6678.79
7264.26
8316.64
8656.53
7882.36
7494.71
7754.85
8185.94
9622.67
9025.7
9417.04
9528.74
9998.48
10357.5
10662.6
10939.2
10940.5
3970.51
3981.41
3992.49
4003.69
4015.03
4026.57
4038.33
4050.36
4062.7
4075.36
4088.38
4101.72
4115.37
4129.24
4143.25
4157.27
4171.2
4184.98
4198.63
4212.34
4226.44
4241.61
4258.29
4275.7
4292.64
4307.94
4328.2
4320.13
4344.49
4336.3
4361.13
4352.77
4378.18
4369.59
4395.81
4386.91
4414.29
4404.92
4433.87
4423.93
4446.86
4436.87
4470.23
4457.66
4510.75
4499
4473.98
4482.85
4573.82
4555.45
4532.82
4518.15
4668.96
4643.95
4593.88
4615.5
4787.04
4754.52
4719.68
4691.04
4938.71
4895.71
4818.15
4855.53
5138.74
5084.59
5033.1
4984.49
5394.5
5326.54
5261.34
5199.19
5714.73
5633.69
5554.42
5477.53
6004.76
5914.86
5825.87
6581.68
6483.26
6138.8
6282.52
6383.67
6855.1
7155.97
7047.01
6752.6
7377.33
8522
8891.07
8050.32
7626.18
7910.99
8380.51
9918.37
9288.48
9704.24
9820.51
10301.1
10646
10940.4
11221.2
11223.6
3974.96
3985.73
3996.66
4007.72
4018.93
4030.34
4042
4053.96
4066.24
4078.88
4091.87
4105.21
4118.83
4132.63
4146.46
4160.21
4173.75
4187.09
4200.39
4213.97
4228.39
4244.06
4260.58
4277.06
4292.38
4310.03
4319.12
4302.63
4326.77
4342.36
4334.53
4358.34
4350.3
4374.71
4366.47
4391.52
4383.05
4408.93
4400.13
4427.27
4417.96
4438.31
4429.22
4459.93
4448.18
4505
4493.29
4468.48
4477.15
4567.35
4549.18
4525.84
4511.48
4664.07
4638.84
4587.32
4609.02
4783.22
4750.38
4713.87
4685.02
4935.2
4891.61
4813.1
4850.93
5140.29
5084.41
5031.45
4981.74
5403.42
5332.32
5264.46
5200.03
5737.92
5651.54
5567.52
5486.52
6042.3
5946
5850.76
6648.76
6543.41
6179.74
6327.12
6436.28
6937.51
7259.1
7140.56
6827.07
7497.14
8746.06
9145.22
8233.55
7769.47
8082
8593.32
10223.5
9570.31
10010.7
10127.5
10603.3
10931.3
11223
11519.9
11522.7
3979.22
3989.86
4000.64
4011.54
4022.6
4033.89
4045.45
4057.33
4069.58
4082.21
4095.22
4108.57
4122.17
4135.87
4149.49
4162.88
4175.96
4188.87
4201.93
4215.66
4230.46
4246.13
4262.04
4277.26
4290.97
4317.52
4308.59
4301.46
4324.97
4340.05
4332.48
4355.44
4347.7
4371.13
4363.25
4387.11
4379.08
4403.45
4395.22
4420.41
4411.82
4429.47
4421.35
4455.2
4448.82
4438.29
4498.62
4487.21
4462.56
4471
4559.67
4541.86
4517.89
4504.01
4657.85
4632.48
4579.37
4601
4777.8
4744.72
4706.23
4677.18
4929.46
4885.36
4806.08
4844.3
5139.14
5081.71
5027.54
4976.77
5408.87
5334.76
5264.37
5197.76
5756.85
5665.09
5576.39
5491.34
6075.87
5972.4
5870.52
6715.11
6601.38
6216.32
6367.1
6485.48
7021.69
7368.02
7238.78
6901.91
7627.32
8989.85
9419.24
8434.09
7927.03
8268.59
8824.66
10538.9
9873.32
10340.6
10452.7
10911.1
11227.3
11526
11855.5
11865.2
3983.29
3993.79
4004.4
4015.13
4026.04
4037.2
4048.67
4060.5
4072.73
4085.38
4098.43
4111.82
4125.42
4138.98
4152.27
4165.16
4177.73
4190.29
4203.38
4217.38
4232.26
4247.56
4262.56
4276.46
4288.86
4315.81
4307.01
4299.97
4323.07
4337.69
4330.36
4352.49
4345.07
4367.47
4359.96
4382.61
4375.02
4397.89
4390.23
4413.42
4405.61
4420.61
4413.48
4449.45
4443.49
4428.66
4433.09
4491.63
4480.66
4456.44
4464.48
4550.74
4533.42
4509.03
4495.82
4649.92
4624.53
4570.02
4591.42
4770.44
4737.21
4696.53
4667.37
4921.2
4876.61
4796.76
4835.26
5135.01
5076.17
5020.97
4969.27
5410.25
5333.24
5260.4
5191.75
5770.59
5673.48
5580.14
5491.16
6104.7
5993.37
5884.61
6780.28
6655.58
6246.94
6396.86
6528.55
7108.5
7485.31
7342.47
6976.4
7769.42
9252.79
9715.07
8650.75
8097.48
8468.24
9073.2
10871.9
10202.3
10701.5
10804.1
11240.7
11561.7
11903.1
12316.6
12359.7
3987.16
3997.5
4007.91
4018.46
4029.22
4040.26
4051.65
4063.45
4075.7
4088.41
4101.56
4115.05
4128.57
4141.79
4154.53
4166.81
4178.96
4191.46
4204.74
4218.88
4233.58
4248.28
4262.26
4275.02
4286.72
4298.66
4314.06
4305.49
4321.12
4335.3
4328.2
4349.52
4342.4
4363.78
4356.65
4378.06
4370.92
4392.3
4385.19
4406.43
4399.38
4423.85
4415.82
4412.54
4405.8
4443.61
4437.96
4427.86
4484.07
4473.66
4450.16
4457.7
4540.57
4523.88
4499.42
4487.02
4640.12
4614.83
4559.32
4580.28
4760.9
4727.6
4684.57
4655.51
4910.12
4865.11
4784.88
4823.5
5127.32
5067.23
5011.16
4958.77
5406.7
5326.85
5251.65
5181.08
5778.73
5676.26
5578.3
5485.51
6127.47
6004.26
5887.96
6835.7
6698.91
6268.96
6445.66
6568.35
7197.6
7611.28
7447.76
7052.25
7920.78
9536.45
10036.7
8881.99
8274.26
8682.84
9339.58
11238.1
10563.3
11103.3
11194.9
11626.8
12005.9
12486.1
13153.2
13234.7
3990.81
4000.96
4011.17
4021.52
4032.12
4043.05
4054.39
4066.2
4078.52
4091.37
4104.69
4118.11
4131.24
4143.88
4155.98
4167.81
4179.81
4192.45
4205.94
4220.07
4234.41
4248.36
4261.39
4273.47
4288.32
4297.28
4296.03
4281.99
4312.33
4303.97
4319.17
4332.87
4326.03
4346.52
4339.7
4360.11
4353.34
4373.53
4366.85
4386.73
4380.17
4399.57
4393.2
4419.13
4411.41
4408.39
4398.47
4437.69
4432.42
4422.8
4476.03
4466.29
4443.77
4450.73
4529.32
4513.42
4489.26
4477.78
4628.47
4603.38
4547.36
4567.71
4748.97
4715.66
4670.36
4641.63
4895.54
4850.3
4770.01
4808.56
5115.15
5053.91
4997.23
4944.49
5397.75
5315.05
5237.46
5165.02
5778.54
5672.54
5571.28
5475.72
6149.3
6036.45
5873.8
6907.52
6704.63
6265.41
6426
6581.34
7287.15
7744.03
7568.34
7143.49
8072.94
9844.39
10389.3
9128.07
8463.85
8912.85
9627.91
11665
10963.7
11559
11644.1
12124.8
12646.8
13372
14277.7
14403.9
3994.21
4004.16
4014.14
4024.29
4034.74
4045.59
4056.91
4068.77
4081.25
4094.32
4107.55
4120.59
4133.15
4145.13
4156.71
4168.32
4180.46
4193.36
4206.95
4220.93
4234.77
4247.98
4260.37
4271.88
4294.71
4287.21
4302.51
4280.99
4310.63
4317.27
4330.47
4323.88
4343.55
4337.02
4356.46
4350.04
4369.08
4362.82
4381.27
4375.23
4392.91
4387.17
4414.48
4407.21
4404.5
4400.51
4394.46
4392.01
4431.82
4426.99
4417.86
4467.65
4458.68
4437.36
4443.72
4517.25
4502.3
4478.76
4468.3
4615
4590.32
4534.44
4553.98
4734.33
4701.22
4653.85
4625.78
4876.62
4831.47
4751.84
4789.98
5097.73
5035.61
4978.63
4925.74
5385.4
5300.44
5221.05
5147.3
5767.71
5663.58
5562.95
5467.3
6154.14
6017.48
5868.46
6884.77
6698.92
6259.89
6419.71
6576.29
7326.22
7888.8
7550.65
7126.73
8144.9
10181.8
10779.2
9392.28
8453.29
9153.02
8799.71
9944.58
12186
11412.7
12082.1
12172.9
12770.7
13499.8
14490.1
15708.9
15827
3997.34
4007.05
4016.79
4026.74
4037.06
4047.86
4059.22
4071.26
4083.96
4096.96
4109.86
4122.34
4134.23
4145.63
4156.97
4168.72
4181.12
4194.21
4207.82
4221.51
4234.83
4247.42
4259.26
4270.35
4301.06
4293.43
4286.11
4308.98
4279.95
4315.42
4328.16
4321.81
4340.67
4334.44
4352.89
4346.82
4364.7
4358.86
4375.96
4370.41
4386.55
4381.36
4410.04
4403.15
4396.89
4391.05
4388.66
4426.09
4421.7
4413.14
4459.1
4450.95
4431.09
4436.81
4504.62
4490.74
4468.22
4458.85
4599.8
4575.82
4520.79
4539.32
4716.7
4684.1
4635.11
4608.1
4853.21
4808.34
4730.35
4767.63
5078.9
5014.57
4955.76
4902.61
5376.48
5291.04
5211.41
5137.6
5762.54
5658.57
5558
5462.46
6149.39
6011.49
5863.86
6879.03
6693.74
6254.97
6414.38
6571.44
7321.21
7874.2
7545.12
7120.89
8139.57
10565.2
11213.5
9679.66
8447.35
9158.57
8793.99
10283.2
12821.9
11918.5
12683
12794
13573.1
14528.5
15792.1
18866.8
17656.7
4000.17
4009.61
4019.08
4028.85
4039.08
4049.89
4061.41
4073.7
4086.42
4099.15
4111.52
4123.31
4134.61
4145.79
4157.22
4169.21
4181.88
4195.11
4208.61
4221.96
4234.67
4246.72
4258.11
4268.89
4279.09
4307.36
4299.63
4292.21
4285.09
4313.61
4325.93
4319.81
4337.91
4331.97
4349.46
4343.74
4360.48
4355.04
4370.86
4365.75
4380.57
4375.81
4405.81
4399.34
4393.39
4387.82
4385.58
4420.59
4416.63
4408.66
4450.61
4443.3
4425.07
4430.16
4491.71
4479.02
4457.9
4449.66
4583.1
4560.12
4506.68
4524.01
4696.07
4664.38
4614.31
4588.74
4828.19
4782.4
4705.45
4741.62
5068.98
4982.08
4930.14
4878.17
5371.72
5286.36
5206.82
5133.12
5758.06