/*--------------------------------*- C++ -*----------------------------------*\
  =========                 |
  \\      /  F ield         | OpenFOAM: The Open Source CFD Toolbox
   \\    /   O peration     | Website:  https://openfoam.org
    \\  /    A nd           | Version:  dev
     \\/     M anipulation  |
\*---------------------------------------------------------------------------*/
FoamFile
{
    version     2.0;
    format      ascii;
    class       volScalarField;
    location    "2500";
    object      H2O;
}
// * * * * * * * * * * * * * * * * * * * * * * * * * * * * * * * * * * * * * //

dimensions      [0 0 0 0 0 0 0];

internalField   nonuniform List<scalar> 
9842
(
8.18771e-34
2.54581e-33
1.0282e-33
3.95672e-33
6.29793e-33
1.62674e-33
7.91169e-33
1.68585e-32
7.21089e-33
5.08357e-34
6.08397e-33
2.57562e-32
2.11314e-32
6.23499e-33
1.67919e-34
1.03184e-32
3.78674e-32
3.51244e-32
1.88891e-32
2.50052e-33
1.72746e-34
1.56406e-32
5.11466e-32
6.71034e-32
3.9686e-32
1.4104e-32
1.24247e-33
7.28681e-35
2.1812e-32
5.44045e-32
8.92092e-32
8.13826e-32
3.00937e-32
6.21084e-33
5.06243e-34
2.72202e-35
1.92898e-32
9.90225e-32
1.48941e-31
1.40367e-31
8.48248e-32
2.73846e-32
2.23502e-33
1.89143e-34
1.06814e-35
3.416e-32
1.81109e-31
2.38015e-31
2.08134e-31
1.5203e-31
7.15835e-32
1.301e-32
1.5298e-33
9.06543e-35
3.85561e-36
9.48455e-32
3.57118e-31
4.3505e-31
3.24086e-31
2.31577e-31
1.47074e-31
5.44048e-32
7.62618e-33
4.40379e-34
3.43699e-35
8.63468e-37
4.05942e-31
8.0277e-31
7.63062e-31
7.61153e-31
5.08145e-31
2.69444e-31
1.31054e-31
3.20759e-32
2.47506e-33
1.79913e-34
7.37514e-36
3.88287e-37
9.2131e-31
1.71712e-30
1.69853e-30
1.56312e-30
9.69527e-31
5.22336e-31
2.51156e-31
8.38025e-32
1.45053e-32
1.47631e-33
6.54491e-35
4.3086e-36
1.59755e-37
1.86674e-30
6.30053e-30
6.48852e-30
3.83841e-30
2.0848e-30
9.47637e-31
4.65249e-31
1.80328e-31
3.84414e-32
6.83801e-33
6.14733e-34
3.58001e-35
1.19391e-36
1.36173e-37
4.23045e-30
1.26061e-29
1.80912e-29
1.14166e-29
7.49551e-30
2.87861e-30
1.0046e-30
4.12397e-31
1.32314e-31
1.65139e-32
2.14818e-33
2.33798e-34
1.4802e-35
1.77549e-36
3.00099e-37
9.05689e-30
2.43057e-29
4.47617e-29
3.92441e-29
1.79757e-29
8.10277e-30
3.06477e-30
8.20845e-31
3.3465e-31
5.26398e-32
1.05048e-32
1.01803e-33
6.63974e-35
1.14149e-35
3.62099e-36
3.42491e-37
1.98273e-29
6.27343e-29
9.09694e-29
9.6638e-29
6.59652e-29
2.08075e-29
9.13814e-30
2.93713e-30
8.10822e-31
2.51779e-31
3.9691e-32
4.46372e-33
3.79191e-34
4.69071e-35
2.55714e-35
3.65595e-36
8.42191e-37
5.2956e-29
3.51584e-28
3.07337e-28
2.94055e-28
1.69181e-28
8.86096e-29
2.67933e-29
8.50556e-30
2.15267e-30
5.43747e-31
1.40091e-31
1.84207e-32
2.1425e-33
3.01677e-34
1.35477e-34
4.27748e-35
2.33875e-35
5.6799e-36
2.37721e-28
7.11228e-28
1.03141e-27
1.10488e-27
5.00097e-28
2.51915e-28
8.94134e-29
2.927e-29
7.53693e-30
1.6076e-30
3.78407e-31
7.53953e-32
6.74955e-33
8.85502e-34
5.20352e-34
4.05117e-34
2.15613e-34
1.95035e-34
2.92564e-35
5.12979e-28
1.69531e-27
2.32386e-27
2.79804e-27
2.01964e-27
6.28718e-28
2.79402e-28
9.84859e-29
2.5138e-29
6.28626e-30
1.06585e-30
2.60589e-31
3.13876e-32
3.96575e-33
1.67826e-33
1.88376e-33
1.53521e-33
1.21206e-33
4.97982e-34
6.74172e-34
5.66404e-28
3.4962e-27
5.6009e-27
8.41508e-27
4.35129e-27
2.53152e-27
1.0677e-27
3.44013e-28
1.03152e-28
1.88189e-29
4.59418e-30
7.49948e-31
1.29599e-31
1.50706e-32
5.89833e-33
7.60183e-33
8.71768e-33
6.16319e-33
5.10643e-33
7.21291e-33
7.09102e-33
7.2849e-28
5.23401e-27
1.17373e-26
2.08327e-26
1.47245e-26
1.08235e-26
3.65373e-27
1.33878e-27
3.8692e-28
9.02435e-29
1.60872e-29
3.18725e-30
4.48481e-31
6.75383e-32
1.88447e-32
2.16057e-32
3.62798e-32
3.27675e-32
3.35672e-32
5.90268e-32
8.33261e-32
9.91448e-32
6.44021e-28
7.92955e-27
2.59931e-26
3.58142e-26
4.76822e-26
2.50505e-26
1.40053e-26
4.25789e-27
1.3449e-27
3.32098e-28
6.52676e-29
1.14484e-29
1.99684e-30
2.77228e-31
6.8589e-32
5.37771e-32
1.09076e-31
1.59705e-31
3.41703e-31
4.25163e-31
8.13049e-31
1.04097e-30
2.1023e-30
6.70574e-28
6.78678e-27
2.8538e-26
7.43009e-26
8.23831e-26
8.23008e-26
4.2835e-26
1.8148e-26
4.13764e-27
1.19295e-27
2.67894e-28
4.61625e-29
7.07602e-30
1.09515e-30
2.21369e-31
1.60238e-31
3.03775e-31
4.14196e-31
1.61433e-30
4.03195e-30
6.37391e-30
1.16248e-29
2.85351e-29
3.35255e-29
1.15203e-27
7.82389e-27
4.01906e-26
1.12145e-25
1.69477e-25
1.54593e-25
1.12397e-25
6.16967e-26
2.06095e-26
4.45638e-27
9.13833e-28
1.90398e-28
2.7852e-29
4.06007e-30
7.43997e-31
4.92964e-31
7.46967e-31
1.88625e-30
6.30721e-30
2.016e-29
6.99339e-29
1.49162e-28
2.89769e-28
4.82997e-28
3.69603e-28
7.97375e-27
1.89885e-26
7.24956e-26
1.22682e-25
2.31574e-25
3.0393e-25
2.5167e-25
1.76085e-25
6.63257e-26
1.47962e-26
4.30347e-27
7.14283e-28
1.19846e-28
1.17749e-29
2.52923e-30
1.20314e-30
2.14668e-30
5.00184e-30
2.06427e-29
8.53577e-29
3.73734e-28
1.31798e-27
3.32501e-27
5.67573e-27
1.16242e-26
1.07338e-26
6.9075e-27
5.59029e-26
1.35309e-25
2.46733e-25
4.14024e-25
4.53471e-25
4.58231e-25
3.70429e-25
1.76553e-25
6.4818e-26
1.49468e-26
3.32505e-27
4.83374e-28
8.19581e-29
7.58627e-30
2.80808e-30
4.65862e-30
1.40117e-29
6.29649e-29
3.00728e-28
1.71923e-27
7.84673e-27
2.47443e-26
7.36043e-26
1.31187e-25
2.47579e-25
2.71987e-25
1.34216e-26
4.62372e-26
2.48313e-25
3.61275e-25
6.24711e-25
9.52558e-25
9.85275e-25
7.23292e-25
4.45131e-25
1.58819e-25
5.46418e-26
1.18479e-26
2.23336e-27
3.14876e-28
3.91984e-29
6.24324e-30
8.90789e-30
2.71117e-29
1.86223e-28
1.02592e-27
5.99483e-27
4.23017e-26
1.6907e-25
5.53256e-25
1.91312e-24
3.57909e-24
5.59633e-24
4.42037e-24
1.07699e-25
1.6321e-25
2.72521e-25
7.74466e-25
1.02168e-24
1.29497e-24
1.98791e-24
1.48381e-24
1.19725e-24
4.93894e-25
1.34442e-25
4.514e-26
6.90577e-27
1.26823e-27
1.80051e-28
2.69506e-29
2.44438e-29
1.07178e-28
4.94784e-28
3.49634e-27
1.91446e-26
1.638e-25
1.23559e-24
6.10394e-24
1.55072e-23
6.3168e-23
1.26021e-22
1.13876e-22
4.54125e-23
5.88015e-25
8.25827e-25
6.45205e-25
8.39584e-25
2.07088e-24
2.24165e-24
2.76207e-24
3.26958e-24
2.03492e-24
1.33155e-24
4.63117e-25
1.31455e-25
3.59661e-26
5.32268e-27
8.53672e-28
8.59134e-29
6.37563e-29
2.75262e-28
1.93869e-27
1.36968e-26
9.11062e-26
6.02178e-25
5.04512e-24
4.72516e-23
2.77935e-22
6.48317e-22
2.01677e-21
2.95216e-21
2.43168e-21
8.52703e-22
3.82147e-24
5.78859e-24
2.54034e-24
1.89932e-24
2.30929e-24
4.00082e-24
5.29052e-24
4.42066e-24
5.45336e-24
2.50058e-24
1.17687e-24
4.06878e-25
1.11012e-25
2.13531e-26
3.63361e-27
5.53106e-28
2.16094e-28
8.47046e-28
4.71777e-27
4.10448e-26
3.10949e-25
2.32202e-24
2.09766e-23
2.45965e-22
2.14215e-21
1.15708e-20
2.55868e-20
5.59163e-20
6.13003e-20
2.87421e-20
1.07262e-20
3.57141e-23
6.13502e-23
2.21969e-23
1.44143e-23
6.17034e-24
5.4714e-24
1.09437e-23
8.69167e-24
8.78823e-24
6.80588e-24
2.92974e-24
1.09747e-24
3.26801e-25
6.92728e-26
1.33728e-26
2.33307e-27
7.40355e-28
2.38422e-27
1.70263e-26
9.79584e-26
8.89649e-25
9.93551e-24
9.10191e-23
1.21111e-21
1.23574e-20
1.31912e-19
4.37152e-19
1.01036e-18
1.24634e-18
8.50233e-19
3.49664e-19
7.11814e-20
5.40809e-23
3.17147e-22
2.09531e-22
1.03205e-22
3.61708e-23
1.47993e-23
1.68062e-23
2.07809e-23
1.49831e-23
1.28037e-23
6.97331e-24
2.6232e-24
7.83169e-25
2.44897e-25
4.47346e-26
8.33694e-27
2.67443e-27
6.89599e-27
3.66962e-26
3.44706e-25
2.86321e-24
2.78265e-23
4.66886e-22
5.77067e-21
6.88024e-20
6.65288e-19
5.72501e-18
1.70233e-17
2.36454e-17
2.65505e-17
1.34633e-17
3.61525e-18
2.72919e-19
5.19166e-22
1.44781e-21
1.36634e-21
5.80063e-22
2.4644e-22
7.88151e-23
3.08748e-23
3.53137e-23
3.66303e-23
2.34249e-23
1.50605e-23
5.67604e-24
2.25218e-24
6.3555e-25
1.60749e-25
2.36502e-26
6.54138e-27
1.70411e-26
8.7586e-26
8.46444e-25
6.85926e-24
9.23082e-23
1.61025e-21
2.87456e-20
3.97026e-19
5.18589e-18
3.5384e-17
1.76824e-16
4.34188e-16
4.91139e-16
3.22714e-16
1.23455e-16
1.25368e-17
9.2212e-19
9.73728e-18
2.22008e-21
6.47231e-21
6.71275e-21
3.78521e-21
1.83322e-21
5.99513e-22
1.43127e-22
6.39804e-23
5.08084e-23
5.1374e-23
3.09038e-23
1.51092e-23
5.31292e-24
1.71519e-24
4.68448e-25
1.114e-25
2.58515e-26
3.3529e-26
2.73598e-25
1.52467e-24
1.83694e-23
1.60461e-22
3.56179e-21
1.17172e-19
2.16661e-18
3.14414e-17
2.63715e-16
1.46262e-15
4.66018e-15
9.43109e-15
9.74251e-15
4.5201e-15
0
1.18318e-16
1.40827e-15
5.86487e-18
7.08987e-17
9.85063e-21
1.47727e-20
3.74795e-20
2.76186e-20
1.12861e-20
3.30931e-21
1.09897e-21
2.58013e-22
1.19287e-22
8.99211e-23
6.20307e-23
3.37306e-23
1.32035e-23
3.78354e-24
1.22776e-24
2.77798e-25
9.93669e-26
1.00982e-25
4.18201e-25
4.46887e-24
3.26549e-23
4.13592e-22
6.05113e-21
2.29939e-19
1.06585e-17
1.64805e-16
1.97682e-15
1.17901e-14
4.92657e-14
1.36418e-13
2.11979e-13
1.41236e-13
1.70696e-14
9.71229e-14
1.11974e-14
1.07288e-13
1.11501e-13
1.05022e-15
9.28486e-15
2.30821e-17
5.02857e-16
1.70497e-20
1.14185e-19
1.36955e-19
1.05834e-19
7.1994e-20
2.60688e-20
9.13774e-21
1.89741e-21
3.5615e-22
1.73638e-22
1.22127e-22
7.18526e-23
2.99396e-23
1.1002e-23
3.05369e-24
8.63389e-25
2.8221e-25
3.12623e-25
1.2902e-24
7.20662e-24
7.5986e-23
6.64262e-22
1.00799e-20
3.17529e-19
1.6824e-17
9.42057e-16
1.20051e-14
8.48497e-14
4.62634e-13
1.53462e-12
3.26625e-12
3.33771e-12
5.9875e-13
3.70229e-12
7.23109e-13
9.85985e-14
8.96438e-13
9.20922e-13
6.27783e-15
7.59463e-14
2.31496e-16
3.28853e-15
9.71363e-20
5.32777e-19
3.64489e-19
4.17589e-19
3.2521e-19
1.71607e-19
6.35139e-20
1.50248e-20
2.28637e-21
5.90332e-22
2.10348e-22
1.26256e-22
6.7372e-23
2.10872e-23
6.71139e-24
2.54599e-24
8.68226e-25
7.98932e-25
2.44244e-24
1.59189e-23
1.46345e-22
1.22028e-21
1.54229e-20
4.14652e-19
2.47347e-17
1.29658e-15
7.54007e-14
7.19965e-13
3.3827e-12
1.47079e-11
3.81778e-11
5.89277e-11
1.81419e-11
8.25771e-11
4.66844e-12
2.73174e-11
6.52606e-12
8.08333e-13
7.58698e-12
7.47346e-12
4.72847e-14
5.79867e-13
1.03878e-15
2.30236e-14
8.46156e-19
2.40585e-18
1.45748e-18
2.21977e-18
1.17104e-18
8.20546e-19
3.47036e-19
9.12837e-20
1.90098e-20
3.45593e-21
6.49395e-22
2.72442e-22
1.44295e-22
5.77958e-23
1.99208e-23
6.52118e-24
2.63247e-24
2.14824e-24
5.23117e-24
2.84715e-23
2.51264e-22
2.98519e-21
2.64303e-20
4.87841e-19
2.66316e-17
2.21162e-15
9.99546e-14
3.89769e-12
2.28071e-11
1.05707e-10
3.691e-10
7.65087e-10
3.4327e-10
1.37208e-09
1.4201e-10
6.596e-10
4.12501e-11
2.31856e-10
5.4007e-11
6.19944e-12
6.00368e-11
5.66835e-11
3.35628e-13
4.16015e-12
6.10096e-15
1.47403e-13
3.42966e-18
7.16579e-18
9.8742e-18
8.44221e-18
5.28983e-18
2.93429e-18
1.54754e-18
5.82784e-19
1.48718e-19
2.46975e-20
4.47975e-21
7.4374e-22
2.6216e-22
1.28178e-22
4.2322e-23
1.96299e-23
7.70639e-24
5.71412e-24
1.1232e-23
5.57154e-23
4.03826e-22
4.94507e-21
5.61814e-20
6.82255e-19
2.71951e-17
2.26824e-15
2.08286e-13
5.73441e-12
1.54888e-10
5.99592e-10
2.64994e-09
7.39392e-09
4.83303e-09
1.64435e-08
2.73947e-09
1.0301e-08
1.14435e-09
5.01129e-09
3.29421e-10
1.76427e-09
4.14212e-10
4.44513e-11
4.41648e-10
4.01513e-10
2.21943e-12
2.79309e-11
3.48463e-14
8.76639e-13
9.72543e-18
1.68684e-17
2.48421e-17
3.20484e-17
2.11788e-17
1.26333e-17
8.41413e-18
2.904e-18
8.14645e-19
1.63211e-19
2.89181e-20
4.4992e-21
9.44746e-22
2.61951e-22
1.40322e-22
5.27395e-23
3.08997e-23
1.91004e-23
2.77748e-23
1.03871e-22
7.45772e-22
6.74809e-21
9.17511e-20
1.16273e-18
2.55172e-17
2.22024e-15
2.08141e-13
1.61042e-11
2.45168e-10
4.81794e-09
1.51074e-08
5.37908e-08
5.01606e-08
1.46048e-07
3.56213e-08
1.14699e-07
1.97731e-08
7.08958e-08
8.26941e-09
3.43119e-08
2.42159e-09
1.22594e-08
2.93594e-09
2.99115e-10
3.02927e-09
2.66681e-09
1.35838e-11
1.74664e-10
1.78534e-13
4.81385e-12
3.57713e-17
9.34223e-17
6.96476e-17
1.03834e-16
9.51266e-17
5.59627e-17
4.3587e-17
1.63302e-17
3.81104e-18
1.02426e-18
1.851e-19
2.81863e-20
4.00607e-21
1.05199e-21
3.58195e-22
2.26998e-22
1.18346e-22
5.80899e-23
9.58122e-23
2.06031e-22
1.27723e-21
1.24975e-20
1.65782e-19
2.23799e-18
2.90103e-17
1.50635e-15
2.10209e-13
1.69635e-11
6.23044e-10
6.97564e-09
7.37389e-08
3.20008e-07
3.90391e-07
1.00765e-06
3.45514e-07
9.80035e-07
2.34414e-07
7.25418e-07
1.28298e-07
4.38236e-07
5.42267e-08
2.12402e-07
1.63579e-08
7.76249e-08
1.92333e-08
1.88536e-09
1.94414e-08
1.66092e-08
7.74168e-11
1.02361e-09
9.07825e-13
2.65415e-11
3.18482e-16
6.04264e-16
3.65166e-16
3.97859e-16
2.72806e-16
2.12929e-16
1.82224e-16
7.79591e-17
2.40888e-17
4.84476e-18
1.08563e-18
1.85065e-19
2.55599e-20
4.26186e-21
1.27476e-21
7.00024e-22
5.18189e-22
2.64533e-22
2.67037e-22
5.03626e-22
1.73846e-21
2.03345e-20
2.38124e-19
3.81813e-18
5.17632e-17
1.05146e-15
1.22904e-13
2.21445e-11
9.80645e-10
2.4474e-08
1.57875e-07
1.42931e-06
2.38444e-06
5.67101e-06
2.61765e-06
6.56896e-06
2.11877e-06
5.87631e-06
1.39192e-06
4.188e-06
7.53159e-07
2.474e-06
3.23482e-07
1.19872e-06
1.01332e-07
4.5008e-07
1.16767e-07
1.11731e-08
1.16493e-07
9.70655e-08
4.4045e-10
5.87372e-09
4.75531e-12
1.49785e-10
2.94756e-15
5.04932e-15
3.1326e-15
1.63504e-15
1.03015e-15
7.57702e-16
4.5103e-16
3.2198e-16
1.18516e-16
3.63248e-17
4.87801e-18
1.0376e-18
1.56809e-19
2.41595e-20
6.41896e-21
3.36511e-21
1.99346e-21
1.22606e-21
9.7573e-22
1.17505e-21
3.68748e-21
2.55306e-20
4.56758e-19
5.53521e-18
8.52519e-17
1.16114e-15
5.09211e-14
1.07975e-11
1.51479e-09
4.23994e-08
7.13543e-07
2.97766e-06
1.05248e-05
1.94312e-05
1.50377e-05
3.25435e-05
1.5362e-05
3.74378e-05
1.20834e-05
3.29696e-05
7.70884e-06
2.29565e-05
4.09285e-06
1.32865e-05
1.77189e-06
6.33382e-06
5.7674e-07
2.41565e-06
6.55637e-07
6.38516e-08
6.52945e-07
5.4198e-07
2.56445e-09
3.44083e-08
2.54353e-11
8.53474e-10
4.0132e-14
7.64819e-14
4.70638e-14
1.82112e-14
7.2281e-15
3.67487e-15
2.06277e-15
1.30221e-15
6.47486e-16
1.62206e-16
3.95679e-17
5.59452e-18
7.75481e-19
1.06995e-19
2.94623e-20
1.22692e-20
9.5082e-21
5.61978e-21
4.21403e-21
4.41297e-21
7.40856e-21
4.50778e-20
6.20994e-19
8.71718e-18
1.24133e-16
1.91709e-15
3.70913e-14
3.46943e-12
8.76225e-10
5.50954e-08
1.22535e-06
1.39439e-05
3.28593e-05
2.74515e-05
5.69469e-05
9.70588e-05
7.96264e-05
0.000146339
8.12287e-05
0.0001745
6.45655e-05
0.00015955
4.09086e-05
0.000114592
2.13972e-05
6.79966e-05
9.184e-06
3.22171e-05
3.04627e-06
1.23256e-05
3.42658e-06
3.67911e-07
3.45214e-06
2.95913e-06
1.51139e-08
2.03085e-07
1.38664e-10
4.90773e-09
4.63951e-13
1.01089e-12
6.98166e-13
2.71017e-13
7.66714e-14
2.56352e-14
1.29876e-14
8.19179e-15
2.83321e-15
7.46349e-16
1.77163e-16
3.70472e-17
5.38313e-18
7.33389e-19
9.97283e-20
5.32599e-20
4.33091e-20
2.35763e-20
1.51287e-20
1.25083e-20
1.66908e-20
6.96406e-20
7.31903e-19
1.11828e-17
1.7373e-16
2.61035e-15
4.80029e-14
1.45994e-12
2.73035e-10
3.14965e-08
1.11779e-06
2.09443e-05
0.000167636
0.00013505
0.000218275
0.000231755
0.000337252
0.000303031
0.000459974
0.000322047
0.000524654
0.000277349
0.000511929
0.000186659
0.000426068
0.000104275
0.000282764
4.54147e-05
0.000147893
1.5268e-05
5.90501e-05
1.69884e-05
2.08852e-06
1.72143e-05
1.51643e-05
8.93602e-08
1.18562e-06
7.65215e-10
2.79602e-08
4.08834e-12
1.04634e-11
8.55466e-12
3.7749e-12
1.07886e-12
2.66875e-13
9.35107e-14
4.88691e-14
1.62078e-14
3.48004e-15
7.38495e-16
1.51986e-16
3.10955e-17
4.393e-18
5.67059e-19
2.38347e-19
1.66771e-19
9.35334e-20
5.12668e-20
5.2431e-20
4.77394e-20
1.1729e-19
9.94538e-19
1.29897e-17
2.15611e-16
3.6961e-15
6.3561e-14
1.25717e-12
7.50525e-11
1.74884e-08
8.85129e-07
1.92896e-05
0.000203464
0.000639495
0.000722227
0.000447457
0.000555114
0.000628659
0.000803182
0.000745603
0.000970319
0.000776574
0.00104931
0.000720705
0.00103506
0.000589364
0.000934212
0.000393556
0.000758765
0.000195106
0.000511022
7.06161e-05
0.000238249
7.68457e-05
1.11448e-05
7.6857e-05
6.81423e-05
5.15115e-07
6.57314e-06
4.18825e-09
1.53871e-07
2.43319e-11
7.66819e-11
7.89694e-11
4.23445e-11
1.42337e-11
3.53413e-12
9.20132e-13
3.01929e-13
8.76922e-14
1.92463e-14
3.50196e-15
7.2624e-16
1.35865e-16
2.43082e-17
3.94581e-18
7.52012e-19
6.08517e-19
3.77329e-19
2.55158e-19
1.5064e-19
1.30598e-19
2.3019e-19
1.01144e-18
1.55941e-17
2.63793e-16
4.76886e-15
9.46317e-14
1.51028e-12
3.68877e-11
4.25821e-09
5.16472e-07
1.73676e-05
0.000189557
0.00077678
0.000812728
0.00122063
0.00131053
0.00096472
0.00110531
0.00118529
0.00138864
0.00131324
0.00156257
0.00134651
0.00164482
0.00128903
0.0016357
0.00115207
0.00154251
0.000934353
0.00137225
0.000626647
0.00110982
0.000271304
0.000723747
0.000288434
5.07702e-05
0.000285203
0.000249742
2.81075e-06
3.04707e-05
2.158e-08
7.94603e-07
7.77447e-11
3.23592e-10
5.00946e-10
3.50377e-10
1.51111e-10
4.6865e-11
1.08501e-11
2.01048e-12
4.48991e-13
9.8523e-14
1.87152e-14
3.24139e-15
5.59438e-16
1.06224e-16
1.76193e-17
4.43678e-18
2.28246e-18
1.57345e-18
1.10637e-18
6.82497e-19
6.205e-19
6.18598e-19
1.33281e-18
1.62085e-17
2.97573e-16
5.03645e-15
1.12974e-13
2.27459e-12
3.71936e-11
1.37006e-09
1.87402e-07
1.2108e-05
0.000188081
0.000810176
0.00074936
0.00137409
0.00140207
0.00182285
0.0019035
0.00156495
0.00171024
0.00178888
0.00199391
0.00192029
0.00216982
0.00196247
0.0022612
0.00191952
0.00227055
0.00180223
0.00220504
0.00159889
0.00206579
0.00127784
0.00182324
0.000794749
0.00142523
0.00083026
0.000185651
0.000805743
0.00069721
1.34818e-05
0.000115272
1.0677e-07
3.89657e-06
1.24148e-10
6.95329e-10
1.46921e-09
1.95597e-09
1.18184e-09
5.44778e-10
1.14883e-10
1.58586e-11
2.48934e-12
4.87585e-13
9.47846e-14
1.6393e-14
2.10719e-15
3.93212e-16
7.87677e-17
1.93134e-17
8.91924e-18
5.41697e-18
3.95108e-18
1.94646e-18
1.75957e-18
1.97695e-18
2.37079e-18
1.90313e-17
2.88141e-16
4.98539e-15
1.14111e-13
2.54947e-12
4.77853e-11
1.01654e-09
5.73461e-08
5.88841e-06
0.000161594
0.0010538
0.00140316
0.0014601
0.00195367
0.0019555
0.00237357
0.00237815
0.00216132
0.00228765
0.00238312
0.00256286
0.00252249
0.002741
0.00258494
0.00285206
0.00257397
0.00289779
0.00249823
0.00288076
0.00233522
0.00279495
0.00203737
0.00259906
0.00154202
0.00223048
0.00160757
0.000531407
0.00159966
0.00147638
5.38924e-05
0.000349844
4.6962e-07
1.4929e-05
6.98023e-10
2.72857e-09
4.97663e-09
5.91601e-09
3.86798e-09
9.23357e-10
1.28087e-10
1.57763e-11
2.48025e-12
4.58586e-13
7.94188e-14
1.15673e-14
1.57049e-15
2.87248e-16
7.37883e-17
2.92339e-17
1.68387e-17
1.10773e-17
7.97745e-18
4.96911e-18
5.33787e-18
7.96012e-18
2.93916e-17
3.26908e-16
4.86133e-15
1.10247e-13
2.50954e-12
5.11459e-11
9.69524e-10
2.92566e-08
2.36879e-06
9.21732e-05
0.00087855
0.00184471
0.00176907
0.00193869
0.00190376
0.00234902
0.00228828
0.00265778
0.00256185
0.00268932
0.00270188
0.00290704
0.0029936
0.00306396
0.00321422
0.00316463
0.00336498
0.00320678
0.00346911
0.00319239
0.0035194
0.0030921
0.00350468
0.00284897
0.00337827
0.00238129
0.00307203
0.00247249
0.00121996
0.00247483
0.00234972
0.000168528
0.00081273
1.80942e-06
4.46109e-05
2.14591e-09
8.57773e-09
1.41781e-08
1.76821e-08
5.96626e-09
9.34507e-10
1.17062e-10
1.44896e-11
2.22194e-12
3.55178e-13
4.49312e-14
5.03303e-15
7.37069e-16
2.71844e-16
1.12244e-16
6.38421e-17
3.96968e-17
2.27201e-17
1.45812e-17
1.67884e-17
1.31799e-17
3.67967e-17
3.03454e-16
4.61781e-15
1.00791e-13
2.33578e-12
5.00548e-11
9.47847e-10
2.10011e-08
9.79188e-07
4.17725e-05
0.000621581
0.00169051
0.00151998
0.0020761
0.00201979
0.00221517
0.00214563
0.00245337
0.00234504
0.0027013
0.00252324
0.00295845
0.00285611
0.00325276
0.00318202
0.00349695
0.0034963
0.00365477
0.00375884
0.00377036
0.00393642
0.00383146
0.004068
0.00381
0.00413579
0.00364563
0.00409432
0.00324645
0.00387976
0.00335075
0.00207074
0.00336082
0.00328021
0.00271211
0.000423896
0.00154013
3.06125e-06
7.60461e-05
6.15722e-09
2.33971e-08
3.76401e-08
2.90792e-08
5.7985e-09
8.01809e-10
9.19908e-11
1.13027e-11
1.50667e-12
1.83414e-13
1.88599e-14
2.63295e-15
6.50494e-16
3.44855e-16
2.25169e-16
1.12134e-16
7.48023e-17
5.0189e-17
3.62174e-17
3.82811e-17
5.25144e-17
3.5926e-16
4.57778e-15
9.18825e-14
2.03037e-12
4.56305e-11
9.13557e-10
1.80602e-08
5.25923e-07
1.96716e-05
0.000405156
0.00160371
0.00193733
0.00192338
0.00208783
0.00203791
0.00224377
0.00215826
0.00233411
0.00216067
0.00250038
0.00219748
0.0030235
0.00278944
0.00340094
0.00319136
0.00373865
0.00361807
0.00401079
0.00397455
0.00421097
0.00425523
0.00435756
0.00447635
0.00442448
0.00463216
0.00435164
0.00467917
0.00405635
0.00451449
0.00429192
0.00377366
0.00414156
0.00314198
0.00232364
0.00300719
0.00372672
0.00417391
0.00413307
0.00367882
0.000439648
0.00104313
0.00275122
0.00247846
0.00170515
2.36529e-06
0.000611898
4.88671e-05
0.000278407
1.58239e-08
5.74685e-08
7.3282e-08
2.76784e-08
4.52188e-09
5.386e-10
5.88131e-11
6.50702e-12
7.16948e-13
7.23659e-14
7.96209e-15
1.97943e-15
1.06966e-15
8.72446e-16
4.42561e-16
2.76651e-16
1.41783e-16
1.03093e-16
9.9091e-17
1.29148e-16
4.19649e-16
4.6757e-15
8.76188e-14
1.79732e-12
3.87057e-11
8.26553e-10
1.60899e-08
3.79227e-07
1.0341e-05
0.000246108
0.00136025
0.00192402
0.00185008
0.00198995
0.00196286
0.00186326
0.00183506
0.00202119
0.00192257
0.00192225
0.00170638
0.00203468
0.00163803
0.00286438
0.00246223
0.00335959
0.00296702
0.00383558
0.0035512
0.00420375
0.00405061
0.0044948
0.004428
0.00473242
0.0047269
0.0047378
0.00481219
0.00486494
0.00489579
0.00468311
0.00482922
0.00489892
0.0050059
0.00493077
0.00456773
0.0044193
0.00467482
0.00476807
0.00446855
0.00356968
0.00339313
0.00413228
0.00450623
0.00450429
0.00406917
0.00131625
0.00315555
0.00283194
0.00207314
7.67261e-06
7.67818e-05
0.000842536
0.00039474
3.91776e-08
1.23372e-07
8.19714e-08
2.01597e-08
2.7187e-09
3.0041e-10
2.9933e-11
2.85961e-12
2.68284e-13
2.9622e-14
7.18935e-15
2.9269e-15
2.68427e-15
1.82005e-15
9.96914e-16
4.21472e-16
3.08571e-16
2.55635e-16
2.92874e-16
6.24031e-16
5.46248e-15
8.73831e-14
1.6751e-12
3.33302e-11
6.90788e-10
1.38817e-08
2.84392e-07
6.64895e-06
0.000139406
0.00104383
0.00182187
0.00184655
0.00184885
0.00182746
0.00183294
0.00146067
0.00147067
0.00156185
0.00148373
0.00132423
0.00112119
0.00142038
0.0009793
0.00248327
0.00194361
0.00312802
0.00260183
0.00375859
0.00333983
0.00426001
0.00396928
0.00464452
0.00446254
0.00490483
0.00488967
0.00485489
0.00478488
0.00496222
0.00499382
0.00499929
0.00491191
0.00501133
0.00504837
0.00510451
0.00507149
0.00485288
0.00472256
0.00491027
0.00498201
0.0047663
0.00395291
0.00377816
0.00447907
0.00478757
0.00478712
0.00441522
0.00161362
0.00353012
0.0031915
0.00241663
0.00017659
0.000121415
2.13437e-06
2.71446e-05
0.00108302
0.000549042
8.86032e-08
1.71355e-07
6.96927e-08
1.15146e-08
1.37775e-09
1.37355e-10
1.20086e-11
1.02519e-12
1.21127e-13
2.93948e-14
1.33468e-14
9.03421e-15
7.36984e-15
3.41191e-15
1.72181e-15
1.03553e-15
1.06299e-15
8.07977e-16
1.52146e-15
7.04933e-15
9.19917e-14
1.64384e-12
3.07268e-11
5.78365e-10
1.13973e-08
2.20206e-07
3.92342e-06
7.65658e-05
0.000705451
0.00172267
0.00172915
0.00177326
0.00162036
0.00168542
0.00150314
0.00155914
0.00101317
0.00106663
0.00101902
0.000995094
0.000695533
0.00056587
0.000792311
0.000455604
0.00199893
0.00135105
0.00281205
0.00219887
0.00356922
0.00307104
0.00417138
0.00378516
0.00470452
0.00458756
0.00445495
0.00428534
0.00498218
0.00494144
0.00487599
0.00478466
0.0050696
0.0050688
0.00504869
0.00506131
0.00510621
0.00511593
0.00513404
0.00512808
0.0050254
0.00494927
0.0050483
0.00508673
0.00497136
0.00430561
0.00413578
0.00476255
0.00498075
0.00498006
0.00470833
0.0019135
0.00388754
0.00353993
0.00275317
0.000715168
0.000228449
3.06908e-06
3.24135e-05
0.00132996
1.65784e-07
1.71219e-07
4.18075e-08
5.59935e-09
5.87927e-10
5.09172e-11
4.17138e-12
5.37407e-13
1.38418e-13
6.63108e-14
4.0667e-14
2.43842e-14
1.44611e-14
7.59232e-15
4.65583e-15
4.02493e-15
2.66592e-15
3.60099e-15
1.15738e-14
1.10191e-13
1.6952e-12
2.98747e-11
5.33629e-10
9.38201e-09
1.79456e-07
2.20206e-06
4.27036e-05
0.000447897
0.0015219
0.00176953
0.00154631
0.00162189
0.00134908
0.00145112
0.00115069
0.00124759
0.000639349
0.000739337
0.000544507
0.000570452
0.000289021
0.000228838
0.000496912
0.000276007
0.00151584
0.000904821
0.00248976
0.00184396
0.00331805
0.00278591
0.00410844
0.00389661
0.00368649
0.00344194
0.00466855
0.00452323
0.00435411
0.00416119
0.00500725
0.00494089
0.00484647
0.00472313
0.0051109
0.00508942
0.00504553
0.00511719
0.00512695
0.0051244
0.00509922
0.00512044
0.00509364
0.00505763
0.00508743
0.00510669
0.00505979
0.00461422
0.00445992
0.00496652
0.00506079
0.00506076
0.00493209
0.00221167
0.004221
0.00387365
0.00308227
0.00157325
0.00086921
0.00027578
7.35943e-06
5.96015e-05
2.4579e-07
1.29432e-07
2.05226e-08
2.32303e-09
2.07611e-10
1.76472e-11
2.58914e-12
7.31988e-13
3.68044e-13
2.21719e-13
1.24895e-13
6.71909e-14
3.61461e-14
2.16205e-14
1.72747e-14
1.33991e-14
1.23274e-14
2.6871e-14
1.58656e-13
1.94741e-12
3.06078e-11
5.17124e-10
8.57975e-09
1.51132e-07
1.76778e-06
2.58968e-05
0.000287875
0.00125342
0.00177424
0.00155212
0.00164939
0.00134365
0.00145466
0.00110031
0.00122432
0.000853297
0.000975281
0.000392849
0.000506541
0.000235414
0.000293229
0.000163369
0.000111109
0.000445011
0.000263584
0.00124438
0.000764939
0.00220605
0.00167539
0.00300173
0.00251168
0.00395436
0.0037334
0.00350653
0.00327354
0.00457187
0.00439423
0.00419497
0.00398042
0.00497516
0.00487604
0.00474623
0.00458664
0.00509667
0.00504736
0.00497199
0.00509578
0.00506952
0.00506295
0.00498518
0.00503324
0.00507491
0.00507116
0.00502646
0.00503492
0.00505314
0.00486543
0.00474233
0.00506193
0.00504214
0.00504876
0.00506039
0.00250367
0.00452699
0.00418966
0.00340073
0.00180316
0.00100567
0.000367961
2.54343e-05
0.000129524
2.7227e-07
6.7952e-08
8.57229e-09
8.07677e-10
7.5953e-11
1.32133e-11
4.17525e-12
2.14844e-12
1.22913e-12
6.67402e-13
3.4037e-13
1.7832e-13
1.04433e-13
7.61864e-14
6.73299e-14
4.61051e-14
7.9816e-14
2.94955e-13
2.6165e-12
3.43538e-11
5.27613e-10
8.11471e-09
1.15916e-07
1.23473e-06
1.78396e-05
0.000193678
0.000976042
0.00174229
0.00169635
0.001401
0.00149707
0.0011581
0.00128357
0.00089425
0.00102744
0.000630457
0.000760888
0.000229859
0.000335274
0.00010443
0.000142692
0.000152708
8.88277e-05
0.000583432
0.000402558
0.00118708
0.000810666
0.0020679
0.00168778
0.0029136
0.00271067
0.00238608
0.0025452
0.00375962
0.00353781
0.00331747
0.00310614
0.00440114
0.00419614
0.00398069
0.00376474
0.00486647
0.00472909
0.00456135
0.00436942
0.00500703
0.0049253
0.00481262
0.00498411
0.00492695
0.00492048
0.00478834
0.0048633
0.00495293
0.00497368
0.00486012
0.00486946
0.00493021
0.00503573
0.00496516
0.00507227
0.00491065
0.00493005
0.00510585
0.00278542
0.00479903
0.00448742
0.00370687
0.00201921
0.00116895
0.000517823
6.06921e-05
0.000224201
1.89236e-07
2.96481e-08
3.03287e-09
3.39493e-10
7.03124e-11
2.50492e-11
1.29397e-11
6.98889e-12
3.60068e-12
1.7611e-12
8.79512e-13
4.99816e-13
3.53762e-13
3.31703e-13
1.89543e-13
2.72424e-13
7.03655e-13
4.36366e-12
4.44508e-11
5.74184e-10
8.30666e-09
1.04284e-07
1.21552e-06
1.57756e-05
0.00014029
0.000729108
0.00163749
0.00179732
0.00146659
0.00157545
0.00124345
0.00135898
0.000986094
0.00111764
0.000716004
0.00085137
0.000454385
0.000582626
0.000101668
0.000185232
5.77239e-05
6.10615e-05
0.000227029
0.00010314
0.000988484
0.000722917
0.00138354
0.00117889
0.00225234
0.00212976
0.00212152
0.00289782
0.00276892
0.00257448
0.00266348
0.00355851
0.00337028
0.00320089
0.00304204
0.00416359
0.00395568
0.00376103
0.00359406
0.00466768
0.00449436
0.00430258
0.00410711
0.00483199
0.00471332
0.0045643
0.00478491
0.00470222
0.00469389
0.00452051
0.00461656
0.00473634
0.00477175
0.00460009
0.00461702
0.00470696
0.00513041
0.00511756
0.00499227
0.00468634
0.00472957
0.00508795
0.00305551
0.00502127
0.00476132
0.00399895
0.00223961
0.00136317
0.000685487
6.31328e-05
0.000253968
9.06809e-08
1.11713e-08
1.60465e-09
3.94902e-10
1.57031e-10
7.974e-11
4.06049e-11
1.97814e-11
9.23807e-12
4.36909e-12
2.34705e-12
1.59993e-12
1.55596e-12
7.93672e-13
9.7608e-13
1.98846e-12
8.95036e-12
7.1511e-11
7.22243e-10
8.81256e-09
1.19482e-07
1.2302e-06
1.15008e-05
0.000108081
0.000541293
0.00147015
0.0018335
0.00165054
0.00131636
0.00141567
0.00107592
0.00119966
0.000812045
0.000945966
0.000542396
0.000676589
0.000292167
0.000412981
3.7421e-05
6.78045e-05
4.90171e-05
3.05467e-05
0.000415438
0.000174828
0.00154002
0.0011442
0.00199377
0.0018153
0.00250012
0.00242802
0.0028108
0.00272823
0.00308359
0.00303255
0.00295065
0.00298965
0.0034537
0.00333144
0.00322832
0.0031476
0.00392629
0.00377884
0.00366669
0.00358622
0.00439309
0.0042151
0.00405189
0.00392229
0.00457407
0.00443061
0.0042775
0.00451144
0.00441797
0.00440924
0.00424116
0.00432831
0.00443935
0.00448142
0.00427265
0.00430804
0.0044055
0.00517852
0.00522
0.00484274
0.0043973
0.00448048
0.00501282
0.00331779
0.00519298
0.00500528
0.00427726
0.00246548
0.00155817
0.000778386
2.52877e-05
0.000192426
3.90887e-08
8.01856e-09
2.44375e-09
1.04863e-09
5.04283e-10
2.41177e-10
1.10554e-10
4.91518e-11
2.19478e-11
1.09608e-11
6.98941e-12
5.97035e-12
3.57341e-12
3.49832e-12
6.08741e-12
2.1494e-11
1.42417e-10
1.14862e-09
1.09588e-08
1.18851e-07
1.06207e-06
9.73285e-06
8.62569e-05
0.000427742
0.00129751
0.00182762
0.00177669
0.00136415
0.00148082
0.00114002
0.00125416
0.000888722
0.00101705
0.00062272
0.00075672
0.000359796
0.000489421
0.000135677
0.000239723
1.62668e-05
2.23398e-05
5.7512e-05
2.38186e-05
0.00069085
0.000304522
0.00202219
0.0015327
0.00264253
0.00250877
0.00243007
0.00291046
0.00286411
0.00319556
0.00308045
0.00349646
0.0034877
0.00342473
0.00346428
0.00353583
0.00350981
0.00350059
0.00349828
0.0038377
0.00380672
0.00381331
0.00384955
0.00413662
0.00402792
0.00398015
0.00398357
0.00428931
0.00417739
0.0041044
0.00420924
0.0041367
0.00416313
0.00407555
0.00408543
0.00411184
0.00414175
0.00394144
0.00400654
0.00407346
0.00519362
0.0053059
0.00466282
0.00409927
0.00424618
0.00491675
0.00357196
0.00533385
0.00521521
0.00454486
0.00268001
0.0017039
0.000736284
5.04402e-06
8.99005e-05
3.84941e-08
1.60729e-08
7.48703e-09
3.33997e-09
1.46916e-09
6.30447e-10
2.64468e-10
1.1144e-10
5.13243e-11
2.99141e-11
2.35361e-11
1.68261e-11
1.24026e-11
1.93213e-11
5.72301e-11
3.35267e-10
2.3177e-09
1.72598e-08
1.56486e-07
1.16682e-06
9.54944e-06
7.78145e-05
0.000357959
0.00113608
0.00180047
0.00186136
0.00153354
0.00116903
0.00126934
0.000933385
0.00105447
0.000675862
0.000806305
0.000413715
0.00054422
0.000172583
0.000288298
4.33101e-05
8.78603e-05
1.13642e-05
8.5289e-06
9.33515e-05
2.50759e-05
0.000986285
0.000476371
0.0023936
0.0021165