/*--------------------------------*- C++ -*----------------------------------*\
  =========                 |
  \\      /  F ield         | OpenFOAM: The Open Source CFD Toolbox
   \\    /   O peration     | Website:  https://openfoam.org
    \\  /    A nd           | Version:  dev
     \\/     M anipulation  |
\*---------------------------------------------------------------------------*/
FoamFile
{
    version     2.0;
    format      ascii;
    class       volScalarField;
    location    "2500";
    object      k;
}
// * * * * * * * * * * * * * * * * * * * * * * * * * * * * * * * * * * * * * //

dimensions      [0 2 -2 0 0 0 0];

internalField   nonuniform List<scalar> 
9842
(
0.000159619
0.000165962
0.00015113
0.000141747
0.000211574
0.000122444
0.000120193
0.000224646
0.000189907
0.000109309
0.000111036
0.000211527
0.000227819
0.00014651
0.000106107
0.000105669
0.000178744
0.000249234
0.000199655
0.000124079
0.000104218
0.000102932
0.000145795
0.000246929
0.000238404
0.000154756
0.000115617
0.000102829
0.00010144
0.000127291
0.000229869
0.000259655
0.000200258
0.000130786
0.000111074
0.000101984
0.000100658
0.000115574
0.000192564
0.000268149
0.000241591
0.000156763
0.00012087
0.000107992
0.000101393
0.00010026
0.000109014
0.00015584
0.00026007
0.000264515
0.000197215
0.000133531
0.000115399
0.000105863
0.000100953
0.000100056
0.000105477
0.000134025
0.000235684
0.000279296
0.000240018
0.000156754
0.00012354
0.000111461
0.0001043
0.000100638
9.99195e-05
0.000103575
0.000120831
0.000193064
0.000278634
0.000269006
0.000191952
0.000134664
0.000117929
0.000108621
0.00010312
0.000100396
9.97862e-05
0.000102441
0.000113386
0.000157488
0.000264985
0.000285176
0.000235652
0.000155279
0.000124587
0.000113765
0.000106536
0.000102193
0.000100215
9.96873e-05
0.000101711
0.000109192
0.000136038
0.000231505
0.000293472
0.000270138
0.000187154
0.00013527
0.000118923
0.000110573
0.000104925
0.000101414
0.000100077
9.9642e-05
0.000101221
0.000107091
0.000123524
0.000185555
0.000287145
0.000289811
0.000230333
0.000152906
0.000125416
0.000114808
0.000108134
0.000103588
0.000100779
9.99604e-05
9.96115e-05
0.000100892
0.000105678
0.000116515
0.00015421
0.000264945
0.000304108
0.000268424
0.000183239
0.000134754
0.000119507
0.000111615
0.000106152
0.000102467
0.000100296
9.98183e-05
9.95535e-05
0.000100627
0.000104406
0.000113105
0.00013529
0.000219501
0.000303829
0.000295134
0.000222394
0.000151034
0.000125445
0.000115281
0.000109038
0.000104541
0.000101468
9.99361e-05
9.96585e-05
9.95239e-05
0.00010038
0.000103379
0.000111169
0.000124418
0.000175951
0.000290761
0.00031076
0.00026555
0.000178597
0.000133872
0.000119594
0.000112047
0.000106929
0.000103198
0.000100605
9.96312e-05
9.95104e-05
9.95304e-05
0.000100193
0.000102626
0.000109418
0.000118459
0.000149005
0.000257262
0.000319534
0.000297498
0.000214634
0.000149434
0.000124899
0.000115333
0.000109443
0.00010517
0.00010202
9.99413e-05
9.92965e-05
9.93981e-05
9.95479e-05
0.000100078
0.000102038
0.000107587
0.000115272
0.000133102
0.000205122
0.000313664
0.00031642
0.000259509
0.000173146
0.000133453
0.000119265
0.00011207
0.000107238
0.00010364
0.000100945
9.94235e-05
9.89367e-05
9.9323e-05
9.9565e-05
9.99985e-05
0.000101692
0.000105932
0.000113182
0.000124015
0.000167546
0.000291737
0.000331503
0.000296075
0.000208561
0.000146945
0.0001245
0.00011521
0.00010941
0.000105324
0.000102323
9.99841e-05
9.89601e-05
9.85752e-05
9.92759e-05
9.9578e-05
9.99267e-05
0.000101443
0.000104644
0.00011133
0.000118891
0.00014436
0.000245099
0.000331713
0.000322928
0.000249665
0.000169106
0.000132378
0.000118789
0.000111968
0.000107122
0.000103737
0.000101139
9.92342e-05
9.84824e-05
9.82548e-05
9.9239e-05
9.95936e-05
9.98626e-05
0.000101162
0.000103787
0.000109409
0.00011581
0.000131038
0.000192633
0.000319702
0.000338046
0.000293773
0.000200922
0.000144771
0.000123938
0.000114667
0.000109214
0.000105239
0.000102346
0.00010003
9.86027e-05
9.79422e-05
9.80229e-05
9.9196e-05
9.96005e-05
9.98106e-05
0.000100871
0.000103222
0.000107619
0.000113843
0.000123392
0.000160865
0.000287632
0.000348589
0.000324589
0.000239848
0.000164585
0.000131232
0.000118428
0.000111403
0.00010693
0.000103608
0.000101057
9.90564e-05
9.79795e-05
9.74257e-05
9.78547e-05
9.91633e-05
9.95922e-05
9.97598e-05
0.000100602
0.000102776
0.000106213
0.000112085
0.000118924
0.000141285
0.000232854
0.000344209
0.000344873
0.000284957
0.000192796
0.000142512
0.000123226
0.000114334
0.000108743
0.000104999
0.00010214
9.98976e-05
9.82128e-05
9.73727e-05
9.70072e-05
9.76976e-05
9.914e-05
9.95728e-05
9.96963e-05
0.000100381
0.000102341
0.000105108
0.000110334
0.000116078
0.000129855
0.000185659
0.000324612
0.000360244
0.000322712
0.000229878
0.000160056
0.000130071
0.000117742
0.000111044
0.000106536
0.00010333
0.000100824
9.88281e-05
9.74876e-05
9.67825e-05
9.66957e-05
9.7585e-05
9.91306e-05
9.95599e-05
9.96109e-05
0.000100173
0.000101833
0.00010412
0.000108662
0.000114171
0.000123174
0.000156971
0.000281494
0.000365726
0.000350643
0.000271894
0.000185097
0.000140595
0.000122396
0.000113615
0.000108401
0.000104649
0.000101855
9.96283e-05
9.78862e-05
9.68337e-05
9.62341e-05
9.64225e-05
9.75163e-05
9.91359e-05
9.95338e-05
9.94636e-05
9.99436e-05
0.00010133
0.000103316
0.000107139
0.000112467
0.000119034
0.00013964
0.000223244
0.00035686
0.000367202
0.000317478
0.000218652
0.000155455
0.000129055
0.000117074
0.000110483
0.000106193
0.000103007
0.000100528
9.8576e-05
9.70674e-05
9.62168e-05
9.58121e-05
9.62126e-05
9.74893e-05
9.91438e-05
9.95036e-05
9.92938e-05
9.97049e-05
0.000100843
0.000102627
0.000105816
0.000110816
0.000116272
0.000129206
0.000181152
0.000330917
0.000383629
0.000350595
0.000258687
0.000177967
0.000137864
0.000121627
0.000113174
0.000107972
0.00010434
0.00010155
9.93502e-05
9.762e-05
9.63515e-05
9.5631e-05
9.5487e-05
9.60972e-05
9.75254e-05
9.9155e-05
9.9467e-05
9.91301e-05
9.94594e-05
0.000100397
0.000102019
0.000104623
0.000109266
0.000114392
0.000122764
0.000154552
0.000278414
0.000383536
0.000376949
0.000303919
0.000207452
0.000151763
0.000127397
0.000116504
0.000110153
0.000105897
0.000102738
0.000100259
9.83434e-05
9.67481e-05
9.57101e-05
9.51389e-05
9.52691e-05
9.60968e-05
9.76009e-05
9.92062e-05
9.94187e-05
9.8974e-05
9.91982e-05
9.99495e-05
0.000101372
0.000103502
0.000107842
0.000112812
0.000118726
0.00013821
0.000217129
0.00037101
0.00039391
0.000348285
0.000244851
0.000170463
0.000136079
0.000120641
0.000112742
0.000107734
0.000104136
0.000101355
9.91934e-05
9.74273e-05
9.59944e-05
9.51807e-05
9.47964e-05
9.52091e-05
9.63089e-05
9.77232e-05
9.91858e-05
9.93625e-05
9.87662e-05
9.88761e-05
9.94998e-05
0.000100717
0.000102575
0.000106453
0.000111279
0.000116017
0.00012822
0.000178499
0.000338726
0.000409445
0.000380038
0.000288143
0.000196853
0.000147301
0.000126327
0.000115925
0.000109876
0.000105752
0.000102661
0.000100215
9.82643e-05
9.66284e-05
9.54237e-05
9.48139e-05
9.46576e-05
9.53752e-05
9.67613e-05
9.81225e-05
9.92563e-05
9.93021e-05
9.85003e-05
9.85202e-05
9.90617e-05
0.000100095
0.000101712
0.000105035
0.000109805
0.000114047
0.000122075
0.000153302
0.000279597
0.000406947
0.000405696
0.000336083
0.000230586
0.000164074
0.000133454
0.000119911
0.000112473
0.000107633
0.000104161
0.000101451
9.92891e-05
9.74902e-05
9.60224e-05
9.50416e-05
9.46636e-05
9.47899e-05
9.57945e-05
9.73166e-05
9.84597e-05
9.93755e-05
9.92377e-05
9.81876e-05
9.81633e-05
9.85425e-05
9.94697e-05
0.000100903
0.000103692
0.000108375
0.000112378
0.000118045
0.000137636
0.000217501
0.000389809
0.000424434
0.000379818
0.000271043
0.000186565
0.00014393
0.000124848
0.000115489
0.000109836
0.000105865
0.000102892
0.000100538
9.86013e-05
9.69617e-05
9.56342e-05
9.49026e-05
9.47987e-05
9.53624e-05
9.67127e-05
9.83003e-05
9.91942e-05
9.97067e-05
9.94896e-05
9.91678e-05
9.78593e-05
9.7775e-05
9.7867e-05
9.87917e-05
0.000100121
0.000102443
0.000107008
0.000110879
0.000115228
0.00012785
0.000179716
0.000350455
0.000438834
0.000412201
0.000318599
0.000216118
0.000157716
0.00013159
0.000119116
0.000112299
0.000107797
0.000104541
0.000102005
9.99523e-05
9.81869e-05
9.67011e-05
9.55548e-05
9.50863e-05
9.54343e-05
9.66843e-05
9.83964e-05
9.96901e-05
9.9512e-05
9.9842e-05
9.97546e-05
9.96321e-05
9.9105e-05
9.75656e-05
9.73276e-05
9.7134e-05
9.80484e-05
9.93496e-05
0.000101423
0.000105675
0.000109553
0.000113091
0.000121615
0.000155083
0.000288333
0.000434268
0.000437363
0.000369327
0.000253921
0.000177008
0.000140151
0.000123691
0.000115132
0.000109954
0.000106366
0.000103657
0.000101545
9.97415e-05
9.81583e-05
9.68194e-05
9.58976e-05
9.58908e-05
9.69287e-05
9.87291e-05
9.99402e-05
0.000100384
0.000100658
0.000100729
0.000101588
9.97774e-05
0.000100404
9.97918e-05
9.97768e-05
9.90297e-05
9.73266e-05
9.68364e-05
9.64938e-05
9.72283e-05
9.85309e-05
0.000100518
0.000104413
0.000108357
0.000111461
0.000117487
0.000139337
0.000226021
0.000414298
0.000457323
0.000412954
0.000297503
0.000202776
0.000152155
0.000129362
0.000118486
0.000112314
0.000108346
0.000105518
0.000103311
0.000101571
9.99997e-05
9.86506e-05
9.76408e-05
9.71254e-05
9.77816e-05
9.94902e-05
0.000100707
0.000101195
0.000101535
0.000101493
0.000102423
0.000102566
0.000100095
0.000101037
9.98647e-05
9.99563e-05
9.89671e-05
9.71889e-05
9.63086e-05
9.59205e-05
9.63053e-05
9.76172e-05
9.95958e-05
0.000103305
0.000107245
0.000110218
0.000114614
0.000129227
0.000187522
0.00037263
0.000471798
0.000445876
0.00034901
0.000235254
0.000168061
0.000136928
0.000122467
0.000114932
0.000110465
0.000107446
0.000105222
0.00010358
0.000102201
0.000100978
0.00010012
9.96827e-05
9.98944e-05
0.000101181
0.000101612
0.000102447
0.000102126
0.000102819
0.000103339
0.000102299
0.000103529
0.000103534
0.00010053
0.000101676
9.99471e-05
0.000100186
9.89592e-05
9.71196e-05
9.57877e-05
9.54208e-05
9.53657e-05
9.65844e-05
9.85994e-05
0.000102153
0.000106263
0.000109253
0.00011261
0.000122612
0.000162206
0.000310892
0.000466995
0.000471433
0.000402053
0.000276296
0.000189517
0.000146657
0.000127432
0.000117894
0.000112612
0.000109411
0.000107201
0.000105669
0.000104617
0.000103761
0.000103139
0.000103106
0.000103499
0.000104161
0.000103281
0.000104844
0.000103417
0.000104406
0.000104068
0.000104785
0.00010449
0.000103092
0.000104664
0.000104481
0.000101022
0.00010231
0.00010003
0.0001005
9.90039e-05
9.70508e-05
9.54095e-05
9.50307e-05
9.45763e-05
9.5549e-05
9.74898e-05
0.000100918
0.000105408
0.000108539
0.000111241
0.000118274
0.000145341
0.000249613
0.00044772
0.000492434
0.000446309
0.000322244
0.000217688
0.000159871
0.00013363
0.000121266
0.000114881
0.000111294
0.000109205
0.000107792
0.000107066
0.000106819
0.000106843
0.000107051
0.000107679
0.00010851
0.000106366
0.00010891
0.000105448
0.000107232
0.000105551
0.000106624
0.000105305
0.000106106
0.000105728
0.000103913
0.000105773
0.000105492
0.000101517
0.000103005
0.000100137
0.000100855
9.91335e-05
9.71855e-05
9.53984e-05
9.47453e-05
9.40415e-05
9.46762e-05
9.63224e-05
9.97052e-05
0.000104502
0.000108253
0.000110461
0.000115477
0.00013438
0.000205719
0.000408598
0.000508322
0.000480147
0.000376561
0.000252495
0.000177191
0.000141654
0.000125317
0.000117275
0.000113107
0.000110965
0.000109882
0.000109418
0.00010984
0.000110411
0.000111021
0.000111686
0.000113373
0.000111337
0.000115028
0.000109096
0.000112107
0.00010799
0.000109989
0.000107104
0.000108411
0.000106667
0.000107568
0.000106959
0.000104852
0.000106929
0.000106629
0.000102029
0.000103821
0.000100264
0.00010117
9.94346e-05
9.76834e-05
9.58917e-05
9.47786e-05
9.39155e-05
9.40729e-05
9.53133e-05
9.83017e-05
0.000103376
0.000108218
0.00011048
0.000113988
0.000127289
0.000178041
0.000352359
0.000505518
0.000506911
0.000431347
0.000295285
0.000200242
0.000151927
0.000130317
0.000119963
0.000114853
0.000112519
0.000111672
0.000111606
0.000112458
0.000113518
0.00011467
0.00011703
0.000119575
0.000118608
0.000125887
0.000115672
0.000121809
0.0001127
0.000117178
0.000110308
0.000113279
0.00010885
0.000110682
0.000108063
0.000109167
0.000108247
0.000105948
0.000108175
0.000107847
0.000102633
0.000104794
0.000100381
0.000101575
0.000100119
9.88171e-05
9.69246e-05
9.53853e-05
9.4334e-05
9.39151e-05
9.46214e-05
9.71232e-05
0.000102462
0.000108276
0.000111102
0.000113801
0.000123188
0.000159867
0.000294216
0.000491754
0.000528502
0.000477367
0.000342983
0.000229688
0.000165779
0.000136491
0.000123077
0.000116662
0.000113705
0.000113049
0.000113491
0.00011475
0.000116377
0.000118331
0.00012115
0.000134327
0.000136268
0.000159828
0.00013311
0.0001574
0.00012631
0.000147109
0.000119505
0.000134411
0.000114508
0.00012374
0.000111313
0.000116358
0.000109536
0.000112111
0.000109668
0.000107125
0.000109505
0.000108916
0.000103407
0.000105961
0.000100599
0.000102011
0.000101177
0.000100953
9.88861e-05
9.68187e-05
9.53466e-05
9.43169e-05
9.4435e-05
9.63798e-05
0.000101097
0.000107921
0.00011285
0.000114492
0.000121642
0.000148395
0.000244459
0.000461256
0.00054547
0.000512672
0.000398107
0.000265873
0.000183921
0.000144517
0.000126793
0.000118498
0.000114829
0.000113932
0.000114744
0.000116525
0.000118786
0.00012193
0.000131034
0.00015057
0.000192183
0.000254709
0.000206699
0.000308668
0.000196819
0.000312451
0.000173418
0.00027574
0.000148862
0.000219905
0.000130218
0.000171707
0.000118824
0.00013918
0.000112796
0.000121573
0.000113075
0.000107781
0.000112713
0.000111441
0.000104618
0.00010651
0.000100782
0.00010299
0.000103258
0.000105239
0.000102331
9.91524e-05
9.6949e-05
9.52701e-05
9.47506e-05
9.61875e-05
0.000100005
0.000106811
0.000114175
0.000117434
0.000121968
0.000142174
0.000212797
0.000419216
0.000552158
0.00054083
0.000453373
0.000308449
0.000207666
0.000154987
0.000131421
0.000120635
0.000115762
0.000114371
0.000115287
0.000117547
0.000120386
0.000124561
0.000141514
0.000239162
0.000352044
0.000324367
0.000459549
0.00071387
0.000544103
0.000918912
0.00051472
0.000997988
0.000415967
0.000875033
0.000296478
0.000637604
0.000205016
0.000412527
0.000150761
0.000249323
0.000124039
0.000163218
0.000125156
0.000109648
0.000124423
0.000121334
0.000105408
0.000107891
0.000101077
0.000104026
0.000107087
0.000113588
0.000109028
0.000103135
9.94434e-05
9.69063e-05
9.55739e-05
9.6142e-05
9.9391e-05
0.000104237
0.000113711
0.000120237
0.000124758
0.000140261
0.000193834
0.000370853
0.000546128
0.000563359
0.00050248
0.000356471
0.000237033
0.000168951
0.000137393
0.000123203
0.000116788
0.00011444
0.000115286
0.000117838
0.000121206
0.000126075
0.000143898
0.000321608
0.00127897
0.000967801
0.00153961
0.00142159
0.00204164
0.0016737
0.0024961
0.00167495
0.00263726
0.00140183
0.00248114
0.00095078
0.00204315
0.00056559
0.00136418
0.000302774
0.000744698
0.000174255
0.00035657
0.000179479
0.000116771
0.000178231
0.000168072
0.000106113
0.000112057
0.000101836
0.000104256
0.000113948
0.0001312
0.000122672
0.000110316
0.000103273
9.92529e-05
9.67569e-05
9.64528e-05
9.88487e-05
0.000102471
0.000110825
0.000120797
0.000130348
0.000141844
0.000184106
0.000327888
0.000530399
0.000582608
0.000540302
0.000408846
0.000272563
0.000187052
0.000145221
0.000126542
0.000117927
0.000114489
0.000114961
0.000117689
0.000121312
0.000126712
0.000143275
0.000322058
0.0016553
0.00394429
0.0046116
0.00273273
0.00342553
0.00336812
0.00426196
0.00362792
0.0045551
0.00356588
0.00452131
0.00324665
0.00430745
0.00267224
0.00389219
0.00181804
0.00323548
0.000928275
0.00225873
0.000398561
0.0010826
0.000414782
0.000150887
0.000406053
0.000367794
0.000108175
0.000132417
0.000102286
0.000105246
0.000123788
0.000169729
0.000153948
0.000125363
0.000110027
0.000102518
9.81969e-05
9.70907e-05
9.82964e-05
0.000101476
0.000106995
0.000119026
0.000131196
0.000147826
0.000181899
0.000296193
0.000505751
0.000597365
0.000570551
0.000464044
0.000312922
0.000210079
0.000155474
0.000130715
0.000119469
0.000114544
0.000113953
0.000116833
0.000120975
0.000126644
0.000141372
0.000314348
0.00167925
0.00498629
0.00553053
0.00639247
0.00689347
0.00508797
0.00578069
0.00533659
0.00598463
0.00527957
0.00583741
0.00510768
0.00566854
0.00484379
0.0055002
0.00442526
0.00527312
0.00373553
0.00488196
0.0026467
0.00417126
0.00118079
0.00292565
0.00120833
0.000300147
0.00117208
0.0010339
0.000117392
0.00022355
0.000102246
0.000108464
0.00015463
0.00023868
0.000223449
0.000161666
0.000124433
0.000107581
0.00010011
9.8126e-05
9.82088e-05
0.00010088
0.000105567
0.000115396
0.000130097
0.000151383
0.000184958
0.000278303
0.000480288
0.000605278
0.000595312
0.000515397
0.000358563
0.00023798
0.000168864
0.000136255
0.000121435
0.000114715
0.000112697
0.000114875
0.000119638
0.000125978
0.000137326
0.000285664
0.00172054
0.00574874
0.00584951
0.00733125
0.00770583
0.00745821
0.00785276
0.00652901
0.00700949
0.00630713
0.00673165
0.0060712
0.00641259
0.00592124
0.00623266
0.00582102
0.00619155
0.0056683
0.00618151
0.00531513
0.00608822
0.00455284
0.00574485
0.00308826
0.00487639
0.00313812
0.000793924
0.00302184
0.00264304
0.000159822
0.000544689
0.000102694
0.000122017
0.000170512
0.00028763
0.00031053
0.000242996
0.000159952
0.000118739
0.000102972
9.93263e-05
9.87438e-05
0.000100773
0.000105636
0.000114463
0.00012726
0.000150808
0.000190449
0.000272415
0.000459753
0.000606606
0.000616677
0.000557672
0.00040605
0.000270738
0.000185877
0.000143486
0.0001243
0.000115179
0.000111762
0.000112656
0.000117027
0.000123969
0.000134148
0.000220165
0.00159214
0.00729886
0.00795433
0.00858512
0.00823704
0.00853324
0.00805212
0.00850468
0.00715118
0.00759257
0.00679041
0.00727292
0.0065573
0.00696619
0.00648954
0.00681994
0.0065493
0.00688421
0.00662414
0.00704848
0.00657137
0.00718324
0.00619183
0.00712875
0.00515081
0.00666361
0.00533795
0.00200736
0.00537434
0.00512737
0.00032453
0.00141495
0.000104842
0.000170428
0.000199734
0.000326594
0.000321684
0.000239899
0.00014828
0.000110091
0.000101534
9.99676e-05
0.000101565
0.000107119
0.000116814
0.000127653
0.000148696
0.000192671
0.000274722
0.000447115
0.000605135
0.00063659
0.000591535
0.000456719
0.000307587
0.000206771
0.00015306
0.000128069
0.000116172
0.000111184
0.000110408
0.000113959
0.000120407
0.000130399
0.000172408
0.00114588
0.00700383
0.00920971
0.00933686
0.00884963
0.00906836
0.00892358
0.00927914
0.00905305
0.00962316
0.00782872
0.00844526
0.00752358
0.00823627
0.00727263
0.00786749
0.00723087
0.00767021
0.00741835
0.00779069
0.00768072
0.00810963
0.00785801
0.00843274
0.00778086
0.00860399
0.00713063
0.00846692
0.00754603
0.00443119
0.00782973
0.00779981
0.000782467
0.00317019
0.000111586
0.000308813
0.000173851
0.000320165
0.000311806
0.000215727
0.000129084
0.000107861
0.000103087
0.000104748
0.000111695
0.000126288
0.000133927
0.000148907
0.000192424
0.000282004
0.000441484
0.000604037
0.000654509
0.000620057
0.000506473
0.000347131
0.000231851
0.000165192
0.000133011
0.00011793
0.000110983
0.000108621
0.000110688
0.000116546
0.000125579
0.000151948
0.000667778
0.00583193
0.00933898
0.00928461
0.00997724
0.0100535
0.00957979
0.00980628
0.0100999
0.0104778
0.0104372
0.0108617
0.00899495
0.00977474
0.00868777
0.00961247
0.00832549
0.00919148
0.00826698
0.00889699
0.00855906
0.00906519
0.0089837
0.00952842
0.00933383
0.00999429
0.00948025
0.0103307
0.00916075
0.0104083
0.00982259
0.0072811
0.0103696
0.0106807
0.00914475
0.00180787
0.0058769
0.000118937
0.000472123
0.000147164
0.000301237
0.00027922
0.000171695
0.00012431
0.00011206
0.000113524
0.000123413
0.000144932
0.000153815
0.000155835
0.00019331
0.000287751
0.000440717
0.000604192
0.000671009
0.000645201
0.000551841
0.000388634
0.000260294
0.000180233
0.000139441
0.000120336
0.000111083
0.000107335
0.0001076
0.000112235
0.000120441
0.000140383
0.000426464
0.00423885
0.00944241
0.0100646
0.0101166
0.0111602
0.0112312
0.0107728
0.0109959
0.0111632
0.0114163
0.0111246
0.0112848
0.0104051
0.0108889
0.010093
0.0106973
0.00969698
0.0103821
0.00962615
0.0102413
0.0100652
0.0105271
0.01063
0.0112027
0.0110904
0.0118121
0.0113734
0.0122446
0.0113532
0.0122272
0.0117214
0.0112357
0.0120686
0.0105528
0.00839468
0.0104649
0.0118311
0.0129131
0.0123892
0.0120265
0.00195305
0.00428739
0.00993954
0.00933503
0.00667028
0.000117571
0.00271113
0.000359155
0.00140893
0.000139853
0.000278249
0.000233759
0.000157001
0.000132176
0.000134225
0.000150849
0.000175213
0.000185449
0.000176123
0.000199076
0.000291214
0.000441613
0.000605191
0.000686062
0.000667868
0.00059201
0.000430504
0.000290948
0.000198189
0.000147769
0.000123546
0.000111685
0.000106582
0.000105219
0.000108093
0.000115118
0.000130997
0.000301527
0.00294688
0.00917221
0.0110891
0.0107388
0.0112321
0.0111901
0.0122677
0.0125456
0.0116648
0.0119522
0.0114059
0.0115628
0.0110103
0.0106712
0.0110138
0.0111479
0.0107467
0.0109688
0.0106056
0.0108055
0.0108823
0.0109696
0.0115938
0.0117272
0.0124304
0.0127999
0.0124207
0.0127767
0.013102
0.0134673
0.0126804
0.0132033
0.013433
0.0142215
0.0136614
0.0127161
0.0127153
0.0133811
0.0133036
0.0132238
0.012083
0.0119076
0.0132093
0.0142064
0.0137536
0.013459
0.00545018
0.011527
0.0107988
0.00819966
0.000150733
0.00051831
0.00379864
0.00201819
0.000153452
0.000262428
0.000203914
0.000164476
0.000169984
0.000193258
0.000213748
0.000222025
0.000210395
0.000215237
0.000294394
0.000441435
0.000604225
0.000698941
0.000688574
0.000625477
0.000471503
0.000323065
0.000218658
0.0001581
0.000128137
0.000113422
0.000106392
0.000103536
0.000104441
0.000109626
0.000122297
0.000226556
0.00195003
0.00874564
0.0112663
0.0126692
0.0127461
0.0127012
0.0127332
0.0126211
0.0131523
0.0117841
0.0121467
0.010405
0.0103975
0.00915242
0.0081065
0.0108092
0.0102277
0.0107291
0.0102567
0.0108555
0.0105052
0.0116005
0.0111904
0.0128293
0.0125809
0.0136717
0.0138879
0.013914
0.0139204
0.0138562
0.0142188
0.0144939
0.0138655
0.0144272
0.0146683
0.0155352
0.0149947
0.0139742
0.0139385
0.0146231
0.0145866
0.0145231
0.0135429
0.0134329
0.0145954
0.0150655
0.0155542
0.0148743
0.00677955
0.0130589
0.0123304
0.0096915
0.00114948
0.000788756
0.000119285
0.000308882
0.00494942
0.00285034
0.000184389
0.000253976
0.000203291
0.000205144
0.000233794
0.000252396
0.0002587
0.000248064
0.000243312
0.000301719
0.000440469
0.000601954
0.00070726
0.000708044
0.000654595
0.000512046
0.000355795
0.000241353
0.000170698
0.000134048
0.000115897
0.000106549
0.00010247
0.000101763
0.000104928
0.00011403
0.00017897
0.00121096
0.00765367
0.0104235
0.0143604
0.0138522
0.0144001
0.0144522
0.0137034
0.0141558
0.0120652
0.0130122
0.0105958
0.0111935
0.00751698
0.00749513
0.0055891
0.00417486
0.00917376
0.00746687
0.00969305
0.008276
0.0104902
0.00944955
0.0119554
0.011082
0.0137865
0.0135989
0.0132924
0.0129439
0.0146788
0.0147633
0.0147397
0.014628
0.0150723
0.0153908
0.0156001
0.0152266
0.015878
0.0160035
0.0170528
0.0165019
0.0153209
0.0152745
0.0160594
0.0160551
0.0158927
0.0150037
0.0149264
0.0159677
0.0164527
0.0169427
0.0162706
0.00816285
0.0145677
0.013845
0.0111931
0.00377731
0.00155828
0.000135766
0.000401259
0.00616671
0.00023554
0.000252884
0.000232253
0.000263839
0.000285184
0.000291446
0.000283
0.000276297
0.0003155
0.000438335
0.000597487
0.000708078
0.00072389
0.000679933
0.00054998
0.000388571
0.000265453
0.000185385
0.000141042
0.000118919
0.000107189
0.000101991
0.000100004
0.00010125
0.00010721
0.00014845
0.000747081
0.00570374
0.00919014
0.0145521
0.0163303
0.0167975
0.0155369
0.0161026
0.0139314
0.0147817
0.010271
0.0117382
0.0078749
0.00891459
0.00361166
0.00372609
0.00303446
0.00212697
0.00644779
0.00453864
0.00807449
0.00655682
0.0100083
0.00874985
0.0124877
0.0119831
0.0114263
0.0108348
0.0144098
0.0141173
0.0137421
0.0133086
0.0157028
0.0156969
0.0155825
0.0153628
0.0163764
0.0166345
0.0167735
0.016809
0.0175321
0.0174857
0.0186879
0.0181716
0.0168978
0.0167613
0.017701
0.0177639
0.0173946
0.0164238
0.0163638
0.0173389
0.0179332
0.0183669
0.0176261
0.00957244
0.0160185
0.0153096
0.0126861
0.0074167
0.00473612
0.00200831
0.000237627
0.000810844
0.000287381
0.00027126
0.000284976
0.000309656
0.000317737
0.000313199
0.000307749
0.000337294
0.000439108
0.00058854
0.000705852
0.00073283
0.000700653
0.000584644
0.000420305
0.000289894
0.000201134
0.000149142
0.000122474
0.000108722
0.000101979
9.89748e-05
9.86901e-05
0.000102305
0.000129185
0.000494536
0.0038217
0.00811782
0.0130543
0.0185131
0.01822
0.0177366
0.0183463
0.0158272
0.0168731
0.0132126
0.0146039
0.0076746
0.0095435
0.00449959
0.0059616
0.00169612
0.00163719
0.00240411
0.00169827
0.00498245
0.0035166
0.00739195
0.00603092
0.00993182
0.00867656
0.0128051
0.0122462
0.0116441
0.0110287
0.0150538
0.0146689
0.0142233
0.0137292
0.016788
0.0166769
0.0164445
0.01611
0.0177964
0.0179719
0.0179966
0.0185909
0.0193231
0.0190653
0.0203671
0.0199283
0.0186769
0.0184217
0.0194959
0.0196188
0.0190177
0.0177604
0.0176939
0.0186881
0.0194632
0.019766
0.018893
0.0109886
0.0173626
0.0166973
0.0141463
0.00867951
0.00571021
0.00280877
0.000633323
0.00185497
0.000347745
0.000312551
0.000328395
0.000338948
0.000337311
0.000336249
0.000360743
0.00044371
0.000576162
0.000699001
0.000734196
0.000714426
0.000614926
0.000450216
0.000313813
0.000217427
0.000158633
0.000127097
0.000111104
0.00010239
9.85409e-05
9.71696e-05
9.90838e-05
0.000117006
0.000362321
0.00264247
0.00777568
0.0115562
0.0193301
0.0200053
0.0208854
0.0181162
0.0192336
0.0151553
0.016752
0.0114757
0.0133743
0.00471953
0.00671313
0.00195798
0.00300721
0.0012693
0.00103157
0.00254128
0.00184537
0.00469505
0.00347757
0.0074792
0.00645133
0.0108849
0.0103196
0.00935779
0.009856
0.0131998
0.0126302
0.0120374
0.011445
0.0156956
0.0152244
0.0147186
0.0141965
0.0178738
0.0176113
0.0172275
0.0167584
0.0192608
0.0192768
0.0191082
0.0204436
0.0211287
0.0205598
0.0217359
0.0215951
0.0205343
0.0201648
0.021274
0.0214512
0.0206316
0.018952
0.0188457
0.0199384
0.0209022
0.0209986
0.01999
0.0123999
0.0185474
0.0179734
0.01556
0.00994801
0.00679724
0.00404632
0.00140052
0.00327954
0.000379329
0.000351127
0.00035948
0.000357209
0.000360645
0.000385195
0.000453454
0.000565675
0.000683879
0.000731905
0.000719922
0.000638812
0.000477357
0.00033664
0.000234611
0.000169695
0.000133366
0.000114569
0.000104007
9.85266e-05
9.64315e-05
9.72448e-05
0.000109686
0.000286436
0.00201619
0.00743688
0.0103592
0.0181142
0.0223665
0.0224832
0.020426
0.0215294
0.0173941
0.0190543
0.013387
0.0154873
0.00890275
0.0111614
0.00209191
0.00365205
0.00102472
0.00131963
0.0012977
0.000948986
0.00366774
0.00274331
0.00545968
0.00454483
0.00896819
0.00852262
0.00850587
0.0116589
0.0112561
0.0105452
0.010887
0.0136718
0.0131404
0.0126162
0.0121179
0.0162416
0.0157156
0.0152089
0.0147388
0.0187681
0.0182958
0.0177392
0.0171644
0.0205299
0.02026
0.0197868
0.0221904
0.0225948
0.0216051
0.0223008
0.0226434
0.0222495
0.0217762
0.0227668
0.0229893
0.0220102
0.0199134
0.019751
0.0209697
0.0220217
0.0218808
0.0207995
0.0137873
0.0195272
0.0191137
0.0169101
0.0112039
0.00796457
0.00552317
0.00168297
0.00424819
0.000415559
0.000382244
0.00038324
0.000382052
0.000409525
0.000465901
0.000558246
0.000664185
0.000724117
0.000719599
0.000653881
0.000500486
0.000358027
0.000252293
0.000182109
0.000141031
0.000118921
0.000106491
9.89291e-05
9.6208e-05
9.64393e-05
0.000105817
0.000241342
0.0016409
0.00701301
0.00937512
0.016127
0.0236723
0.0224471
0.0237088
0.0195098
0.0211374
0.0154308
0.0175883
0.0106185
0.0130828
0.00577812
0.00813699
0.000975783
0.00152201
0.000767357
0.000760089
0.00180334
0.001086
0.00546098
0.00410621
0.00766522
0.00666011
0.0102041
0.00984834
0.011143
0.0106354
0.0129016
0.0126332
0.0121003
0.0123675
0.0143042
0.0138953
0.0135262
0.013196
0.0166267
0.0161628
0.0157898
0.0154965
0.0191762
0.0185178
0.0178908
0.0173761
0.0211522
0.0204899
0.0197267
0.0232524
0.0231272
0.021645
0.0218485
0.0225837
0.0233918
0.0229576
0.0234295
0.0235202
0.0228618
0.0205658
0.0203886
0.0216166
0.0225736
0.0221881
0.0212336
0.0151128
0.0202895
0.0200628
0.0181826
0.0123997
0.00917269
0.00693948
0.00115248
0.00431635
0.000453509
0.000408976
0.000413762
0.000429866
0.000480475
0.000553358
0.000643846
0.00070666
0.000715225
0.000660392
0.000518329
0.000377379
0.000269584
0.00019497
0.000149263
0.00012373
0.000109132
0.000100188
9.63025e-05
9.62901e-05
0.000104419
0.000218543
0.00138318
0.00655252
0.00852974
0.0140984
0.0233385
0.0239665
0.024735
0.0211442
0.0226931
0.0171774
0.019295
0.012298
0.0148216
0.00708475
0.00967899
0.00267205
0.00464568
0.000614391
0.000757232
0.000739098
0.000609428
0.00269407
0.00149324
0.00740815
0.00558888
0.0101703
0.00948398
0.00909019
0.0118085
0.011482
0.0127036
0.0121777
0.0145591
0.0143633
0.0138522
0.0141277
0.0152503
0.0150496
0.0148819
0.0147254
0.0170093
0.0167833
0.0166806
0.016639
0.0189924
0.0183733
0.0179276
0.017736
0.0208492
0.0200188
0.0192346
0.0232288
0.0226207
0.0209497
0.0206886
0.0217516
0.0234602
0.023207
0.0231963
0.0230941
0.0228196
0.02092
0.0208357
0.0217342
0.0223903
0.0219245
0.021318
0.016341
0.0208986
0.0208149
0.0193048
0.0135399
0.0104093
0.00796891
0.000366448
0.00319439
0.000489265
0.000440915
0.00045674
0.000491286
0.000551265
0.00062354
0.000683572
0.000702953
0.000660144
0.000529801
0.000393306
0.000284895
0.000207319
0.00015763
0.000129018
0.000112636
0.000102618
9.70372e-05
9.64971e-05
0.000104441
0.000211797
0.00123849
0.00600757
0.00816643
0.0124166
0.0222368
0.0260095
0.0220529
0.0236943
0.0182856
0.0202952
0.0135122
0.015998
0.00821115
0.0108734
0.00333747
0.00559189
0.00111763
0.00186896
0.000512492
0.000520759
0.00081275
0.000584851
0.00373307
0.00207098
0.00944322
0.00826857
0.00715112
0.0115698
0.0109055
0.0103296
0.0114015
0.0135291
0.0131481
0.0142795
0.0136816
0.0164433
0.0162389
0.0156313
0.0159648
0.0166349
0.0166405
0.0166285
0.016573
0.0177117
0.0177995
0.0179771
0.0181832
0.0186387
0.0183874
0.0183406
0.018476
0.0199886
0.0192083
0.0188201
0.0223775
0.0213152
0.0197404
0.0194418
0.0202679
0.0227459
0.0227725
0.0222201
0.021849
0.0222724
0.0211283
0.0212004
0.0214753
0.0217731
0.0214014
0.0212737
0.0174986
0.0213532
0.0213852
0.0202085
0.0146805
0.0115756
0.00806656
0.000134259
0.00138232
0.000524674
0.000479068
0.000505479
0.000550341
0.000605844
0.000656205
0.000681714
0.00065605
0.000535107
0.000404133