/*--------------------------------*- C++ -*----------------------------------*\
  =========                 |
  \\      /  F ield         | OpenFOAM: The Open Source CFD Toolbox
   \\    /   O peration     | Website:  https://openfoam.org
    \\  /    A nd           | Version:  dev
     \\/     M anipulation  |
\*---------------------------------------------------------------------------*/
FoamFile
{
    version     2.0;
    format      ascii;
    class       volScalarField;
    location    "2500";
    object      N2;
}
// * * * * * * * * * * * * * * * * * * * * * * * * * * * * * * * * * * * * * //

dimensions      [0 0 0 0 0 0 0];

internalField   nonuniform List<scalar> 
9842
(
0.76699
0.76699
0.76699
0.76699
0.76699
0.76699
0.76699
0.76699
0.76699
0.76699
0.76699
0.76699
0.76699
0.76699
0.76699
0.76699
0.76699
0.76699
0.76699
0.76699
0.76699
0.76699
0.76699
0.76699
0.76699
0.76699
0.76699
0.76699
0.76699
0.76699
0.76699
0.76699
0.76699
0.76699
0.76699
0.76699
0.76699
0.76699
0.76699
0.76699
0.76699
0.76699
0.76699
0.76699
0.76699
0.76699
0.76699
0.76699
0.76699
0.76699
0.76699
0.76699
0.76699
0.76699
0.76699
0.76699
0.76699
0.76699
0.76699
0.76699
0.76699
0.76699
0.76699
0.76699
0.76699
0.76699
0.76699
0.76699
0.76699
0.76699
0.76699
0.76699
0.76699
0.76699
0.76699
0.76699
0.76699
0.76699
0.76699
0.76699
0.76699
0.76699
0.76699
0.76699
0.76699
0.76699
0.76699
0.76699
0.76699
0.76699
0.76699
0.76699
0.76699
0.76699
0.76699
0.76699
0.76699
0.76699
0.76699
0.76699
0.76699
0.76699
0.76699
0.76699
0.76699
0.76699
0.76699
0.76699
0.76699
0.76699
0.76699
0.76699
0.76699
0.76699
0.76699
0.76699
0.76699
0.76699
0.76699
0.76699
0.76699
0.76699
0.76699
0.76699
0.76699
0.76699
0.76699
0.76699
0.76699
0.76699
0.76699
0.76699
0.76699
0.76699
0.76699
0.76699
0.76699
0.76699
0.76699
0.76699
0.76699
0.76699
0.76699
0.76699
0.76699
0.76699
0.76699
0.76699
0.76699
0.76699
0.76699
0.76699
0.76699
0.76699
0.76699
0.76699
0.76699
0.76699
0.76699
0.76699
0.76699
0.76699
0.76699
0.76699
0.76699
0.76699
0.76699
0.76699
0.76699
0.76699
0.76699
0.76699
0.76699
0.76699
0.76699
0.76699
0.76699
0.76699
0.76699
0.76699
0.76699
0.76699
0.76699
0.76699
0.76699
0.76699
0.76699
0.76699
0.76699
0.76699
0.76699
0.76699
0.76699
0.76699
0.76699
0.76699
0.76699
0.76699
0.76699
0.76699
0.76699
0.76699
0.76699
0.76699
0.76699
0.76699
0.76699
0.76699
0.76699
0.76699
0.76699
0.76699
0.76699
0.76699
0.76699
0.76699
0.76699
0.76699
0.76699
0.76699
0.76699
0.76699
0.76699
0.76699
0.76699
0.76699
0.76699
0.76699
0.76699
0.76699
0.76699
0.76699
0.76699
0.76699
0.76699
0.76699
0.76699
0.76699
0.76699
0.76699
0.76699
0.76699
0.76699
0.76699
0.76699
0.76699
0.76699
0.76699
0.76699
0.76699
0.76699
0.76699
0.76699
0.76699
0.76699
0.76699
0.76699
0.76699
0.76699
0.76699
0.76699
0.76699
0.76699
0.76699
0.76699
0.76699
0.76699
0.76699
0.76699
0.76699
0.76699
0.76699
0.76699
0.76699
0.76699
0.76699
0.76699
0.76699
0.76699
0.76699
0.76699
0.76699
0.76699
0.76699
0.76699
0.76699
0.76699
0.76699
0.76699
0.76699
0.76699
0.76699
0.76699
0.76699
0.76699
0.76699
0.76699
0.76699
0.76699
0.76699
0.76699
0.76699
0.76699
0.76699
0.76699
0.76699
0.76699
0.76699
0.76699
0.76699
0.76699
0.76699
0.76699
0.76699
0.76699
0.76699
0.76699
0.76699
0.76699
0.76699
0.76699
0.76699
0.76699
0.76699
0.76699
0.76699
0.76699
0.76699
0.76699
0.76699
0.76699
0.76699
0.76699
0.76699
0.76699
0.76699
0.76699
0.76699
0.76699
0.76699
0.76699
0.76699
0.76699
0.76699
0.76699
0.76699
0.76699
0.76699
0.76699
0.76699
0.76699
0.76699
0.76699
0.76699
0.76699
0.76699
0.76699
0.76699
0.76699
0.76699
0.76699
0.76699
0.76699
0.76699
0.76699
0.76699
0.76699
0.76699
0.76699
0.76699
0.76699
0.76699
0.76699
0.76699
0.76699
0.76699
0.76699
0.76699
0.76699
0.76699
0.76699
0.76699
0.76699
0.76699
0.76699
0.76699
0.76699
0.76699
0.76699
0.76699
0.76699
0.76699
0.76699
0.76699
0.76699
0.76699
0.76699
0.76699
0.76699
0.76699
0.76699
0.76699
0.76699
0.76699
0.76699
0.76699
0.76699
0.76699
0.76699
0.76699
0.76699
0.76699
0.76699
0.76699
0.76699
0.76699
0.76699
0.76699
0.76699
0.76699
0.76699
0.76699
0.76699
0.76699
0.76699
0.76699
0.76699
0.76699
0.76699
0.76699
0.76699
0.76699
0.76699
0.76699
0.76699
0.76699
0.76699
0.76699
0.76699
0.76699
0.76699
0.76699
0.76699
0.76699
0.76699
0.76699
0.76699
0.76699
0.76699
0.76699
0.76699
0.76699
0.76699
0.76699
0.76699
0.76699
0.76699
0.76699
0.76699
0.76699
0.76699
0.76699
0.76699
0.76699
0.76699
0.76699
0.76699
0.76699
0.76699
0.76699
0.76699
0.76699
0.76699
0.76699
0.76699
0.76699
0.76699
0.76699
0.76699
0.76699
0.76699
0.76699
0.76699
0.76699
0.76699
0.76699
0.76699
0.76699
0.76699
0.76699
0.76699
0.76699
0.76699
0.76699
0.76699
0.76699
0.76699
0.76699
0.76699
0.76699
0.76699
0.76699
0.76699
0.76699
0.76699
0.76699
0.76699
0.76699
0.76699
0.76699
0.76699
0.76699
0.76699
0.76699
0.76699
0.76699
0.76699
0.76699
0.76699
0.76699
0.76699
0.76699
0.76699
0.76699
0.76699
0.76699
0.76699
0.76699
0.76699
0.76699
0.76699
0.76699
0.76699
0.76699
0.76699
0.76699
0.76699
0.76699
0.76699
0.76699
0.76699
0.76699
0.76699
0.76699
0.76699
0.76699
0.76699
0.76699
0.76699
0.76699
0.76699
0.76699
0.76699
0.76699
0.76699
0.76699
0.76699
0.76699
0.76699
0.76699
0.76699
0.76699
0.76699
0.76699
0.76699
0.76699
0.76699
0.76699
0.76699
0.76699
0.76699
0.76699
0.76699
0.76699
0.76699
0.76699
0.76699
0.76699
0.76699
0.76699
0.76699
0.76699
0.76699
0.76699
0.76699
0.76699
0.76699
0.76699
0.76699
0.76699
0.76699
0.76699
0.76699
0.76699
0.76699
0.76699
0.76699
0.76699
0.76699
0.76699
0.76699
0.76699
0.76699
0.76699
0.76699
0.76699
0.76699
0.76699
0.76699
0.76699
0.76699
0.76699
0.76699
0.76699
0.76699
0.76699
0.76699
0.76699
0.76699
0.76699
0.76699
0.76699
0.76699
0.76699
0.76699
0.76699
0.76699
0.76699
0.76699
0.76699
0.76699
0.76699
0.76699
0.76699
0.76699
0.76699
0.76699
0.76699
0.76699
0.76699
0.76699
0.76699
0.76699
0.76699
0.76699
0.76699
0.76699
0.76699
0.76699
0.76699
0.76699
0.76699
0.76699
0.76699
0.76699
0.76699
0.76699
0.76699
0.76699
0.76699
0.76699
0.76699
0.76699
0.76699
0.76699
0.76699
0.76699
0.76699
0.76699
0.76699
0.76699
0.76699
0.76699
0.76699
0.76699
0.76699
0.76699
0.76699
0.76699
0.76699
0.76699
0.76699
0.76699
0.76699
0.76699
0.76699
0.76699
0.76699
0.76699
0.76699
0.76699
0.76699
0.76699
0.76699
0.76699
0.76699
0.76699
0.76699
0.76699
0.76699
0.76699
0.76699
0.76699
0.76699
0.76699
0.76699
0.76699
0.76699
0.76699
0.76699
0.76699
0.76699
0.76699
0.76699
0.76699
0.76699
0.76699
0.76699
0.76699
0.76699
0.76699
0.76699
0.76699
0.76699
0.76699
0.76699
0.76699
0.76699
0.76699
0.76699
0.76699
0.76699
0.76699
0.76699
0.76699
0.76699
0.76699
0.76699
0.76699
0.76699
0.76699
0.76699
0.76699
0.76699
0.76699
0.76699
0.76699
0.76699
0.76699
0.76699
0.76699
0.76699
0.76699
0.76699
0.76699
0.76699
0.76699
0.76699
0.76699
0.76699
0.76699
0.76699
0.76699
0.76699
0.76699
0.76699
0.76699
0.76699
0.76699
0.76699
0.76699
0.76699
0.76699
0.76699
0.76699
0.76699
0.76699
0.76699
0.76699
0.76699
0.76699
0.76699
0.76699
0.76699
0.76699
0.76699
0.76699
0.76699
0.76699
0.76699
0.76699
0.76699
0.76699
0.76699
0.76699
0.76699
0.76699
0.76699
0.76699
0.76699
0.76699
0.76699
0.76699
0.76699
0.76699
0.76699
0.76699
0.76699
0.76699
0.76699
0.76699
0.76699
0.76699
0.76699
0.76699
0.76699
0.76699
0.76699
0.76699
0.76699
0.76699
0.76699
0.76699
0.76699
0.76699
0.76699
0.76699
0.76699
0.76699
0.76699
0.76699
0.76699
0.76699
0.76699
0.76699
0.76699
0.76699
0.76699
0.76699
0.76699
0.76699
0.76699
0.76699
0.76699
0.76699
0.76699
0.76699
0.76699
0.76699
0.76699
0.76699
0.76699
0.76699
0.76699
0.76699
0.76699
0.76699
0.76699
0.76699
0.76699
0.76699
0.76699
0.76699
0.76699
0.76699
0.76699
0.76699
0.76699
0.76699
0.76699
0.76699
0.76699
0.76699
0.76699
0.76699
0.76699
0.76699
0.76699
0.76699
0.76699
0.76699
0.76699
0.76699
0.76699
0.76699
0.76699
0.76699
0.76699
0.76699
0.76699
0.76699
0.76699
0.76699
0.76699
0.76699
0.76699
0.76699
0.76699
0.76699
0.76699
0.76699
0.76699
0.76699
0.76699
0.76699
0.76699
0.76699
0.76699
0.76699
0.76699
0.76699
0.76699
0.76699
0.76699
0.76699
0.76699
0.76699
0.76699
0.76699
0.76699
0.76699
0.76699
0.76699
0.76699
0.76699
0.76699
0.76699
0.76699
0.76699
0.76699
0.76699
0.76699
0.76699
0.76699
0.76699
0.76699
0.76699
0.76699
0.76699
0.76699
0.76699
0.76699
0.76699
0.76699
0.76699
0.76699
0.76699
0.76699
0.76699
0.76699
0.76699
0.76699
0.76699
0.76699
0.76699
0.76699
0.76699
0.76699
0.76699
0.76699
0.76699
0.76699
0.76699
0.76699
0.76699
0.76699
0.76699
0.76699
0.76699
0.76699
0.76699
0.76699
0.76699
0.76699
0.76699
0.76699
0.76699
0.76699
0.76699
0.76699
0.76699
0.76699
0.76699
0.76699
0.76699
0.76699
0.76699
0.766989
0.766989
0.766988
0.766989
0.766987
0.766989
0.766987
0.766989
0.766988
0.76699
0.766989
0.76699
0.766989
0.76699
0.76699
0.76699
0.76699
0.76699
0.76699
0.76699
0.76699
0.76699
0.76699
0.76699
0.76699
0.76699
0.76699
0.76699
0.76699
0.76699
0.76699
0.76699
0.76699
0.76699
0.76699
0.76699
0.76699
0.76699
0.76699
0.76699
0.76699
0.76699
0.76699
0.76699
0.76699
0.76699
0.76699
0.76699
0.76699
0.76699
0.76699
0.76699
0.76699
0.76699
0.766989
0.766986
0.766982
0.766984
0.766976
0.766983
0.766974
0.766985
0.766976
0.766987
0.76698
0.766988
0.766984
0.766989
0.766987
0.76699
0.766989
0.76699
0.76699
0.76699
0.76699
0.76699
0.76699
0.76699
0.76699
0.76699
0.76699
0.76699
0.76699
0.76699
0.76699
0.76699
0.76699
0.76699
0.76699
0.76699
0.76699
0.76699
0.76699
0.76699
0.76699
0.76699
0.76699
0.76699
0.76699
0.76699
0.76699
0.76699
0.76699
0.76699
0.76699
0.76699
0.76699
0.76699
0.76699
0.766989
0.766984
0.766976
0.766978
0.766966
0.766949
0.766956
0.766928
0.766955
0.766916
0.766962
0.766922
0.766973
0.766941
0.766981
0.766961
0.766986
0.766976
0.766989
0.766985
0.766989
0.76699
0.766989
0.766989
0.76699
0.76699
0.76699
0.76699
0.76699
0.76699
0.76699
0.76699
0.76699
0.76699
0.76699
0.76699
0.76699
0.76699
0.76699
0.76699
0.76699
0.76699
0.76699
0.76699
0.76699
0.76699
0.76699
0.76699
0.76699
0.76699
0.76699
0.76699
0.76699
0.76699
0.76699
0.76699
0.76699
0.76699
0.76699
0.766981
0.766918
0.766932
0.766897
0.766891
0.766846
0.766861
0.766794
0.766853
0.766766
0.766872
0.766771
0.76691
0.766808
0.766945
0.766869
0.766971
0.766927
0.766983
0.766965
0.766983
0.766989
0.766983
0.766984
0.76699
0.766989
0.76699
0.76699
0.76699
0.76699
0.76699
0.76699
0.76699
0.76699
0.76699
0.76699
0.76699
0.76699
0.76699
0.76699
0.76699
0.76699
0.76699
0.76699
0.76699
0.76699
0.76699
0.76699
0.76699
0.76699
0.76699
0.76699
0.76699
0.76699
0.76699
0.76699
0.76699
0.76699
0.76699
0.766982
0.766903
0.766717
0.766682
0.766799
0.766753
0.766722
0.766647
0.766672
0.766576
0.766658
0.766542
0.766682
0.766548
0.766738
0.766591
0.766822
0.766666
0.766907
0.766772
0.76696
0.766888
0.766957
0.766985
0.766957
0.766961
0.76699
0.766987
0.76699
0.76699
0.76699
0.76699
0.76699
0.76699
0.76699
0.76699
0.76699
0.76699
0.76699
0.76699
0.76699
0.76699
0.76699
0.76699
0.76699
0.76699
0.76699
0.76699
0.76699
0.76699
0.76699
0.76699
0.76699
0.76699
0.76699
0.76699
0.76699
0.76699
0.76699
0.76699
0.76699
0.766983
0.766909
0.766658
0.766643
0.766469
0.766431
0.766578
0.766518
0.766484
0.766397
0.766429
0.766323
0.766415
0.766288
0.76644
0.766292
0.766498
0.766332
0.766591
0.766404
0.766722
0.766516
0.766874
0.766681
0.766867
0.766968
0.766868
0.766883
0.766989
0.766977
0.76699
0.76699
0.76699
0.76699
0.76699
0.76699
0.76699
0.76699
0.76699
0.76699
0.76699
0.76699
0.76699
0.76699
0.76699
0.76699
0.76699
0.76699
0.76699
0.76699
0.76699
0.76699
0.76699
0.76699
0.76699
0.76699
0.76699
0.76699
0.76699
0.76699
0.76699
0.76699
0.76699
0.766985
0.76691
0.766644
0.76667
0.766403
0.766391
0.766212
0.766177
0.766322
0.76626
0.766226
0.766139
0.76617
0.766064
0.766152
0.766025
0.766171
0.766021
0.766221
0.766049
0.766307
0.766108
0.766445
0.766212
0.766651
0.766382
0.766636
0.766911
0.766646
0.766692
0.766984
0.766941
0.76699
0.766988
0.76699
0.76699
0.76699
0.76699
0.76699
0.76699
0.76699
0.76699
0.76699
0.76699
0.76699
0.76699
0.76699
0.76699
0.76699
0.76699
0.76699
0.76699
0.76699
0.76699
0.76699
0.76699
0.76699
0.76699
0.76699
0.76699
0.76699
0.76699
0.76699
0.76699
0.76699
0.766987
0.766921
0.76654
0.766391
0.766367
0.766156
0.766155
0.765977
0.765975
0.766067
0.766013
0.765973
0.765896
0.765913
0.76582
0.765887
0.765773
0.765891
0.765753
0.765924
0.76576
0.765993
0.765797
0.76612
0.765881
0.766332
0.766038
0.766304
0.766763
0.766307
0.76636
0.766967
0.766841
0.76699
0.766984
0.76699
0.76699
0.76699
0.76699
0.76699
0.76699
0.76699
0.76699
0.76699
0.76699
0.76699
0.76699
0.76699
0.76699
0.76699
0.76699
0.76699
0.76699
0.76699
0.76699
0.76699
0.76699
0.76699
0.76699
0.76699
0.76699
0.76699
0.76699
0.76699
0.76699
0.766989
0.766951
0.766615
0.766203
0.766235
0.766162
0.766177
0.765987
0.766013
0.765855
0.765896
0.765842
0.765837
0.765749
0.765712
0.765682
0.765618
0.765639
0.765554
0.765621
0.765509
0.765627
0.765488
0.76567
0.765494
0.765774
0.765548
0.765973
0.765679
0.765935
0.766469
0.765934
0.765987
0.766918
0.766643
0.766989
0.766971
0.76699
0.76699
0.76699
0.76699
0.76699
0.76699
0.76699
0.76699
0.76699
0.76699
0.76699
0.76699
0.76699
0.76699
0.76699
0.76699
0.76699
0.76699
0.76699
0.76699
0.76699
0.76699
0.76699
0.76699
0.76699
0.76699
0.76699
0.76699
0.76699
0.76699
0.766972
0.766725
0.766268
0.766341
0.766104
0.766128
0.766044
0.766074
0.765943
0.765989
0.765837
0.765913
0.765727
0.765771
0.765601
0.765632
0.765497
0.765498
0.76543
0.765385
0.765381
0.76531
0.765354
0.765253
0.765364
0.765225
0.765434
0.765242
0.765604
0.765334
0.76556
0.766106
0.765555
0.76559
0.765832
0.766809
0.766333
0.766989
0.766958
0.76699
0.76699
0.76699
0.76699
0.76699
0.76699
0.76699
0.76699
0.76699
0.76699
0.76699
0.76699
0.76699
0.76699
0.76699
0.76699
0.76699
0.76699
0.76699
0.76699
0.76699
0.76699
0.76699
0.76699
0.76699
0.76699
0.76699
0.76699
0.76699
0.766982
0.766817
0.766305
0.766163
0.766169
0.766099
0.76612
0.766032
0.766069
0.765994
0.766068
0.765923
0.766052
0.765699
0.765799
0.765538
0.765628
0.765394
0.765446
0.765278
0.765293
0.765192
0.765174
0.76513
0.765079
0.765101
0.765013
0.765132
0.764993
0.765258
0.765063
0.765158
0.765379
0.765222
0.765649
0.765998
0.765706
0.765399
0.765208
0.765226
0.76542
0.766802
0.766545
0.765816
0.765932
0.766262
0.766989
0.766729
0.766969
0.766871
0.76699
0.76699
0.76699
0.76699
0.76699
0.76699
0.76699
0.76699
0.76699
0.76699
0.76699
0.76699
0.76699
0.76699
0.76699
0.76699
0.76699
0.76699
0.76699
0.76699
0.76699
0.76699
0.76699
0.76699
0.76699
0.76699
0.76699
0.76699
0.766986
0.766885
0.766409
0.766169
0.7662
0.766141
0.766152
0.766195
0.766207
0.766127
0.766169
0.766169
0.766262
0.766121
0.766291
0.765767
0.765939
0.765556
0.765723
0.765353
0.765474
0.765196
0.765261
0.765071
0.7651
0.76497
0.764972
0.764968
0.764936
0.764913
0.7649
0.764991
0.764929
0.764899
0.764853
0.764885
0.76504
0.765103
0.764994
0.764955
0.765082
0.765466
0.765542
0.765226
0.765066
0.765067
0.765253
0.766428
0.765643
0.765781
0.766105
0.766986
0.766957
0.76663
0.766821
0.76699
0.76699
0.76699
0.76699
0.76699
0.76699
0.76699
0.76699
0.76699
0.76699
0.76699
0.76699
0.76699
0.76699
0.76699
0.76699
0.76699
0.76699
0.76699
0.76699
0.76699
0.76699
0.76699
0.76699
0.76699
0.76699
0.76699
0.766987
0.76693
0.766544
0.766212
0.766202
0.766201
0.76621
0.766208
0.766366
0.766362
0.766323
0.766357
0.766425
0.766511
0.766384
0.766572
0.76593
0.76616
0.765655
0.765879
0.765386
0.765564
0.765171
0.765296
0.765007
0.765085
0.764896
0.764903
0.764918
0.764947
0.764872
0.764858
0.764856
0.764893
0.764851
0.764835
0.764811
0.764825
0.764918
0.764974
0.764894
0.764863
0.764955
0.765303
0.765377
0.765078
0.764946
0.764946
0.765105
0.766301
0.765483
0.765628
0.765958
0.766914
0.766938
0.766989
0.766978
0.766528
0.766755
0.76699
0.76699
0.76699
0.76699
0.76699
0.76699
0.76699
0.76699
0.76699
0.76699
0.76699
0.76699
0.76699
0.76699
0.76699
0.76699
0.76699
0.76699
0.76699
0.76699
0.76699
0.76699
0.76699
0.76699
0.76699
0.76699
0.766988
0.766957
0.766689
0.766255
0.766252
0.766233
0.766298
0.766271
0.766348
0.766324
0.766557
0.766535
0.766555
0.766565
0.766693
0.766748
0.766652
0.766796
0.766137
0.766413
0.76579
0.766051
0.765466
0.765679
0.765209
0.765374
0.764982
0.765032
0.765088
0.765161
0.764863
0.764881
0.764909
0.764948
0.764826
0.764826
0.764835
0.764829
0.76481
0.764806
0.764798
0.764801
0.764845
0.764877
0.764835
0.764819
0.764868
0.765152
0.765225
0.764957
0.764864
0.764864
0.76498
0.766173
0.76533
0.765479
0.765815
0.766684
0.766892
0.766989
0.766976
0.766422
0.76699
0.76699
0.76699
0.76699
0.76699
0.76699
0.76699
0.76699
0.76699
0.76699
0.76699
0.76699
0.76699
0.76699
0.76699
0.76699
0.76699
0.76699
0.76699
0.76699
0.76699
0.76699
0.76699
0.76699
0.76699
0.766989
0.766972
0.766799
0.76634
0.766235
0.76633
0.766298
0.766414
0.766371
0.766499
0.766457
0.766717
0.766674
0.766758
0.766746
0.766867
0.766892
0.766778
0.766872
0.766343
0.766604
0.765927
0.766203
0.765574
0.765801
0.765236
0.765327
0.765416
0.765521
0.764997
0.765059
0.765131
0.765214
0.764853
0.764881
0.764921
0.764974
0.764808
0.764817
0.764836
0.764806
0.764801
0.764803
0.764813
0.764804
0.764816
0.764831
0.764818
0.76481
0.76483
0.76502
0.765086
0.76487
0.76483
0.76483
0.764885
0.766046
0.765188
0.765336
0.765674
0.766318
0.766619
0.766872
0.766987
0.766965
0.76699
0.76699
0.76699
0.76699
0.76699
0.76699
0.76699
0.76699
0.76699
0.76699
0.76699
0.76699
0.76699
0.76699
0.76699
0.76699
0.76699
0.76699
0.76699
0.76699
0.76699
0.76699
0.76699
0.76699
0.766989
0.766979
0.766867
0.766455
0.766233
0.766327
0.766286
0.766416
0.766369
0.76652
0.766467
0.766626
0.766574
0.766822
0.766774
0.76689
0.766865
0.76692
0.766943
0.7668
0.766877
0.766459
0.766663
0.766048
0.766275
0.765709
0.765918
0.765302
0.765396
0.765493
0.765593
0.765038
0.765114
0.765199
0.765291
0.764866
0.764909
0.764964
0.765032
0.764814
0.764835
0.764868
0.764815
0.764826
0.764829
0.764862
0.764841
0.764824
0.764825
0.764844
0.764841
0.764833
0.764913
0.764966
0.764829
0.764838
0.764835
0.76483
0.765921
0.765058
0.765202
0.765538
0.76622
0.76656
0.766833
0.766979
0.766935
0.76699
0.76699
0.76699
0.76699
0.76699
0.76699
0.76699
0.76699
0.76699
0.76699
0.76699
0.76699
0.76699
0.76699
0.76699
0.76699
0.76699
0.76699
0.76699
0.76699
0.76699
0.76699
0.76699
0.766989
0.766982
0.766907
0.766573
0.766246
0.766266
0.766392
0.766351
0.766496
0.766442
0.766608
0.766551
0.766721
0.766665
0.766892
0.766847
0.766945
0.766929
0.766925
0.766952
0.766741
0.766818
0.766483
0.766644
0.766107
0.76627
0.765746
0.765833
0.765971
0.765904
0.765385
0.76548
0.765574
0.765664
0.765111
0.765199
0.765291
0.765383
0.764913
0.764971
0.765043
0.765125
0.764853
0.764887
0.764936
0.764862
0.764887
0.76489
0.764946
0.764914
0.764876
0.764867
0.764915
0.764911
0.764885
0.76484
0.76487
0.764825
0.764894
0.764885
0.76481
0.765801
0.764941
0.765074
0.765408
0.766128
0.766491
0.766769
0.766964
0.766894
0.76699
0.76699
0.76699
0.76699
0.76699
0.76699
0.76699
0.76699
0.76699
0.76699
0.76699
0.76699
0.76699
0.76699
0.76699
0.76699
0.76699
0.76699
0.76699
0.76699
0.76699
0.76699
0.766989
0.766983
0.76693
0.766679
0.766291
0.766223
0.766364
0.766317
0.766459
0.76641
0.766569
0.766513
0.766684
0.766627
0.766796
0.766741
0.766947
0.766911
0.766965
0.766964
0.766893
0.766946
0.766568
0.766681
0.766399
0.766487
0.766029
0.766081
0.766084
0.765753
0.765808
0.765891
0.765853
0.765471
0.765551
0.765624
0.765691
0.765213
0.765301
0.765384
0.765456
0.764997
0.765071
0.765153
0.765237
0.764927
0.764978
0.765042
0.764947
0.764983
0.764986
0.76506
0.765019
0.764968
0.764953
0.765026
0.765019
0.764981
0.7648
0.764805
0.764859
0.76499
0.764971
0.764818
0.765686
0.764847
0.764957
0.765283
0.766034
0.766408
0.766697
0.766963
0.766882
0.76699
0.76699
0.76699
0.76699
0.76699
0.76699
0.76699
0.76699
0.76699
0.76699
0.76699
0.76699
0.76699
0.76699
0.76699
0.76699
0.76699
0.76699
0.76699
0.76699
0.76699
0.766989
0.766985
0.766944
0.766759
0.766362
0.766207
0.766285
0.766428
0.766386
0.766531
0.766478
0.766643
0.766586
0.766758
0.766701
0.766865
0.766814
0.766974
0.766961
0.766969
0.766977
0.766813
0.766915
0.766333
0.766502
0.766139
0.766215
0.765923
0.765954
0.76579
0.765825
0.765674
0.765695
0.76573
0.765714
0.765516
0.765568
0.765612
0.765646
0.765314
0.765377
0.765425
0.765459
0.765115
0.765191
0.76526
0.765316
0.765037
0.765099
0.765164
0.765064
0.765104
0.765108
0.76518
0.765142
0.765095
0.765077
0.765166
0.765151
0.765109
0.764779
0.764762
0.764923
0.765113
0.765077
0.76485
0.765574
0.764773
0.764853
0.765164
0.765937
0.766325
0.766658
0.766979
0.766908
0.76699
0.76699
0.76699
0.76699
0.76699
0.76699
0.76699
0.76699
0.76699
0.76699
0.76699
0.76699
0.76699
0.76699
0.76699
0.76699
0.76699
0.76699
0.76699
0.76699
0.76699
0.766986
0.766953
0.766807
0.766436
0.76621
0.766232
0.766408
0.766358
0.766503
0.766455
0.766611
0.766556
0.766724
0.766667
0.766836
0.766781
0.766932
0.766888
0.766983
0.76698
0.766965
0.76698
0.766695
0.76686
0.766127
0.766336
0.765862
0.765919
0.765953
0.765748
0.765767
0.765626
0.765675
0.765497
0.765501
0.765528
0.765511
0.765481
0.765492
0.765496
0.765497
0.765352
0.765365
0.765362
0.765347
0.765224
0.765271
0.765291
0.76529
0.765159
0.765207
0.765238
0.765193
0.765224
0.765213
0.76525
0.765246
0.765235
0.765222
0.765307
0.76528
0.765251
0.764773
0.764725
0.765
0.76524
0.765177
0.764891
0.765465
0.764713
0.764764
0.76505
0.765846
0.766263
0.766676
0.766988
0.766952
0.76699
0.76699
0.76699
0.76699
0.76699
0.76699
0.76699
0.76699
0.76699
0.76699
0.76699
0.76699
0.76699
0.76699
0.76699
0.76699
0.76699
0.76699
0.76699
0.76699
0.766986
0.766957
0.766837
0.766505
0.766221
0.766195
0.766335
0.766491
0.766448
0.766592
0.76654
0.766701
0.766646
0.766813
0.766758
0.766916
0.766867
0.766972
0.766952
0.766985
0.766986
0.76695
0.766979
0.766569
0.766787
0.765968
0.766087
0.766209
0.765732
0.765796
0.765882
0.765779
0.765553
0.765585
0.765488
0.765553
0.765262
0.765271
0.765331
0.765296
0.765324
0.765298
0.765277
0.765264
0.765265
0.76522
0.765167
0.765112
0.765243
0.765233
0.765191
0.765123
0.765227
0.765224
0.765198
0.765302
0.765306
0.76524
0.765252
0.765293
0.765356
0.765357
0.765415
0.765372
0.765371
0.764776
0.764693
0.765068
0.765333
0.765243
0.764926
0.765364
0.76466
0.764685
0.764943
0.765768
0.76624
0.766746
0.76699
0.766978
0.76699
0.76699
0.76699
0.76699
0.76699
0.76699
0.76699
0.76699
0.76699
0.76699
0.76699
0.76699
0.76699
0.76699
0.76699
0.76699
0.76699
0.76699
0.766989
0.766986
0.766957
0.76685
0.766561
0.766245
0.766169
0.766267
0.766496
0.766446
0.76659
0.766542
0.766694
0.766641
0.766803
0.766748
0.766907
0.766857
0.766967
0.766945
0.766985
0.766979
0.766985
0.766988
0.766924
0.766974
0.766457
0.766704
0.765875
0.765986
0.765989
0.766147
0.765624
0.765699
0.765771
0.765676
0.765376
0.765429
0.765365
0.765436
0.765024
0.765059
0.765165
0.765107
0.765063
0.765027
0.765009
0.765008
0.765041
0.764954
0.764873
0.764809
0.765146
0.765064
0.764955
0.764837
0.7652
0.76514
0.765046
0.765369
0.76534
0.765187
0.765192
0.765279
0.765432
0.765447
0.765471
0.765428
0.765437
0.764777
0.76466
0.765109
0.765373
0.765264
0.76494
0.76527
0.764606
0.76461
0.764842
0.765697
0.76626
0.766845
0.76699
0.766986
0.76699
0.76699
0.76699
0.76699
0.76699
0.76699
0.76699
0.76699
0.76699
0.76699
0.76699
0.76699
0.76699
0.76699
0.76699
0.76699
0.76699
0.766989
0.766986
0.766957
0.76685
0.766595
0.766273
0.766151
0.766215
0.766436
0.766608
0.766565
0.766705
0.766656
0.766808
0.766756
0.766908
0.766861
0.766966
0.766944
0.766984
0.766978
0.766988
0.766987
0.766984
0.766988
0.766887
0.766964
0.766274
0.766435
0.7666
0.765738
0.765861
0.765848
0.766006
0.76551
0.76559
0.765625
0.765526
0.765229
0.765296
0.765225
0.765292
0.764822
0.76488
0.765017
0.764947
0.764766
0.76475
0.764752
0.764777
0.764724
0.764627
0.764554
0.764511
0.764914
0.764765
0.764621
0.764493
0.765089
0.76494
0.764755
0.765389
0.765316
0.765058
0.765051
0.765213
0.765469
0.765476
0.765482
0.765432
0.765445
0.764764
0.764619
0.765109
0.765368
0.765238
0.764922
0.765177
0.764544
0.764534
0.764747
0.765643
0.766337
0.766906
0.76699
0.766988
0.766989
0.76699
0.76699
0.76699
0.76699
0.76699
0.76699
0.76699
0.76699
0.76699
0.76699
0.76699
0.76699
0.76699
0.76699
0.76699
0.766989
0.766985
0.766955
0.766846
0.7666
0.766293
0.76614
0.766176
0.766366
0.766682
0.766736
0.766686
0.766833
0.766784
0.766921
0.76688
0.766968
0.76695
0.766985
0.766979
0.766989
0.766987
0.766989
0.766989
0.766981
0.766987
0.766836
0.766949
0.766168
0.766326
0.766572
0.766381
0.765559
0.765698
0.765676
0.765852
0.765362
0.765438
0.765435
0.765328
0.765088
0.765158
0.765043
0.765101
0.764645
0.764714
0.764858
0.764787
0.764497
0.764501
0.76453
0.764582
0.764388
0.764312
0.764271
0.764257
0.764569
0.764405
0.76427
0.764164
0.764863
0.764633
0.764407
0.765359
0.765243
0.764818
0.764801
0.765058
0.765462
0.765469
0.765467
0.765403
0.765416
0.764729
0.764554
0.76505
0.765304
0.765101
0.764847
0.765088
0.764471
0.764464
0.764661
0.765621
0.76645
0.766934
0.76699
0.766987
0.766989
0.76699
0.76699
0.76699
0.76699
0.76699
0.76699
0.76699
0.76699
0.76699
0.76699
0.76699
0.76699
0.76699
0.766989
0.766988
0.766982
0.76695
0.766837
0.766596
0.766296
0.766131
0.766148
0.76631
0.766615
0.766914
0.76683
0.766879
0.766875
0.766941
0.766913
0.766973
0.76696
0.766986
0.766981
0.766989
0.766988
0.76699
0.76699
0.766989
0.76699
0.766975
0.766987
0.766754
0.766924
0.766032
0.766212
0.766471
0.766286
0.765358
0.76551
0.765511
0.765698
0.765164
0.765238
0.765221
0.765103
0.764924
0.764985
0.764819
0.76487
0.764464
0.764533
0.764665
0.764602
0.764258
0.764285
0.764336
0.764396
0.764089
0.764047
0.764031
0.764029
0.764217
0.764071
0.763964
0.763891
0.764546
0.764286
0.76407
0.76529
0.765106
0.764503
0.764512
0.76484
0.765424
0.765426
0.765395
0.765316
0.76532
0.764629
0.764465
0.76488
0.765104
0.764872
0.764671
0.765016
0.7644
0.764401
0.764591
0.765619
0.766506
0.766936
0.766961
0.76697
0.766987
0.766989
0.76699
0.76699
0.76699
0.76699
0.76699
0.76699
0.76699
0.76699
0.76699
0.76699
0.766989
0.766988
0.766984
0.766975
0.766938
0.766818
0.766581
0.766291
0.76612
0.766127
0.766267
0.766557
0.766883
0.766942
0.766973
0.766957
0.76696
0.76698
0.766972
0.766987
0.766985
0.766989
0.766989
0.76699
0.76699
0.76699
0.76699
0.766989
0.76699
0.766967
0.766985
0.766565
0.766754
0.766887
0.765892
0.766091
0.766382
0.766182
0.765173
0.765336
0.765388
0.765574
0.76493
0.765006
0.765021
0.764888
0.764721
0.764771
0.764575
0.764625
0.76426
0.764325
0.764443
0.764388
0.764039
0.764083
0.764135
0.764194
0.763841
0.763817
0.763808
0.763808
0.763915
0.763805
0.76373
0.763678
0.764212
0.76397
0.763802
0.765119
0.764812
0.764159
0.764002
0.764402
0.765289
0.765285
0.765156
0.765067
0.765056
0.764495
0.764381
0.764676
0.764836
0.76465
0.764523
0.764952
0.764333
0.764348
0.764531
0.765605
0.766498
0.766896
0.766938
0.766903
0.766983
0.766989
0.76699
0.76699
0.76699
0.76699
0.76699
0.76699
0.76699
0.76699
0.76699
0.766988
0.766983
0.766974
0.766957
0.76691
0.766782
0.766549
0.766279
0.766108
0.766111
0.766239
0.766514
0.766851
0.766979
0.766981
0.766987
0.766983
0.766985
0.766988
0.766987
0.76699
0.766989
0.76699
0.76699
0.76699
0.76699
0.76699
0.76699
0.766988
0.766989
0.766958
0.766982
0.766509
0.766699
0.766905
0.766796
0.76577
0.765976
0.766307
0.7661
0.765041
0.765212
0.765353
0.765524
0.76469
0.764776
0.764875
0.764719
0.764491
0.764533
0.764344
0.764401
0.764024
0.764084
0.764201
0.764145
0.763819
0.763861
0.763908
0.763962
0.763642
0.763616
0.763603
0.763598
0.763698
0.763628
0.763584
0.763553
0.763866
0.763691
0.763606
0.764668
0.764224
0.763756
0.763779
0.763947
0.764898
0.764943
0.764738
0.76453
0.764776
0.764392
0.764296
0.764525
0.764592
0.764515
0.764404
0.764894
0.764275
0.764289
0.764473
0.765546
0.766361
0.766707
0.766722
0.766524
0.766979
0.766988
0.76699
0.76699
0.76699
0.76699
0.76699
0.76699
0.76699
0.766989
0.766985
0.766971
0.766947
0.766912
0.766852
0.766721
0.766502
0.766251
0.766095
0.766102
0.766226
0.766487
0.766824
0.766974
0.76699
0.766989
0.766989
0.76699
0.766989
0.76699
0.76699
0.76699
0.76699
0.76699
0.76699
0.76699
0.76699
0.76699
0.76699
0.766988
0.766989
0.76689
0.766936
0.766965
0.766979
0.766449
0.766634
0.766771
0.765704
0.765896
0.766254
0.766061
0.765002
0.765182
0.765374
0.765533
0.764478
0.764583
0.764807
0.764612
0.764251
0.764297
0.764115
0.764197
0.763756
0.76381
0.763933
0.763873
0.763604
0.763623
0.763661
0.763702
0.763531
0.763511
0.763496
0.763482
0.763547
0.763505
0.763479
0.763451
0.763632
0.763547
0.763494
0.764185
0.76407
0.763709
0.763812
0.763926
0.764491
0.764635
0.764476
0.764312
0.764537
0.764289
0.764224
0.764409
0.764517
0.764413
0.764317
0.764817
0.764203
0.764238
0.764414
0.765367
0.765898
0.765989
0.765566
0.765533
0.766976
0.766987
0.766989
0.76699
0.76699
0.76699
0.76699
0.76699
0.766988
0.766978
0.766943
0.766889
0.766838
0.766769
0.76664
0.766432
0.766209
0.766079
0.766099
0.766226
0.766478
0.766807
0.76697
0.766989
0.76699
0.76699
0.76699
0.76699
0.76699
0.76699
0.76699
0.76699
0.76699
0.76699
0.76699
0.76699
0.76699
0.76699
0.76699
0.76699
0.76699
0.766987
0.766989
0.766868
0.766931
0.766961
0.766976
0.766426
0.766604
0.766742
0.765698
0.765875
0.766244
0.766065
0.765021
0.765208
0.765467
0.765605
0.764305
0.76444
0.764802
0.764554
0.763991
0.76405
0.763886
0.764
0.763524
0.763554
0.763658
0.763598
0.763476
0.763477
0.763489
0.763501
0.763434
0.763415
0.763405
0.763401
0.763433
0.763391
0.763344
0.763332
0.763618
0.763558
0.763211
0.764221
0.763591
0.763369
0.763447
0.76351
0.764417
0.764498
0.764455
0.764314
0.764438
0.764223
0.764145
0.764371
0.764384
0.764384
0.764271
0.764701
0.764147
0.764183
0.764344
0.765093
0.76534
0.76526
0.765108
0.764893
0.766972
0.766987
0.766989
0.76699
0.76699
0.76699
0.76699
0.766987
0.766966
0.7669
0.766818
0.766752
0.766674
0.766544
0.766347
0.766163
0.766074
0.766103
0.766235
0.766481
0.766801
0.766967
0.766989
0.76699
0.76699
0.76699
0.76699
0.76699
0.76699
0.76699
0.76699
0.76699
0.76699
0.76699
0.76699
0.76699
0.76699
0.76699
0.766989
0.76699
0.766985
0.766988
0.766858
0.766924
0.766956
0.766955
0.76697
0.76698