/*--------------------------------*- C++ -*----------------------------------*\
  =========                 |
  \\      /  F ield         | OpenFOAM: The Open Source CFD Toolbox
   \\    /   O peration     | Website:  https://openfoam.org
    \\  /    A nd           | Version:  dev
     \\/     M anipulation  |
\*---------------------------------------------------------------------------*/
FoamFile
{
    version     2.0;
    format      ascii;
    class       volScalarField;
    location    "2500";
    object      nut;
}
// * * * * * * * * * * * * * * * * * * * * * * * * * * * * * * * * * * * * * //

dimensions      [0 2 -1 0 0 0 0];

internalField   nonuniform List<scalar> 
9842
(
0.000128656
0.000132114
0.000125236
0.000120766
0.000157072
0.000111625
0.000111575
0.000165555
0.000147985
0.000106002
0.000107598
0.000160052
0.000168561
0.00012699
0.000104431
0.000104624
0.000145011
0.000181339
0.000155977
0.000116178
0.000103241
0.000102981
0.000129292
0.000181103
0.00017706
0.00013383
0.000111601
0.0001024
0.000102401
0.000119897
0.000173905
0.000189635
0.000159064
0.000121716
0.000108745
0.000101839
0.000102152
0.000113022
0.000155953
0.000195734
0.000181749
0.000137092
0.000116136
0.000106815
0.00010141
0.000101998
0.000108973
0.000137216
0.000192276
0.000194882
0.000159894
0.000124787
0.000112642
0.000105498
0.000101133
0.000101881
0.000106654
0.000125755
0.00018065
0.000204365
0.00018383
0.000138966
0.000118984
0.000110051
0.000104406
0.000100971
0.000101714
0.000105316
0.000117947
0.000158318
0.000204418
0.000200137
0.000159294
0.000126758
0.000115402
0.000108242
0.000103554
0.000100834
0.000101459
0.000104547
0.000113179
0.000140317
0.000197744
0.000209837
0.000184072
0.00013988
0.000120648
0.000112614
0.00010685
0.000102952
0.000100716
0.000101232
0.000104179
0.00011037
0.000128493
0.000180204
0.000215015
0.000203443
0.000158566
0.000128478
0.000116979
0.000110471
0.000105699
0.000102453
0.000100632
0.000101081
0.000103912
0.000109094
0.000120991
0.000155736
0.000211607
0.00021429
0.000183505
0.000139932
0.000122293
0.000114219
0.000108803
0.000104801
0.000102008
0.000100561
0.000100988
0.000103648
0.000108166
0.000116549
0.00014021
0.000199945
0.000222664
0.000204765
0.000158134
0.00012922
0.000118324
0.000112043
0.000107379
0.000104047
0.000101692
0.000100455
0.000100899
0.000103297
0.00010714
0.000114483
0.000129476
0.000174745
0.000222321
0.00021918
0.000181075
0.000140058
0.00012326
0.000115404
0.000110233
0.00010625
0.000103321
0.000101474
0.000100326
0.000100823
0.000102925
0.000106345
0.000113311
0.000122794
0.000152651
0.000214986
0.000228058
0.000205296
0.000157201
0.000129582
0.000119243
0.000113155
0.000108706
0.000105327
0.000102707
0.000101293
0.000100207
0.000100757
0.000102654
0.000105803
0.000112108
0.000119006
0.000138501
0.000196426
0.00023249
0.000222764
0.000178081
0.000140412
0.000123667
0.000116258
0.000111339
0.000107469
0.00010449
0.000102263
0.000101069
0.000100119
0.000100696
0.000102499
0.000105316
0.00011067
0.00011705
0.000129297
0.000167824
0.000228775
0.000232211
0.000204093
0.000155085
0.000130358
0.000119809
0.000113961
0.000109712
0.000106409
0.000103721
0.000101949
0.000100805
0.000100065
0.000100644
0.000102394
0.000104905
0.000109276
0.000115739
0.000123617
0.000149905
0.000216525
0.000240577
0.000223581
0.000176268
0.000139757
0.000124269
0.000116986
0.000112109
0.000108343
0.000105459
0.000103033
0.000101663
0.000100531
0.000100038
0.0001006
0.000102273
0.000104545
0.000108264
0.000114471
0.000120295
0.000136942
0.000189984
0.000239534
0.000237527
0.000200043
0.000153869
0.000130516
0.000120244
0.000114696
0.000110407
0.000107216
0.000104612
0.000102532
0.000101348
0.000100292
0.000100017
0.000100561
0.00010215
0.000104225
0.00010759
0.000112987
0.000118295
0.000128982
0.000161934
0.000232412
0.000245072
0.000224462
0.000173248
0.000139294
0.000124706
0.000117308
0.000112771
0.000109026
0.000106199
0.000103807
0.000102131
0.000100964
0.00010013
9.99865e-05
0.000100521
0.000102048
0.000103918
0.000107031
0.000111496
0.000117053
0.000124122
0.000146893
0.000214315
0.00024983
0.000240277
0.000195649
0.000152236
0.000130556
0.00012079
0.000114995
0.000111033
0.000107846
0.00010527
0.000103108
0.000101732
0.000100582
0.000100023
9.99624e-05
0.000100476
0.000101963
0.000103621
0.000106553
0.000110367
0.000115828
0.000121173
0.000135971
0.000183435
0.000246585
0.000249487
0.000221565
0.000169548
0.00013862
0.000124953
0.000117855
0.000113131
0.000109581
0.000106764
0.000104429
0.000102537
0.000101323
0.000100282
9.99163e-05
9.99444e-05
0.000100429
0.000101877
0.000103376
0.000106121
0.000109493
0.000114492
0.00011927
0.000129045
0.000159603
0.000235035
0.000257695
0.000240586
0.000191554
0.000150374
0.000130381
0.000120986
0.000115484
0.000111454
0.000108349
0.000105797
0.000103657
0.000102062
0.000100906
0.000100078
9.98407e-05
9.9937e-05
0.000100395
0.000101777
0.000103161
0.000105611
0.000108645
0.000113134
0.000118022
0.000124729
0.000145434
0.000210106
0.000258722
0.00025457
0.000215441
0.000166031
0.000138182
0.000125002
0.000117985
0.000113574
0.000110019
0.000107251
0.000104928
0.000102991
0.000101632
0.000100513
9.98961e-05
9.97911e-05
9.99394e-05
0.000100354
0.000101621
0.000102936
0.000105089
0.000107969
0.000111898
0.000116812
0.000121935
0.000135652
0.000177827
0.000252855
0.000261302
0.00024037
0.000186282
0.000148096
0.000130429
0.000121175
0.000115699
0.000111889
0.000108786
0.000106261
0.000104168
0.000102424
0.000101217
0.000100227
9.97557e-05
9.9766e-05
9.99396e-05
0.000100317
0.000101451
0.000102717
0.000104605
0.000107402
0.000110822
0.000115567
0.000120046
0.000129232
0.000158014
0.000237883
0.000269589
0.00025577
0.000209313
0.000162709
0.000136787
0.000125136
0.000118316
0.000113851
0.000110447
0.000107689
0.000105381
0.000103472
0.000101939
0.000100806
0.000100013
9.96777e-05
9.97874e-05
9.99432e-05
0.000100277
0.000101284
0.000102516
0.000104192
0.00010688
0.000109834
0.000114315
0.000118787
0.000125008
0.000144515
0.000207388
0.000266752
0.000268088
0.000234375
0.000180718
0.00014658
0.000129692
0.000121361
0.00011607
0.000112273
0.000109209
0.000106701
0.000104625
0.000102835
0.000101505
0.000100455
9.98676e-05
9.96685e-05
9.98318e-05
9.99815e-05
0.000100229
0.00010113
0.000102321
0.000103793
0.000106307
0.000108934
0.000113136
0.000117641
0.00012224
0.000135229
0.000173789
0.000258872
0.000274835
0.000257017
0.000202637
0.000158747
0.000136317
0.000124897
0.000118566
0.000114218
0.000110884
0.000108131
0.000105867
0.000103944
0.000102292
0.000101143
0.000100206
9.98235e-05
9.98015e-05
9.98856e-05
9.99429e-05
0.000100177
0.000100947
0.00010209
0.000103413
0.000105734
0.000108246
0.00011198
0.000116482
0.000120333
0.000129042
0.000156845
0.000240485
0.000281567
0.000270797
0.000226957
0.000175307
0.000144107
0.000129557
0.000121438
0.000116385
0.000112685
0.000109711
0.000107222
0.00010514
0.000103347
0.000101888
0.000100887
0.000100097
9.9898e-05
0.000100095
0.000100164
9.99931e-05
0.000100125
0.000100735
0.00010186
0.000103082
0.00010519
0.000107611
0.000110808
0.000115312
0.000118953
0.000125024
0.000144058
0.000206565
0.000277075
0.000281703
0.000252323
0.000195597
0.000155464
0.000134892
0.000124889
0.00011887
0.000114629
0.000111399
0.000108725
0.000106464
0.000104532
0.000102873
0.000101612
0.000100771
0.000100172
0.000100111
0.000100401
0.000100346
0.00010008
0.000100078
0.000100505
0.000101655
0.000102735
0.000104626
0.00010699
0.00010971
0.000114158
0.000117764
0.000122258
0.00013522
0.000173318
0.000266589
0.000289229
0.000272704
0.000218442
0.000169902
0.000142517
0.000128891
0.000121574
0.000116821
0.000113205
0.000110344
0.000107942
0.000105877
0.000104091
0.000102552
0.0001015
0.000100866
0.000100539
0.000100652
0.000100958
0.000100865
0.000100044
0.00010037
0.000100045
0.000100272
0.000101432
0.000102268
0.000103989
0.000106356
0.000108701
0.000113035
0.00011666
0.000120292
0.000129269
0.000156997
0.00024429
0.000294444
0.000286055
0.000244442
0.000187856
0.000151898
0.000134144
0.000124708
0.000119145
0.000115181
0.000112084
0.000109545
0.000107377
0.000105465
0.000103815
0.000102441
0.000101617
0.000101341
0.000101502
0.000101811
0.000101765
0.000100775
0.000101255
0.000100076
0.000100467
0.000100025
0.000100046
0.000101155
0.000101728
0.000103327
0.000105694
0.000107886
0.000111929
0.000115658
0.000118765
0.000125249
0.000145165
0.000209512
0.000288565
0.000295843
0.000269695
0.000210136
0.000164567
0.000140354
0.000128515
0.000121705
0.000117291
0.000113955
0.000111258
0.000109028
0.000107063
0.000105306
0.000103753
0.0001025
0.000101991
0.000102149
0.000102651
0.000102359
0.000103029
0.000102087
0.000102829
0.000102945
0.000100853
0.000101503
0.000100116
0.00010052
9.99819e-05
9.98672e-05
0.000100819
0.000101263
0.000102694
0.000105019
0.000107199
0.000110868
0.000114706
0.000117574
0.000122468
0.000136518
0.000176471
0.000276604
0.000303637
0.000288344
0.000233758
0.000180853
0.000148812
0.000132951
0.000124635
0.000119507
0.000115911
0.000113119
0.00011079
0.000108857
0.000107086
0.000105523
0.000104199
0.000103176
0.00010299
0.000103452
0.000103556
0.000104105
0.000103617
0.000102475
0.000103633
0.000103193
0.000100936
0.000101801
0.000100172
0.000100546
9.99365e-05
9.97803e-05
0.000100387
0.000100906
0.000102026
0.000104346
0.000106542
0.000109993
0.000113779
0.000116625
0.000120431
0.000130545
0.000159399
0.00025323
0.000308423
0.000301144
0.00026091
0.000200065
0.000159505
0.000138639
0.000127988
0.000121902
0.000117963
0.000114991
0.000112636
0.000110734
0.000109055
0.000107565
0.000106394
0.000105451
0.00010486
0.000104949
0.000104502
0.000105217
0.000104161
0.000104731
0.000104286
0.000102631
0.000103776
0.000103147
0.000101111
0.000101997
0.000100212
0.000100585
9.99208e-05
9.9733e-05
9.99785e-05
0.000100717
0.000101356
0.000103658
0.000105797
0.000109128
0.000112944
0.000115833
0.000118928
0.000126356
0.000148728
0.000219334
0.000301991
0.000310524
0.000285853
0.000223633
0.000173355
0.000145586
0.000131991
0.000124541
0.000120015
0.000116908
0.000114516
0.000112661
0.000111142
0.000109823
0.000108718
0.000108082
0.000107658
0.000107175
0.000105758
0.000106617
0.000105138
0.000105698
0.000104774
0.000105158
0.00010428
0.000102526
0.00010356
0.000102813
0.000101297
0.000102001
0.000100219
0.000100691
9.99375e-05
9.96881e-05
9.97311e-05
0.000100582
0.000100799
0.000102984
0.000104997
0.000108118
0.000112204
0.000115184
0.000117783
0.000123437
0.000139988
0.000186713
0.000290475
0.000318262
0.000303586
0.00024764
0.00019083
0.000154752
0.00013674
0.000127474
0.000122162
0.000118783
0.000116434
0.000114603
0.000113251
0.000112263
0.00011149
0.000107337
0.000107152
0.000109561
0.000107393
0.000108367
0.0001062
0.000106851
0.000105481
0.000105804
0.000104655
0.000104934
0.000103911
0.000102187
0.000103035
0.000102249
0.000101373
0.000101762
0.000100222
0.000100787
0.000100001
9.97788e-05
9.97724e-05
0.000100504
0.00010052
0.000102337
0.000104204
0.000107168
0.000111463
0.000114834
0.00011699
0.000121363
0.000133774
0.000165923
0.000268511
0.000323442
0.000315946
0.000275225
0.000211028
0.000166282
0.000142681
0.000130864
0.000124404
0.000120615
0.000118183
0.000116544
0.000115291
0.000113577
0.000103017
9.42222e-05
8.98236e-05
9.10022e-05
0.000109262
0.000101065
0.000107436
0.000108075
0.00010614
0.000106439
0.00010514
0.000105223
0.000104139
0.000104227
0.000103206
0.000101668
0.00010227
0.00010149
0.000101266
0.00010129
9.42191e-05
9.77305e-05
0.000100172
0.000100129
0.000100161
0.000100571
0.000100474
0.000101707
0.000103534
0.000106088
0.000110499
0.000114546
0.000116865
0.000120025
0.000129423
0.000154699
0.00023812
0.000317952
0.000325347
0.000299879
0.000234886
0.000181033
0.000149989
0.00013486
0.000126874
0.000122423
0.000119815
0.000118312
0.000117257
0.000107912
9.54579e-05
8.64629e-05
7.95391e-05
7.72525e-05
9.03512e-05
8.93505e-05
0.000108149
0.000107089
0.000106507
0.000105453
0.000105266
0.00010444
0.000104225
0.000103705
0.000103237
0.000102984
0.000102248
0.000100933
0.00010136
0.000100638
9.91282e-05
0.000100567
7.51505e-05
7.77104e-05
0.000100619
0.000100918
0.000100871
0.000100934
0.000100774
0.000101387
0.000103059
0.000105257
0.000109799
0.000114394
0.000116958
0.000119674
0.000126631
0.000147083
0.000207319
0.000308933
0.000332832
0.000317462
0.000259172
0.00019898
0.000159582
0.000139591
0.000129647
0.000124284
0.000121188
0.000119795
0.000119083
0.000104995
9.04896e-05
8.02093e-05
7.33257e-05
7.93531e-05
9.20334e-05
0.000103305
0.000103477
9.74947e-05
0.000102177
9.54271e-05
0.000101939
9.59377e-05
0.000102192
9.78694e-05
0.000102233
9.98989e-05
0.000101869
0.000100807
0.000100872
0.000100076
0.000100052
9.94203e-05
8.00167e-05
7.98328e-05
5.98662e-05
6.18553e-05
0.000101154
0.000102266
0.000102085
0.00010175
0.000101435
0.000101397
0.00010293
0.000104807
0.000108761
0.000113995
0.000117601
0.00011972
0.000125372
0.000141315
0.000181698
0.000291545
0.000338258
0.000329876
0.000286375
0.000219769
0.000171636
0.000145558
0.000132814
0.000126147
0.000122666
0.000120954
0.000120443
0.000104569
8.83916e-05
7.62559e-05
7.27168e-05
8.29438e-05
0.00010186
0.000104022
9.35702e-05
9.80605e-05
8.87447e-05
8.93997e-05
8.72666e-05
8.36084e-05
8.92668e-05
8.19401e-05
9.35935e-05
8.34957e-05
9.7514e-05
8.95209e-05
9.94968e-05
9.52608e-05
9.84259e-05
8.30912e-05
9.76493e-05
9.01184e-05
6.36499e-05
6.28068e-05
4.73714e-05
4.96348e-05
0.000102272
0.00010491
0.000104065
0.000102956
0.000102332
0.000101883
0.000103074
0.000104778
0.000108138
0.000113159
0.000118283
0.00012107
0.000125223
0.000137849
0.000167325
0.000269152
0.000338334
0.000339409
0.000310468
0.000242902
0.000186812
0.000153093
0.00013658
0.000128258
0.000123927
0.000121882
0.000121336
0.000106131
8.87704e-05
7.51032e-05
7.38072e-05
0.000118068
0.000112144
9.22891e-05
0.000107215
0.000125316
0.000105594
0.000130111
9.57479e-05
0.000128204
8.60495e-05
0.000113813
8.0733e-05
9.46241e-05
8.01408e-05
8.33598e-05
8.61711e-05
7.95983e-05
9.32819e-05
8.34986e-05
9.18689e-05
6.63281e-05
9.10932e-05
7.51095e-05
4.93178e-05
5.09628e-05
3.81818e-05
3.85076e-05
0.000104194
0.000109646
0.00010835
0.000105205
0.000103752
0.000102974
0.000103606
0.000105042
0.000107919
0.00011152
0.000117921
0.000122267
0.000126183
0.000136523
0.000159843
0.000243956
0.000332059
0.00034676
0.0003294
0.000267199
0.000204561
0.000162853
0.00014124
0.000130706
0.00012533
0.000122553
0.000122048
0.000109446
9.05956e-05
7.59461e-05
7.37234e-05
0.000128731
0.000175028
0.000141355
0.000168736
0.000159615
0.000195896
0.000169536
0.000221321
0.0001656
0.000228783
0.000144163
0.000216551
0.000111131
0.000185497
8.87572e-05
0.000137218
8.13044e-05
9.65305e-05
8.16408e-05
8.314e-05
8.05839e-05
5.61483e-05
8.03965e-05
7.12883e-05
4.0057e-05
4.26044e-05
3.12487e-05
3.0522e-05
0.000107133
0.000119059
0.000116457
0.000109701
0.00010605
0.000104711
0.000104617
0.000105716
0.000107804
0.000110569
0.000116194
0.000122595
0.000129329
0.000136908
0.00015641
0.000221635
0.000322307
0.000353378
0.000342261
0.00029214
0.000224952
0.000174978
0.000147168
0.000133667
0.000126784
0.000123359
0.000122598
0.000114837
9.41801e-05
7.76895e-05
7.40893e-05
0.00012845
0.000202016
0.000316493
0.000356758
0.000237499
0.000280539
0.000277807
0.000338082
0.000295232
0.000359936
0.000289661
0.000356774
0.000265361
0.000338614
0.000224583
0.000305528
0.000165956
0.000258207
0.000105403
0.000192483
8.39944e-05
0.00011349
8.45177e-05
5.48717e-05
8.54608e-05
8.37858e-05
3.30481e-05
4.00072e-05
2.55173e-05
2.56228e-05
0.000111499
0.000137566
0.000133269
0.00011886
0.000110232
0.000107296
0.000106094
0.000106662
0.000107694
0.0001102
0.000114094
0.000121587
0.000129298
0.000139685
0.000155792
0.000205192
0.000308316
0.000357598
0.000352166
0.000316562
0.000246562
0.000189753
0.000154695
0.000137198
0.00012846
0.000124135
0.000122595
0.000121575
9.94576e-05
8.08018e-05
7.31038e-05
0.000127754
0.000203223
0.000382348
0.00041514
0.000482713
0.000516208
0.00039445
0.000441911
0.000416019
0.000463199
0.000412429
0.00045549
0.000396261
0.000440253
0.000370758
0.000420316
0.000335412
0.000393798
0.000285586
0.000358451
0.000213897
0.000307131
0.000117702
0.000226593
0.000117388
7.83413e-05
0.000115333
0.000108293
2.84613e-05
5.83498e-05
2.08379e-05
2.15313e-05
0.000124355
0.000166226
0.00016546
0.000138764
0.000119086
0.000110858
0.000108092
0.000107952
0.000108076
0.000110181
0.000113666
0.000120165
0.000128644
0.000141025
0.000157072
0.000195876
0.000294741
0.000358505
0.000360149
0.000336946
0.000269733
0.000206697
0.000164196
0.000141638
0.000130493
0.000124928
0.000122432
0.00012287
0.000105566
8.51749e-05
7.16885e-05
0.000124374
0.00020784
0.000429382
0.000428822
0.000544258
0.000567702
0.000570376
0.000597664
0.000503121
0.000538207
0.000492483
0.000525615
0.000473468
0.00050251
0.000454113
0.000481909
0.000435185
0.000465238
0.000411413
0.000448022
0.000377418
0.000426219
0.000323093
0.000392476
0.000231343
0.000333494
0.000229732
9.62488e-05
0.000219365
0.000193369
3.42891e-05
8.76376e-05
1.72576e-05
2.02823e-05
0.000132597
0.000186299
0.000200657
0.000176467
0.000138841
0.000118238
0.00011063
0.000109376
0.000109013
0.00011059
0.000114421
0.000120948
0.000127796
0.000140373
0.000158208
0.000192506
0.000283875
0.000356354
0.000367076
0.000351616
0.000292018
0.000225546
0.000175792
0.000147282
0.000133288
0.000125957
0.000122565
0.000122041
0.000114789
9.23082e-05
7.35354e-05
0.000116849
0.000199615
0.000526805
0.000582292
0.000619147
0.0006229
0.000642641
0.00061873
0.000647583
0.000557287
0.000588499
0.000531525
0.000565565
0.00050696
0.000535354
0.000487787
0.000510272
0.00047357
0.000494798
0.000459297
0.000482563
0.000438939
0.000469681
0.000404379
0.000450037
0.000339321
0.000413629
0.000339859
0.000152471
0.000331313
0.000309302
6.78019e-05
0.000122695
1.46995e-05
2.87147e-05
0.000146344
0.000206458
0.000208039
0.000176726
0.000135864
0.000116058
0.000111451
0.000110431
0.000111699
0.000116146
0.000123825
0.000129853
0.000139661
0.000158381
0.000193679
0.000276857
0.000353348
0.000374032
0.000362757
0.000315132
0.00024559
0.000189379
0.000154492
0.000136643
0.000127282
0.000122944
0.000121265
0.000122562
0.000100966
8.05219e-05
9.05705e-05
0.000165411
0.000504645
0.000685576
0.000691849
0.000662032
0.000676138
0.000673696
0.000695926
0.000667037
0.000697265
0.000599874
0.000634758
0.000568727
0.000606234
0.000536882
0.00056749
0.000513354
0.000534404
0.000500055
0.00051555
0.000490431
0.000505628
0.000479226
0.000497588
0.000460167
0.000487009
0.000420068
0.000468344
0.000422101
0.000268958
0.000417994
0.000403578
9.31695e-05
0.000201332
1.39987e-05
5.68282e-05
0.000135176
0.000206918
0.000207567
0.000170772
0.000129256
0.000116431
0.000113181
0.000114693
0.000120117
0.000131885
0.000135813
0.000141
0.000158381
0.000198529
0.00027371
0.000350921
0.000380224
0.000372016
0.000335955
0.000265928
0.000204916
0.000163271
0.000140746
0.0001292
0.000123576
0.000120834
0.000121154
0.000111273
8.97309e-05
8.39992e-05
0.000129511
0.0004259
0.000689629
0.000678753
0.000743355
0.000749723
0.000715284
0.000730668
0.000723062
0.000744392
0.000710972
0.000729043
0.000643668
0.000681545
0.000606549
0.000650225
0.000564675
0.00060537
0.000535001
0.000561953
0.000520808
0.000538622
0.000512778
0.000528085
0.000505241
0.000519919
0.000495351
0.000512109
0.000474218
0.000502315
0.000478071
0.000371975
0.000478269
0.000474163
0.000435639
0.000135426
0.000307637
1.47988e-05
6.4765e-05
0.000123805
0.000204905
0.00020182
0.000155889
0.000128721
0.000120237
0.000121737
0.00012892
0.000144828
0.000151957
0.000146384
0.000159716
0.000203033
0.000273714
0.000349521
0.000385769
0.000380473
0.000353413
0.000286133
0.000221624
0.000173767
0.000145874
0.000131683
0.000124272
0.000120696
0.000119745
0.00012178
9.97718e-05
8.71204e-05
0.000112831
0.000327726
0.000700718
0.000752021
0.000759595
0.000794012
0.000804065
0.00076339
0.00077993
0.000743625
0.000760264
0.000710285
0.000722804
0.00068296
0.00070065
0.000645096
0.000668031
0.000599392
0.000630211
0.000561534
0.000590744
0.000545691
0.000563694
0.000535555
0.00055264
0.000525586
0.000540748
0.000516724
0.000528489
0.000507661
0.000518415
0.000513366
0.000498332
0.000509105
0.00046372
0.000398425
0.000454559
0.000498198
0.000511062
0.000508078
0.000495173
0.000137002
0.000234402
0.000433882
0.000409409
0.000326961
1.33591e-05
0.000162627
5.5001e-05
9.98255e-05
0.000122578
0.000202143
0.000190528
0.000152041
0.00013528
0.000136785
0.000147898
0.000164803
0.000173245
0.000162243
0.000164616
0.000206575
0.000275237
0.000349811
0.000390792
0.000388263
0.000367984
0.000305378
0.000238783
0.000185775
0.000152328
0.000134756
0.000125185
0.000120875
0.000118865
0.00011981
0.000112132
9.49815e-05
0.000108127
0.000265183
0.000672318
0.000815352
0.000801103
0.000810627
0.000816829
0.00082374
0.000847728
0.000777922
0.000799198
0.00073628
0.000751614
0.000687757
0.000677815
0.000680656
0.0006903
0.000644837
0.000659504
0.000610328
0.000624593
0.000583433
0.000593504
0.000569026
0.000579344
0.000557473
0.000572704
0.000534929
0.000542768
0.000550046
0.000559135
0.000522779
0.000527838
0.000543717
0.000542673
0.000534023
0.00051831
0.000515665
0.000518803
0.000522611
0.000515685
0.000490328
0.00048065
0.000511355
0.000518043
0.00051702
0.000510608
0.000274345
0.000465824
0.000441766
0.000369259
3.24635e-05
6.15133e-05
0.000201614
0.000122685
0.000133316
0.000202745
0.000183286
0.000158646
0.000162011
0.000176442
0.000189667
0.000195787
0.000185938
0.000177168
0.000210586
0.000276872
0.000349722
0.000395583
0.000395449
0.000379324
0.00032339
0.000255995
0.000198892
0.000160098
0.000138718
0.000127134
0.000121393
0.000118456
0.000117997
0.000120323
0.000107597
0.000108411
0.000217987
0.000634994
0.000834813
0.000885684
0.000898311
0.000865767
0.000876964
0.000825054
0.000859108
0.000769252
0.000794283
0.000672224
0.000679475
0.000578564
0.000535351
0.000654877
0.000628653
0.000627957
0.000611201
0.000598792
0.00059481
0.000584849
0.000582643
0.000579651
0.000583551
0.000566185
0.000569543
0.000578465
0.0005498
0.000551452
0.000559771
0.000567829
0.000527433
0.000533692
0.000551353
0.000551218
0.000541786
0.000522156
0.000519067
0.000521713
0.000526635
0.000519222
0.000507423
0.000500916
0.000518365
0.000519326
0.000519158
0.000518254
0.00031434
0.000489035
0.000468201
0.000404762
8.40216e-05
7.0653e-05
2.71905e-05
4.44613e-05
0.000240133
0.000152119
0.00015434
0.00020715
0.000186133
0.0001869
0.000203011
0.000213655
0.000217541
0.000209625
0.000197489
0.000217739
0.000279353
0.000349773
0.000399404
0.000402928
0.000389293
0.00034093
0.000272759
0.00021282
0.00016914
0.000143541
0.000129759
0.000122043
0.000118435
0.00011693
0.000118049
0.000120092
0.000109327
0.000179891
0.000558699
0.000789891
0.000971918
0.000963635
0.000951938
0.000966552
0.000895596
0.000928591
0.000786866
0.000842738
0.000695355
0.000733569
0.000516215
0.000523054
0.000383953
0.000318889
0.000559553
0.000474294
0.000565478
0.000500332
0.000566233
0.000530083
0.000575107
0.000555147
0.000584495
0.000549725
0.000580757
0.000567056
0.000565067
0.000559663
0.00054698
0.000546426
0.00056039
0.000557904
0.000541179
0.000533084
0.00054163
0.000560867
0.000544319
0.000551655
0.000525724
0.000520926
0.000524492
0.000532277
0.000519892
0.000516985
0.000513384
0.000519136
0.000518493
0.000517051
0.000519264
0.000351208
0.000505006
0.000488454
0.00043481
0.000182105
9.51468e-05
3.06175e-05
4.59357e-05
0.000276771
0.000186783
0.000214959
0.000206367
0.000222928
0.000233854
0.000236846
0.000230594
0.000218725
0.000228745
0.000282268
0.000350103
0.000400194
0.000409956
0.000398314
0.000356499
0.000288876
0.000226977
0.000179215
0.000149092
0.000132667
0.000122976
0.00011872
0.000116454
0.000116248
0.000117518
0.000109271
0.000149556
0.00042848
0.000709614
0.00100921
0.00105574
0.00108434
0.00099399
0.00103203
0.000896726
0.00094694
0.000690372
0.000772373
0.000548885
0.000613085
0.000297187
0.000307653
0.000238136
0.000196314
0.000409474
0.000311482
0.000471714
0.000400159
0.000521597
0.000473828
0.000565027
0.000552064
0.000536145
0.000517102
0.000543084
0.000547796
0.000552788
0.000564122
0.000527373
0.000518857
0.00051302
0.000511446
0.000538371
0.000517617
0.00050097
0.000541403
0.000552114
0.000516103
0.000496818
0.000526495
0.000531172
0.00052271
0.00052927
0.000540864
0.000520223
0.000519314
0.000518297
0.000515926
0.000517054
0.000513554
0.000515463
0.000383837
0.000513896
0.000502435
0.000459387
0.000310014
0.000209786
0.000107727
3.45388e-05
5.62597e-05
0.000223088
0.000229572
0.000237544
0.000249452
0.000252656
0.000248357
0.00023833
0.000243879
0.000287239
0.000350314
0.000400377
0.000414778
0.000406355
0.000370185
0.00030388
0.000240825
0.000189752
0.000155338
0.000135842
0.00012473
0.000119166
0.000116363
0.000115169
0.000115619
0.000108715
0.000128293
0.000315378
0.00063501
0.000950942
0.00116949
0.00117238
0.00111289
0.00115261
0.00100095
0.00106072
0.000854212
0.000931956
0.000554535
0.000659646
0.000362631
0.000454359
0.000178604
0.000183501
0.000194295
0.000162077
0.000321775
0.000247273
0.000415861
0.000352354
0.00047342
0.000422966
0.000553966
0.000537867
0.000518969
0.000498183
0.000510887
0.000515337
0.000520977
0.000532743
0.000489463
0.000482827
0.000479054
0.000477645
0.000493367
0.000476042
0.000463564
0.000545755
0.000509659
0.000471205
0.000451848
0.000477035
0.000539239
0.00052623
0.000536079
0.000531828
0.000521829
0.000515732
0.000516342
0.000510325
0.000516085
0.000509514
0.000508141
0.000411848
0.000515793
0.000510067
0.00047852
0.00033912
0.000234133
0.000132046
4.29818e-05
9.00789e-05
0.000268061
0.000254521
0.000261801
0.000265841
0.000262748
0.00025591
0.00025941
0.000293685
0.000349623
0.000400199
0.000416266
0.000412379
0.000382159
0.00031757
0.000254041
0.000200457
0.000162449
0.000139792
0.000127294
0.000119824
0.000116568
0.000114713
0.000114461
0.000108497
0.00011565
0.00025278
0.000607917
0.000873704
0.00123869
0.00123452
0.00128217
0.00112596
0.0011888
0.000964366
0.00105099
0.000765669
0.000868433
0.000387938
0.000507498
0.000206403
0.000276156
0.00014158
0.000131178
0.000182995
0.000152693
0.000287217
0.000226883
0.000371112
0.000323969
0.000457562
0.000435513
0.000395839
0.000415956
0.000539001
0.000520937
0.000500689
0.000479213
0.000479386
0.000484369
0.000493235
0.000507444
0.00045553
0.000451251
0.000449498
0.000450563
0.000453091
0.000440786
0.000432776
0.000492011
0.000458331
0.000433326
0.000416332
0.000433659
0.000513986
0.000530967
0.000495504
0.00047325
0.000523702
0.000507534
0.000508717
0.000503099
0.000514578
0.000504199
0.000497999
0.000435333
0.000511131
0.000511355
0.000492416
0.000364389
0.000261857
0.000172433
6.60988e-05
0.000134477
0.00028811
0.000275037
0.000278359
0.000274822
0.000270781
0.000275763
0.00030288
0.000349899
0.0003982
0.000417175
0.000415367
0.000392101
0.000329894
0.00026636
0.000211394
0.000170472
0.000144837
0.00013066
0.000121718
0.000116985
0.000114686
0.000113957
0.000108575
0.000108736
0.000223278
0.000583023
0.00080332
0.00121162
0.00136325
0.00138029
0.00125125
0.00131348
0.00108833
0.00117702
0.000875685
0.00098728
0.000632112
0.00075615
0.000216965
0.000323385
0.000140618
0.000168105
0.000129671
0.000118043
0.000208399
0.000173098
0.000280511
0.000242788
0.00037903
0.000361806
0.000347035
0.000443069
0.000426462
0.000398325
0.000411609
0.000518871
0.000500415
0.000480914
0.000461548
0.000455277
0.000464204
0.000477786
0.000497045
0.000428461
0.000427628
0.000429832
0.000435873
0.000421473
0.000414667
0.000411858
0.000440083
0.000416953
0.000407228
0.000396698
0.000403027
0.000453413
0.000479378
0.00043585
0.000422093
0.000468133
0.000495284
0.000496115
0.000493967
0.000461661
0.000456349
0.000485017
0.000454505
0.000500726
0.000506576
0.000501081
0.00038729
0.000293429
0.000216573
6.93328e-05
0.00015231
0.000306773
0.000290914
0.000289439
0.000284091
0.000291927
0.000313833
0.000351637
0.000394635
0.000417874
0.000416127
0.00039897
0.000340674
0.000277624
0.000222222
0.000179138
0.000150722
0.000134263
0.000124469
0.000117653
0.000114916
0.000113943
0.000108806
0.000105408
0.000209042
0.000558368
0.000744752
0.00113842
0.001448
0.00136342
0.00142971
0.00120428
0.00129129
0.00098985
0.00110331
0.000732345
0.000865357
0.000457017
0.00059428
0.000148125
0.000183149
0.000113117
0.000122575
0.000136628
0.0001102
0.000257256
0.000211992
0.000321749
0.000293417
0.000386374
0.000374998
0.000390876
0.000381676
0.000436581
0.000426313
0.000410107
0.000417512
0.000495592
0.000479109
0.000463328
0.000449033
0.000446151
0.000460327
0.000479273
0.000487242
0.000412676
0.000417643
0.000426545
0.00043891
0.00040191
0.000401424
0.00040525
0.000402242
0.000393993
0.000395996
0.000399998
0.00039327
0.000405954
0.000422051
0.000393264
0.000391233
0.000414614
0.000479274
0.000478958
0.000457238
0.000407204
0.0004051
0.000469214
0.000469511
0.000484899
0.000494722
0.000504576
0.000407708
0.000324661
0.000247273
4.4347e-05
0.000132259
0.000324612
0.000303266
0.000302811
0.000305636
0.000325701
0.000354756
0.000390705
0.000415169
0.00041675
0.00040231
0.000349361
0.0002877
0.000232493
0.000187847
0.000156851
0.000138135
0.000127005
0.000119146
0.000115222
0.00011416
0.000109156
0.000104484
0.000200656
0.00053875
0.000695786
0.00104576
0.00145975
0.00144654
0.0014957
0.00129572
0.00137907
0.00108645
0.00119789
0.000827563
0.000962284
0.000536955
0.000684208
0.000258996
0.000389026
0.000113284
0.000133318
0.000103543
0.00010369
0.000160783
0.000115877
0.000308614
0.000255738
0.000372819
0.000359183
0.00034885
0.000403482
0.00039711
0.000413595
0.000406079
0.00043934
0.000434471
0.00042705
0.000430538
0.000474219
0.000462575
0.000452883
0.000445265
0.000454115
0.000471957
0.00047695
0.000467352
0.000414251
0.00042703
0.000440466
0.000455626
0.000399729
0.000409487
0.000421693
0.000389438
0.000397813
0.000409822
0.000418597
0.000409221
0.000383709
0.000384785
0.000378612
0.000389248
0.000378377
0.000460009
0.000458277
0.000416892
0.000375032
0.000381038
0.000438752
0.000479904
0.000464122