/*--------------------------------*- C++ -*----------------------------------*\
  =========                 |
  \\      /  F ield         | OpenFOAM: The Open Source CFD Toolbox
   \\    /   O peration     | Website:  https://openfoam.org
    \\  /    A nd           | Version:  dev
     \\/     M anipulation  |
\*---------------------------------------------------------------------------*/
FoamFile
{
    version     2.0;
    format      ascii;
    class       volScalarField;
    location    "2500";
    object      O2;
}
// * * * * * * * * * * * * * * * * * * * * * * * * * * * * * * * * * * * * * //

dimensions      [0 0 0 0 0 0 0];

internalField   nonuniform List<scalar> 
9842
(
0.23301
0.23301
0.23301
0.23301
0.23301
0.23301
0.23301
0.23301
0.23301
0.23301
0.23301
0.23301
0.23301
0.23301
0.23301
0.23301
0.23301
0.23301
0.23301
0.23301
0.23301
0.23301
0.23301
0.23301
0.23301
0.23301
0.23301
0.23301
0.23301
0.23301
0.23301
0.23301
0.23301
0.23301
0.23301
0.23301
0.23301
0.23301
0.23301
0.23301
0.23301
0.23301
0.23301
0.23301
0.23301
0.23301
0.23301
0.23301
0.23301
0.23301
0.23301
0.23301
0.23301
0.23301
0.23301
0.23301
0.23301
0.23301
0.23301
0.23301
0.23301
0.23301
0.23301
0.23301
0.23301
0.23301
0.23301
0.23301
0.23301
0.23301
0.23301
0.23301
0.23301
0.23301
0.23301
0.23301
0.23301
0.23301
0.23301
0.23301
0.23301
0.23301
0.23301
0.23301
0.23301
0.23301
0.23301
0.23301
0.23301
0.23301
0.23301
0.23301
0.23301
0.23301
0.23301
0.23301
0.23301
0.23301
0.23301
0.23301
0.23301
0.23301
0.23301
0.23301
0.23301
0.23301
0.23301
0.23301
0.23301
0.23301
0.23301
0.23301
0.23301
0.23301
0.23301
0.23301
0.23301
0.23301
0.23301
0.23301
0.23301
0.23301
0.23301
0.23301
0.23301
0.23301
0.23301
0.23301
0.23301
0.23301
0.23301
0.23301
0.23301
0.23301
0.23301
0.23301
0.23301
0.23301
0.23301
0.23301
0.23301
0.23301
0.23301
0.23301
0.23301
0.23301
0.23301
0.23301
0.23301
0.23301
0.23301
0.23301
0.23301
0.23301
0.23301
0.23301
0.23301
0.23301
0.23301
0.23301
0.23301
0.23301
0.23301
0.23301
0.23301
0.23301
0.23301
0.23301
0.23301
0.23301
0.23301
0.23301
0.23301
0.23301
0.23301
0.23301
0.23301
0.23301
0.23301
0.23301
0.23301
0.23301
0.23301
0.23301
0.23301
0.23301
0.23301
0.23301
0.23301
0.23301
0.23301
0.23301
0.23301
0.23301
0.23301
0.23301
0.23301
0.23301
0.23301
0.23301
0.23301
0.23301
0.23301
0.23301
0.23301
0.23301
0.23301
0.23301
0.23301
0.23301
0.23301
0.23301
0.23301
0.23301
0.23301
0.23301
0.23301
0.23301
0.23301
0.23301
0.23301
0.23301
0.23301
0.23301
0.23301
0.23301
0.23301
0.23301
0.23301
0.23301
0.23301
0.23301
0.23301
0.23301
0.23301
0.23301
0.23301
0.23301
0.23301
0.23301
0.23301
0.23301
0.23301
0.23301
0.23301
0.23301
0.23301
0.23301
0.23301
0.23301
0.23301
0.23301
0.23301
0.23301
0.23301
0.23301
0.23301
0.23301
0.23301
0.23301
0.23301
0.23301
0.23301
0.23301
0.23301
0.23301
0.23301
0.23301
0.23301
0.23301
0.23301
0.23301
0.23301
0.23301
0.23301
0.23301
0.23301
0.23301
0.23301
0.23301
0.23301
0.23301
0.23301
0.23301
0.23301
0.23301
0.23301
0.23301
0.23301
0.23301
0.23301
0.23301
0.23301
0.23301
0.23301
0.23301
0.23301
0.23301
0.23301
0.23301
0.23301
0.23301
0.23301
0.23301
0.23301
0.23301
0.23301
0.23301
0.23301
0.23301
0.23301
0.23301
0.23301
0.23301
0.23301
0.23301
0.23301
0.23301
0.23301
0.23301
0.23301
0.23301
0.23301
0.23301
0.23301
0.23301
0.23301
0.23301
0.23301
0.23301
0.23301
0.23301
0.23301
0.23301
0.23301
0.23301
0.23301
0.23301
0.23301
0.23301
0.23301
0.23301
0.23301
0.23301
0.23301
0.23301
0.23301
0.23301
0.23301
0.23301
0.23301
0.23301
0.23301
0.23301
0.23301
0.23301
0.23301
0.23301
0.23301
0.23301
0.23301
0.23301
0.23301
0.23301
0.23301
0.23301
0.23301
0.23301
0.23301
0.23301
0.23301
0.23301
0.23301
0.23301
0.23301
0.23301
0.23301
0.23301
0.23301
0.23301
0.23301
0.23301
0.23301
0.23301
0.23301
0.23301
0.23301
0.23301
0.23301
0.23301
0.23301
0.23301
0.23301
0.23301
0.23301
0.23301
0.23301
0.23301
0.23301
0.23301
0.23301
0.23301
0.23301
0.23301
0.23301
0.23301
0.23301
0.23301
0.23301
0.23301
0.23301
0.23301
0.23301
0.23301
0.23301
0.23301
0.23301
0.23301
0.23301
0.23301
0.23301
0.23301
0.23301
0.23301
0.23301
0.23301
0.23301
0.23301
0.23301
0.23301
0.23301
0.23301
0.23301
0.23301
0.23301
0.23301
0.23301
0.23301
0.23301
0.23301
0.23301
0.23301
0.23301
0.23301
0.23301
0.23301
0.23301
0.23301
0.23301
0.23301
0.23301
0.23301
0.23301
0.23301
0.23301
0.23301
0.23301
0.23301
0.23301
0.23301
0.23301
0.23301
0.23301
0.23301
0.23301
0.23301
0.23301
0.23301
0.23301
0.23301
0.23301
0.23301
0.23301
0.23301
0.23301
0.23301
0.23301
0.23301
0.23301
0.23301
0.23301
0.23301
0.23301
0.23301
0.23301
0.23301
0.23301
0.23301
0.23301
0.23301
0.23301
0.23301
0.23301
0.23301
0.23301
0.23301
0.23301
0.23301
0.23301
0.23301
0.23301
0.23301
0.23301
0.23301
0.23301
0.23301
0.23301
0.23301
0.23301
0.23301
0.23301
0.23301
0.23301
0.23301
0.23301
0.23301
0.23301
0.23301
0.23301
0.23301
0.23301
0.23301
0.23301
0.23301
0.23301
0.23301
0.23301
0.23301
0.23301
0.23301
0.23301
0.23301
0.23301
0.23301
0.23301
0.23301
0.23301
0.23301
0.23301
0.23301
0.23301
0.23301
0.23301
0.23301
0.23301
0.23301
0.23301
0.23301
0.23301
0.23301
0.23301
0.23301
0.23301
0.23301
0.23301
0.23301
0.23301
0.23301
0.23301
0.23301
0.23301
0.23301
0.23301
0.23301
0.23301
0.23301
0.23301
0.23301
0.23301
0.23301
0.23301
0.23301
0.23301
0.23301
0.23301
0.23301
0.23301
0.23301
0.23301
0.23301
0.23301
0.23301
0.23301
0.23301
0.23301
0.23301
0.23301
0.23301
0.23301
0.23301
0.23301
0.23301
0.23301
0.23301
0.23301
0.23301
0.23301
0.23301
0.23301
0.23301
0.23301
0.23301
0.23301
0.23301
0.23301
0.23301
0.23301
0.23301
0.23301
0.23301
0.23301
0.23301
0.23301
0.23301
0.23301
0.23301
0.23301
0.23301
0.23301
0.23301
0.23301
0.23301
0.23301
0.23301
0.23301
0.23301
0.23301
0.23301
0.23301
0.23301
0.23301
0.23301
0.23301
0.23301
0.23301
0.23301
0.23301
0.23301
0.23301
0.23301
0.23301
0.23301
0.23301
0.23301
0.23301
0.23301
0.23301
0.23301
0.23301
0.23301
0.23301
0.23301
0.23301
0.23301
0.23301
0.23301
0.23301
0.23301
0.23301
0.23301
0.23301
0.23301
0.23301
0.23301
0.23301
0.23301
0.23301
0.23301
0.23301
0.23301
0.23301
0.23301
0.23301
0.23301
0.23301
0.23301
0.23301
0.23301
0.23301
0.23301
0.23301
0.23301
0.23301
0.23301
0.23301
0.23301
0.23301
0.23301
0.23301
0.23301
0.23301
0.23301
0.23301
0.23301
0.23301
0.23301
0.23301
0.23301
0.23301
0.23301
0.23301
0.23301
0.23301
0.23301
0.23301
0.23301
0.23301
0.23301
0.23301
0.23301
0.23301
0.23301
0.23301
0.23301
0.23301
0.23301
0.23301
0.23301
0.23301
0.23301
0.23301
0.23301
0.23301
0.23301
0.23301
0.23301
0.23301
0.23301
0.23301
0.23301
0.23301
0.23301
0.23301
0.23301
0.23301
0.23301
0.23301
0.23301
0.23301
0.23301
0.23301
0.23301
0.23301
0.23301
0.23301
0.23301
0.23301
0.23301
0.23301
0.23301
0.23301
0.23301
0.23301
0.23301
0.23301
0.23301
0.23301
0.23301
0.23301
0.23301
0.23301
0.23301
0.23301
0.23301
0.23301
0.23301
0.23301
0.23301
0.23301
0.23301
0.23301
0.23301
0.23301
0.23301
0.23301
0.23301
0.23301
0.23301
0.23301
0.23301
0.23301
0.23301
0.23301
0.23301
0.23301
0.23301
0.23301
0.23301
0.23301
0.23301
0.23301
0.23301
0.23301
0.23301
0.23301
0.23301
0.23301
0.23301
0.23301
0.23301
0.23301
0.23301
0.23301
0.23301
0.23301
0.23301
0.23301
0.23301
0.23301
0.23301
0.23301
0.23301
0.23301
0.23301
0.23301
0.23301
0.23301
0.23301
0.23301
0.23301
0.23301
0.23301
0.23301
0.23301
0.23301
0.23301
0.23301
0.23301
0.23301
0.23301
0.23301
0.23301
0.23301
0.23301
0.23301
0.23301
0.23301
0.23301
0.23301
0.23301
0.23301
0.23301
0.23301
0.23301
0.23301
0.23301
0.23301
0.23301
0.23301
0.23301
0.23301
0.23301
0.23301
0.23301
0.23301
0.23301
0.23301
0.23301
0.23301
0.23301
0.23301
0.23301
0.23301
0.23301
0.23301
0.23301
0.23301
0.23301
0.23301
0.23301
0.23301
0.23301
0.23301
0.23301
0.23301
0.23301
0.23301
0.23301
0.23301
0.23301
0.23301
0.23301
0.23301
0.23301
0.23301
0.23301
0.23301
0.23301
0.23301
0.23301
0.23301
0.23301
0.23301
0.23301
0.23301
0.23301
0.23301
0.23301
0.23301
0.23301
0.23301
0.23301
0.23301
0.23301
0.23301
0.23301
0.23301
0.23301
0.23301
0.23301
0.23301
0.23301
0.23301
0.23301
0.23301
0.23301
0.23301
0.23301
0.23301
0.23301
0.23301
0.23301
0.23301
0.23301
0.23301
0.23301
0.23301
0.23301
0.23301
0.23301
0.23301
0.23301
0.23301
0.23301
0.23301
0.233009
0.233009
0.233008
0.233009
0.233008
0.23301
0.233009
0.23301
0.233009
0.23301
0.23301
0.23301
0.23301
0.23301
0.23301
0.23301
0.23301
0.23301
0.23301
0.23301
0.23301
0.23301
0.23301
0.23301
0.23301
0.23301
0.23301
0.23301
0.23301
0.23301
0.23301
0.23301
0.23301
0.23301
0.23301
0.23301
0.23301
0.23301
0.23301
0.23301
0.23301
0.23301
0.23301
0.23301
0.23301
0.23301
0.23301
0.23301
0.23301
0.23301
0.23301
0.23301
0.233008
0.233006
0.233001
0.233006
0.232999
0.233007
0.233
0.233008
0.233003
0.233009
0.233006
0.233009
0.233008
0.23301
0.233009
0.23301
0.23301
0.23301
0.23301
0.23301
0.23301
0.23301
0.23301
0.23301
0.23301
0.23301
0.23301
0.23301
0.23301
0.23301
0.23301
0.23301
0.23301
0.23301
0.23301
0.23301
0.23301
0.23301
0.23301
0.23301
0.23301
0.23301
0.23301
0.23301
0.23301
0.23301
0.23301
0.23301
0.23301
0.23301
0.23301
0.23301
0.23301
0.233009
0.233005
0.232993
0.232978
0.232986
0.232957
0.232985
0.232949
0.23299
0.232957
0.232997
0.232973
0.233003
0.232988
0.233007
0.233
0.233009
0.233006
0.233009
0.23301
0.233009
0.233009
0.23301
0.23301
0.23301
0.23301
0.23301
0.23301
0.23301
0.23301
0.23301
0.23301
0.23301
0.23301
0.23301
0.23301
0.23301
0.23301
0.23301
0.23301
0.23301
0.23301
0.23301
0.23301
0.23301
0.23301
0.23301
0.23301
0.23301
0.23301
0.23301
0.23301
0.23301
0.23301
0.23301
0.23301
0.233008
0.232987
0.232957
0.232965
0.232918
0.232853
0.232881
0.232773
0.232878
0.232727
0.232905
0.232751
0.232944
0.232824
0.232975
0.2329
0.232995
0.232958
0.233005
0.23299
0.233004
0.233009
0.233004
0.233005
0.23301
0.23301
0.23301
0.23301
0.23301
0.23301
0.23301
0.23301
0.23301
0.23301
0.23301
0.23301
0.23301
0.23301
0.23301
0.23301
0.23301
0.23301
0.23301
0.23301
0.23301
0.23301
0.23301
0.23301
0.23301
0.23301
0.23301
0.23301
0.23301
0.23301
0.23301
0.23301
0.23301
0.23301
0.233008
0.232976
0.232738
0.232791
0.232656
0.232634
0.232463
0.232518
0.232264
0.232488
0.232159
0.23256
0.232179
0.232707
0.232319
0.232841
0.232551
0.232936
0.23277
0.232985
0.232914
0.232982
0.233007
0.232982
0.232985
0.23301
0.233008
0.23301
0.23301
0.23301
0.23301
0.23301
0.23301
0.23301
0.23301
0.23301
0.23301
0.23301
0.23301
0.23301
0.23301
0.23301
0.23301
0.23301
0.23301
0.23301
0.23301
0.23301
0.23301
0.23301
0.23301
0.23301
0.23301
0.23301
0.23301
0.23301
0.23301
0.23301
0.23301
0.233009
0.232979
0.23268
0.231973
0.231838
0.232284
0.232109
0.23199
0.231707
0.2318
0.231436
0.23175
0.231308
0.231841
0.231331
0.232054
0.231494
0.232372
0.231779
0.232693
0.232181
0.232895
0.232623
0.232885
0.232992
0.232885
0.232899
0.233009
0.232999
0.23301
0.23301
0.23301
0.23301
0.23301
0.23301
0.23301
0.23301
0.23301
0.23301
0.23301
0.23301
0.23301
0.23301
0.23301
0.23301
0.23301
0.23301
0.23301
0.23301
0.23301
0.23301
0.23301
0.23301
0.23301
0.23301
0.23301
0.23301
0.23301
0.23301
0.23301
0.23301
0.233009
0.232982
0.232702
0.23175
0.231691
0.23103
0.230884
0.231445
0.231217
0.231087
0.230757
0.230879
0.230475
0.230825
0.230342
0.230919
0.230356
0.231141
0.230507
0.231494
0.230784
0.231993
0.231209
0.23257
0.231836
0.232542
0.232928
0.232547
0.232605
0.233005
0.232961
0.23301
0.233009
0.23301
0.23301
0.23301
0.23301
0.23301
0.23301
0.23301
0.23301
0.23301
0.23301
0.23301
0.23301
0.23301
0.23301
0.23301
0.23301
0.23301
0.23301
0.23301
0.23301
0.23301
0.23301
0.23301
0.23301
0.23301
0.23301
0.23301
0.23301
0.23301
0.23301
0.23301
0.23299
0.232705
0.231696
0.231794
0.230781
0.230735
0.230053
0.229922
0.230471
0.230235
0.230108
0.229775
0.229895
0.22949
0.229826
0.229342
0.229896
0.229326
0.230086
0.229433
0.230416
0.229659
0.230937
0.230052
0.231721
0.230698
0.231663
0.232709
0.231703
0.231879
0.232988
0.232823
0.23301
0.233004
0.23301
0.23301
0.23301
0.23301
0.23301
0.23301
0.23301
0.23301
0.23301
0.23301
0.23301
0.23301
0.23301
0.23301
0.23301
0.23301
0.23301
0.23301
0.23301
0.23301
0.23301
0.23301
0.23301
0.23301
0.23301
0.23301
0.23301
0.23301
0.23301
0.23301
0.23301
0.233
0.232748
0.2313
0.230734
0.230641
0.22984
0.229837
0.229159
0.229152
0.229504
0.229299
0.229144
0.228852
0.228918
0.228563
0.228816
0.228383
0.228834
0.228309
0.228957
0.228336
0.229221
0.228476
0.229705
0.228793
0.230508
0.229391
0.230402
0.232148
0.230415
0.230615
0.232923
0.232442
0.233009
0.232986
0.23301
0.23301
0.23301
0.23301
0.23301
0.23301
0.23301
0.23301
0.23301
0.23301
0.23301
0.23301
0.23301
0.23301
0.23301
0.23301
0.23301
0.23301
0.23301
0.23301
0.23301
0.23301
0.23301
0.23301
0.23301
0.23301
0.23301
0.23301
0.23301
0.23301
0.233006
0.23286
0.231585
0.230017
0.23014
0.229865
0.229921
0.229199
0.229298
0.228698
0.228854
0.228647
0.228627
0.228294
0.228153
0.228039
0.227795
0.227876
0.227551
0.227807
0.227382
0.227831
0.2273
0.227994
0.227324
0.228388
0.227529
0.229147
0.228026
0.228999
0.231031
0.228995
0.229198
0.232737
0.231691
0.233007
0.232938
0.23301
0.23301
0.23301
0.23301
0.23301
0.23301
0.23301
0.23301
0.23301
0.23301
0.23301
0.23301
0.23301
0.23301
0.23301
0.23301
0.23301
0.23301
0.23301
0.23301
0.23301
0.23301
0.23301
0.23301
0.23301
0.23301
0.23301
0.23301
0.23301
0.233008
0.232942
0.232002
0.230267
0.230544
0.229642
0.229733
0.229416
0.229529
0.22903
0.229206
0.228628
0.228916
0.22821
0.228376
0.227733
0.227848
0.227337
0.227338
0.227081
0.226912
0.226893
0.226624
0.226794
0.22641
0.226829
0.2263
0.227095
0.226368
0.227743
0.226716
0.227574
0.229651
0.227558
0.227688
0.22861
0.232322
0.230511
0.233005
0.232887
0.23301
0.23301
0.23301
0.23301
0.23301
0.23301
0.23301
0.23301
0.23301
0.23301
0.23301
0.23301
0.23301
0.23301
0.23301
0.23301
0.23301
0.23301
0.23301
0.23301
0.23301
0.23301
0.23301
0.23301
0.23301
0.23301
0.23301
0.23301
0.233009
0.232978
0.232353
0.230408
0.229867
0.22989
0.229623
0.229704
0.22937
0.229509
0.229223
0.229505
0.228953
0.229445
0.228105
0.228485
0.227492
0.227832
0.226945
0.22714
0.226503
0.226562
0.226178
0.226107
0.22594
0.225748
0.225832
0.225495
0.22595
0.225419
0.226429
0.225686
0.226047
0.226888
0.226291
0.227913
0.22924
0.228131
0.226964
0.226238
0.226305
0.227042
0.232297
0.231318
0.228547
0.228989
0.230244
0.233006
0.232017
0.232931
0.232558
0.23301
0.23301
0.23301
0.23301
0.23301
0.23301
0.23301
0.23301
0.23301
0.23301
0.23301
0.23301
0.23301
0.23301
0.23301
0.23301
0.23301
0.23301
0.23301
0.23301
0.23301
0.23301
0.23301
0.23301
0.23301
0.23301
0.23301
0.233009
0.232993
0.232611
0.230803
0.229889
0.230009
0.229782
0.229826
0.229987
0.230033
0.229731
0.229891
0.229891
0.230242
0.229709
0.230353
0.228363
0.229015
0.22756
0.228196
0.226787
0.227249
0.22619
0.226438
0.225718
0.225826
0.225332
0.225341
0.225324
0.225203
0.225117
0.225067
0.225412
0.225175
0.225062
0.224889
0.225011
0.2256
0.22584
0.225426
0.225274
0.22576
0.227219
0.227505
0.226306
0.225699
0.225702
0.226408
0.230875
0.227891
0.228416
0.229647
0.232998
0.232886
0.231643
0.23237
0.23301
0.23301
0.23301
0.23301
0.23301
0.23301
0.23301
0.23301
0.23301
0.23301
0.23301
0.23301
0.23301
0.23301
0.23301
0.23301
0.23301
0.23301
0.23301
0.23301
0.23301
0.23301
0.23301
0.23301
0.23301
0.23301
0.23301
0.232999
0.232784
0.231317
0.230054
0.230014
0.230011
0.230045
0.230036
0.23064
0.230624
0.230476
0.230603
0.230862
0.231191
0.230706
0.231421
0.228981
0.229857
0.227935
0.228789
0.226912
0.227592
0.226099
0.22657
0.225475
0.22577
0.225053
0.225077
0.225134
0.225247
0.22496
0.224908
0.224899
0.225041
0.22488
0.22482
0.224729
0.224782
0.225137
0.225348
0.225044
0.224927
0.225277
0.226597
0.22688
0.225743
0.225243
0.225244
0.225847
0.230392
0.227283
0.227832
0.229089
0.232724
0.232813
0.233007
0.232966
0.231253
0.23212
0.23301
0.23301
0.23301
0.23301
0.23301
0.23301
0.23301
0.23301
0.23301
0.23301
0.23301
0.23301
0.23301
0.23301
0.23301
0.23301
0.23301
0.23301
0.23301
0.23301
0.23301
0.23301
0.23301
0.23301
0.23301
0.23301
0.233004
0.232886
0.231866
0.230215
0.230205
0.230133
0.230381
0.230276
0.230571
0.230481
0.231366
0.23128
0.231357
0.231396
0.231882
0.232092
0.231725
0.232271
0.229767
0.230818
0.228448
0.229443
0.227219
0.228028
0.226243
0.226869
0.225378
0.225567
0.225782
0.226058
0.224927
0.224993
0.225099
0.225248
0.224785
0.224787
0.224819
0.224799
0.224726
0.22471
0.224681
0.22469
0.224857
0.224981
0.22482
0.224758
0.224945
0.226025
0.2263
0.225283
0.224929
0.224931
0.225371
0.229906
0.226703
0.227267
0.228543
0.23185
0.23264
0.233005
0.232957
0.230852
0.23301
0.23301
0.23301
0.23301
0.23301
0.23301
0.23301
0.23301
0.23301
0.23301
0.23301
0.23301
0.23301
0.23301
0.23301
0.23301
0.23301
0.23301
0.23301
0.23301
0.23301
0.23301
0.23301
0.23301
0.23301
0.233006
0.232941
0.232283
0.230541
0.230139
0.230501
0.230379
0.230821
0.230656
0.231143
0.230986
0.231973
0.231811
0.232127
0.232085
0.232541
0.232639
0.232204
0.232562
0.230551
0.231542
0.228971
0.230018
0.227627
0.22849
0.226345
0.226688
0.227029
0.227426
0.225436
0.225672
0.225946
0.226259
0.224886
0.224994
0.225147
0.225347
0.224718
0.224753
0.224824
0.224708
0.224692
0.224696
0.224737
0.224703
0.224746
0.224805
0.224756
0.224725
0.224801
0.225524
0.225774
0.224953
0.2248
0.2248
0.225008
0.229422
0.226162
0.226726
0.228009
0.230458
0.2316
0.232563
0.232998
0.232913
0.23301
0.23301
0.23301
0.23301
0.23301
0.23301
0.23301
0.23301
0.23301
0.23301
0.23301
0.23301
0.23301
0.23301
0.23301
0.23301
0.23301
0.23301
0.23301
0.23301
0.23301
0.23301
0.23301
0.23301
0.233007
0.232968
0.232543
0.230977
0.230132
0.230492
0.230334
0.23083
0.23065
0.231225
0.231024
0.231626
0.231428
0.232373
0.232188
0.232628
0.232534
0.232745
0.23283
0.232288
0.232582
0.230991
0.231769
0.229431
0.230292
0.22814
0.228935
0.226595
0.226953
0.227321
0.227699
0.225593
0.225881
0.226204
0.226552
0.224939
0.225099
0.22531
0.225569
0.224741
0.224821
0.224944
0.224743
0.224785
0.224796
0.224922
0.224844
0.224777
0.224783
0.224855
0.224842
0.224812
0.225117
0.225316
0.224798
0.22483
0.224819
0.2248
0.228948
0.225666
0.226213
0.227493
0.230085
0.231379
0.232413
0.232969
0.2328
0.23301
0.23301
0.23301
0.23301
0.23301
0.23301
0.23301
0.23301
0.23301
0.23301
0.23301
0.23301
0.23301
0.23301
0.23301
0.23301
0.23301
0.23301
0.23301
0.23301
0.23301
0.23301
0.23301
0.233008
0.232981
0.232696
0.231427
0.230183
0.230258
0.230737
0.230581
0.231131
0.230928
0.231559
0.231343
0.231987
0.231776
0.232637
0.232466
0.232841
0.232779
0.232762
0.232866
0.232063
0.232357
0.231084
0.231695
0.229655
0.230272
0.228283
0.228612
0.229139
0.228881
0.226911
0.22727
0.227628
0.227971
0.22587
0.226202
0.226552
0.226902
0.225115
0.225338
0.22561
0.225921
0.224887
0.225019
0.225202
0.224924
0.225017
0.225027
0.225242
0.22512
0.224975
0.224941
0.225125
0.22511
0.225011
0.22484
0.224955
0.224781
0.225043
0.225012
0.224727
0.228491
0.225224
0.22573
0.226996
0.229734
0.231114
0.23217
0.232912
0.232646
0.23301
0.23301
0.23301
0.23301
0.23301
0.23301
0.23301
0.23301
0.23301
0.23301
0.23301
0.23301
0.23301
0.23301
0.23301
0.23301
0.23301
0.23301
0.23301
0.23301
0.23301
0.23301
0.233008
0.232984
0.232782
0.231827
0.230353
0.230094
0.230631
0.230454
0.230993
0.230805
0.23141
0.231197
0.231848
0.231629
0.232273
0.232065
0.232845
0.232709
0.232916
0.232911
0.232642
0.232843
0.231406
0.231837
0.230765
0.231097
0.229356
0.229555
0.229568
0.228309
0.228518
0.228833
0.228689
0.227237
0.227542
0.227817
0.228075
0.226255
0.226592
0.226908
0.227179
0.225437
0.225719
0.22603
0.226347
0.225171
0.225363
0.225605
0.225247
0.225381
0.225395
0.225676
0.22552
0.225326
0.225269
0.225547
0.22552
0.225374
0.224687
0.224707
0.224911
0.225407
0.225337
0.224756
0.228053
0.224864
0.225285
0.226522
0.229377
0.230799
0.231898
0.232908
0.232598
0.23301
0.23301
0.23301
0.23301
0.23301
0.23301
0.23301
0.23301
0.23301
0.23301
0.23301
0.23301
0.23301
0.23301
0.23301
0.23301
0.23301
0.23301
0.23301
0.23301
0.23301
0.233008
0.232991
0.232835
0.232132
0.230625
0.230035
0.230332
0.230874
0.230713
0.231264
0.231064
0.231693
0.231475
0.23213
0.231912
0.232536
0.23234
0.232949
0.2329
0.23293
0.23296
0.232336
0.232726
0.230512
0.231154
0.229775
0.230065
0.228954
0.229071
0.22845
0.228584
0.228007
0.22809
0.228223
0.22816
0.227407
0.227605
0.227773
0.227903
0.22664
0.226879
0.227061
0.227192
0.225883
0.226172
0.226436
0.226647
0.225589
0.225822
0.22607
0.225691
0.225842
0.225857
0.226129
0.225988
0.225808
0.22574
0.226078
0.226021
0.225863
0.224609
0.224541
0.225153
0.225876
0.225741
0.224877
0.227627
0.224585
0.22489
0.226071
0.22901
0.230482
0.231747
0.232969
0.232698
0.23301
0.23301
0.23301
0.23301
0.23301
0.23301
0.23301
0.23301
0.23301
0.23301
0.23301
0.23301
0.23301
0.23301
0.23301
0.23301
0.23301
0.23301
0.23301
0.23301
0.233008
0.232994
0.23287
0.232316
0.230905
0.230045
0.230128
0.230797
0.230608
0.23116
0.230975
0.231568
0.23136
0.232
0.231782
0.232426
0.232216
0.23279
0.232621
0.232984
0.232974
0.232917
0.232971
0.231889
0.232516
0.229729
0.230523
0.228723
0.22894
0.229068
0.228288
0.228363
0.227826
0.228012
0.227337
0.227352
0.227454
0.22739
0.227274
0.227316
0.227331
0.227335
0.226784
0.226834
0.226823
0.226765
0.226299
0.226475
0.226553
0.226547
0.226051
0.226233
0.226351
0.226181
0.226299
0.226256
0.226398
0.226382
0.226339
0.226291
0.226616
0.22651
0.226401
0.224584
0.224402
0.225445
0.22636
0.226121
0.225033
0.227215
0.224357
0.224549
0.225637
0.228662
0.230246
0.231816
0.233002
0.232864
0.23301
0.23301
0.23301
0.23301
0.23301
0.23301
0.23301
0.23301
0.23301
0.23301
0.23301
0.23301
0.23301
0.23301
0.23301
0.23301
0.23301
0.23301
0.23301
0.233008
0.232995
0.232884
0.232429
0.231167
0.230089
0.22999
0.230522
0.231113
0.230951
0.231496
0.231299
0.231914
0.231702
0.232339
0.232127
0.23273
0.232542
0.23294
0.232867
0.232992
0.232996
0.232859
0.232969
0.23141
0.232237
0.229127
0.229576
0.230042
0.22823
0.228472
0.228799
0.228407
0.227547
0.227672
0.227303
0.22755
0.226444
0.226478
0.226706
0.226571
0.226678
0.226581
0.226499
0.226451
0.226453
0.226284
0.226081
0.225872
0.226372
0.226332
0.226171
0.225915
0.226309
0.226297
0.2262
0.226593
0.226608
0.22636
0.226404
0.226562
0.226799
0.226805
0.227024
0.226859
0.226858
0.224597
0.22428
0.225704
0.226712
0.226371
0.225167
0.226831
0.224156
0.22425
0.225231
0.228365
0.230161
0.232081
0.233009
0.232964
0.23301
0.23301
0.23301
0.23301
0.23301
0.23301
0.23301
0.23301
0.23301
0.23301
0.23301
0.23301
0.23301
0.23301
0.23301
0.23301
0.23301
0.23301
0.233008
0.232995
0.232886
0.232476
0.23138
0.230179
0.22989
0.230261
0.231132
0.230944
0.23149
0.231309
0.231884
0.231683
0.232299
0.232092
0.232694
0.232504
0.232924
0.232841
0.23299
0.232969
0.232992
0.233001
0.232758
0.23295
0.230986
0.231922
0.228771
0.229193
0.229205
0.229804
0.227818
0.228105
0.228376
0.228016
0.226877
0.227078
0.226834
0.227105
0.22554
0.225671
0.226074
0.225854
0.225687
0.225549
0.225481
0.225478
0.225602
0.225271
0.224965
0.22472
0.226002
0.225691
0.225276
0.224826
0.226206
0.225978
0.225624
0.22685
0.226738
0.226156
0.226176
0.226506
0.227088
0.227144
0.227235
0.227074
0.227108
0.224598
0.224155
0.225862
0.226866
0.22645
0.225218
0.226473
0.223951
0.223966
0.224848
0.228096
0.230237
0.232458
0.23301
0.232994
0.233009
0.23301
0.23301
0.23301
0.23301
0.23301
0.23301
0.23301
0.23301
0.23301
0.23301
0.23301
0.23301
0.23301
0.23301
0.23301
0.233009
0.233007
0.232993
0.232883
0.232477
0.231508
0.230285
0.229822
0.230064
0.230906
0.231559
0.231394
0.231927
0.231739
0.232317
0.232121
0.232699
0.232519
0.232918
0.232837
0.232989
0.232965
0.233004
0.233
0.232988
0.233001
0.23262
0.232912
0.230289
0.2309
0.231528
0.228251
0.228719
0.22867
0.22927
0.227387
0.227688
0.227823
0.227445
0.226316
0.226571
0.226301
0.226556
0.224769
0.224991
0.225513
0.225244
0.224556
0.224496
0.224504
0.224598
0.224399
0.224031
0.223753
0.223589
0.225119
0.224555
0.224008
0.223519
0.225786
0.225218
0.224517
0.226924
0.22665
0.225667
0.225641
0.226258
0.227228
0.227257
0.227281
0.227088
0.227138
0.224548
0.224
0.225861
0.226844
0.22635
0.225152
0.226121
0.223715
0.223678
0.224486
0.22789
0.230527
0.23269
0.23301
0.233003
0.233008
0.233009
0.23301
0.23301
0.23301
0.23301
0.23301
0.23301
0.23301
0.23301
0.23301
0.23301
0.23301
0.23301
0.23301
0.233008
0.233006
0.23299
0.232876
0.232464
0.231529
0.230362
0.22978
0.229918
0.230639
0.231841
0.232045
0.231856
0.232414
0.232226
0.232749
0.232592
0.232927
0.232858
0.23299
0.232968
0.233006
0.233
0.233006
0.233007
0.232975
0.232999
0.232423
0.232853
0.229884
0.230487
0.231422
0.230696
0.227571
0.228098
0.228017
0.228683
0.226822
0.227113
0.2271
0.226694
0.225782
0.226046
0.22561
0.225831
0.224096
0.224362
0.224906
0.224637
0.223537
0.223551
0.223662
0.223859
0.223122
0.222834
0.222676
0.222624
0.223807
0.223187
0.222672
0.22227
0.224928
0.224052
0.223193
0.226812
0.226371
0.224755
0.224692
0.225668
0.227202
0.227228
0.227222
0.226977
0.22703
0.224416
0.223752
0.225636
0.226602
0.225832
0.224866
0.22578
0.223436
0.22341
0.224159
0.227809
0.230959
0.232797
0.233008
0.232999
0.233004
0.233008
0.23301
0.23301
0.23301
0.23301
0.23301
0.23301
0.23301
0.23301
0.23301
0.23301
0.23301
0.233009
0.233007
0.233001
0.23298
0.232857
0.232427
0.231511
0.230371
0.229745
0.229811
0.230424
0.231583
0.232722
0.232402
0.232589
0.232572
0.232823
0.232718
0.232947
0.232897
0.232994
0.232977
0.233006
0.233002
0.233009
0.233008
0.233007
0.233009
0.232953
0.232997
0.232113
0.232759
0.22937
0.230055
0.231038
0.230333
0.226807
0.227387
0.227391
0.228098
0.226072
0.226353
0.226287
0.225839
0.225158
0.225391
0.224758
0.224952
0.223409
0.223674
0.224173
0.223934
0.222629
0.222731
0.222923
0.223153
0.221983
0.221826
0.221766
0.221758
0.222471
0.221917
0.221511
0.221231
0.223723
0.222734
0.221914
0.226548
0.225848
0.223557
0.223591
0.224839
0.227057
0.227068
0.226949
0.226648
0.226663
0.224036
0.223415
0.224992
0.225843
0.224962
0.224197
0.225506
0.223167
0.22317
0.223893
0.227801
0.23117
0.232805
0.232901
0.232933
0.232997
0.233007
0.233009
0.23301
0.23301
0.23301
0.23301
0.23301
0.23301
0.23301
0.23301
0.233009
0.233007
0.233001
0.232988
0.232953
0.232811
0.232357
0.231454
0.230355
0.229704
0.22973
0.230261
0.231364
0.232605
0.232827
0.232944
0.232885
0.232897
0.232972
0.232943
0.232999
0.232989
0.233007
0.233005
0.233009
0.233009
0.23301
0.23301
0.233004
0.233009
0.232923
0.23299
0.231394
0.232113
0.23262
0.228838
0.229592
0.230699
0.229941
0.226103
0.226724
0.226922
0.227628
0.225181
0.22547
0.225529
0.225021
0.224387
0.224577
0.223833
0.224024
0.222634
0.222881
0.22333
0.22312
0.221795
0.22196
0.222158
0.222385
0.221043
0.22095
0.220916
0.220918
0.221323
0.220907
0.22062
0.220424
0.222451
0.221533
0.220894
0.225899
0.224734
0.22225
0.221655
0.223176
0.226545
0.226529
0.226038
0.225702
0.225661
0.223529
0.223096
0.224216
0.224825
0.224115
0.223634
0.225264
0.222913
0.22297
0.223663
0.227747
0.231139
0.232651
0.232814
0.23268
0.232984
0.233005
0.233009
0.23301
0.23301
0.23301
0.23301
0.23301
0.23301
0.23301
0.233008
0.233002
0.232985
0.232949
0.232883
0.232708
0.232218
0.231334
0.230306
0.229659
0.22967
0.230155
0.2312
0.232481
0.232968
0.232975
0.232999
0.232985
0.232991
0.233004
0.232999
0.233009
0.233007
0.23301
0.233009
0.23301
0.23301
0.23301
0.23301
0.233002
0.233008
0.232887
0.232978
0.231181
0.231906
0.232689
0.232272
0.228375
0.229155
0.230414
0.229626
0.225603
0.226254
0.226788
0.22744
0.22427
0.224597
0.224972
0.224378
0.223512
0.223672
0.222954
0.22317
0.221736
0.221965
0.22241
0.222199
0.220959
0.221118
0.221296
0.221501
0.220286
0.220189
0.220138
0.22012
0.220498
0.220233
0.220065
0.219947
0.221137
0.220472
0.220149
0.224185
0.222496
0.22072
0.220807
0.221447
0.225061
0.22523
0.22445
0.22366
0.224597
0.223137
0.22277
0.22364
0.223895
0.223602
0.223181
0.225043
0.222692
0.222743
0.223443
0.227522
0.230621
0.231933
0.231991
0.231239
0.23297
0.233002
0.233008
0.233009
0.23301
0.23301
0.23301
0.23301
0.23301
0.233006
0.232991
0.232939
0.232845
0.232714
0.232485
0.231987
0.231153
0.230202
0.229608
0.229634
0.230106
0.231098
0.23238
0.232949
0.233008
0.233005
0.233005
0.233008
0.233007
0.233009
0.233009
0.23301
0.23301
0.23301
0.23301
0.23301
0.23301
0.233009
0.23301
0.233001
0.233006
0.232631
0.232805
0.232915
0.232968
0.230956
0.231658
0.232177
0.228123
0.228852
0.230214
0.22948
0.225454
0.226139
0.226868
0.227474
0.223465
0.223863
0.224713
0.223972
0.222601
0.222776
0.222085
0.222396
0.22072
0.220926
0.221391
0.221166
0.22014
0.220215
0.220356
0.220514
0.219865
0.219788
0.219731
0.219679
0.219923
0.219767
0.219666
0.219561
0.220247
0.219925
0.219722
0.222351
0.221913
0.220542
0.220931
0.221364
0.223513
0.224062
0.223457
0.222831
0.223687
0.222744
0.222497
0.223201
0.223613
0.223214
0.22285
0.22475
0.222418
0.222551
0.223218
0.226843
0.228859
0.229204
0.227598
0.227472
0.232955
0.233
0.233008
0.233009
0.23301
0.23301
0.23301
0.233009
0.233003
0.232963
0.232832
0.232625
0.232431
0.232171
0.231678
0.230888
0.230041
0.229549
0.229625
0.230106
0.231063
0.232313
0.232933
0.233007
0.23301
0.233009
0.23301
0.23301
0.233009
0.23301
0.23301
0.23301
0.23301
0.23301
0.23301
0.23301
0.23301
0.23301
0.23301
0.233009
0.23301
0.232998
0.233005
0.232545
0.232785
0.232899
0.232956
0.230866
0.231542
0.232069
0.228102
0.228771
0.230175
0.229495
0.225527
0.226239
0.227222
0.227748
0.222807
0.223319
0.224694
0.22375
0.221611
0.221838
0.221212
0.221648
0.219838
0.219953
0.220347
0.220119
0.219654
0.219658
0.219706
0.219749
0.219496
0.219423
0.219384
0.21937
0.21949
0.219331
0.219154
0.219109
0.220193
0.219966
0.218648
0.222488
0.220091
0.219248
0.219544
0.219783
0.22323
0.22354
0.223375
0.222841
0.223311
0.222494
0.222199
0.223056
0.223106
0.223107
0.222678
0.224311
0.222204
0.222341
0.222953
0.2258
0.22674
0.226436
0.225856
0.225041
0.232942
0.232998
0.233007
0.233009
0.233009
0.23301
0.233009
0.232998
0.232918
0.232667
0.232357
0.232104
0.231811
0.231314
0.230564
0.229866
0.229528
0.22964
0.230142
0.231077
0.232291
0.232924
0.233006
0.23301
0.23301
0.23301
0.23301
0.23301
0.23301
0.23301
0.23301
0.23301
0.23301
0.23301
0.23301
0.23301
0.23301
0.23301
0.233007
0.23301
0.232992
0.233004
0.232507
0.232758
0.232882
0.232876
0.232935
0.232971