/*--------------------------------*- C++ -*----------------------------------*\
  =========                 |
  \\      /  F ield         | OpenFOAM: The Open Source CFD Toolbox
   \\    /   O peration     | Website:  https://openfoam.org
    \\  /    A nd           | Version:  dev
     \\/     M anipulation  |
\*---------------------------------------------------------------------------*/
FoamFile
{
    version     2.0;
    format      ascii;
    class       volScalarField;
    location    "2500";
    object      omega;
}
// * * * * * * * * * * * * * * * * * * * * * * * * * * * * * * * * * * * * * //

dimensions      [0 0 -1 0 0 0 0];

internalField   nonuniform List<scalar> 
9842
(
1.24066
1.2562
1.20676
1.17374
1.34699
1.09692
1.07724
1.35693
1.28329
1.0312
1.03195
1.32162
1.35155
1.15371
1.01605
1.00999
1.23262
1.37441
1.28003
1.06801
1.00947
0.999526
1.12764
1.36347
1.34646
1.15636
1.03599
1.00419
0.990609
1.06166
1.32181
1.36924
1.25898
1.07451
1.02141
1.00143
0.985374
1.02258
1.23476
1.36996
1.32926
1.14349
1.04076
1.01102
0.999831
0.982964
1.00038
1.13573
1.35258
1.35731
1.23341
1.07007
1.02448
1.00346
0.998219
0.982088
0.988971
1.06576
1.30464
1.36665
1.30565
1.128
1.03829
1.01282
0.998984
0.996699
0.982356
0.98347
1.02445
1.21947
1.36306
1.34411
1.20502
1.06237
1.0219
1.0035
0.99581
0.995652
0.983517
0.979864
1.00183
1.12237
1.34004
1.35904
1.28022
1.11009
1.03266
1.01022
0.997061
0.992632
0.995023
0.984738
0.976315
0.989326
1.05872
1.28468
1.36489
1.32783
1.18029
1.05287
1.01662
1.00092
0.992674
0.989862
0.994488
0.985761
0.974103
0.981638
1.02094
1.19147
1.35697
1.35242
1.25519
1.09271
1.02554
1.00516
0.993851
0.988423
0.987945
0.994025
0.986371
0.973407
0.976996
0.999712
1.09985
1.32509
1.36577
1.31089
1.15876
1.04282
1.01
0.996182
0.988569
0.984819
0.986274
0.993661
0.986667
0.97416
0.974481
0.987963
1.0449
1.25612
1.36662
1.34654
1.22819
1.07837
1.01773
0.998935
0.989159
0.983913
0.982067
0.984844
0.993345
0.987118
0.975279
0.972105
0.981098
1.01323
1.15263
1.35246
1.36264
1.2935
1.13611
1.03311
1.00294
0.990211
0.983649
0.979787
0.979529
0.983593
0.993048
0.987822
0.976027
0.969967
0.976
0.995405
1.07584
1.30972
1.3744
1.33548
1.20526
1.06425
1.00996
0.992043
0.982976
0.978604
0.976358
0.977299
0.982465
0.992795
0.988602
0.976378
0.968873
0.972138
0.984808
1.02943
1.22225
1.37106
1.36264
1.27152
1.11646
1.02374
0.995453
0.983403
0.977449
0.973975
0.973239
0.975225
0.981464
0.99258
0.98928
0.976603
0.969369
0.969403
0.977906
1.00322
1.11768
1.34736
1.37795
1.32424
1.1832
1.05143
1.00186
0.98482
0.975926
0.972135
0.970262
0.970409
0.973414
0.980548
0.992383
0.989841
0.977058
0.970329
0.966569
0.972558
0.988325
1.05417
1.29011
1.38483
1.35955
1.24805
1.09902
1.01427
0.987897
0.976215
0.970254
0.967551
0.966803
0.967838
0.971722
0.979691
0.992217
0.990375
0.977611
0.970611
0.964658
0.968334
0.978988
1.01595
1.18958
1.37558
1.37938
1.30879
1.15974
1.03932
0.993844
0.977487
0.968459
0.965265
0.963724
0.963617
0.965449
0.970071
0.978953
0.992094
0.990841
0.97807
0.970677
0.964411
0.96523
0.972575
0.994116
1.09511
1.3421
1.39531
1.3509
1.22591
1.08111
1.00518
0.980445
0.968764
0.963043
0.96071
0.959977
0.960704
0.96311
0.968619
0.978323
0.992006
0.991204
0.978393
0.970866
0.96456
0.962364
0.967688
0.981446
1.03908
1.26941
1.39591
1.38233
1.28611
1.13712
1.02808
0.986183
0.97012
0.961212
0.95819
0.956686
0.956606
0.957826
0.961012
0.967346
0.977794
0.991952
0.991476
0.978595
0.971023
0.96438
0.959954
0.963682
0.973237
1.00628
1.16325
1.38112
1.39795
1.34136
1.20007
1.06438
0.997622
0.973184
0.961548
0.95587
0.953677
0.952989
0.953411
0.955177
0.959132
0.966199
0.977407
0.991931
0.991685
0.978721
0.971029
0.964228
0.958347
0.96047
0.967371
0.987531
1.07933
1.33977
1.41358
1.37739
1.26204
1.11484
1.01746
0.979156
0.962968
0.954452
0.951192
0.949688
0.94949
0.950433
0.952786
0.957428
0.965228
0.977205
0.99196
0.991823
0.978772
0.97093
0.96423
0.956909
0.957472
0.962804
0.976213
1.0294
1.2554
1.41133
1.40528
1.32079
1.17377
1.04969
0.989466
0.966155
0.95492
0.94909
0.946876
0.946055
0.946316
0.947697
0.950604
0.955953
0.964483
0.97718
0.992037
0.991895
0.978734
0.970672
0.964028
0.955544
0.954831
0.958894
0.968561
0.999794
1.14643
1.39109
1.42301
1.37074
1.23589
1.09377
1.00787
0.971961
0.956538
0.948356
0.944705
0.942992
0.942774
0.943444
0.945185
0.948665
0.954748
0.96408
0.977332
0.992114
0.991924
0.97873
0.970181
0.963575
0.954517
0.952555
0.955832
0.962998
0.982044
1.06945
1.34248
1.4378
1.40606
1.29672
1.14794
1.03537
0.982307
0.959978
0.949024
0.943218
0.94074
0.939624
0.939959
0.940808
0.942909
0.947077
0.953955
0.964164
0.977654
0.992246
0.991914
0.978679
0.969478
0.962966
0.953578
0.950127
0.953208
0.958951
0.971259
1.02204
1.24938
1.43318
1.43326
1.3551
1.20832
1.0738
0.998255
0.965924
0.950884
0.943235
0.939149
0.937343
0.936962
0.937306
0.938433
0.941049
0.946011
0.953774
0.965004
0.978352
0.992425
0.991869
0.978393
0.968519
0.962158
0.952552
0.947618
0.950637
0.95534
0.964132
0.993629
1.13806
1.40851
1.45416
1.4034
1.26959
1.1229
1.02217
0.975068
0.9546
0.944072
0.938478
0.935736
0.934653
0.934601
0.934994
0.936554
0.939806
0.945658
0.954726
0.966694
0.979616
0.992631
0.991781
0.977814
0.967208
0.960999
0.951563
0.945182
0.947901
0.952239
0.958751
0.976415
1.06417
1.35356
1.46872
1.44015
1.33195
1.17888
1.05538
0.989341
0.960141
0.94618
0.938967
0.935029
0.933097
0.932603
0.932633
0.933409
0.935334
0.939396
0.94627
0.956887
0.969284
0.981204
0.992959
0.991606
0.976944
0.965655
0.95919
0.950713
0.943103
0.945143
0.949343
0.954271
0.96554
1.01787
1.25492
1.46221
1.46747
1.39278
1.2408
1.09808
1.00992
0.968632
0.949949
0.940213
0.935166
0.932471
0.931403
0.931281
0.931506
0.932541
0.935006
0.939846
0.948517
0.960866
0.973676
0.983431
0.996631
0.991227
0.991235
0.97594
0.963946
0.956967
0.950023
0.941375
0.942428
0.94668
0.950451
0.957904
0.989021
1.14472
1.43458
1.49038
1.44098
1.30338
1.15045
1.0383
0.980955
0.955166
0.942534
0.935892
0.932706
0.931167
0.930855
0.930989
0.93148
0.932774
0.935734
0.941717
0.952538
0.966466
0.97961
0.987469
0.986041
0.996788
0.991693
0.9908
0.97521
0.962166
0.954838
0.948912
0.939973
0.940088
0.944131
0.947214
0.952223
0.970985
1.06832
1.37621
1.50492
1.47836
1.36942
1.20836
1.0756
0.998552
0.962465
0.945989
0.937452
0.933407
0.931684
0.93137
0.931617
0.93212
0.933175
0.935591
0.940185
0.948897
0.961795
0.976365
0.974329
0.986006
0.979582
0.986818
0.989334
0.989168
0.996763
0.992603
0.990475
0.97456
0.960496
0.952903
0.946777
0.938224
0.937673
0.941777
0.944646
0.948007
0.959324
1.02065
1.28078
1.49781
1.50615
1.43216
1.2727
1.12122
1.02247
0.973006
0.950667
0.939807
0.934733
0.9328
0.932491
0.933069
0.93383
0.934875
0.937061
0.941357
0.94943
0.961708
0.972493
0.972052
0.979906
0.990424
0.988318
0.993922
0.991668
0.992495
0.996932
0.994136
0.9903
0.974028
0.959371
0.950591
0.943931
0.935516
0.934802
0.939196
0.94257
0.945064
0.951698
0.989905
1.17643
1.47151
1.52971
1.4806
1.33767
1.17588
1.05364
0.987654
0.956863
0.94282
0.936445
0.934389
0.934178
0.935395
0.937151
0.938757
0.94103
0.945302
0.952643
0.96409
0.972343
0.97367
0.980466
0.98174
0.99092
0.996771
0.997627
1.00375
0.994255
0.996856
0.997357
0.996035
0.990377
0.973796
0.958083
0.947414
0.940895
0.931765
0.931965
0.936088
0.940843
0.94319
0.946881
0.97037
1.09062
1.41744
1.54639
1.51819
1.4065
1.23549
1.09323
1.00736
0.965457
0.946625
0.938314
0.935869
0.936124
0.937931
0.941286
0.944801
0.948678
0.953965
0.961366
0.971879
0.976577
0.98337
0.983633
0.987775
0.993261
0.996453
1.00201
1.00553
1.01066
1.01623
0.997293
1.00303
0.998112
0.998109
0.990658
0.973545
0.956668
0.944804
0.938269
0.9278
0.928502
0.933406
0.939437
0.942311
0.944454
0.958177
1.03823
1.33688
1.54134
1.54726
1.47012
1.30126
1.14074
1.03308
0.977256
0.951299
0.940399
0.936953
0.937908
0.940566
0.94538
0.951511
0.958324
0.96613
0.977405
0.990408
0.990441
1.00501
0.992911
1.00357
1.00066
1.00776
1.00621
1.01117
1.01749
1.0169
1.02657
1.03172
1.00143
1.01222
0.999153
1.00067
0.991321
0.974009
0.95616
0.942706
0.935546
0.925143
0.924365
0.930367
0.937548
0.942693
0.944198
0.951501
1.00453
1.23985
1.52171
1.5716
1.51971
1.36819
1.1965
1.0656
0.992799
0.957606
0.942696
0.93775
0.938928
0.942839
0.949065
0.957992
0.968715
0.982521
0.997323
1.02062
1.019
1.04586
1.01544
1.0373
1.01743
1.03335
1.01868
1.03029
1.02428
1.03205
1.03636
1.03131
1.04555
1.05064
1.00753
1.02498
1.00029
1.00479
0.992641
0.975573
0.957379
0.942402
0.934727
0.92494
0.920596
0.926607
0.935537
0.944754
0.945365
0.949708
0.983511
1.15088
1.47975
1.58992
1.55806
1.43841
1.25714
1.10611
1.01292
0.966312
0.945533
0.938169
0.93911
0.943877
0.951807
0.963703
0.979173
0.998893
1.03236
1.07331
1.08133
1.15815
1.06957
1.13746
1.05815
1.11119
1.0479
1.08464
1.04437
1.06728
1.04675
1.06004
1.05867
1.04968
1.06724
1.07163
1.01689
1.04203
1.00191
1.01138
0.995038
0.979184
0.960874
0.945022
0.936091
0.926307
0.918124
0.922729
0.933182
0.946525
0.949934
0.950924
0.972812
1.08692
1.41915
1.59178
1.58789
1.5037
1.32338
1.15433
1.03883
0.977788
0.949326
0.938672
0.938254
0.943694
0.953035
0.967648
0.988538
1.01733
1.06129
1.20499
1.28198
1.54715
1.28637
1.61444
1.23618
1.54159
1.17232
1.40103
1.12052
1.26434
1.08882
1.16476
1.07526
1.11213
1.0872
1.07044
1.09448
1.09552
1.03105
1.06397
1.00535
1.02088
1.00023
0.987168
0.968666
0.951539
0.939974
0.930174
0.917471
0.919591
0.929542
0.94672
0.959601
0.956328
0.97025
1.0501
1.34542
1.58211
1.61259
1.55413
1.39016
1.20979
1.07157
0.992845
0.95467
0.939371
0.93611
0.941946
0.952687
0.969036
0.994593
1.03428
1.13328
1.38647
1.88673
2.4486
2.20903
3.14773
2.21781
3.495
1.98722
3.29799
1.66761
2.68373
1.39132
2.05648
1.21853
1.55472
1.13367
1.27621
1.14883
1.08973
1.15426
1.14695
1.05382
1.07916
1.00976
1.04116
1.00964
1.00314
0.983338
0.963054
0.947401
0.935097
0.919246
0.918009
0.924797
0.943902
0.965269
0.969963
0.974006
1.03138
1.27176
1.55754
1.63199
1.59345
1.46029
1.26985
1.11163
1.01237
0.962232
0.940564
0.934121
0.938368
0.950145
0.968442
0.996278
1.04228
1.20325
2.02563
3.1392
3.51468
4.28622
5.69656
5.15277
7.06254
5.37579
7.78439
4.83404
7.68832
3.67233
6.73828
2.5582
4.94875
1.74956
3.13226
1.32973
1.95474
1.36234
1.12996
1.36588
1.33256
1.07192
1.11232
1.01826
1.06455
1.02776
1.03595
1.00626
0.980332
0.958474
0.941075
0.922477
0.915273
0.920975
0.934694
0.964293
0.9834
0.988703
1.02738
1.21265
1.52016
1.64467
1.62464
1.52544
1.3341
1.15874
1.03744
0.972757
0.942597
0.931849
0.933798
0.9446
0.964802
0.995468
1.04298
1.20821
2.4983
7.30723
6.84659
9.12435
8.90639
10.4221
9.87225
11.2782
10.1144
11.5273
9.72393
11.4575
8.55552
11.0144
6.37233
9.94172
3.72395
7.71464
2.13441
4.28879
2.22724
1.27383
2.21689
2.09242
1.09805
1.20954
1.03563
1.07971
1.06362
1.10198
1.05337
1.00561
0.973808
0.947878
0.924868
0.912377
0.916932
0.926759
0.953793
0.985334
1.00787
1.03606
1.17707
1.4794
1.64563
1.64868
1.57862
1.39949
1.21165
1.069
0.986776
0.946697
0.93014
0.928096
0.937701
0.956635
0.990314
1.04072
1.19855
2.50726
8.1939
12.4625
12.9264
11.5063
12.2105
12.124
12.6063
12.2884
12.6553
12.3105
12.6728
12.2348
12.7208
11.8987
12.7393
10.9549
12.5306
8.80689
11.7347
4.74509
9.53918
4.90763
1.88331
4.75134
4.3897
1.15573
1.63125
1.05158
1.11457
1.11021
1.2338
1.15517
1.05471
0.998138
0.955472
0.925563
0.910266
0.912737
0.920833
0.937786
0.978941
1.01468
1.05828
1.16758
1.44349
1.64036
1.67049
1.62012
1.46589
1.26914
1.10712
1.00504
0.952751
0.930009
0.922739
0.929509
0.94647
0.97783
1.03159
1.17247
2.46056
8.26311
13.0412
13.3221
13.2428
13.3541
12.8989
13.0811
12.8278
12.9202
12.8011
12.8157
12.8897
12.8756
13.0646
13.0859
13.1935
13.3904
13.0802
13.6196
12.3737
13.5814
10.032
12.9115
10.2935
3.83128
10.1626
9.54724
1.38878
3.04258
1.06089
1.21328
1.24346
1.43588
1.35047
1.16504
1.0449
0.970439
0.926157
0.908975
0.908704
0.915586
0.92875
0.960319
1.01129
1.07345
1.17753
1.42081
1.62952
1.68834
1.65296
1.52961
1.32933
1.15135
1.02843
0.961992
0.930584
0.918245
0.920491
0.934937
0.962806
1.01356
1.12314
2.29681
8.27823
13.3884
13.6409
13.4702
13.5737
13.076
13.1391
12.977
13.0238
12.8068
12.8072
12.8228
12.7611
13.0391
12.9333
13.376
13.3083
13.7777
13.7973
14.0829
14.2843
14.0914
14.6374
13.3492
14.6221
13.6599
8.24866
13.7754
13.6684
2.24033
6.21524
1.07655
1.5965
1.28595
1.54391
1.54757
1.37701
1.15205
1.00424
0.930773
0.908122
0.905795
0.911235
0.923219
0.946383
0.995806
1.07434
1.20379
1.4151
1.61956
1.70225
1.67997
1.58602
1.3905
1.20037
1.05737
0.974225
0.932561
0.914435
0.911856
0.923094
0.946333
0.991334
1.07909
1.88419
7.97605
13.8549
13.6604
13.8661
13.2237
13.2784
13.0139
13.133
12.8321
12.9016
12.7753
12.8596
12.9346
13.0123
13.304
13.3653
13.8296
13.9132
14.4223
14.6063
14.971
15.2939
15.3119
15.8404
15.1798
16.1101
15.7063
13.1655
16.2213
16.5772
4.403
11.5322
1.16133
2.68994
1.36483
1.58189
1.54627
1.35746
1.09139
0.948582
0.91102
0.905249
0.909274
0.922283
0.943375
0.98306
1.06469
1.21651
1.41844
1.61497
1.71257
1.70197
1.63067
1.44929
1.25244
1.09184
0.990737
0.937255
0.912717
0.904345
0.910468
0.929806
0.967116
1.03981
1.48807
6.92751
13.8787
13.4335
13.4955
13.3674
13.412
13.2457
13.3335
13.572
13.8013
13.0506
13.3047
13.2288
13.586
13.546
13.8637
14.0855
14.3528
14.8351
15.1114
15.6612
16.0388
16.3973
16.9473
16.9088
17.667
16.9749
18.0784
17.8773
16.4754
18.7317
19.3266
8.39831
15.7461
1.41995
4.77407
1.28611
1.5473
1.50219
1.26324
0.998675
0.926401
0.910816
0.913283
0.929885
0.957563
0.986113
1.05608
1.21494
1.42047
1.61296
1.72129
1.72138
1.66675
1.50756
1.30535
1.13145
1.01177
0.945048
0.912777
0.8981
0.898923
0.913611
0.943629
1.00187
1.275
5.15614
13.6932
13.542
13.6789
13.4219
13.4097
13.393
13.421
13.9683
14.0757
14.6801
14.8986
13.9745
14.342
14.3233
14.7833
14.7439
15.1832
15.4523
15.8323
16.4342
16.8303
17.5197
18.0433
18.474
19.2228
19.1384
20.1728
19.3176
20.7207
20.5463
19.5741
21.6814
22.5254
20.9916
13.3495
19.1033
1.77708
7.28978
1.18868
1.47013
1.38351
1.10139
0.965733
0.931992
0.932534
0.95729
1.00072
1.01223
1.06456
1.21034
1.41726
1.61013
1.72863
1.73941
1.69579
1.56146
1.35823
1.17449
1.03721
0.955901
0.913829
0.893875
0.8893
0.898572
0.92162
0.967596
1.15034
3.77966
12.9341
13.4753
13.3833
13.3184
14.0555
13.968
14.1117
14.0985
15.0118
15.0163
15.6622
15.6125
15.2353
15.5412
15.6457
16.0132
16.178
16.4741
17.1426
17.3362
18.4449
18.6752
19.8486
20.2713
21.101
21.844
22.0106
23.1691
22.3638
23.5857
22.8323
22.5465
23.7055
22.7569
21.0697
23.0221
23.7478
25.2672
24.3845
24.2875
14.2556
18.2908
22.9084
22.8012
20.4008
2.00043
16.6708
6.52996
14.114
1.14093
1.37649
1.2269
1.03262
0.977054
0.981285
1.01995
1.06317
1.07045
1.08555
1.20933
1.40973
1.60448
1.73005
1.75557
1.72014
1.60879
1.40974
1.21846
1.06682
0.970072
0.916813
0.892159
0.881753
0.885204
0.902199
0.937466
1.06347
2.78864
11.1126
13.6427
13.6004
13.405
13.8561
13.6994
14.8927
14.7991
14.9948
14.9553
15.4913
15.3839
16.0089
15.7436
16.1812
16.1493
16.6658
16.6319
17.3769
17.3001
18.6521
18.4828
20.3748
20.2422
22.2977
22.3499
23.2194
23.5399
23.8199
24.0859
24.2557
25.014
24.7059
26.2064
25.5821
24.5338
24.6581
25.7922
25.456
25.6432
24.6428
24.7739
25.8319
27.4232
26.6017
26.3587
19.8661
24.7454
24.4447
22.2057
3.5262
8.42599
18.8411
16.4502
1.15104
1.29438
1.11255
1.03675
1.04921
1.09531
1.12696
1.13402
1.13154
1.21488
1.39797
1.59436
1.72773
1.76687
1.74125
1.64893
1.458
1.262
1.09938
0.987518
0.923724
0.892148
0.876427
0.874047
0.885118
0.911097
0.998922
2.08978
8.94563
13.7728
13.4956
14.3045
14.189
14.6705
14.5197
15.2973
15.3092
15.3189
15.2926
15.4784
15.3022
15.8192
15.1424
16.5058
16.2692
17.0857
16.7812
18.129
17.6614
19.835
19.2063
22.1328
21.5593
24.147
24.1776
24.0533
23.8915
25.1267
25.4012
25.5252
26.2887
27.0329
26.6042
28.1834
27.6765
26.7625
26.853
28.029
27.6978
27.9709
26.6895
26.8168
28.1566
29.0097
29.9605
28.7008
21.5675
26.7033
26.3357
23.9437
13.6807
11.1638
2.0443
6.94722
20.6112
18.7376
1.19469
1.22605
1.09218
1.09761
1.15163
1.18132
1.1892
1.18337
1.23203
1.38569
1.57675
1.72099
1.77079
1.75725
1.6815
1.50191
1.30443
1.13407
1.00921
0.933868
0.893173
0.873045
0.865197
0.870288
0.888847
0.949521
1.63702
6.73161
13.6991
13.1961
14.7754
14.3749
15.1272
14.9523
15.3008
15.2443
15.3333
15.4404
15.238
15.2589
14.5617
14.3296
14.5567
13.0919
16.3948
15.7431
17.1413
16.541
18.5262
17.8266
20.7882
19.9622
23.587
23.2887
22.8881
22.5141
25.5303
25.4378
25.2412
24.9663
26.8962
27.0522
27.0815
28.5633
29.3152
28.5336
30.3449
29.9135
29.1426
29.3217
30.6189
30.1631
30.5693
29.0215
29.0745
30.7582
31.7317
32.768
31.3339
23.2422
28.8465
28.3445
25.7425
20.7425
16.3777
2.77587
8.73523
22.2809
1.26104
1.17643
1.12544
1.18352
1.2195
1.23053
1.22726
1.26322
1.37927
1.5529
1.7066
1.76934
1.76577
1.70703
1.54272
1.34512
1.16952
1.03443
0.946006
0.896371
0.87162
0.859091
0.858748
0.870986
0.912288
1.35855
4.99531
13.3116
12.9509
14.4194
15.4681
15.491
15.6308
15.6029
15.5359
15.61
14.8774
15.1976
14.3471
14.5405
12.1528
12.1113
12.7425
10.8346
15.7465
14.5711
17.1174
16.3856
19.1878
18.4663
22.1011
21.7059
21.3119
20.9529
24.6237
24.255
23.8599
23.4799
27.01
26.8288
26.5597
26.2227
28.7435
28.8274
28.7955
31.0471
31.7545
30.6292
32.6768
32.2888
31.8124
32.0662
33.4442
32.8435
33.4368
31.626
31.5723
33.6073
34.6835
35.7643
34.1946
24.9388
31.1706
30.4707
27.6152
23.9237
22.5759
18.6426
6.88002
14.4125
1.2882
1.18159
1.19968
1.24135
1.25759
1.26108
1.29127
1.38304
1.52872
1.68004
1.76297
1.7668
1.72424
1.57933
1.38313
1.20375
1.05998
0.960115
0.901593
0.871655
0.855767
0.850572
0.856917
0.884844
1.18829
3.85472
12.1179
12.7838
13.7278
15.8301
15.541
15.9375
15.9173
15.8121
15.9073
15.4675
15.6701
13.8397
14.4676
12.4082
13.1209
9.49653
8.922
12.3735
10.4781
15.4843
14.2215
17.775
17.1161
20.9789
20.5136
23.1154
22.7682
22.4371
22.1379
25.8523
25.4712
25.1075
24.7743
28.6494
28.4003
28.0741
27.7092
30.7804
30.8048
30.6945
33.6717
34.3322
32.9235
35.1992
34.851
34.6356
35.007
36.3676
35.6129
36.4443
34.4373
34.2677
36.6201
37.7132
38.7939
37.1806
26.6813
33.662
32.7356
29.5626
25.5942
24.3888
21.2712
14.7347
20.5927
1.29726
1.228
1.25437
1.275
1.28378
1.31394
1.39063
1.51084
1.64795
1.74663
1.76377
1.73245
1.60909
1.41769
1.23529
1.08466
0.976512
0.909192
0.872815
0.854505
0.845351
0.847071
0.865652
1.07842
3.13292
10.4536
12.7907
13.2267
15.6053
16.2049
16.2891
16.0895
16.1789
15.7153
15.9393
14.9879
15.4005
12.1657
13.2279
9.48619
10.8895
8.96523
7.8639
13.8872
12.0855
16.3467
15.3276
20.1535
19.9134
23.7888
23.6954
23.6404
23.6948
24.4893
24.2453
24.0417
23.8829
27.3427
27.0058
26.7225
26.5029
30.4632
30.1428
29.7768
29.4184
33.0047
32.9281
32.6912
36.4226
37.0828
35.325
37.6398
37.5163
37.5104
37.9775
39.2869
38.4875
39.3956
37.3414
37.0455
39.6312
40.6201
41.6475
40.1408
28.4838
36.287
35.1486
31.5993
27.3005
25.9578
23.4661
21.1884
24.3874
1.31661
1.27665
1.29143
1.29978
1.33187
1.39683
1.49714
1.61668
1.71743
1.75443
1.73322
1.6292
1.447
1.26385
1.10983
0.995444
0.920802
0.876846
0.854485
0.842217
0.840832
0.853345
1.01024
2.63425
9.02994
12.7557
12.8955
14.9504
16.4068
16.2888
16.3245
16.3912
15.9825
16.1886
15.2874
15.6869
14.0841
14.7608
9.6417
11.2932
7.28727
7.85006
10.0076
8.03934
17.5996
15.8483
19.4633
18.7194
23.6609
23.5557
24.5101
26.314
26.3943
26.4739
26.4499
26.3491
26.259
26.2339
26.2549
29.1174
28.903
28.8009
28.7965
32.3422
31.9463
31.5792
31.3067
35.2528
34.9621
34.5248
39.2806
39.7117
37.4948
39.4391
39.7727
40.4214
40.8555
42.1119
41.2919
42.1512
40.2061
39.8113
42.4516
43.2386
44.1756
42.8841
30.3348
38.9979
37.7312
33.7472
28.9291
27.1431
25.5026
24.2737
27.8918
1.35462
1.31394
1.32408
1.34482
1.40283
1.48455
1.58757
1.68304
1.73286
1.72928
1.63892
1.46911
1.28961
1.13532
1.01658
0.935704
0.885729
0.855559
0.840858
0.837201
0.846385
0.972529
2.28959
7.84962
12.5598
12.5882
14.1661
16.3482
16.4638
16.583
16.2004
16.3692
15.589
15.9414
14.4992
15.1183
12.6431
13.6922
6.58758
8.31024
6.78373
6.20103
13.1989
9.85486
21.2278
19.3696
23.8236
22.6984
26.4099
26.2624
28.5078
27.865
29.5514
29.6335
29.5053
29.6219
28.8629
29.0024
29.1935
29.3875
31.219
31.2719
31.4931
31.8044
34.0478
33.6432
33.4692
33.508
37.0719
36.4781
35.8817
41.6013
41.4967
38.7658
39.9197
40.8372
42.896
43.4558
44.0672
43.063
44.4434
42.9103
42.5687
44.8681
45.2706
45.9692
45.2536
32.1884
41.8427
40.5538
36.0355
30.4131
28.2531
28.064
25.9879
32.6355
1.39708
1.34857
1.3664
1.40647
1.4752
1.55983
1.64791
1.7021
1.7162
1.6415
1.48365
1.31171
1.15954
1.03792
0.95162
0.89572
0.859268
0.840885
0.835801
0.843463
0.956601
2.09164
6.8933
12.1625
12.2591
13.4815
15.988
16.5682
16.5375
16.3186
16.4554
15.8106
16.1074
14.8605
15.4025
13.1943
14.1463
10.317
11.9418
5.42345
5.6799
7.1381
5.87741
16.756
12.8864
24.0045
21.8539
27.2794
26.4043
26.0575
29.2665
28.914
30.7152
29.9886
33.1387
33.0593
32.4369
32.8141
32.1589
32.5344
32.8604
33.0712
33.8255
34.3502
34.9736
35.6027
35.5106
35.4641
35.7477
36.4327
37.9932
37.3365
37.1597
42.6124
41.6778
39.0204
40.0056
40.7141
44.0786
44.9134
44.7797
43.3163
45.6395
45.4773
45.4653
46.4946
46.3128
46.9106
47.1075
34.0505
45.0282
43.577
38.4616
31.8031
29.6697
31.655
13.8464
34.4857
1.43476
1.386
1.41346
1.46024
1.53424
1.61065
1.66808
1.69061
1.63937
1.48998
1.32785
1.17912
1.05696
0.967249
0.907274
0.867529
0.84296
0.836085
0.843441
0.954789
2.01979
6.26565
11.6901
12.0899
12.9118
15.4351
16.5497
16.3377
16.535
15.9101
16.1549
15.0855
15.5583
13.6049
14.4531
10.9258
12.465
6.89784
8.97327
5.18931
4.86775
8.65382
6.07223
19.3157
15.7853
26.9928
25.4942
24.3448
29.1817
28.3757
28.0654
29.439
31.9509
31.3717
33.1459
32.3219
36.7717
36.4187
35.3088
35.9157
36.1758
36.628
36.8687
36.9168
37.3274
38.3075
39.2442
40.0421
37.2799
38.0218
39.1229
40.4466
38.6206
38.5869
39.1948
42.3317
41.3625
39.778
40.8275
40.9103
43.8766
45.3594
44.4718
42.8277
45.9485
48.162
48.8883
47.6377
46.6924
47.6348
49.2797
35.9039
48.5589
46.8538
41.0175
33.2531
31.7876
36.56
4.89286
27.371
1.46243
1.4233
1.45526
1.50205
1.57131
1.62823
1.65914
1.6297
1.49005
1.33575
1.19184
1.07157
0.982755
0.923097
0.88234
0.851351
0.83967
0.846706
0.962438
2.01735
6.03594
11.226
12.0278
12.4966
14.8204
16.4168
16.2875
16.3096
15.8726
16.0988
15.1481
15.5632
13.7811
14.5702
11.2639
12.7057
7.22314
9.38917
4.98551
5.6341
5.25328
4.69722
10.8998
6.9274
21.4143
18.1143
29.119
27.6748
28.2594
26.1406
31.4221
30.4414
30.6076
31.966
34.6368
33.9146
36.1507
35.2947
40.4122
39.8434
38.4496
39.1745
40.6229
40.912
40.9864
40.8182
41.8061
43.0613
44.102
44.8599
40.4143
42.0057
43.7688
45.5218
40.0714
41.2622
43.0627
42.0354
41.7659
41.6594
43.1995
41.8819
43.4081
45.0016
44.0967
42.8161
45.8358
51.6871
52.8402
49.487
47.0238
49.284
53.1635
37.8542
52.5649
50.2957
43.7817
35.0945
35.2248
40.6272
2.3621
15.8612
1.48163
1.45943
1.49253
1.5328
1.58155
1.61961
1.60754
1.48821
1.33752
1.19744
1.08192
1.00066
0.946266
0.906987
0.873985
0.852457
0.861495
0.998116
2.05968
6.03263
10.8872
11.9683
12.2284
14.2271
16.0977
16.2289
15.7041
15.9581
15.0072
15.3981
13.706
14.4588
11.2213
12.6294
7.19793
9.32379
4.75706
5.53256
4.45595
4.4562
5.66203
4.71239
13.2901
8.20071
24.582
22.472
20.4519
31.8392
29.9822
30.3757
28.3052
34.3254
33.2261
33.6592
35.3641
37.7035
36.9437
40.1055
39.2344
44.3596
43.6961
42.2736
42.9896
45.2473
45.3799
45.3084
44.917
47.1049
48.4025
49.3703
49.9578
45.1988
47.4243
49.5701
51.4833
43.4305
46.0045
48.8132
42.6182
43.1236
45.606
48.0834
44.8439
43.6136
44.9664
44.5886
43.5149
46.3343
56.0884
57.6898
53.754
49.0303
54.5348
58.3416
40.1849
56.591
53.4021
46.7139
37.5804
39.8245
41.3833
1.83306
12.2386
1.52099
1.50407
1.52936
1.55375
1.57402
1.56889
1.47971
1.33721
1.19954
1.09033
1.02161
0.978436
0.941574
0.909749
0.885553
0.912265
1.1145
2.22853
6.14195
10.7791
11.8938
11.9933
13.6572
15.7241
16.1788
14.8575
14.6388
15.0637
13.2382
14.0514
10.7226
12.147
6.74745
8.74902
4.48574
5.25859
4.0723
4.14513
4.3445
4.15164
6.28951
4.91141
15.775
9.78531
26.2522
24.3416
21.268
23.9141
34.8672
32.5807
32.5334
30.177
38.1661
36.891
37.1711
39.3524
41.565
40.8624
45.1614
44.2172
48.9446
48.3115
47.091
47.6895
50.2082
50.2563
49.9988
49.5306
53.0668
54.2772
55.1312
55.5516
51.5617
54.1076
56.3468
58.2298
49.0366
52.5776
56.0856
44.2874
46.2637
52.2577
54.8355
49.9664
44.616
46.0927
46.4868
45.6719
49.0795
61.8824
61.8865
60.2931
56.0057
62.4071
65.2752
42.8195
59.2201
55.2351
49.1543
40.6793
44.1258
43.8142
4.61015
15.2582
1.62863
1.56462
1.55993
1.55822
1.53865
1.46052
1.33617
1.2008
1.09703
1.04326
1.01269
0.98423
0.961671
0.962595
1.06804
1.4522
2.71635
6.52665
10.7986
11.8336
11.778
13.1683
15.3309
16.0504
14.9174
10.6686
13.3059
11.2879
12.3198
9.39729
11.0908
5.87296
7.58487
4.1906
4.82475
3.77201
3.87061
3.93086
3.82082
4.34495
4.09299
7.09452
5.20325
18.3639
11.8449
27.9564
25.8328
22.8981
24.9828
37.8506
35.0703
34.2253
31.692
42.9325
41.3296
40.7748
43.618
46.4997
45.9015
51.1407
50.0375
54.355
53.8313
52.9201
53.3556
55.7054
55.6958
55.3299
54.8822
59.7187
60.8152
61.4987
61.8273
59.2399
61.9282
64.1601
65.9647
56.6782
61.0714
65.2026
48.0887
52.4022
60.4352
66.0028
58.4832
47.9844
50.1505
52.4545
51.3468
58.3382
65.9207
64.0056
68.5854
65.085
72.7565
69.8097
45.1953
60.996
57.3308
51.0528
44.2812
48.7205
52.0076
25.4626
27.5403
1.84268
1.63476
1.57835
1.53823
1.45698
1.33665
1.20363
1.1019
1.06068
1.04394
1.02941
1.04203
1.14854
1.5032
2.28277
4.05838
7.57265
10.8983
11.7659
11.5986
12.8096
14.9706
15.8775
15.0709
10.2091
9.09131
5.68789
7.29126
7.39794
4.91859
5.89193
3.84315
4.25894
3.54799
3.62774
3.64766
3.57037
3.91729
3.77545
4.43896
4.09006
8.13734
5.56989
21.8744
18.4375
14.2575
29.3517
27.1291
23.9229
25.9866
40.3707
37.0554
35.1216
32.5167
48.3754
46.2573
44.0569
47.774
52.4512
51.9466
57.6343
56.3198
60.5588
60.1138
59.4336
59.7293
61.9396
61.852
61.4605
61.0267
67.3641
68.3759
68.9356
69.197
68.7358
71.621
73.9858
75.8165
66.2426
72.0789
77.4859
57.2676
66.1727
74.3017
89.6967
76.9823
57.1069
61.9942
68.2112
65.0032
69.3103
69.1776
67.6317
75.0182
79.2539
83.3281
76.0722
47.862
64.7444
60.4189
53.5749
47.7342
57.3276
58.7828
49.1727
61.8681
2.09834
1.70126
1.57345
1.46981
1.34527
1.21081
1.10682
1.07119
1.06695
1.07864
1.16888
1.60162
2.57962
4.31533
6.54934
9.11002
11.1726
11.6749
11.4319
12.5574
14.6619
15.6833
15.208
10.9719
4.42046
4.6876
3.51486
4.05938
4.05592
3.47675
3.68359
3.36305
3.38397
3.44193
3.38613
3.6459
3.52992
3.9285
3.78576
4.57104
4.13868
9.46328
6.09435
22.483
20.1046
13.5266
18.3018
30.2214
28.0771
24.5731
26.5223
42.1594
38.2595
35.2208
32.6484
54.1297
51.3238
46.7616
51.6003
59.0245
58.5878
64.2408
62.7474
67.6913
67.2375
66.4946
66.7765
69.2588
69.0613
68.6475
68.1471
77.2308
78.1288
78.5933
78.7222
81.9205
85.4425
88.3022
90.297
82.3117
90.3417
99.9696
77.4839
97.1305
105.846
153.094
119.986
78.9742
76.8864
89.8239
98.8362
89.8184
77.6999
75.2747
86.5376
97.0963
104.755
94.668
49.9075
69.5094
62.364
55.0098
51.6147
59.9086
67.0311
95.8076
74.0999
2.34644
1.74496
1.53462
1.37861
1.23046
1.11738
1.08156
1.08313
1.12662
1.40382
2.49941
4.62022
7.07349
8.83083
10.4279
11.5583
11.583
11.2771
12.4217
14.425
15.4834
15.2441
11.6876
4.83561
2.74932
3.12108
3.2685
2.96874
3.17678
3.17509
3.16064
3.26726
3.21085
3.43087
3.34004
3.67915
3.53542
3.97452
3.8299
4.77492
4.22863
15.249
12.4426
8.7893
6.80312
23.0203
20.899
18.6511
30.4529
28.4483
24.8964
26.6775
43.1249
38.4921
34.71
32.3269
59.937
56.3404
48.8817
55.1725
65.9176
65.4472
71.2591
69.442
75.8614
75.3922
74.3989
74.6975
78.3817
77.9211
77.317
76.5243
91.9676
92.8778
93.3617
93.1522
106.244
112.006
114.652
117.725
124.487
152.879
189.091
138.587
184.476
189.705
208.461
187.297
113.798
107.587
143.898
151.364
121.161
88.8215
81.4034
118.049
147.038
159.149
103.58
51.8145
73.2169
66.9307
57.2059
51.738
57.4706
63.6071
84.6907
81.2522
2.55018
1.75671
1.47631
1.28329
1.1449
1.09908
1.10408
1.18597
1.76866
3.83362
6.9604
9.25
10.4277
11.3605
11.739
11.467
11.2305
12.4159
14.2746
15.3024
15.2252
12.1153
5.23277
2.71726
2.54608
2.80033
2.69776
2.47239
2.96316
2.818
2.9917
3.09435
3.03893
3.23932
3.161
3.43942
3.33261
3.73903
3.56978
4.05323
3.8846
5.10792
4.38235
16.2596
13.2639
9.67804
7.77805
23.2285
21.2201
19.2237
30.3226
28.4727
24.9769
26.6511
43.3674
37.9478
33.6262
31.5796
65.8541
61.4245
50.6805
58.9267
73.5106
72.9347
78.6838
76.6043
85.4026
84.734
82.9301
83.4343
91.3082
89.595
88.3699
87.0364
119.368
120.756
121.637
120.395
187.396
196.682
197.116
196.687
193.224
205.974
443.233
193.37
457.656
460.531
446.663
465.942
188.546
157.128
199.15
197.889
196.392
95.7143
88.2825
126.479
197.626
146.984
117.912
51.8697
83.4256
70.433
58.4661
50.5318
51.1458
57.6941
76.2342
80.0311
2.70116
1.75101
1.41443
1.21704
1.13814
1.13078
1.26545
2.27101
5.41541
9.02803
10.7156
11.4191
11.8412
11.7253
11.3058
11.2616
12.4793
14.2208
15.157
15.1507
12.2822
5.50606
2.6829
2.34205
2.60031
2.44506
2.74762
2.39051
2.86512
2.92359
3.05398
2.98574
3.22354
3.13231
3.46211
3.33347
3.80448
3.62098
4.18412
3.9593
5.62057
4.63632
16.7672
14.2915
10.8512
11.7816
10.1767
7.78377
23.3161
21.4672
19.5082
29.888
28.2732
24.9777
26.5123
43.3566
36.8309
32.362
30.6419
72.1899
66.9162
52.8584
63.2454
81.5809
80.8746
85.9793
83.7696
98.1765
96.3733
92.1871
93.368
115.528
108.238
103.934
102.688
194.296
188.094
185.729
178.363
449.756
436.615
444.175
440.368
471.24
428.792
855.841
452.938
890.58
886.763
862.877
898.299
462.788
215.104
449.814
445.399
475.342
109.966
110.007
161.957
475.306
247.755
470.373
156.254
51.8001
90.2167
79.6864
61.5464
47.8347
48.5497
56.4291
224.081
136.237
2.81835
1.74272
1.38526
1.22591
1.18692
1.33726
2.84366
6.84718
10.4376
11.6182
11.9779
11.9209
11.5975
11.1354
11.3796
12.6818
14.2259
15.0499
15.032
12.2229
5.58801
2.63633
2.24662
2.19098
2.66442
2.51885
2.37976
2.79809
2.32717
2.85569
3.00397
2.92477
3.20766
3.09695
3.48922
3.33835
3.86984
3.67281
4.38265
4.05963
6.44626
5.04034
17.4009
15.1158
13.3095
11.3712
8.8746
23.3642
21.5978
19.7958
29.3182
27.9542
24.9616
26.392
43.9166
35.6317
31.602
29.8658
78.7101
72.9839
55.6081
68.3681
89.8487
88.7987
92.677
90.2773
120.198
114.773
103.99
106.757