/*--------------------------------*- C++ -*----------------------------------*\
  =========                 |
  \\      /  F ield         | OpenFOAM: The Open Source CFD Toolbox
   \\    /   O peration     | Website:  https://openfoam.org
    \\  /    A nd           | Version:  dev
     \\/     M anipulation  |
\*---------------------------------------------------------------------------*/
FoamFile
{
    version     2.0;
    format      ascii;
    class       volScalarField;
    location    "2500";
    object      p_rgh;
}
// * * * * * * * * * * * * * * * * * * * * * * * * * * * * * * * * * * * * * //

dimensions      [1 -1 -2 0 0 0 0];

internalField   nonuniform List<scalar> 
9842
(
0.00453418
0.00596182
0.00485563
0.00578434
0.00894293
0.0046337
0.0058349
0.0109192
0.00881122
0.00350036
0.00483859
0.0109659
0.0121238
0.0081173
0.00285825
0.00473395
0.0108444
0.0137199
0.0116551
0.00661256
0.00255082
0.0046342
0.0103361
0.0144531
0.0143276
0.0106215
0.00564125
0.00206828
0.00428889
0.00884995
0.0137989
0.0162438
0.0134021
0.0089465
0.00492754
0.00164935
0.00368967
0.00854488
0.0137924
0.0170931
0.0164253
0.0126422
0.00768907
0.00426423
0.00125543
0.00342334
0.00798909
0.0129078
0.0168102
0.0180042
0.0155293
0.011016
0.00713329
0.00387196
0.000896681
0.00316743
0.00748657
0.0121413
0.0159983
0.0188106
0.0177896
0.0144408
0.0098517
0.00622428
0.00337995
0.000525604
0.00313151
0.00690547
0.0110169
0.0157144
0.0191525
0.0193972
0.0171759
0.0128175
0.00876534
0.0056964
0.00285037
0.000224684
0.00284734
0.00608452
0.00976935
0.0148178
0.0187553
0.0204069
0.0191309
0.0155033
0.0115961
0.00826569
0.00524929
0.00259353
-8.43507e-05
0.00263025
0.00600772
0.00955042
0.0134076
0.0182972
0.0206643
0.0205564
0.0178875
0.0138914
0.0106673
0.0077019
0.00487808
0.00216172
-0.00041404
0.00240885
0.00556076
0.00896639
0.0121331
0.0177304
0.0206089
0.0215139
0.020057
0.0168936
0.0127252
0.00974316
0.00710791
0.00453017
0.00195117
-0.00065146
0.00215329
0.00501052
0.00842948
0.011805
0.0168799
0.0200187
0.0219934
0.0214885
0.0191639
0.0152247
0.0121752
0.00923883
0.00656672
0.00413148
0.00166324
-0.000916175
0.00189157
0.00453534
0.0077378
0.0109281
0.0151267
0.0194832
0.0221438
0.0226236
0.0210868
0.0181882
0.0144598
0.0113631
0.00875953
0.00616397
0.00384586
0.00131645
-0.0011973
0.00168861
0.00449795
0.00724051
0.0106341
0.0140903
0.0184955
0.0217021
0.0231327
0.0225183
0.0200916
0.0167402
0.0135432
0.010932
0.00841906
0.00595125
0.0035266
0.00112153
-0.00139693
0.00153462
0.00411388
0.00679385
0.0099646
0.0133748
0.0175717
0.0209685
0.0232538
0.0235251
0.0219452
0.0189304
0.0158024
0.0128253
0.0102902
0.00797172
0.00575349
0.00334067
0.00102178
-0.00162622
0.00135764
0.0037845
0.00636985
0.00938884
0.0123539
0.0158616
0.0198714
0.0229401
0.0240537
0.0233851
0.020957
0.0180671
0.0150054
0.0123805
0.00990818
0.0077759
0.00549967
0.00320394
0.000765928
-0.00168284
0.00112485
0.00349058
0.00591915
0.00884401
0.0115196
0.0144727
0.0185369
0.0223238
0.0242348
0.0242783
0.0227655
0.020122
0.0170992
0.0143705
0.0120316
0.00980383
0.00758108
0.00530258
0.00301492
0.000679732
-0.0017872
0.000881888
0.00316722
0.00552011
0.0083273
0.0110498
0.014165
0.0180831
0.0217789
0.0241371
0.024874
0.0240921
0.021967
0.0190445
0.016384
0.0140473
0.0117083
0.00957007
0.0073358
0.00519059
0.00293139
0.000635216
-0.00191108
0.000626275
0.00287758
0.00520011
0.00775665
0.0104529
0.0133934
0.0168467
0.0207223
0.0236437
0.0250931
0.0250224
0.0235993
0.0210313
0.0184075
0.0159392
0.0135499
0.011471
0.00939716
0.00736245
0.00512939
0.00292476
0.00049915
-0.00195977
0.000366628
0.00257757
0.00473176
0.00723609
0.00989585
0.0125544
0.0156784
0.0192767
0.0228827
0.0249249
0.0256171
0.0248529
0.0227138
0.0201521
0.0177563
0.0155043
0.013305
0.0111732
0.00934187
0.00729817
0.00503346
0.00285934
0.000522404
-0.00200145
0.000101866
0.00224182
0.00440277
0.00677376
0.00919473
0.011995
0.0143941
0.0183279
0.0219503
0.0245536
0.0258893
0.0257372
0.0242089
0.0218524
0.019504
0.0173605
0.0150618
0.0132824
0.0112416
0.00931931
0.007278
0.00511014
0.00285872
0.000518148
-0.00207245
-5.46044e-05
0.00195236
0.00408615
0.00617405
0.00848798
0.0109976
0.0138349
0.0175513
0.0208404
0.0238436
0.0258261
0.0263074
0.0253891
0.02331
0.0211786
0.0190951
0.0171767
0.0150668
0.0131494
0.0112719
0.0093241
0.00732168
0.00515415
0.0029576
0.000621518
-0.00203037
-0.000313794
0.00163778
0.00368878
0.00583021
0.00812753
0.0104574
0.013099
0.0162639
0.0198561
0.0229747
0.0255025
0.0265976
0.026313
0.0249543
0.0226849
0.0206884
0.0187752
0.0169083
0.0149986
0.0131761
0.0112715
0.00939296
0.00736396
0.00525784
0.00301314
0.000674875
-0.00193348
-0.000599529
0.00125477
0.003288
0.0052922
0.00759753
0.00994206
0.0125248
0.015079
0.0187418
0.0220987
0.0248372
0.0265753
0.0269543
0.0259964
0.0241153
0.0221333
0.0200639
0.0184353
0.0167852
0.0149847
0.0131619
0.0113999
0.00945344
0.00745556
0.00535937
0.00308799
0.000731414
-0.00184451
-0.000822172
0.00101058
0.00290499
0.00490445
0.00702411
0.00930056
0.0117612
0.0142197
0.017851
0.0210334
0.0240968
0.0262523
0.027189
0.0269064
0.0254572
0.0236271
0.0218435
0.0201314
0.0182616
0.0167016
0.0150018
0.0133143
0.0115389
0.00957552
0.00757971
0.00551749
0.00327311
0.0008468
-0.00177372
-0.00110297
0.000675738
0.00252073
0.00442103
0.00651965
0.00866741
0.0110928
0.0134867
0.0165996
0.0200006
0.0230115
0.0256803
0.027198
0.0274862
0.0266165
0.0248744
0.0231572
0.0215586
0.0200714
0.0184397
0.0169489
0.0152087
0.0134444
0.011761
0.00986862
0.00776838
0.00567998
0.00343449
0.00102781
-0.0016079
-0.00137595
0.000301264
0.0020472
0.00392895
0.00597598
0.00802621
0.0104326
0.0127362
0.0156525
0.0190736
0.0220916
0.024955
0.0268796
0.0277286
0.027411
0.0261773
0.0244836
0.022777
0.0214678
0.0200573
0.0185852
0.0170485
0.0153457
0.0138085
0.011935
0.0101016
0.00798192
0.00584125
0.00360529
0.00115057
-0.00143306
-0.00158766
6.63048e-05
0.00164546
0.00358795
0.0055429
0.00750034
0.00979003
0.0121322
0.0149294
0.017633
0.0210895
0.0240117
0.0263545
0.0277049
0.0279075
0.0271381
0.0257903
0.0241697
0.0227858
0.0212957
0.0201509
0.0187533
0.017329
0.0157739
0.0141222
0.0123216
0.0103282
0.00821295
0.00603578
0.00375028
0.001294
-0.0012865
-0.00186356
-0.000258168
0.001326
0.00317258
0.00495202
0.00697957
0.00915305
0.0113136
0.0139549
0.0167107
0.0200092
0.0229612
0.025589
0.027437
0.0281285
0.0278323
0.0268468
0.0254854
0.0239015
0.0228676
0.0215261
0.0203305
0.0191691
0.0176589
0.0160757
0.0143727
0.0126522
0.0105523
0.0084438
0.00627339
0.00392436
0.00146708
-0.00110264
-0.00207642
-0.00056559
0.0010061
0.00265445
0.00441184
0.00642582
0.00846221
0.0107158
0.0130648
0.0157497
0.01874
0.021939
0.0247315
0.0269403
0.0281102
0.0282202
0.0275298
0.0264488
0.0252396
0.0240219
0.0229176
0.0218951
0.0207437
0.0194975
0.0180257
0.0166165
0.0148189
0.0129268
0.0109092
0.00869948
0.00640104
0.00402446
0.00154885
-0.00205574
-0.000684388
-0.00228355
-0.000865179
0.000624604
0.00217894
0.00399635
0.00587053
0.00775501
0.00995641
0.0120986
0.0147137
0.0175898
0.0206206
0.0237083
0.0261416
0.0278498
0.0284959
0.0282119
0.0271987
0.0261826
0.0249821
0.0240903
0.0231093
0.0222443
0.0208873
0.0200122
0.0186245
0.01698
0.0151949
0.0132274
0.0111429
0.00888111
0.00650262
0.0037244
0.000683808
0.00200072
-0.00194279
-0.000618868
-0.00247067
-0.00116429
0.000304469
0.00184415
0.00347279
0.00517062
0.00713949
0.00920244
0.0114512
0.013807
0.0163936
0.0193986
0.0225586
0.0253324
0.027356
0.0283818
0.0286083
0.0279675
0.0268833
0.0260685
0.0250877
0.0244602
0.0235686
0.0228577
0.0214002
0.0205456
0.0190589
0.017462
0.0155786
0.0135535
0.0113577
0.00896809
0.00591391
0.00705765
0.00322473
0.00528063
0.00445627
0.000734497
0.00195936
-0.0018796
-0.000505277
-0.0026426
-0.00138319
-2.68839e-05
0.0014074
0.00302444
0.00463598
0.00652574
0.00854605
0.0106343
0.0128936
0.0153473
0.018243
0.0214201
0.0243009
0.0266353
0.0281489
0.0286821
0.0285764
0.0278163
0.0266525
0.0261303
0.0252722
0.0248043
0.0238917
0.0233979
0.0222197
0.0212146
0.0196177
0.0179455
0.0159713
0.0138423
0.0114561
0.0082511
0.00946469
0.00661533
0.00320845
0.00566941
0.00444954
0.000769891
0.00201263
-0.00172332
-0.000446142
-0.00276355
-0.00159041
-0.000386787
0.00100842
0.00253022
0.0041487
0.00594243
0.00774642
0.00992728
0.0121104
0.0144057
0.0170683
0.0202413
0.0232439
0.0257949
0.0275951
0.0285737
0.028772
0.0283568
0.0276509
0.0267686
0.0262014
0.0257064
0.0254684
0.0248508
0.0240655
0.0229403
0.0217653
0.0202474
0.018443
0.0163674
0.0139917
0.0107032
0.0119751
0.00794263
0.00925552
0.0068906
0.00323473
0.00567895
0.00445086
0.00082792
0.00205082
-0.00161812
-0.000327681
-0.00282363
-0.00177224
-0.000672952
0.000666005
0.00204248
0.00361904
0.00532217
0.00694392
0.00902559
0.011221
0.0135266
0.0159478
0.0191532
0.0220455
0.0247545
0.0268865
0.0282138
0.0287758
0.028629
0.0281372
0.0274741
0.0270952
0.0265797
0.0263432
0.0259494
0.0254524
0.0248864
0.0238001
0.0224416
0.0208726
0.018967
0.0166117
0.0132555
0.0145859
0.0105569
0.0118705
0.00813201
0.00939107
0.00690394
0.00324861
0.00566341
0.00443832
0.000904462
0.00209196
-0.00147341
-0.000216282
-0.00283699
-0.00191995
-0.000877775
0.000305261
0.00157438
0.00305017
0.00467265
0.00641506
0.00839724
0.0102683
0.0126083
0.0147321
0.0179006
0.0208697
0.0236715
0.0259774
0.0276445
0.0285652
0.0287359
0.0284917
0.0280123
0.0276035
0.0273798
0.0271774
0.027081
0.0266487
0.0264945
0.0259253
0.0246268
0.0232367
0.0215467
0.0193488
0.0159371
0.0173478
0.0132056
0.0145748
0.0106675
0.0119729
0.00814246
0.00940043
0.00687621
0.00325311
0.0056297
0.00440879
0.000980856
0.0021299
-0.00129804
-8.98045e-05
-0.00280497
-0.00204521
-0.00110451
-3.39547e-05
0.00114648
0.00252357
0.00410842
0.00576954
0.00752277
0.00943152
0.0118213
0.0138061
0.0167556
0.0196327
0.0223711
0.0249507
0.0268887
0.028134
0.0287241
0.0286304
0.0283335
0.0278234
0.0278202
0.0277619
0.0278695
0.0277193
0.0276766
0.0274722
0.0270781
0.0254486
0.0240385
0.0221277
0.0187766
0.0202771
0.0159919
0.0174509
0.0133162
0.0147104
0.0106833
0.0120055
0.00810657
0.00936919
0.00682746
0.00324927
0.00557446
0.00436503
0.00106207
0.00216426
-0.00108765
5.93284e-05
-0.00270822
-0.00203964
-0.00126783
-0.000331475
0.000780145
0.00205293
0.00354279
0.00506616
0.0067523
0.00863547
0.0108025
0.0128672
0.0155148
0.0181763
0.0211697
0.0238216
0.0259789
0.0275373
0.0284189
0.0286091
0.0284735
0.0281843
0.0280435
0.0282734
0.0283134
0.0286097
0.0285993
0.0286813
0.0286472
0.0283653
0.0263659
0.0248833
0.0218156
0.0234459
0.0189923
0.020628
0.0161806
0.017753
0.0133854
0.0148588
0.0106727
0.012043
0.0080497
0.00932769
0.00675667
0.00323358
0.00550076
0.0043033
0.00115641
0.00220176
-0.000838605
0.000241408
-0.00251897
-0.0020018
-0.00139737
-0.000565
0.000384803
0.00154492
0.00294071
0.00442567
0.00590417
0.00777307
0.00979065
0.011957
0.0144371
0.0169936
0.0200328
0.0226502
0.0249442
0.0267373
0.0278984
0.0284452
0.0283695
0.0284248
0.0281895
0.0284391
0.0287938
0.0291706
0.0293478
0.0297962
0.0301481
0.0300799
0.0296376
0.0276885
0.0252306
0.0273831
0.0225039
0.0247651
0.0195407
0.0218034
0.0165126
0.0185664
0.0135399
0.0153238
0.0106939
0.0122387
0.0079831
0.00932794
0.00667724
0.00321171
0.00541543
0.00423674
0.00127265
0.00224848
-0.00054273
0.00046538
-0.00225321
-0.00189901
-0.0014397
-0.000806798
2.73675e-05
0.00105153
0.00224227
0.00365747
0.00520913
0.00705437
0.00891256
0.010783
0.0132522
0.0158623
0.018737
0.0213786
0.02381
0.025791
0.0272104
0.0280126
0.0283404
0.02823
0.0284111
0.028331
0.0288126
0.0293392
0.0299709
0.0304406
0.0312257
0.031795
0.0318003
0.0314465
0.0297926
0.0327636
0.0278965
0.0325974
0.025132
0.0306843
0.0215923
0.0269972
0.0178215
0.0222466
0.0142339
0.0174865
0.0109422
0.0132609
0.00797437
0.00963799
0.00666043
0.00319311
0.00539514
0.00423113
0.00141925
0.00231626
-0.000189558
0.000746063
-0.00189352
-0.00169385
-0.0014019
-0.000939196
-0.000254964
0.000612837
0.00163795
0.00281434
0.00459782
0.00622183
0.00797114
0.00986405
0.0121572
0.014672
0.0174049
0.0200624
0.0226433
0.0247226
0.0263799
0.02746
0.0279648
0.0281847
0.028225
0.0284588
0.0288389
0.0294314
0.0300004
0.0310028
0.0316978
0.0329248
0.0339676
0.0355425
0.0366724
0.0368721
0.0383477
0.0466304
0.0397618
0.052868
0.0373292
0.0554561
0.0315228
0.0503558
0.0242466
0.039562
0.0176788
0.0281038
0.0123785
0.0183855
0.00835513
0.0115515
0.00708089
0.00322794
0.00582898
0.00462698
0.00161342
0.00243771
0.000238177
0.00110473
-0.00145067
-0.00140037
-0.00128286
-0.0010065
-0.000494188
0.000214706
0.00106476
0.00208863
0.0037287
0.00537408
0.00705593
0.00888391
0.0109509
0.0134655
0.0161134
0.0186934
0.0213484
0.0235862
0.0253993
0.0266864
0.0274363
0.0278074
0.027789
0.0282076
0.028643
0.0291934
0.0299284
0.0309959
0.0322471
0.0332298
0.0347721
0.0389602
0.0619344
0.0543597
0.06944
0.068823
0.0876726
0.0792545
0.107245
0.0808068
0.117397
0.0709037
0.114196
0.0519258
0.0974483
0.0338203
0.0691124
0.0195533
0.0410183
0.0107168
0.0208422
0.00971782
0.00356777
0.00853034
0.0070705
0.0018845
0.00277594
0.000755503
0.00156
-0.000951265
-0.00102579
-0.00108425
-0.00100297
-0.000676689
-0.000140513
0.000522147
0.00141501
0.00278543
0.00457798
0.00612888
0.0078482
0.00985985
0.0121985
0.0148156
0.0174329
0.020077
0.0223737
0.0242998
0.0258213
0.0267903
0.027257
0.0275928
0.0277821
0.0282622
0.0288611
0.0298409
0.0307298
0.0320534
0.033632
0.0351756
0.0396581
0.069161
0.138108
0.150655
0.1067
0.124726
0.136343
0.165438
0.155972
0.193921
0.161342
0.208275
0.151437
0.206939
0.127087
0.189899
0.0893
0.158175
0.048999
0.110935
0.0217912
0.056288
0.0217792
0.00548749
0.0206679
0.0180176
0.00231002
0.00411919
0.00136186
0.00214985
-0.000461451
-0.000600586
-0.000808934
-0.000923884
-0.000795468
-0.0004597
2.62199e-05
0.000793563
0.00196413
0.00381962
0.00524678
0.00682372
0.00873708
0.0109535
0.0134613
0.0161114
0.0186235
0.0210843
0.0231523
0.0247998
0.0259599
0.0266483
0.0270408
0.0273031
0.0277404
0.0284769
0.0291872
0.0303571
0.0318488
0.0333194
0.0353068
0.0396623
0.0674492
0.158477
0.163062
0.229827
0.24187
0.191373
0.213037
0.228946
0.260842
0.252151
0.292049
0.259946
0.308766
0.252111
0.310507
0.229458
0.297396
0.190607
0.269575
0.132386
0.223068
0.061763
0.150499
0.0642649
0.0139189
0.0629514
0.0554315
0.00324912
0.00951645
0.00207964
0.00298861
-0.000102446
-0.000212441
-0.000473484
-0.000764082
-0.000851915
-0.000756611
-0.000406712
0.000229541
0.00138457
0.00304187
0.004361
0.0057695
0.00764984
0.00972846
0.012139
0.0147045
0.0172842
0.0197465
0.0219103
0.0236964
0.025051
0.0259142
0.0264127
0.0268048
0.0271855
0.0278735
0.0288783
0.0297485
0.030931
0.0329295
0.0349269
0.0390076
0.0669585
0.161559
0.150151
0.249337
0.251252
0.322249
0.331281
0.287164
0.307729
0.32678
0.356978
0.352275
0.390067
0.36348
0.409923
0.360393
0.416675
0.343842
0.410537
0.310776
0.39085
0.254214
0.351463
0.163841
0.281756
0.170671
0.0423213
0.16622
0.145622
0.00614152
0.0280184
0.00294892
0.00456927
2.7593e-05
-6.56708e-06
-0.00018531
-0.000530157
-0.000825458
-0.000971359
-0.000781722
-0.000208174
0.000948981
0.00223226
0.00348856
0.00482075
0.00658091
0.00855685
0.0108547
0.013324
0.0159079
0.0182981
0.0206128
0.0224834
0.0239857
0.0250372
0.0256201
0.0260234
0.0264273
0.0270293
0.0279734
0.0292248
0.0303793
0.031833
0.0339435
0.0373163
0.0622244
0.191371
0.248406
0.253914
0.335059
0.33144
0.404923
0.401542
0.379995
0.396058
0.420744
0.445448
0.448987
0.480093
0.464969
0.504275
0.468988
0.518153
0.461687
0.521656
0.43849
0.513099
0.390303
0.484973
0.303921
0.42552
0.317128
0.113587
0.31735
0.296635
0.0157059
0.077919
0.00400859
0.00807238
-4.86231e-05
-6.75515e-05
-0.000339267
-0.000701474
-0.00106056
-0.000949233
-0.000491537
0.000321211
0.0013288
0.0025273
0.00387862
0.00534707
0.00724259
0.0095406
0.0119558
0.0144169
0.0169238
0.019274
0.0212391
0.022855
0.0240501
0.0248738
0.0253296
0.0257143
0.0262527
0.0269069
0.0280633
0.0295722
0.0310731
0.0328232
0.0353363
0.0510982
0.162377
0.301812
0.28618
0.324455
0.314931
0.392173
0.378153
0.447474
0.428349
0.460748
0.458896
0.502242
0.512108
0.534279
0.553777
0.556934
0.584678
0.570548
0.608131
0.574711
0.623193
0.564135
0.627353
0.528892
0.612861
0.453628
0.568224
0.471989
0.250519
0.475637
0.457617
0.0413184
0.173289
0.00536666
0.0157506
-0.000223061
-0.000262973
-0.000618873
-0.00102057
-0.00105812
-0.000910088
-0.000430508
0.000525273
0.00155175
0.00286959
0.00425811
0.00604161
0.00831464
0.01056
0.0130071
0.0155586
0.0178633
0.0199036
0.0216508
0.0229952
0.0239061
0.0244658
0.0248913
0.0253664
0.0259662
0.0268286
0.0281703
0.029855
0.0316145
0.0336408
0.0420799
0.122959
0.271786
0.243682
0.331194
0.317783
0.362187
0.346629
0.407057
0.385465
0.455291
0.423997
0.502579
0.482865
0.55658
0.541988
0.602108
0.598517
0.633375
0.646428
0.658684
0.680575
0.675234
0.708127
0.678212
0.72507
0.658143
0.724688
0.599851
0.697798
0.620747
0.41207
0.627432
0.618151
0.522966
0.0961441
0.317286
0.0066224
0.02368
-0.00045188
-0.000567079
-0.000997915
-0.00108329
-0.00122668
-0.000985633
-0.000222375
0.000718519
0.0019104
0.00328922
0.00493486
0.0071695
0.00919996
0.0115459
0.0140658
0.0163732
0.0185641
0.0204392
0.0218439
0.0229375
0.0235033
0.0239948
0.024469
0.0251504
0.0258539
0.0268405
0.028291
0.0301068
0.032181
0.0369119
0.0902368
0.247362
0.301355
0.294678
0.329998
0.316896
0.364713
0.346199
0.390692
0.359258
0.428979
0.379155
0.514652
0.476143
0.580725
0.54672
0.640102
0.619173
0.689113
0.680511
0.726465
0.730546
0.755491
0.770544
0.771208
0.799198
0.766268
0.811324
0.728922
0.792305
0.761208
0.690007
0.745106
0.59792
0.459542
0.578541
0.688703
0.756278
0.746504
0.684498
0.100222
0.2228
0.537091
0.492121
0.350367
0.00731963
0.136513
0.0181477
0.0679243
-0.000698604
-0.000924677
-0.00118952
-0.00135194
-0.00129391
-0.000752627
7.46616e-05
0.00111144
0.0023787
0.00394567
0.00593365
0.00790094
0.0100605
0.0125018
0.0148782
0.0172113
0.019123
0.0206794
0.0218214
0.0225399
0.0229986
0.0234922
0.0241596
0.024883
0.0257434
0.0268858
0.0283989
0.0303954
0.0336776
0.0662599
0.208497
0.285428
0.270488
0.304483
0.295493
0.296702
0.286261
0.332556
0.311751
0.33267
0.294461
0.363788
0.298976
0.49544
0.432091
0.578935
0.518588
0.65733
0.613815
0.719796
0.694827
0.770867
0.758213
0.811948
0.808974
0.817267
0.826779
0.833467
0.837002
0.815006
0.833991
0.840778
0.855933
0.846855
0.801839
0.784557
0.819262
0.828536
0.794441
0.670545
0.645068
0.753494
0.807003
0.803006
0.747768
0.27738
0.608744
0.556122
0.420545
0.00930977
0.0247941
0.184533
0.0930325
-0.000904626
-0.00123131
-0.00133962
-0.00144158
-0.00112909
-0.000467737
0.000426178
0.00157312
0.00302764
0.0047887
0.00662336
0.0086558
0.0110515
0.0134256
0.0158278
0.0178009
0.0194454
0.0207086
0.0215827
0.0220846
0.0225185
0.0230231
0.0238033
0.0246207
0.0255101
0.0269053
0.0285448
0.0311059
0.0499455
0.163102
0.258669
0.270633
0.265706
0.279045
0.274062
0.238497
0.233349
0.266596
0.248497
0.245848
0.208942
0.274059
0.20077
0.443533
0.358459
0.549414
0.468406
0.650475
0.586985
0.731453
0.687383
0.795033
0.767068
0.837789
0.834838
0.829437
0.818994
0.848336
0.851982
0.852316
0.846772
0.858843
0.860993
0.869283
0.865715
0.842053
0.828554
0.852125
0.857689
0.837757
0.733691
0.709967
0.807165
0.844285
0.848339
0.802187
0.33598
0.673424
0.620053
0.484856
0.0476942
0.0350917
0.00685676
0.0145312
0.233725
0.125968
-0.00104959
-0.00133443
-0.00149757
-0.00134846
-0.000889047
-0.000165708
0.000835876
0.00212909
0.0037057
0.00536472
0.0073117
0.00957603
0.01195
0.0144094
0.0164418
0.0181942
0.0195746
0.0205341
0.0211389
0.021591
0.0219886
0.022597
0.0234041
0.0243211
0.0253188
0.0267003
0.0287576
0.039464
0.117161
0.238816
0.24178
0.243022
0.236677
0.240467
0.231725
0.233665
0.173034
0.17441
0.187073
0.176966
0.151075
0.125012
0.178066
0.119286
0.373974
0.270316
0.506
0.410168
0.626757
0.550334
0.723107
0.664547
0.807064
0.789712
0.769945
0.744576
0.849497
0.843524
0.83418
0.82102
0.863354
0.862955
0.860086
0.866521
0.871047
0.87036
0.873201
0.872917
0.865121
0.859994
0.870148
0.870943
0.866056
0.790314
0.768745
0.849564
0.871061
0.875442
0.846911
0.394146
0.733801
0.680798
0.54675
0.161132
0.0594161
0.0067884
0.0154941
0.283555
-0.00109365
-0.00143004
-0.00141871
-0.00115705
-0.00063545
0.000184103
0.00129798
0.00264566
0.00418828
0.00601999
0.00817943
0.0105491
0.0129913
0.0151144
0.0169446
0.018415
0.019501
0.0201788
0.0206238
0.0210257
0.0214403
0.0221293
0.022928
0.0240128
0.025052
0.0266514
0.0329088
0.0818706
0.207962
0.234272
0.213912
0.218785
0.196885
0.205788
0.180313
0.188175
0.117215
0.125804
0.115539
0.11315
0.0871174
0.071815
0.13027
0.0894269
0.301023
0.200413
0.459512
0.356316
0.592749
0.509505
0.717776
0.685672
0.653354
0.616066
0.804188
0.78289
0.757833
0.728931
0.854397
0.845272
0.832103
0.814603
0.869512
0.866752
0.861102
0.873059
0.872979
0.871841
0.868502
0.87134
0.873155
0.873761
0.873898
0.872211
0.877046
0.838515
0.820727
0.878834
0.881045
0.885734
0.87993
0.451094
0.788903
0.737834
0.606223
0.332089
0.193485
0.0698588
0.00631559
0.0209834
-0.00120311
-0.00134445
-0.00123632
-0.000944662
-0.000342366
0.000564052
0.00169973
0.00308454
0.00480282
0.00685099
0.00915437
0.0115486
0.0137656
0.0156878
0.017262
0.0184294
0.0191959
0.0196683
0.020055
0.0204184
0.0208748
0.0216091
0.0223766
0.0234397
0.0247274
0.0287551
0.0594359
0.169729
0.228926
0.203493
0.21229
0.184016
0.194393
0.160334
0.172445
0.136378
0.148109
0.0794106
0.0905589
0.0670038
0.0701196
0.0659247
0.0520557
0.119978
0.0855035
0.257825
0.176604
0.416827
0.329545
0.547664
0.468939
0.697534
0.66362
0.628421
0.591658
0.792793
0.766784
0.737163
0.704811
0.851785
0.838331
0.820288
0.797621
0.868463
0.862376
0.852722
0.86873
0.864247
0.864146
0.853348
0.85927
0.868626
0.873757
0.863196
0.86065
0.874125
0.87668
0.864944
0.891637
0.876291
0.882323
0.898057
0.506056
0.838366
0.790777
0.662781
0.377463
0.221898
0.0896212
0.00858542
0.0355458
-0.0010055
-0.00108066
-0.0010511
-0.000703845
-3.20792e-05
0.000885722
0.00210465
0.00367362
0.00559558
0.00780443
0.0101579
0.0124223
0.0144336
0.0161048
0.0173655
0.0182258
0.0187265
0.0190851
0.0194241
0.0197677
0.020269
0.0210105
0.0217695
0.0230832
0.0258361
0.0458772
0.132779
0.21941
0.211431
0.18123
0.188929
0.156939
0.16958
0.129986
0.143602
0.103017
0.116315
0.0538328
0.0643538
0.0454369
0.045862
0.062573
0.0472333
0.138875
0.104489
0.247256
0.181383
0.395489
0.330207
0.536598
0.503726
0.448575
0.475641
0.670992
0.636515
0.601841
0.567999
0.770744
0.740469
0.708059
0.674966
0.838714
0.819929
0.796373
0.768765
0.857378
0.847133
0.832401
0.85238
0.844329
0.845526
0.82685
0.836154
0.849931
0.857767
0.838162
0.836665
0.854384
0.901882
0.899056
0.891806
0.855349
0.863072
0.903869
0.558343
0.88137
0.839633
0.716209
0.419639
0.255367
0.121428
0.0137261
0.0557528
-0.00066236
-0.000910045
-0.000857078
-0.000458208
0.000236937
0.00126183
0.00266532
0.00443377
0.00652449
0.00881646
0.0111013
0.0131865
0.014956
0.0163188
0.0172658
0.0178111
0.0181381
0.0184298
0.018718
0.0190633
0.0195559
0.0203484
0.0211534
0.0234353
0.0374541
0.101908
0.201528
0.218324
0.181528
0.192726
0.15896
0.170313
0.132303
0.146
0.103989
0.118176
0.0766114
0.0900031
0.0337526
0.0415352
0.0370765
0.0324622
0.0718579
0.0479533
0.198887
0.151481
0.275402
0.235765
0.424644
0.402514
0.394538
0.5348
0.512517
0.4766
0.493424
0.642777
0.612853
0.585399
0.559192
0.738474
0.707164
0.677112
0.650607
0.812755
0.788549
0.761015
0.73218
0.834469
0.81901
0.798814
0.824433
0.813303
0.814892
0.78961
0.802198
0.818666
0.827583
0.800608
0.801063
0.82096
0.915564
0.921969
0.878293
0.821532
0.832437
0.899989
0.607772
0.915742
0.883612
0.766298
0.462115
0.294847
0.157464
0.0155152
0.0647014
-0.000496109
-0.000774284
-0.00066711
-0.000233342
0.000585495
0.00178854
0.00338966
0.00533547
0.00753726
0.0098152
0.0119581
0.0138214
0.015291
0.016336
0.0169361
0.0172422
0.0174577
0.0176899
0.0179558
0.0183066
0.0187276
0.0195739
0.0212169
0.0315605
0.0779187
0.177297
0.217194
0.196102
0.161002
0.169569
0.136161
0.149004
0.108162
0.122432
0.0792338
0.0936382
0.0525562
0.0653819
0.0238318
0.0239976
0.0348771
0.0272969
0.0986615
0.0570236
0.279715
0.212765
0.366006
0.329686
0.461656
0.446721
0.49799
0.480707
0.562004
0.551149
0.531846
0.541324
0.627767
0.607366
0.589495
0.574611
0.704707
0.681438
0.662896
0.64876
0.77481
0.749085
0.724702
0.704482
0.799087
0.779396
0.75757
0.78623
0.773394
0.774466
0.748281
0.760927
0.776531
0.785413
0.753723
0.757373
0.77675
0.922102
0.937004
0.854956
0.778628
0.795049
0.88734
0.65508
0.941854
0.921759
0.81313
0.50524
0.334806
0.179701
0.0140651
0.0573866
-0.000414207
-0.000647983
-0.000482856
7.59509e-05
0.00106875
0.00246919
0.00425539
0.00633942
0.00857747
0.0107573
0.0127066
0.0142926
0.0154428
0.0161148
0.0164171
0.0165517
0.0166863
0.0168883
0.0171514
0.0175888
0.0180656
0.0194495
0.0273724
0.0621821
0.152639
0.210987
0.205666
0.161615
0.17406
0.138275
0.149788
0.111575
0.125286
0.0826844
0.097303
0.0537819
0.0680579
0.0297657
0.0407014
0.0204707
0.0174759
0.0350365
0.0257412
0.138167
0.0745638
0.347029
0.266758
0.462765
0.437726
0.416565
0.52192
0.510704
0.552546
0.530218
0.621095
0.616368
0.599863
0.609436
0.63887
0.632383
0.628129
0.624649
0.690217
0.683351
0.681731
0.684306
0.736724
0.719768
0.711102
0.709514
0.757428
0.740771
0.72885
0.74293
0.73182
0.736122
0.719634
0.72307
0.729575
0.736144
0.705461
0.713276
0.727893
0.923219
0.949418
0.827326
0.734324
0.759832
0.871571
0.700249
0.962459
0.953286
0.857013
0.546165
0.365992
0.176094
0.01239
0.0404224
-0.000359112
-0.000515467
-0.000233282
0.000501518
0.00169122
0.00329004
0.00523696
0.00739852
0.009591
0.0116148
0.0133182
0.0145859
0.0153601
0.0156751
0.0157427
0.015756
0.0158431
0.0160492
0.0163275
0.0166577
0.0178066
0.0246188
0.0518532
0.129997
0.20148
0.210248
0.175662
0.137403
0.146306
0.112587
0.125462
0.0844033
0.0987549
0.0551158
0.0697578
0.0282351
0.0410638
0.0167451
0.0195719
0.0194129
0.0155641
0.0386322
0.0250884
0.179236
0.0977206
0.398589
0.353702
0.304223
0.504875
0.477116
0.432839
0.473634
0.587306
0.571526
0.596508
0.568628
0.697608
0.691171
0.663986
0.679694
0.689287
0.695015
0.699296
0.700402
0.715249
0.727423
0.742399
0.757832
0.725433
0.727185
0.738692
0.758292
0.729809
0.729166
0.73568
0.704005
0.699996
0.720608
0.710916
0.700967
0.686978
0.689057
0.666235
0.678505
0.685486
0.919698
0.958983
0.802475
0.701342
0.736023
0.856477
0.741687
0.979271
0.979174
0.896618
0.581418
0.37974
0.147095
0.0102981
0.0296255
-0.000310167
-0.000330228
0.000104107
0.00104801
0.00244663
0.00423356
0.00629055
0.00846406
0.0105455
0.0123648
0.0137717
0.0146686
0.0150303
0.0150411
0.0149431
0.0148693
0.01496
0.0152031
0.0156296
0.016541
0.0225019
0.0461753
0.111867
0.188942
0.211725
0.189714
0.133355
0.145845
0.109934
0.121392
0.0834938
0.0971229
0.0545032
0.0690728
0.0268059
0.0400673
0.0124438
0.0169618
0.0128194
0.0114744
0.0188003
0.0151044
0.0456392
0.0252396
0.213227
0.123222
0.425557
0.383533
0.373507
0.317239
0.538669
0.506772
0.465823
0.503627
0.644599
0.621957
0.634083
0.603986
0.771959
0.757771
0.715861
0.738685
0.771003
0.780123
0.783026
0.780073
0.782501
0.807939
0.830995
0.848902
0.750496
0.774592
0.807034
0.841918
0.731401
0.748686
0.776262
0.6754
0.680522
0.729511
0.721371
0.696372
0.656179
0.655369
0.641581
0.652256
0.66047
0.915713
0.967197
0.78513
0.685432
0.726316
0.847149
0.779573
0.994233
1.00114
0.932154
0.613345
0.374067
0.100864
0.000975219
0.0217812
-0.000253933
-8.88276e-05
0.000541604
0.00171544
0.00331791
0.00525791
0.00738076
0.00949568
0.0114195
0.0129815
0.0140331
0.014488
0.0144782
0.0142359
0.0140287
0.0139122
0.0140485
0.0144754
0.0153956
0.0209631
0.0429442
0.0997022
0.175888
0.210116
0.198579
0.14547
0.103214
0.112889
0.078566
0.091303
0.0513045
0.0650958
0.0240232
0.0369388
0.00951781
0.0144544
0.00794812
0.00766242
0.0120403
0.00960518
0.0182616
0.0148967
0.0556506
0.0267486
0.272039
0.215235
0.154807
0.465502
0.419847
0.414126
0.359291
0.572506
0.539193
0.50833
0.547615
0.690394
0.662963
0.675031
0.646184
0.831999
0.81056
0.759092
0.785818
0.860063
0.862141
0.858501
0.848571
0.874471
0.901793
0.921649
0.932364
0.815564
0.85918
0.900764
0.936878
0.758134
0.802041
0.856101
0.659479
0.678565
0.760336
0.754453
0.707653
0.635773
0.640542
0.631071
0.641798
0.654472
0.913829
0.97571
0.781502
0.684627
0.730971
0.845762
0.815591
1.0084
1.02014
0.962974
0.637272
0.340249
0.0680103
-0.0226829
0.00438139
-0.000191207
0.000207736
0.00108816
0.00249297
0.00428087
0.00632747
0.00845358
0.0104679
0.0121922
0.0134384
0.0140466
0.0140679
0.0137124
0.0132809
0.012988
0.0129473
0.013222
0.0143282
0.0199268
0.04082
0.0934558
0.164401
0.205983
0.202932
0.160633
0.0839172
0.0700033
0.0834884
0.0438229
0.0571552
0.0196863
0.0310733
0.00745733
0.0120048
0.00505407
0.0053763
0.00753638
0.00589782
0.0121645
0.00966675
0.0180707
0.0145312
0.0707915
0.0301163
0.303417
0.248564
0.160401
0.225876
0.517112
0.467143
0.463356
0.404164
0.615935
0.583371
0.563152
0.604456
0.731388
0.703279
0.726464
0.70052
0.879894
0.855248
0.802765
0.829139
0.933562
0.929518
0.919098
0.901624
0.965234
0.984873
0.994183
0.994948
0.909737
0.955274
0.991514
1.01844
0.817088
0.883087
0.945993
0.659505
0.690188
0.821376
0.814581
0.741652
0.63079
0.63831
0.629856
0.642925
0.659769
0.917081
0.987113
0.791854
0.700086
0.761217
0.858062
0.848464
1.02251
1.03498
0.988
0.645128
0.283876
0.0407275
-0.0577398
-0.0365394
-0.000118185
0.000571293
0.0017259
0.00336865
0.00528773
0.00740918
0.00948961
0.0113775
0.0128506
0.0136765
0.0138172
0.0133998
0.0126777
0.0121982
0.0119459
0.0120492
0.0132311
0.0192733
0.0401651
0.0893751
0.1566
0.200478
0.203879
0.171133
0.100498
0.0258202
0.0451361
0.0358707
0.0335146
0.0151972
0.0230165
0.00610568
0.00965756
0.00375135
0.00429679
0.00505366
0.00410828
0.00815504
0.0064248
0.012454
0.0102356
0.0191358
0.0146435
0.0962756
0.0370201
0.343439
0.282904
0.192117
0.254411
0.5734
0.520019
0.508348
0.447365
0.672437
0.640832
0.622839
0.667042
0.776807
0.751463
0.787289
0.763969
0.923881
0.899945
0.852368
0.875795
0.991271
0.982306
0.966437
0.946462