/*--------------------------------*- C++ -*----------------------------------*\
  =========                 |
  \\      /  F ield         | OpenFOAM: The Open Source CFD Toolbox
   \\    /   O peration     | Website:  https://openfoam.org
    \\  /    A nd           | Version:  dev
     \\/     M anipulation  |
\*---------------------------------------------------------------------------*/
FoamFile
{
    version     2.0;
    format      ascii;
    class       surfaceScalarField;
    location    "2500";
    object      phi;
}
// * * * * * * * * * * * * * * * * * * * * * * * * * * * * * * * * * * * * * //

dimensions      [1 0 -1 0 0 0 0];

internalField   nonuniform List<scalar> 
19515
(
1.58673e-07
1.08861e-07
1.36425e-07
2.69078e-07
4.40729e-07
9.8274e-08
1.11771e-07
3.6545e-07
4.38363e-07
2.71444e-07
6.38451e-07
8.23485e-08
9.22718e-08
4.3316e-07
4.0642e-07
3.97393e-07
6.60037e-07
2.49906e-07
7.9058e-07
6.97408e-08
7.67761e-08
4.83886e-07
3.55608e-07
4.84021e-07
6.63556e-07
3.93855e-07
8.22781e-07
2.17736e-07
9.24406e-07
6.19706e-08
6.50839e-08
5.254e-07
2.99839e-07
5.39656e-07
6.39383e-07
5.08173e-07
8.53549e-07
3.63127e-07
9.51855e-07
1.90305e-07
1.04933e-06
5.61512e-08
5.58822e-08
5.6546e-07
2.47817e-07
5.77553e-07
5.89883e-07
5.89214e-07
8.66306e-07
4.95418e-07
9.90989e-07
3.24016e-07
1.06809e-06
1.71554e-07
1.16382e-06
5.15671e-08
4.88885e-08
6.04482e-07
2.08196e-07
6.0511e-07
5.27572e-07
6.39918e-07
8.52007e-07
6.03486e-07
1.02826e-06
4.58157e-07
1.10227e-06
2.89861e-07
1.17808e-06
1.57431e-07
1.27062e-06
4.78006e-08
4.41356e-08
6.42103e-07
1.82997e-07
6.2974e-07
4.63268e-07
6.69457e-07
8.10214e-07
6.81781e-07
1.04962e-06
5.82141e-07
1.1466e-06
4.1385e-07
1.20345e-06
2.6449e-07
1.28312e-06
1.44944e-07
1.37097e-06
4.44641e-08
4.13121e-08
6.79763e-07
1.67659e-07
6.57546e-07
4.03258e-07
6.89803e-07
7.46896e-07
7.32817e-07
1.04429e-06
6.87129e-07
1.18897e-06
5.39796e-07
1.24262e-06
3.74676e-07
1.30399e-06
2.43647e-07
1.38128e-06
1.34655e-07
1.46495e-06
4.14383e-08
3.96178e-08
7.18885e-07
1.57323e-07
6.90118e-07
3.54324e-07
7.06527e-07
6.7467e-07
7.62077e-07
1.01109e-06
7.66069e-07
1.21737e-06
6.58752e-07
1.29135e-06
4.90943e-07
1.33367e-06
3.45018e-07
1.39836e-06
2.26629e-07
1.47431e-06
1.25325e-07
1.55324e-06
3.88381e-08
3.80585e-08
7.60143e-07
1.48188e-07
7.28023e-07
3.19823e-07
7.24728e-07
6.03209e-07
7.78029e-07
9.53491e-07
8.19699e-07
1.22095e-06
7.62517e-07
1.33931e-06
6.10971e-07
1.37517e-06
4.49478e-07
1.42336e-06
3.20012e-07
1.49003e-06
2.10938e-07
1.56179e-06
1.16794e-07
1.63705e-06
3.61859e-08
3.64243e-08
8.02079e-07
1.40653e-07
7.67716e-07
2.97306e-07
7.50611e-07
5.37805e-07
7.90112e-07
8.81054e-07
8.50523e-07
1.19574e-06
8.44946e-07
1.37339e-06
7.28459e-07
1.42576e-06
5.604e-07
1.45687e-06
4.15996e-07
1.5121e-06
2.97963e-07
1.57639e-06
1.96368e-07
1.64502e-06
1.08848e-07
1.71561e-06
3.37897e-08
3.54448e-08
8.43993e-07
1.35408e-07
8.07449e-07
2.80241e-07
7.84868e-07
4.86265e-07
8.02385e-07
8.05686e-07
8.65595e-07
1.14533e-06
9.00973e-07
1.38455e-06
8.3384e-07
1.47723e-06
6.76903e-07
1.50108e-06
5.16185e-07
1.54047e-06
3.87665e-07
1.59633e-06
2.78062e-07
1.65849e-06
1.82932e-07
1.72339e-06
1.0109e-07
1.78978e-06
3.13197e-08
3.4963e-08
8.87472e-07
1.31261e-07
8.48193e-07
2.66317e-07
8.2145e-07
4.52536e-07
8.18618e-07
7.33726e-07
8.74264e-07
1.07684e-06
9.34137e-07
1.36861e-06
9.1693e-07
1.51855e-06
7.92706e-07
1.55465e-06
6.23418e-07
1.57673e-06
4.79931e-07
1.62267e-06
3.61324e-07
1.67754e-06
2.59058e-07
1.73648e-06
1.6988e-07
1.79719e-06
9.37012e-08
1.85919e-06
2.89606e-08
3.43088e-08
9.33579e-07
1.27696e-07
8.91041e-07
2.54406e-07
8.60157e-07
4.28677e-07
8.45236e-07
6.70379e-07
8.82082e-07
9.98972e-07
9.52175e-07
1.32682e-06
9.7598e-07
1.5394e-06
8.96097e-07
1.61033e-06
7.37008e-07
1.62378e-06
5.76399e-07
1.65587e-06
4.46785e-07
1.70185e-06
3.37053e-07
1.75448e-06
2.41075e-07
1.80969e-06
1.57427e-07
1.86678e-06
8.61424e-08
1.92401e-06
2.65855e-08
3.38546e-08
9.80617e-07
1.25587e-07
9.35808e-07
2.45193e-07
9.00408e-07
4.08728e-07
8.80108e-07
6.22736e-07
8.9315e-07
9.20402e-07
9.60752e-07
1.26439e-06
1.0147e-06
1.53414e-06
9.81278e-07
1.65854e-06
8.47876e-07
1.67995e-06
6.80855e-07
1.69579e-06
5.3651e-07
1.73204e-06
4.16641e-07
1.77822e-06
3.13397e-07
1.82773e-06
2.23097e-07
1.87935e-06
1.44907e-07
1.93131e-06
7.8874e-08
1.98427e-06
2.42135e-08
3.40584e-08
1.02796e-06
1.24468e-07
9.8179e-07
2.38805e-07
9.4222e-07
3.91502e-07
9.17658e-07
5.9038e-07
9.12525e-07
8.4762e-07
9.65974e-07
1.1878e-06
1.03743e-06
1.50188e-06
1.04703e-06
1.68872e-06
9.51164e-07
1.73963e-06
7.88277e-07
1.74435e-06
6.32296e-07
1.76865e-06
4.9991e-07
1.80681e-06
3.88054e-07
1.85043e-06
2.907e-07
1.89693e-06
2.05556e-07
1.94419e-06
1.32063e-07
1.99186e-06
7.13472e-08
2.04027e-06
2.17077e-08
3.44306e-08
1.07683e-06
1.22687e-07
1.02983e-06
2.32595e-07
9.87984e-07
3.76378e-07
9.5748e-07
5.64249e-07
9.43867e-07
7.86847e-07
9.7346e-07
1.10475e-06
1.04911e-06
1.44654e-06
1.09281e-06
1.69423e-06
1.04155e-06
1.79422e-06
8.96554e-07
1.8022e-06
7.30502e-07
1.8123e-06
5.88663e-07
1.84069e-06
4.6605e-07
1.87835e-06
3.60216e-07
1.91964e-06
2.68048e-07
1.9622e-06
1.87595e-07
2.00475e-06
1.19221e-07
2.04823e-06
6.34214e-08
2.09094e-06
1.92486e-08
3.46963e-08
1.12693e-06
1.20725e-07
1.07893e-06
2.2715e-07
1.03535e-06
3.64666e-07
9.99844e-07
5.39078e-07
9.82668e-07
7.41671e-07
9.89195e-07
1.02305e-06
1.05521e-06
1.37458e-06
1.12113e-06
1.67279e-06
1.11429e-06
1.83388e-06
1.0019e-06
1.86549e-06
8.33228e-07
1.86437e-06
6.78417e-07
1.88117e-06
5.48267e-07
1.91152e-06
4.32791e-07
1.94765e-06
3.32171e-07
1.98543e-06
2.44873e-07
2.02298e-06
1.69404e-07
2.06117e-06
1.06327e-07
2.09882e-06
5.55466e-08
2.13717e-06
1.6555e-08
3.48002e-08
1.17812e-06
1.18877e-07
1.12883e-06
2.23396e-07
1.0827e-06
3.554e-07
1.04466e-06
5.17269e-07
1.02174e-06
7.10946e-07
1.01354e-06
9.53259e-07
1.05908e-06
1.29381e-06
1.13606e-06
1.62709e-06
1.16698e-06
1.85099e-06
1.09725e-06
1.92663e-06
9.40848e-07
1.92519e-06
7.72455e-07
1.92862e-06
6.30949e-07
1.9502e-06
5.09715e-07
1.98073e-06
3.9976e-07
2.01352e-06
3.04106e-07
2.04626e-06
2.21633e-07
2.07961e-06
1.51025e-07
2.11251e-06
9.26688e-08
2.14532e-06
4.74412e-08
2.17838e-06
1.38068e-08
3.48971e-08
1.23011e-06
1.18019e-07
1.17903e-06
2.20274e-07
1.13203e-06
3.46746e-07
1.09145e-06
5.00111e-07
1.0619e-06
6.86134e-07
1.04663e-06
9.00197e-07
1.06668e-06
1.21003e-06
1.14297e-06
1.56222e-06
1.20104e-06
1.84186e-06
1.17616e-06
1.97616e-06
1.04775e-06
1.99272e-06
8.73348e-07
1.98428e-06
7.16804e-07
1.99501e-06
5.86057e-07
2.01872e-06
4.71789e-07
2.04634e-06
3.66957e-07
2.07485e-06
2.75563e-07
2.10354e-06
1.97763e-07
2.13171e-06
1.31885e-07
2.15961e-06
7.84337e-08
2.18697e-06
3.88974e-08
2.2136e-06
1.11009e-08
3.49224e-08
1.28282e-06
1.1755e-07
1.23062e-06
2.16293e-07
1.18307e-06
3.39724e-07
1.1391e-06
4.85873e-07
1.10576e-06
6.63072e-07
1.08506e-06
8.60943e-07
1.08597e-06
1.1301e-06
1.14671e-06
1.48459e-06
1.22069e-06
1.80693e-06
1.23605e-06
2.00544e-06
1.14693e-06
2.06035e-06
9.80113e-07
2.0483e-06
8.09339e-07
2.04648e-06
6.65432e-07
2.06213e-06
5.42676e-07
2.08456e-06
4.33664e-07
2.1085e-06
3.33235e-07
2.13257e-06
2.46575e-07
2.15647e-06
1.73057e-07
2.17951e-06
1.12008e-07
2.20124e-06
6.42116e-08
2.22222e-06
3.03077e-08
2.24392e-06
8.3929e-09
3.47419e-08
1.33622e-06
1.16465e-07
1.28394e-06
2.12783e-07
1.23422e-06
3.34235e-07
1.18862e-06
4.73222e-07
1.15183e-06
6.42509e-07
1.12642e-06
8.29843e-07
1.1163e-06
1.06451e-06
1.15176e-06
1.40077e-06
1.23065e-06
1.75055e-06
1.27718e-06
2.00972e-06
1.23183e-06
2.11917e-06
1.08813e-06
2.11934e-06
9.09123e-07
2.10528e-06
7.50596e-07
2.11118e-06
6.16418e-07
2.12812e-06
4.99134e-07
2.14714e-06
3.95195e-07
2.16726e-06
2.98578e-07
2.18691e-06
2.16195e-07
2.20526e-06
1.47378e-07
2.22181e-06
9.14938e-08
2.23731e-06
4.91726e-08
2.25239e-06
2.18959e-08
2.26858e-06
5.49216e-09
3.45412e-08
1.38993e-06
1.15322e-07
1.33745e-06
2.09962e-07
1.28682e-06
3.27491e-07
1.24099e-06
4.62111e-07
1.1998e-06
6.23661e-07
1.17075e-06
8.03475e-07
1.15284e-06
1.01707e-06
1.16382e-06
1.31739e-06
1.23518e-06
1.67874e-06
1.30255e-06
1.98758e-06
1.29933e-06
2.16033e-06
1.19071e-06
2.19276e-06
1.01482e-06
2.17236e-06
8.42087e-07
2.16689e-06
6.94922e-07
2.17705e-06
5.675e-07
2.19146e-06
4.54749e-07
2.20772e-06
3.5478e-07
2.22269e-06
2.62858e-07
2.23668e-06
1.84829e-07
2.24854e-06
1.20709e-07
2.25857e-06
7.03163e-08
2.26816e-06
3.34654e-08
2.2771e-06
1.34145e-08
2.29558e-06
2.66739e-09
3.41841e-08
1.44373e-06
1.14097e-07
1.39121e-06
2.07201e-07
1.34025e-06
3.20541e-07
1.29387e-06
4.52347e-07
1.25076e-06
6.06527e-07
1.21707e-06
7.81395e-07
1.19295e-06
9.81952e-07
1.18807e-06
1.24203e-06
1.23929e-06
1.5973e-06
1.31676e-06
1.9418e-06
1.3484e-06
2.17812e-06
1.28159e-06
2.26075e-06
1.12278e-06
2.24733e-06
9.39836e-07
2.22989e-06
7.79118e-07
2.23164e-06
6.40352e-07
2.24116e-06
5.17873e-07
2.25302e-06
4.09489e-07
2.26397e-06
3.13547e-07
2.27404e-06
2.2555e-07
2.28097e-06
1.52462e-07
2.28617e-06
9.31573e-08
2.29004e-06
4.84947e-08
2.29298e-06
1.76357e-08
2.30437e-06
4.67602e-09
2.30892e-06
7.71271e-10
3.34855e-08
1.49754e-06
1.12538e-07
1.44533e-06
2.04004e-07
1.39445e-06
3.1407e-07
1.34677e-06
4.43424e-07
1.30278e-06
5.91727e-07
1.26563e-06
7.60813e-07
1.23761e-06
9.52134e-07
1.22288e-06
1.18225e-06
1.248e-06
1.51292e-06
1.32378e-06
1.87766e-06
1.38093e-06
2.16981e-06
1.35676e-06
2.31419e-06
1.22815e-06
2.3261e-06
1.044e-06
2.30057e-06
8.69207e-07
2.29226e-06
7.18531e-07
2.29529e-06
5.8626e-07
2.30326e-06
4.67643e-07
2.31117e-06
3.62317e-07
2.31717e-06
2.70465e-07
2.31964e-06
1.86945e-07
2.32038e-06
1.18315e-07
2.31851e-06
6.47446e-08
2.31562e-06
2.59428e-08
2.31907e-06
3.0132e-09
2.3182e-06
-4.55984e-09
2.31792e-06
-8.14531e-10
3.26443e-08
1.55094e-06
1.10742e-07
1.49936e-06
2.00371e-07
1.44901e-06
3.08049e-07
1.40057e-06
4.35103e-07
1.35517e-06
5.78168e-07
1.31643e-06
7.41841e-07
1.28464e-06
9.25849e-07
1.26399e-06
1.13901e-06
1.26615e-06
1.4315e-06
1.3295e-06
1.80073e-06
1.4008e-06
2.13616e-06
1.41464e-06
2.34591e-06
1.32511e-06
2.40205e-06
1.15227e-06
2.37876e-06
9.65903e-07
2.3592e-06
8.02328e-07
2.35465e-06
6.59204e-07
2.35872e-06
5.30817e-07
2.36294e-06
4.159e-07
2.36576e-06
3.13777e-07
2.36496e-06
2.2522e-07
2.36105e-06
1.46339e-07
2.35387e-06
8.2994e-08
2.3448e-06
3.56461e-08
2.34141e-06
3.67171e-09
2.33279e-06
-1.14935e-08
2.32604e-06
-1.26135e-08
2.3198e-06
-2.27173e-09
3.16417e-08
1.60358e-06
1.08548e-07
1.55316e-06
1.96052e-07
1.50375e-06
3.01875e-07
1.45523e-06
4.2653e-07
1.40919e-06
5.64315e-07
1.36911e-06
7.2518e-07
1.33316e-06
9.02903e-07
1.30787e-06
1.10705e-06
1.2961e-06
1.36016e-06
1.33759e-06
1.71707e-06
1.41323e-06
2.08089e-06
1.45613e-06
2.35233e-06
1.40827e-06
2.46708e-06
1.2601e-06
2.46215e-06
1.0689e-06
2.4334e-06
8.91704e-07
2.42063e-06
7.36402e-07
2.41945e-06
5.985e-07
2.42009e-06
4.73675e-07
2.42024e-06
3.61396e-07
2.41663e-06
2.62096e-07
2.40828e-06
1.78056e-07
2.39624e-06
1.04074e-07
2.38151e-06
4.63307e-08
2.37112e-06
6.00181e-09
2.35548e-06
-1.8961e-08
2.34012e-06
-2.5508e-08
2.32813e-06
-2.08891e-08
2.31744e-06
-4.69935e-09
3.01049e-08
1.65546e-06
1.04935e-07
1.60723e-06
1.90131e-07
1.55913e-06
2.94665e-07
1.51102e-06
4.1681e-07
1.46501e-06
5.50728e-07
1.42274e-06
7.0915e-07
1.38522e-06
8.80748e-07
1.35543e-06
1.07992e-06
1.3349e-06
1.30374e-06
1.35264e-06
1.63184e-06
1.42285e-06
2.00999e-06
1.48421e-06
2.33248e-06
1.47605e-06
2.51319e-06
1.36219e-06
2.54545e-06
1.1768e-06
2.51516e-06
9.8716e-07
2.493e-06
8.19301e-07
2.48506e-06
6.70841e-07
2.48273e-06
5.35904e-07
2.48001e-06
4.13992e-07
2.47389e-06
3.04186e-07
2.46266e-06
2.0777e-07
2.44625e-06
1.28107e-07
2.42615e-06
5.95245e-08
2.40793e-06
9.59816e-09
2.38611e-06
-2.45479e-08
2.36187e-06
-4.06358e-08
2.34232e-06
-3.96201e-08
2.32448e-06
-2.7872e-08
2.31125e-06
-7.16067e-09
2.91472e-08
1.70622e-06
1.00808e-07
1.65964e-06
1.83925e-07
1.61348e-06
2.86949e-07
1.56685e-06
4.0561e-07
1.52229e-06
5.37277e-07
1.47846e-06
6.91224e-07
1.44083e-06
8.59778e-07
1.40625e-06
1.05573e-06
1.37964e-06
1.26064e-06
1.37805e-06
1.55053e-06
1.4341e-06
1.92891e-06
1.50413e-06
2.28856e-06
1.52822e-06
2.53545e-06
1.45384e-06
2.62088e-06
1.2868e-06
2.60268e-06
1.08933e-06
2.57183e-06
9.08314e-07
2.5562e-06
7.48091e-07
2.55024e-06
6.03367e-07
2.5445e-06
4.71428e-07
2.53683e-06
3.51101e-07
2.52342e-06
2.43391e-07
2.50377e-06
1.50268e-07
2.47871e-06
7.56018e-08
2.45287e-06
1.46823e-08
2.42496e-06
-2.92006e-08
2.39227e-06
-5.48673e-08
2.36261e-06
-6.08358e-08
2.33803e-06
-5.30918e-08
2.3168e-06
-3.33695e-08
2.29881e-06
-1.10878e-08
2.71797e-08
1.75518e-06
9.59756e-08
1.71108e-06
1.77518e-07
1.66606e-06
2.77858e-07
1.62261e-06
3.94584e-07
1.57796e-06
5.24693e-07
1.53494e-06
6.73268e-07
1.49652e-06
8.40636e-07
1.46003e-06
1.03111e-06
1.43093e-06
1.22529e-06
1.41494e-06
1.47816e-06
1.45064e-06
1.84244e-06
1.52068e-06
2.22558e-06
1.5672e-06
2.53142e-06
1.5323e-06
2.68094e-06
1.39383e-06
2.69216e-06
1.19736e-06
2.6576e-06
1.00368e-06
2.63328e-06
8.31226e-07
2.62212e-06
6.76229e-07
2.61421e-06
5.33677e-07
2.60515e-06
4.03141e-07
2.59031e-06
2.84328e-07
2.56832e-06
1.78873e-07
2.5397e-06
8.93422e-08
2.50671e-06
2.18095e-08
2.47245e-06
-3.26988e-08
2.43124e-06
-6.80914e-08
2.39103e-06
-8.31864e-08
2.35764e-06
-8.03545e-08
2.3288e-06
-6.50152e-08
2.30559e-06
-4.00864e-08
2.28277e-06
-1.56875e-08
2.49031e-08
1.79955e-06
9.03238e-08
1.76087e-06
1.70571e-07
1.71799e-06
2.66429e-07
1.67753e-06
3.82991e-07
1.63429e-06
5.11597e-07
1.59112e-06
6.55373e-07
1.55286e-06
8.21765e-07
1.51534e-06
1.00527e-06
1.48592e-06
1.19633e-06
1.45999e-06
1.41852e-06
1.47479e-06
1.75464e-06
1.53858e-06
2.14874e-06
1.59766e-06
2.50155e-06
1.59712e-06
2.71893e-06
1.49436e-06
2.77656e-06
1.30947e-06
2.74882e-06
1.10613e-06
2.71614e-06
9.20945e-07
2.69898e-06
7.54297e-07
2.68893e-06
6.01543e-07
2.67851e-06
4.60372e-07
2.66307e-06
3.3033e-07
2.63973e-06
2.12981e-07
2.60818e-06
1.10446e-07
2.56941e-06
2.669e-08
2.53002e-06
-3.56449e-08
2.47949e-06
-8.09089e-08
2.42864e-06
-1.05599e-07
2.38445e-06
-1.09896e-07
2.34724e-06
-9.86985e-08
2.31542e-06
-7.47652e-08
2.29157e-06
-4.88317e-08
2.26255e-06
-5.33317e-09
-1.44386e-08
2.24953e-08
1.83846e-06
8.39793e-08
1.80593e-06
1.61751e-07
1.76973e-06
2.5419e-07
1.73031e-06
3.70518e-07
1.68999e-06
4.9658e-07
1.64934e-06
6.36393e-07
1.61016e-06
8.01197e-07
1.57346e-06
9.81421e-07
1.53937e-06
1.1718e-06
1.51053e-06
1.37414e-06
1.50448e-06
1.67153e-06
1.55807e-06
2.06381e-06
1.62355e-06
2.4494e-06
1.64985e-06
2.73102e-06
1.58508e-06
2.84884e-06
1.42211e-06
2.84275e-06
1.21556e-06
2.8053e-06
1.01704e-06
2.78117e-06
8.38869e-07
2.76733e-06
6.75918e-07
2.75613e-06
5.23932e-07
2.74077e-06
3.82762e-07
2.71728e-06
2.5283e-07
2.68407e-06
1.3712e-07
2.64125e-06
3.86539e-08
2.59812e-06
-4.13805e-08
2.53842e-06
-9.44222e-08
2.47685e-06
-1.2904e-07
2.4197e-06
-1.40746e-07
2.37084e-06
-1.33398e-07
2.33069e-06
-1.13867e-07
2.30239e-06
-8.54994e-08
2.27438e-06
-2.78583e-08
-3.27319e-08
1.12077e-06
-3.93039e-09
1.1221e-06
-1.5763e-08
1.91918e-08
1.87225e-06
7.59548e-08
1.84651e-06
1.50334e-07
1.8174e-06
2.41939e-07
1.78206e-06
3.55918e-07
1.745e-06
4.80706e-07
1.70586e-06
6.17627e-07
1.6682e-06
7.7838e-07
1.63301e-06
9.58264e-07
1.59671e-06
1.14466e-06
1.56662e-06
1.33895e-06
1.54581e-06
1.59696e-06
1.57914e-06
1.9784e-06
1.64359e-06
2.38237e-06
1.6906e-06
2.71733e-06
1.66358e-06
2.90217e-06
1.53181e-06
2.93397e-06
1.33086e-06
2.89969e-06
1.12114e-06
2.86788e-06
9.30368e-07
2.84993e-06
7.56263e-07
2.83767e-06
5.94273e-07
2.82299e-06
4.41687e-07
2.80065e-06
2.9926e-07
2.7675e-06
1.69337e-07
2.72333e-06
5.51115e-08
2.6758e-06
-3.89596e-08
2.60946e-06
-1.12328e-07
2.53684e-06
-1.54318e-07
2.46461e-06
-1.73858e-07
2.40128e-06
-1.71081e-07
2.3501e-06
-1.52698e-07
2.31212e-06
-5.95551e-08
-6.39477e-08
1.14424e-06
-4.47046e-08
1.13827e-06
-4.88536e-08
1.12079e-06
-2.65403e-08
1.12478e-06
-3.67041e-08
1.11501e-06
-2.2249e-09
1.11495e-06
-1.56952e-08
1.53429e-08
1.89963e-06
6.67017e-08
1.88153e-06
1.36816e-07
1.86005e-06
2.27331e-07
1.83203e-06
3.38209e-07
1.79979e-06
4.63217e-07
1.76253e-06
5.983e-07
1.72539e-06
7.56201e-07
1.69043e-06
9.35015e-07
1.6563e-06
1.11781e-06
1.62365e-06
1.30926e-06
1.5965e-06
1.53538e-06
1.60754e-06
1.89187e-06
1.6656e-06
2.30595e-06
1.72008e-06
2.6839e-06
1.72409e-06
2.93417e-06
1.6316e-06
3.01701e-06
1.44887e-06
2.99762e-06
1.23305e-06
2.95963e-06
1.0294e-06
2.93618e-06
8.44192e-07
2.92248e-06
6.71497e-07
2.90883e-06
5.08354e-07
2.88867e-06
3.53861e-07
2.85748e-06
2.0938e-07
2.81361e-06
7.90074e-08
2.76235e-06
-3.1385e-08
2.69256e-06
-1.22028e-07
2.60953e-06
-1.84947e-07
2.52266e-06
-2.12256e-07
2.44148e-06
-2.13943e-07
2.3751e-06
-1.95974e-07
2.32522e-06
-7.95822e-08
-8.61017e-08
1.14393e-06
-5.92246e-08
1.14896e-06
-6.89493e-08
1.12582e-06
-4.57258e-08
1.1412e-06
-6.2124e-08
1.13e-06
-5.30139e-08
1.11653e-06
-2.81102e-08
1.11924e-06
-3.94005e-08
1.10948e-06
3.2625e-10
1.10895e-06
-1.51573e-08
1.09942e-08
1.91967e-06
5.55509e-08
1.91086e-06
1.19702e-07
1.89868e-06
2.08056e-07
1.87938e-06
3.17409e-07
1.85286e-06
4.42725e-07
1.82036e-06
5.77764e-07
1.78315e-06
7.33918e-07
1.74768e-06
9.11214e-07
1.71428e-06
1.09263e-06
1.68157e-06
1.2828e-06
1.64998e-06
1.488e-06
1.64394e-06
1.80801e-06
1.69143e-06
2.22295e-06
1.74881e-06
2.6302e-06
1.77383e-06
2.9422e-06
1.71617e-06
3.08877e-06
1.55991e-06
3.09718e-06
1.34927e-06
3.05643e-06
1.13625e-06
3.02632e-06
9.39232e-07
3.01014e-06
7.56635e-07
2.99755e-06
5.83023e-07
2.98048e-06
4.16558e-07
2.95326e-06
2.5808e-07
2.91196e-06
1.11149e-07
2.85878e-06
-1.75155e-08
2.78795e-06
-1.26741e-07
2.69703e-06
-2.09421e-07
2.5963e-06
-2.58487e-07
2.49518e-06
-2.65821e-07
2.40849e-06
-2.47209e-07
2.34311e-06
-1.04105e-07
-1.09635e-07
1.14806e-06
-7.86528e-08
1.15272e-06
-9.07288e-08
1.14358e-06
-7.13088e-08
1.12227e-06
-4.87353e-08
1.1327e-06
-6.48009e-08
1.12595e-06
-5.66753e-08
1.11109e-06
-3.02366e-08
1.1143e-06
-4.25998e-08
1.10251e-06
9.46092e-10
1.10228e-06
-1.49233e-08
5.97969e-09
1.93113e-06
4.12894e-08
1.93396e-06
9.96245e-08
1.93096e-06
1.84961e-07
1.92182e-06
2.92925e-07
1.9039e-06
4.18638e-07
1.87699e-06
5.54267e-07
1.84384e-06
7.08214e-07
1.80894e-06
8.84542e-07
1.77437e-06
1.06603e-06
1.74089e-06
1.25732e-06
1.70693e-06
1.45005e-06
1.68812e-06
1.73255e-06
1.71943e-06
2.1384e-06
1.77605e-06
2.56373e-06
1.81533e-06
2.92596e-06
1.79013e-06
3.13918e-06
1.6658e-06
3.19201e-06
1.46513e-06
3.15998e-06
1.24576e-06
3.12263e-06
1.04e-06
3.10063e-06
8.48581e-07
3.08895e-06
6.65095e-07
3.07518e-06
4.8839e-07
3.05303e-06
3.16826e-07
3.01655e-06
1.53489e-07
2.96403e-06
5.94801e-09
2.89609e-06
-1.25692e-07
2.80031e-06
-2.29978e-07
2.68729e-06
-3.00313e-07
2.56651e-06
-3.29713e-07
2.45413e-06
-3.11322e-07
2.36423e-06
-1.30889e-07
-1.37308e-07
1.15208e-06
-1.03432e-07
1.15748e-06
-1.15001e-07
1.14486e-06
-7.98993e-08
1.14643e-06
-9.22697e-08
1.13557e-06
-7.41481e-08
1.11855e-06
-5.29712e-08
1.12908e-06
-6.79076e-08
1.1232e-06
-6.13054e-08
1.10498e-06
-3.29279e-08
1.10938e-06
-4.69884e-08
1.09596e-06
-1.04421e-09
1.0957e-06
-1.46649e-08
-8.6725e-10
1.93306e-06
2.43172e-08
1.94811e-06
7.74057e-08
1.95621e-06
1.57681e-07
1.95827e-06
2.64342e-07
1.95045e-06
3.90663e-07
1.9319e-06
5.26179e-07
1.9051e-06
6.8064e-07
1.87139e-06
8.57026e-07
1.83652e-06
1.03803e-06
1.80244e-06
1.23114e-06
1.76711e-06
1.4173e-06
1.73993e-06
1.66793e-06
1.75275e-06
2.05353e-06
1.8044e-06
2.48933e-06
1.85048e-06
2.89022e-06
1.85111e-06
3.16818e-06
1.76118e-06
3.27583e-06
1.582e-06
3.26402e-06
1.36117e-06
3.22317e-06
1.14524e-06
3.19632e-06
9.4453e-07
3.18281e-06
7.54792e-07
3.17162e-06
5.68656e-07
3.15566e-06
3.85825e-07
3.12596e-06
2.07501e-07
3.07697e-06
4.0742e-08
3.01594e-06
-1.13802e-07
2.91891e-06
-2.44365e-07
2.79769e-06
-3.40278e-07
2.65817e-06
-3.91852e-07
2.51783e-06
-3.93287e-07
2.39599e-06
-1.65537e-07
-1.774e-07
1.15647e-06
-1.29843e-07
1.16341e-06
-1.44203e-07
1.14706e-06
-1.04027e-07
1.14818e-06
-1.16091e-07
1.13758e-06
-8.18794e-08
1.13889e-06
-9.35519e-08
1.13191e-06
-7.69491e-08
1.11531e-06
-5.88871e-08
1.12679e-06
-7.14724e-08
1.12173e-06
-6.77099e-08
1.09852e-06
-3.57393e-08
1.10399e-06
-5.24411e-08
1.08373e-06
-3.49709e-09
1.08713e-06
-1.80683e-08
-7.89335e-09
1.91838e-06
7.32208e-09
1.95007e-06
5.21103e-08
1.97343e-06
1.26067e-07
1.98785e-06
2.30942e-07
1.99174e-06
3.56897e-07
1.98416e-06
4.93264e-07
1.96487e-06
6.50708e-07
1.93506e-06
8.27297e-07
1.90118e-06
1.008e-06
1.86651e-06
1.20299e-06
1.8306e-06
1.387e-06
1.79752e-06
1.61381e-06
1.79402e-06
1.97013e-06
1.83611e-06
2.40984e-06
1.88394e-06
2.83782e-06
1.90293e-06
3.17366e-06
1.84566e-06
3.34479e-06
1.69227e-06
3.36767e-06
1.47841e-06
3.32746e-06
1.25689e-06
3.29388e-06
1.04767e-06
3.27727e-06
8.50093e-07
3.2696e-06
6.56773e-07
3.25918e-06
4.65145e-07
3.23869e-06
2.73063e-07
3.19833e-06
8.6208e-08
3.14476e-06
-8.79987e-08
3.05226e-06
-2.47046e-07
2.92807e-06
-3.74839e-07
2.77382e-06
-4.55788e-07
2.60598e-06
-4.79868e-07
2.44679e-06
-2.14803e-07
-2.29143e-07
1.16265e-06
-1.64742e-07
1.17266e-06
-1.87374e-07
1.14822e-06
-1.29838e-07
1.1493e-06
-1.45251e-07
1.13945e-06
-1.04555e-07
1.13914e-06
-1.15745e-07
1.13406e-06
-8.40021e-08
1.13465e-06
-9.41119e-08
1.13038e-06
-8.05168e-08
1.11096e-06
-6.58479e-08
1.12595e-06
-7.56691e-08
1.11874e-06
-7.54773e-08
1.09115e-06
-3.97521e-08
1.09829e-06
-5.95737e-08
1.07127e-06
-6.53533e-09
1.07817e-06
-2.49646e-08
-1.65158e-08
1.88838e-06
-1.30118e-08
1.93871e-06
2.34996e-08
1.97872e-06
9.08531e-08
2.00867e-06
1.92369e-07
2.02638e-06
3.1723e-07
2.03136e-06
4.54959e-07
2.02255e-06
6.14642e-07
2.00094e-06
7.92847e-07
1.96957e-06
9.76287e-07
1.933e-06
1.17318e-06
1.89632e-06
1.35912e-06
1.85858e-06
1.56888e-06
1.84237e-06
1.89219e-06
1.87202e-06
2.32804e-06
1.91794e-06
2.774e-06
1.94782e-06
3.15755e-06
1.91909e-06
3.39288e-06
1.79756e-06
3.4626e-06
1.59731e-06
3.43529e-06
1.37062e-06
3.39728e-06
1.1535e-06
3.37297e-06
9.51958e-07
3.36533e-06
7.54404e-07
3.36064e-06
5.55357e-07
3.34994e-06
3.53884e-07
3.323e-06
1.48306e-07
3.27849e-06
-4.74375e-08
3.19951e-06
-2.35234e-07
3.0787e-06
-3.97597e-07
2.91867e-06
-5.19789e-07
2.72524e-06
-5.74897e-07
2.52605e-06
-2.71771e-07
-2.87197e-07
1.17402e-06
-2.1612e-07
1.19066e-06
-2.45745e-07
1.14985e-06
-1.65251e-07
1.15257e-06
-1.90057e-07
1.13797e-06
-1.2863e-07
1.13644e-06
-1.43691e-07
1.13415e-06
-1.04022e-07
1.13246e-06
-1.14017e-07
1.13292e-06
-8.65083e-08
1.13325e-06
-9.44117e-08
1.13035e-06
-8.4895e-08
1.10736e-06
-7.49072e-08
1.12544e-06
-8.23445e-08
1.1171e-06
-8.51959e-08
1.08327e-06
-4.48448e-08
1.09213e-06
-6.84336e-08
1.05468e-06
-8.9026e-09
1.06242e-06
-3.27045e-08
-2.64722e-08
1.8426e-06
-3.92175e-08
1.9146e-06
-1.15745e-08
1.97381e-06
4.96966e-08
2.0199e-06
1.47195e-07
2.05387e-06
2.72178e-07
2.07154e-06
4.09589e-07
2.07676e-06
5.70626e-07
2.06661e-06
7.53061e-07
2.04079e-06
9.4152e-07
2.00435e-06
1.14151e-06
1.96463e-06
1.33193e-06
1.92364e-06
1.53033e-06
1.89708e-06
1.82239e-06
1.91205e-06
2.2469e-06
1.95324e-06
2.70423e-06
1.98778e-06
3.12344e-06
1.98197e-06
3.41975e-06
1.89229e-06
3.5448e-06
1.71538e-06
3.54066e-06
1.49193e-06
3.50036e-06
1.26757e-06
3.47212e-06
1.05423e-06
3.46215e-06
8.54984e-07
3.46118e-06
6.5381e-07
3.45716e-06
4.48249e-07
3.44446e-06
2.325e-07
3.41297e-06
1.39087e-08
3.35618e-06
-2.03865e-07
3.24836e-06
-4.04859e-07
3.09167e-06
-5.70541e-07
2.88635e-06
-6.80839e-07
2.64906e-06
-3.37542e-07
-3.60154e-07
1.19778e-06
-2.78843e-07
1.22558e-06
-3.14948e-07
1.15614e-06
-2.19648e-07
1.16483e-06
-2.54382e-07
1.13466e-06
-1.63427e-07
1.13495e-06
-1.90311e-07
1.12947e-06
-1.25605e-07
1.12602e-06
-1.40205e-07
1.13177e-06
-1.02508e-07
1.12901e-06
-1.11224e-07
1.13414e-06
-9.02702e-08
1.1337e-06
-9.39422e-08
1.1313e-06
-9.07302e-08
1.10397e-06
-8.67334e-08
1.12678e-06
-9.20118e-08
1.11728e-06
-9.84973e-08
1.07164e-06
-5.40524e-08
1.08448e-06
-8.12737e-08
1.03562e-06
-1.1054e-08
1.04483e-06
-4.19108e-08
-3.81288e-08
1.77576e-06
-6.97836e-08
1.87318e-06
-5.36098e-08
1.95666e-06
5.70869e-10
2.02298e-06
9.42208e-08
2.07291e-06
2.19855e-07
2.10623e-06
3.54691e-07
2.12641e-06
5.15831e-07
2.13158e-06
7.04561e-07
2.11524e-06
9.00279e-07
2.08188e-06
1.10621e-06
2.03968e-06
1.30232e-06
1.99425e-06
1.49667e-06
1.95719e-06
1.76249e-06
1.95693e-06
2.16843e-06
1.99056e-06
2.63161e-06
2.02582e-06
3.07641e-06
2.03482e-06
3.42665e-06
1.97511e-06
3.61136e-06
1.82577e-06
3.64228e-06
1.61381e-06
3.60484e-06
1.38743e-06
3.57061e-06
1.16925e-06
3.55774e-06
9.58721e-07
3.56274e-06
7.53448e-07
3.56275e-06
5.48147e-07
3.56208e-06
3.30605e-07
3.54429e-06
1.01024e-07
3.51202e-06
-1.41921e-07
3.42928e-06
-3.84721e-07
3.29144e-06
-6.04587e-07
3.08345e-06
-7.67646e-07
2.83317e-06
-4.1817e-07
-4.4657e-07
1.2464e-06
-3.58293e-07
1.29471e-06
-4.08341e-07
1.1789e-06
-2.9286e-07
1.20483e-06
-3.40783e-07
1.13911e-06
-2.23766e-07
1.15085e-06
-2.66054e-07
1.12333e-06
-1.60707e-07
1.12561e-06
-1.92559e-07
1.12499e-06
-1.21557e-07
1.12226e-06
-1.37457e-07
1.13214e-06
-1.00917e-07
1.12945e-06
-1.0852e-07
1.13612e-06
-9.50732e-08
1.13749e-06
-9.52834e-08
1.13517e-06
-9.90986e-08
1.1004e-06
-1.02644e-07
1.13048e-06
-1.05198e-07
1.11813e-06
-1.16219e-07
1.05907e-06
-6.82944e-08
1.07568e-06
-9.78839e-08
1.01311e-06
-1.40848e-08
1.02511e-06
-5.3915e-08
-5.22418e-08
1.68351e-06
-1.06188e-07
1.81218e-06
-1.03385e-07
1.92297e-06
-5.61466e-08
2.01339e-06
3.40997e-08
2.0831e-06
1.57158e-07
2.13558e-06
2.90831e-07
2.17013e-06
4.4991e-07
2.19225e-06
6.45221e-07
2.19099e-06
8.49939e-07
2.16542e-06
1.06405e-06
2.12417e-06
1.27113e-06
2.07092e-06
1.46676e-06
2.02418e-06
1.71187e-06
2.00776e-06
2.09463e-06
2.03069e-06
2.55902e-06
2.06307e-06
3.02127e-06
2.08099e-06
3.41571e-06
2.04579e-06
3.66057e-06
1.92589e-06
3.73688e-06
1.73115e-06
3.71138e-06
1.50731e-06
3.67063e-06
1.28736e-06
3.6514e-06
1.07561e-06
3.65491e-06
8.6639e-07
3.66521e-06
6.50962e-07
3.67542e-06
4.3487e-07
3.67544e-06
1.99465e-07
3.66318e-06
-5.02657e-08
3.60932e-06
-3.21768e-07
3.50516e-06
-5.9838e-07
3.3221e-06
-8.43157e-07
3.07751e-06
-5.14035e-07
-4.97593e-07
1.33756e-06
-4.60794e-07
1.4162e-06
-5.24791e-07
1.24587e-06
-3.99136e-07
1.30971e-06
-4.7174e-07
1.17891e-06
-3.20815e-07
1.23481e-06
-3.96411e-07
1.14106e-06
-2.39175e-07
1.18274e-06
-3.07653e-07
1.12742e-06
-1.65872e-07
1.15361e-06
-2.18787e-07
1.13004e-06
-1.2214e-07
1.14365e-06
-1.51142e-07
1.13824e-06
-1.01663e-07
1.14458e-06
-1.14894e-07
1.14153e-06
-1.01418e-07
1.14751e-06
-1.01266e-07
1.14169e-06
-1.10292e-07
1.0959e-06
-1.22855e-07
1.13639e-06
-1.23455e-07
1.11795e-06
-1.38274e-07
1.04414e-06
-8.73248e-08
1.06559e-06
-1.19342e-07
9.84264e-07
-1.78701e-08
9.97862e-07
-6.75147e-08
-6.90506e-08
1.55975e-06
-1.50422e-07
1.72777e-06
-1.62828e-07
1.87165e-06
-1.22651e-07
1.98947e-06
-3.50757e-08
2.08256e-06
8.42504e-08
2.15604e-06
2.17791e-07
2.20871e-06
3.73806e-07
2.24627e-06
5.75444e-07
2.26205e-06
7.89471e-07
2.25134e-06
1.01112e-06
2.21838e-06
1.23562e-06
2.15971e-06
1.43879e-06
2.09886e-06
1.66993e-06
2.06606e-06
2.02772e-06
2.07461e-06
2.48803e-06
2.10163e-06
2.96187e-06
2.12256e-06
3.39073e-06
2.106e-06
3.6918e-06
2.0146e-06
3.82047e-06
1.84235e-06
3.81746e-06
1.6251e-06
3.77349e-06
1.40449e-06
3.74529e-06
1.19347e-06
3.7434e-06
9.87268e-07
3.75766e-06
7.73969e-07
3.77843e-06
5.47741e-07
3.80159e-06
3.08953e-07
3.80735e-06
5.52801e-08
3.78602e-06
-2.27033e-07
3.71729e-06
-5.33692e-07
3.58458e-06
-8.60512e-07
3.39572e-06
-1.15983e-06
1.48384e-06
-5.80928e-07
1.62083e-06
-6.33815e-07
1.40068e-06
-5.50896e-07
1.52404e-06
-6.46584e-07
1.32903e-06
-4.92644e-07
1.46238e-06
-6.03623e-07
1.27385e-06
-4.11668e-07
1.42037e-06
-5.42049e-07
1.22434e-06
-3.09972e-07
1.36567e-06
-4.48938e-07
1.18837e-06
-2.1081e-07
1.30115e-06
-3.3198e-07
1.17022e-06
-1.4795e-07
1.24344e-06
-2.24875e-07
1.16208e-06
-1.16321e-07
1.20343e-06
-1.56561e-07
1.1525e-06
-1.12254e-07
1.17598e-06
-1.24884e-07
1.15186e-06
-1.25799e-07
1.08998e-06
-1.47244e-07
1.14139e-06
-1.4693e-07
1.11767e-06
-1.65997e-07
1.02149e-06
-1.10957e-07
1.05057e-06
-1.48427e-07
9.47828e-07
-2.26821e-08
9.64231e-07
-8.39209e-08
-8.90489e-08
1.39739e-06
-2.0576e-07
1.61511e-06
-2.35104e-07
1.80006e-06
-2.01198e-07
1.9502e-06
-1.15166e-07
2.06955e-06
2.05611e-09
2.16478e-06
1.34996e-07
2.23892e-06
2.91217e-07
2.29133e-06
4.96709e-07
2.32475e-06
7.20047e-07
2.33145e-06
9.47918e-07
2.31454e-06
1.19034e-06
2.26367e-06
1.41219e-06
2.18632e-06
1.63656e-06
2.13213e-06
1.96958e-06
2.12413e-06
2.42095e-06
2.14162e-06
2.90228e-06
2.16124e-06
3.3557e-06
2.15758e-06
3.70621e-06
2.09157e-06
3.89e-06
1.94511e-06
3.91949e-06
1.74024e-06
3.87811e-06
1.52051e-06
3.84094e-06
1.30877e-06
3.83148e-06
1.10539e-06
3.84467e-06
9.00235e-07
3.87078e-06
6.81626e-07
3.90605e-06
4.43045e-07
3.93606e-06
1.80444e-07
3.95685e-06
-1.15563e-07
3.92182e-06
-4.31478e-07
3.84361e-06
-7.92368e-07
3.73382e-06
-1.19581e-06
-1.79665e-06
3.91371e-06
-8.01417e-07
-8.41574e-07
1.65982e-06
-7.14426e-07
-7.66831e-07
1.63643e-06
-7.22454e-07
1.83942e-06
-8.45807e-07
1.61548e-06
-6.8597e-07
1.84498e-06
-8.30267e-07
1.57318e-06
-6.18558e-07
1.81797e-06
-7.85449e-07
1.49816e-06
-5.07561e-07
1.75111e-06
-7.02033e-07
1.40649e-06
-3.75059e-07
1.64693e-06
-5.7383e-07
1.31407e-06
-2.59506e-07
1.52105e-06
-4.33912e-07
1.23717e-06
-1.78017e-07
1.38763e-06
-3.08428e-07
1.18371e-06
-1.44288e-07
1.26785e-06
-2.09753e-07
1.18244e-06
-1.67059e-07
1.08083e-06
-1.77525e-07
1.16554e-06
-1.95006e-07
1.12981e-06
-2.15153e-07
9.94099e-07
-1.4083e-07
1.02958e-06
-1.83923e-07
9.02907e-07
-2.6492e-08
9.22327e-07
-1.03343e-07
-1.12239e-07
1.18822e-06
-2.74049e-07
1.46571e-06
-3.23333e-07
1.70337e-06
-2.94298e-07
1.89317e-06
-2.06305e-07
2.04132e-06
-8.80481e-08
2.15969e-06
4.46071e-08
2.25526e-06
2.04018e-07
2.32614e-06
4.10879e-07
2.37687e-06
6.43231e-07
2.40159e-06
8.78927e-07
2.40041e-06
1.13433e-06
2.37058e-06
1.38495e-06
2.29088e-06
1.61297e-06
2.20983e-06
1.92272e-06
2.17889e-06
2.36023e-06
2.18475e-06
2.84454e-06
2.19929e-06
3.31472e-06
2.20217e-06
3.70683e-06
2.15696e-06
3.9449e-06
2.03667e-06
4.01543e-06
1.84928e-06
3.98423e-06
1.63419e-06
3.93891e-06
1.42244e-06
3.91976e-06
1.2205e-06
3.9282e-06
1.02187e-06
3.95628e-06
8.14692e-07
3.99694e-06