/*--------------------------------*- C++ -*----------------------------------*\
  =========                 |
  \\      /  F ield         | OpenFOAM: The Open Source CFD Toolbox
   \\    /   O peration     | Website:  https://openfoam.org
    \\  /    A nd           | Version:  dev
     \\/     M anipulation  |
\*---------------------------------------------------------------------------*/
FoamFile
{
    version     2.0;
    format      ascii;
    class       volScalarField;
    location    "2500";
    object      qr;
}
// * * * * * * * * * * * * * * * * * * * * * * * * * * * * * * * * * * * * * //

dimensions      [1 0 -3 0 0 0 0];

internalField   uniform 0;

boundaryField
{
    lowerOutlet
    {
        type            calculated;
        value           nonuniform List<scalar> 
144
(
1119.42
1123.15
1127.28
1131.8
1136.72
1142.06
1147.81
1154.01
1160.66
1167.77
1175.38
1183.5
1192.16
1201.39
1211.24
1221.73
1232.93
1244.88
1257.64
1271.29
1285.91
1301.6
1318.47
1336.65
1356.33
1377.71
1400.99
1426.42
1454.3
1485.04
1519.13
1557.12
1599.73
1636.33
1689.6
1750.96
1822.29
1906.17
2006.46
2128.73
2281.75
2478.51
2735.1
3067.71
3438.95
3981.65
4549.74
5071.79
-9698.86
3386.14
2841.67
2506.08
2271.68
2077.26
1945.87
1841.48
1756.17
1685.49
1625.82
1574.61
1530.05
1490.84
1456.09
1417.27
1389.98
1365.14
1342.43
1321.56
1302.3
1284.45
1267.86
1252.39
1237.96
1224.45
1211.76
1199.82
1188.56
1177.95
1167.92
1158.45
1149.49
1141.01
1132.99
1125.41
1118.24
1111.45
1105.05
1099.01
1093.32
1087.96
1082.94
1078.24
1073.85
1069.77
1066
1062.53
2064.41
2200.65
2373.8
2598.2
2891.7
3325.8
3833.86
4409.35
5007.33
4801.13
3599.53
2950.22
2578.06
2323.51
2155.57
2007.5
1890.91
1796.75
1719.25
1654.46
1862.46
1953.96
3559.52
4126.11
4690.7
5349.83
4161.9
3216.18
2744.76
2440.19
2223.6
1599.28
1551.59
3219.54
3691.17
4268.62
4839.77
6210.48
3862.4
3073.57
2657.26
2379.52
1662.05
1719.17
1785.25
1509.84
1472.95
1440.15
)
;
    }
    top
    {
        type            calculated;
        value           nonuniform List<scalar> 
100
(
1021.31
1024.28
1027.28
1030.25
1033.19
1036.1
1038.97
1041.81
1044.62
1034.14
1035.66
1037.53
1039.49
1041.73
1043.98
1046.13
1048.12
1049.9
1051.38
1052.53
1053.51
1054.42
1055.36
1056.36
1057.41
1058.53
1059.65
1060.82
1061.69
1060.2
1047.34
1014.75
978.466
955.167
950.336
961.017
983.881
1010.92
1040.28
1068.69
1080.6
1083.39
1084.5
1085.19
1085.68
1086
1086.18
1086.22
1086.15
1086.03
1085.79
1085.44
1084.98
1084.44
1083.81
1083.1
1082.32
1081.46
1080.53
1079.54
1078.44
1077.31
1076.1
1074.73
1073.29
1071.77
1070.08
1068.27
1066.41
1064.33
1062.19
1059.87
1057.53
1055.2
1052.92
1050.75
1048.79
1047.36
1056.89
1054.07
1051.21
1048.31
1045.39
1042.44
1039.46
1036.46
1033.45
1030.43
1027.41
1024.38
1018.59
1014.62
1010.48
1006.52
1002.61
999.298
996.499
994.287
992.761
992.211
)
;
    }
    sides
    {
        type            calculated;
        value           nonuniform List<scalar> 
100
(
1119.43
1122.41
1125
1127.22
1129.07
1130.55
1131.68
1132.45
1132.89
1133
1132.79
1132.28
1131.49
1130.42
1129.1
1127.54
1125.75
1123.75
1121.56
1119.19
1116.66
1113.98
1111.17
1108.24
1105.2
1102.07
1098.86
1095.58
1092.24
1088.86
1085.43
1081.97
1078.48
1074.98
1071.47
1067.97
1064.47
1060.98
1057.5
1054.05
1050.62
1047.21
1043.84
1040.51
1037.2
1033.94
1030.71
1027.53
1024.39
1021.32
1062.54
1065.43
1068.03
1070.35
1072.38
1074.13
1075.6
1076.8
1077.73
1078.4
1078.82
1079
1078.94
1078.66
1078.16
1077.46
1076.57
1075.48
1074.23
1072.81
1071.24
1069.52
1067.68
1065.7
1063.62
1061.43
1059.14
1056.76
1054.31
1051.78
1049.19
1046.53
1043.82
1041.07
1038.27
1035.44
1032.58
1029.7
1026.79
1023.87
1020.93
1017.98
1015.02
1012.06
1009.09
1006.12
1003.15
1000.17
997.202
994.268
)
;
    }
    front
    {
        type            empty;
    }
    back
    {
        type            empty;
    }
    roller
    {
        type            calculated;
        value           nonuniform List<scalar> 
144
(
5809.81
3913.46
3009.06
1671.64
1374.64
1305.06
1264.48
1223.91
1228.87
8267.39
8735.71
6532.5
6413.67
3144.56
2800.55
2188.49
2102.44
1708.43
1507.87
1322.59
1271.82
1289.29
1257.13
5123.74
5498.01
5197.78
2566.49
2424.3
2006.59
2514.91
2424.96
1646.92
1410.9
1378.06
1291.16
1220.6
7859.1
7097.7
4220.02
5933.87
4174.69
4637.51
3108.52
3650.07
3471.22
2635.64
2363.97
1823.66
1777.72
1747.21
1532.98
1425.05
1399.88
1360.74
1348.67
1242.24
1236.61
1238.74
1235.15
6973.95
8751.07
8153.15
2285.39
2205.82
1564.4
1487.53
1427.98
1482.8
1451.61
1215.21
1215.47
1220.66
9503.67
9516.2
4783.97
1888.09
2081.66
2010.48
1585.98
1957.67
1807.96
1505.11
1762.7
1643.7
1441.44
1609.61
1385.49
1299.15
1264.41
1226.88
1231.65
1226.95
1231.78
1216.29
1214.78
1219.13
7417.26
7651.62
2847.6
2150.93
1543.58
1471.07
1567.77
1316.66
1326.71
1272.11
1258.97
1247.2
1242.82
1214.61
1216.47
1222.28
9154.08
9377.08
9406.95
9181.38
4490.59
3752.89
3415.05
3298.15
2292.93
2736.03
1943.57
1615.8
1905.8
1855.63
1523.75
1720.12
1680.45
1455.73
1396.15
1337.02
1357.16
1339.37
1307.8
1280.31
1280.35
1253.58
1247.64
1224.52
1252.02
1217.88
1214.47
1217.72
)
;
    }
    burner
    {
        type            calculated;
        value           nonuniform List<scalar> 
16
(
-124616
-118876
-116076
-117038
-120004
-116502
-116287
-123527
-122939
-117916
-115872
-118311
-121355
-117120
-115924
-120323
)
;
    }
}


// ************************************************************************* //
