/*--------------------------------*- C++ -*----------------------------------*\
  =========                 |
  \\      /  F ield         | OpenFOAM: The Open Source CFD Toolbox
   \\    /   O peration     | Website:  https://openfoam.org
    \\  /    A nd           | Version:  dev
     \\/     M anipulation  |
\*---------------------------------------------------------------------------*/
FoamFile
{
    version     2.0;
    format      ascii;
    class       volScalarField;
    location    "2500";
    object      rAU;
}
// * * * * * * * * * * * * * * * * * * * * * * * * * * * * * * * * * * * * * //

dimensions      [-1 3 1 0 0 0 0];

internalField   nonuniform List<scalar> 
9842
(
0.00822094
0.00828814
0.00824119
0.00827654
0.00839822
0.00817968
0.00825103
0.0083927
0.00840265
0.008129
0.0082307
0.0083895
0.00838784
0.0084149
0.00808118
0.00821765
0.00839396
0.00838023
0.00839737
0.0084235
0.00803703
0.00820715
0.00840371
0.00838076
0.0083826
0.00841144
0.00842759
0.00799664
0.00819498
0.00841412
0.00838628
0.00837397
0.00839521
0.00842098
0.00842967
0.00795918
0.00817999
0.00842242
0.00839795
0.00837078
0.00838071
0.00841049
0.00842567
0.00843094
0.0079242
0.00816489
0.00842539
0.00841021
0.00837368
0.00837032
0.00839547
0.0084201
0.00842848
0.00843192
0.00789158
0.00815148
0.0084266
0.00842003
0.00838274
0.00836466
0.00837999
0.00841073
0.00842499
0.00843005
0.00843252
0.00786098
0.00813917
0.00842888
0.0084262
0.00839694
0.00836528
0.00836781
0.00839658
0.00841999
0.00842753
0.00843135
0.00843289
0.00783219
0.00812536
0.00843173
0.00842967
0.00840988
0.0083716
0.00836094
0.0083804
0.00841097
0.00842484
0.00842956
0.00843232
0.00843328
0.00780522
0.00811068
0.00843364
0.0084323
0.00841931
0.00838395
0.00835838
0.00836687
0.00839756
0.00841967
0.00842755
0.00843099
0.00843311
0.00843344
0.00777992
0.00809565
0.00843428
0.00843335
0.00842506
0.00839952
0.0083614
0.00835813
0.00838145
0.00841199
0.00842442
0.00842926
0.00843202
0.00843372
0.00843369
0.00775625
0.00807919
0.00843498
0.00843389
0.00842903
0.00841238
0.00837123
0.00835292
0.0083669
0.00839948
0.0084201
0.00842749
0.00843076
0.00843284
0.00843416
0.00843379
0.00773426
0.00806238
0.00843497
0.00843414
0.00843062
0.00842047
0.00838719
0.00835338
0.00835552
0.00838375
0.00841341
0.00842495
0.00842933
0.00843193
0.00843353
0.00843461
0.00843378
0.0077138
0.0080454
0.00843542
0.00843451
0.00843188
0.0084257
0.00840275
0.00836028
0.00834856
0.00836717
0.00840158
0.00842135
0.00842766
0.00843091
0.00843296
0.00843423
0.00843494
0.00843382
0.00769495
0.00802817
0.00843543
0.00843483
0.00843248
0.00842878
0.00841489
0.00837387
0.00834629
0.00835371
0.00838599
0.00841452
0.00842593
0.00842953
0.00843191
0.00843365
0.00843482
0.00843525
0.00843393
0.00767776
0.00801071
0.00843544
0.00843506
0.00843317
0.00843006
0.00842159
0.0083914
0.00834967
0.00834536
0.00836817
0.00840359
0.00842252
0.00842862
0.00843104
0.00843292
0.00843441
0.00843527
0.00843551
0.00843392
0.0076622
0.00799287
0.00843546
0.00843519
0.00843388
0.00843082
0.00842566
0.00840578
0.00836058
0.00834045
0.00835355
0.00838795
0.00841585
0.00842701
0.00843047
0.00843224
0.00843392
0.00843504
0.00843568
0.00843567
0.00843402
0.00764826
0.0079748
0.00843545
0.0084353
0.00843442
0.00843177
0.00842878
0.00841717
0.008378
0.00834148
0.00834251
0.00837066
0.00840513
0.00842302
0.00842986
0.00843204
0.00843324
0.00843462
0.00843553
0.00843604
0.0084359
0.00843414
0.00763612
0.00795658
0.00843549
0.00843549
0.00843471
0.00843255
0.00843019
0.00842326
0.00839636
0.00834847
0.00833652
0.0083539
0.00839094
0.00841656
0.00842748
0.00843194
0.00843313
0.00843409
0.00843525
0.00843616
0.00843635
0.00843621
0.00843412
0.00762571
0.00793826
0.00843551
0.00843547
0.00843492
0.00843334
0.0084309
0.00842682
0.00840946
0.0083626
0.00833411
0.00834142
0.00837402
0.00840702
0.00842335
0.00843023
0.00843345
0.00843419
0.00843468
0.00843588
0.00843661
0.00843659
0.00843644
0.00841589
0.00761719
0.00791988
0.00843546
0.00843564
0.00843512
0.00843377
0.00843176
0.00842852
0.00841861
0.00838178
0.00833715
0.00833339
0.00835632
0.00839414
0.00841758
0.00842749
0.00843229
0.0084346
0.00843525
0.00843547
0.00843644
0.00843701
0.00843694
0.00841837
0.00835288
0.00761091
0.00790175
0.0084355
0.0084358
0.00843513
0.00843404
0.008432
0.00843006
0.00842439
0.00839918
0.00834749
0.00832821
0.00834192
0.00837784
0.008409
0.00842397
0.00843033
0.00843396
0.00843586
0.008436
0.00843611
0.00843694
0.00843737
0.00843726
0.00835555
0.00831341
0.0075189
0.00788367
0.00843552
0.00843585
0.0084355
0.00843469
0.00843281
0.00843088
0.00842734
0.00841193
0.00836476
0.00832813
0.00833087
0.00836031
0.00839761
0.00841871
0.00842796
0.00843235
0.00843521
0.00843686
0.00843674
0.00843662
0.00843738
0.00843767
0.0084376
0.0083044
0.00822334
0.00760125
0.00786572
0.00843548
0.00843591
0.00843559
0.00843502
0.00843359
0.00843174
0.00842899
0.00841982
0.00838514
0.00833338
0.00832457
0.00834327
0.00838245
0.0084114
0.00842467
0.00843041
0.00843374
0.0084363
0.00843772
0.00843733
0.00843713
0.00843774
0.008438
0.00842605
0.00831805
0.00840481
0.00759816
0.00784824
0.00843567
0.00843598
0.00843589
0.00843523
0.00843409
0.00843226
0.00843015
0.00842507
0.00840149
0.00834649
0.00832026
0.00833058
0.00836514
0.00840081
0.00842038
0.00842859
0.0084326
0.00843487
0.00843721
0.00843846
0.00843793
0.00843757
0.0084381
0.00843853
0.00842759
0.00840814
0.0084333
0.00759694
0.00783119
0.00843572
0.00843609
0.00843603
0.00843552
0.00843455
0.00843288
0.00843101
0.00842794
0.00841355
0.0083661
0.00832209
0.00832064
0.00834732
0.0083874
0.00841351
0.00842581
0.00843116
0.00843409
0.00843604
0.00843821
0.00843923
0.0084384
0.00843802
0.00843872
0.00843889
0.00843855
0.00843716
0.00843419
0.00759527
0.00781423
0.00843571
0.00843605
0.00843619
0.00843579
0.00843497
0.00843355
0.00843168
0.00842986
0.00842109
0.00838752
0.00832957
0.008315
0.00833107
0.00837084
0.00840456
0.00842162
0.00842922
0.00843305
0.00843524
0.00843697
0.00843892
0.00843981
0.00843901
0.00843852
0.00843911
0.00843911
0.00843865
0.00843842
0.00843368
0.00759497
0.00779781
0.00843597
0.00843612
0.00843658
0.00843623
0.00843552
0.00843429
0.00843256
0.00843135
0.0084255
0.00840317
0.0083447
0.00831167
0.00831924
0.00835252
0.00839218
0.00841613
0.00842669
0.00843176
0.00843428
0.00843618
0.0084377
0.00843961
0.00844051
0.00843962
0.00843901
0.00843932
0.00843925
0.00843873
0.00843863
0.00843291
0.00759718
0.00778188
0.00843601
0.00843642
0.00843683
0.00843639
0.00843598
0.008435
0.00843315
0.0084322
0.00842882
0.00841479
0.00836623
0.00831477
0.00831013
0.00833452
0.00837682
0.00840796
0.00842339
0.0084299
0.00843356
0.00843548
0.00843695
0.00843847
0.00844017
0.00844109
0.00844
0.00843929
0.00843941
0.00843925
0.00843888
0.00843857
0.00843216
0.00759427
0.00776734
0.00843599
0.0084368
0.00843694
0.0084367
0.00843639
0.00843552
0.0084339
0.00843272
0.00843091
0.00842177
0.00838852
0.00832482
0.00830495
0.00831914
0.008359
0.00839681
0.00841809
0.00842784
0.00843231
0.00843479
0.00843649
0.00843767
0.00843895
0.00844069
0.00844172
0.00844031
0.00843934
0.00843944
0.00843912
0.0084388
0.00843776
0.00842135
0.00667291
0.00816366
0.00775461
0.00843588
0.00843701
0.00843721
0.00843719
0.0084368
0.00843602
0.00843449
0.008433
0.00843199
0.00842627
0.0084035
0.00834229
0.00830326
0.00830841
0.00834027
0.00838307
0.00841087
0.00842439
0.00843056
0.00843385
0.00843574
0.00843719
0.0084379
0.00843938
0.00844131
0.00844187
0.0084404
0.00843928
0.00843915
0.00843878
0.00842621
0.0084852
0.00818035
0.00817879
0.00665923
0.00813518
0.00774401
0.00843573
0.00843729
0.00843774
0.00843753
0.00843685
0.0084365
0.0084351
0.0084339
0.00843294
0.0084292
0.00841405
0.00836417
0.00830761
0.00830068
0.00832319
0.00836696
0.00840163
0.00841983
0.00842836
0.00843249
0.00843509
0.00843649
0.00843775
0.00843818
0.0084398
0.00844134
0.00844188
0.00844028
0.00843898
0.00843857
0.00842512
0.00833757
0.00817465
0.00817585
0.00831021
0.00817631
0.00815313
0.00815104
0.00666135
0.00813537
0.0077359
0.00843567
0.00843753
0.00843803
0.00843804
0.00843723
0.0084368
0.00843561
0.00843435
0.00843368
0.00843137
0.00842126
0.0083861
0.00831773
0.00829509
0.00830868
0.0083492
0.00839043
0.00841469
0.0084255
0.008431
0.00843365
0.00843569
0.00843673
0.00843791
0.00843863
0.00843978
0.00844109
0.00844148
0.00843973
0.00843818
0.00842296
0.00817364
0.00817153
0.00814816
0.00814921
0.00814927
0.00815011
0.00815358
0.00815052
0.00666228
0.00813515
0.00772987
0.00843559
0.00843769
0.00843831
0.00843847
0.0084378
0.00843722
0.0084357
0.00843469
0.00843417
0.0084327
0.0084258
0.00840173
0.00833587
0.00829343
0.00829738
0.00832935
0.00837568
0.00840747
0.0084231
0.00842968
0.00843284
0.00843456
0.00843616
0.00843711
0.00843796
0.00843841
0.00843918
0.00844038
0.0084405
0.00843857
0.00842024
0.00816607
0.00816309
0.00814991
0.00814891
0.00814635
0.00814887
0.00814887
0.00815013
0.00815437
0.0081506
0.00666203
0.00813455
0.00769323
0.00843441
0.00843793
0.00843861
0.00843889
0.00843833
0.00843771
0.00843594
0.00843468
0.00843418
0.00843341
0.00842861
0.00841204
0.00835766
0.00829844
0.00829014
0.00831183
0.00835758
0.00839659
0.00841841
0.00842826
0.00843282
0.00843454
0.00843539
0.00843597
0.00843671
0.00843755
0.00843769
0.00843847
0.00843984
0.00843942
0.00841835
0.00815906
0.00815805
0.00814524
0.00814266
0.00814858
0.00814613
0.00814639
0.00814928
0.0081499
0.00815064
0.00815577
0.00815176
0.0066624
0.00813278
0.00759013
0.00838161
0.00843821
0.00843875
0.00843924
0.00843877
0.00843816
0.00843684
0.00843525
0.00843411
0.00843384
0.00843023
0.00841883
0.00837878
0.00830784
0.00828501
0.00829835
0.00833962
0.00838357
0.00841137
0.00842497
0.00843158
0.00843484
0.00843598
0.00843616
0.0084356
0.00843641
0.00843774
0.00843939
0.00844254
0.00844376
0.00841919
0.00815567
0.00815463
0.0081412
0.00814098
0.00814012
0.00814272
0.00814883
0.00812364
0.00814799
0.00815044
0.00815194
0.00815153
0.00815709
0.00815394
0.0066716
0.00813413
0.00774184
0.0082209
0.00842641
0.00843879
0.00843949
0.00843925
0.00843886
0.0084376
0.0084354
0.0084341
0.00843435
0.0084317
0.00842352
0.0083949
0.00832325
0.00828169
0.00828699
0.00832024
0.00836911
0.00840353
0.00842119
0.00842869
0.0084333
0.00843574
0.00843682
0.00843631
0.00843626
0.00843842
0.00844474
0.00844963
0.00845307
0.00842835
0.00815314
0.00816976
0.00814248
0.00814387
0.0081418
0.00814292
0.00810593
0.00813616
0.00815008
0.00812825
0.00815094
0.00815256
0.00815426
0.00815358
0.00816094
0.00815898
0.00670973
0.00815966
0.00775609
0.0084243
0.00838776
0.00843869
0.00843966
0.00843975
0.00843945
0.0084382
0.00843586
0.00843417
0.00843399
0.00843251
0.00842651
0.00840527
0.00834309
0.00828467
0.00827792
0.00830142
0.00835057
0.00839293
0.0084171
0.00842749
0.00843144
0.00843413
0.00843564
0.00843672
0.00843742
0.00844242
0.00845031
0.00845738
0.00846076
0.00843104
0.00818919
0.00819296
0.00812024
0.00807178
0.00809248
0.00809123
0.00811401
0.00810366
0.00811463
0.00812363
0.00815226
0.00815615
0.00815466
0.00815574
0.00815738
0.00815676
0.00818389
0.00817964
0.00677369
0.00821181
0.0077776
0.00843384
0.00842701
0.00843843
0.00843942
0.00843992
0.00843979
0.0084389
0.00843612
0.00843403
0.00843341
0.00843274
0.00842857
0.00841273
0.00836382
0.00829253
0.00827223
0.00828639
0.0083304
0.00837828
0.00840969
0.00842562
0.00843153
0.00843375
0.00843435
0.00843502
0.0084372
0.00844629
0.0084563
0.00846321
0.0084665
0.00842211
0.00818251
0.0081577
0.00817015
0.0081805
0.00806725
0.0080998
0.00805593
0.00811999
0.00808454
0.00812712
0.008159
0.00814801
0.00815609
0.00816468
0.00815997
0.00816911
0.00816209
0.00816588
0.00823465
0.00823463
0.00683943
0.00825981
0.00780797
0.00843261
0.00843634
0.00843764
0.00843893
0.00843981
0.00843957
0.008439
0.00843694
0.0084344
0.00843272
0.00843188
0.00842912
0.00841764
0.00838145
0.00830513
0.00826894
0.00827544
0.00831041
0.00836153
0.00839969
0.00842043
0.00843068
0.00843452
0.00843533
0.00843411
0.0084354
0.00844638
0.00845919
0.00846813
0.00846611
0.00842176
0.00812738
0.00813451
0.00818035
0.00815973
0.0081945
0.00818112
0.00812771
0.00813725
0.00806318
0.00795712
0.00807936
0.00798517
0.00808206
0.00793089
0.00816553
0.0081848
0.00817064
0.00822209
0.00817179
0.00820404
0.00828222
0.00828443
0.00690634
0.00829966
0.00784912
0.00843047
0.00843471
0.00843667
0.00843826
0.00843942
0.00843934
0.00843855
0.00843792
0.00843501
0.00843208
0.00843085
0.00842892
0.00842022
0.00839342
0.00832102
0.00826966
0.00826716
0.00829262
0.00834342
0.00838766
0.00841432
0.00842722
0.00843364
0.00843653
0.00843623
0.00843536
0.00844503
0.0084581
0.00846926
0.00846742
0.00843897
0.00812551
0.0079797
0.00813217
0.00809418
0.00813863
0.00807423
0.00805695
0.00804169
0.00791376
0.00801321
0.00790175
0.00794154
0.00787011
0.00791637
0.00798654
0.00780011
0.00818744
0.00807065
0.00819283
0.00827255
0.00819677
0.00824392
0.0083211
0.00831987
0.00697735
0.00833294
0.00790361
0.00842651
0.00843135
0.00843486
0.00843718
0.00843866
0.00843883
0.00843819
0.00843798
0.00843613
0.00843229
0.00842956
0.00842737
0.00842095
0.00840053
0.00833742
0.00827422
0.00826126
0.00827805
0.00832467
0.00837387
0.0084068
0.00842333
0.00843139
0.00843526
0.0084371
0.00843698
0.0084445
0.00845779
0.00846758
0.00846644
0.00843044
0.00812901
0.00796226
0.0074318
0.00800015
0.0079207
0.00797874
0.00786143
0.00799791
0.00785638
0.00797903
0.00789569
0.00800188
0.00796004
0.00786098
0.00794265
0.0079167
0.00791973
0.0081079
0.00798477
0.0081415
0.00830096
0.00816689
0.00822121
0.00835044
0.00834044
0.00705204
0.00835864
0.00797422
0.00841867
0.00842468
0.0084312
0.00843536
0.00843744
0.00843801
0.00843774
0.00843759
0.00843721
0.00843357
0.00842923
0.00842522
0.00841998
0.00840409
0.00835242
0.00828176
0.00825694
0.00826691
0.00830611
0.00835825
0.00839749
0.0084194
0.00842931
0.0084339
0.00843605
0.0084368
0.00844224
0.00845733
0.00846873
0.00846593
0.00842854
0.00831678
0.00762201
0.00754946
0.00783074
0.00773208
0.00774304
0.00763477
0.00771601
0.00758763
0.00774431
0.00760809
0.00780102
0.0076606
0.00788387
0.00772435
0.00792666
0.0078216
0.00797495
0.00792074
0.00803493
0.00800606
0.00805867
0.00829473
0.00809298
0.00815684
0.00837108
0.00833189
0.00713862
0.00837681
0.00806353
0.00840415
0.00841108
0.00842358
0.00843201
0.00843559
0.00843691
0.00843719
0.00843749
0.00843809
0.00843522
0.00843
0.00842457
0.00841767
0.00840485
0.00836356
0.00829106
0.00825437
0.00825827
0.00828839
0.00834141
0.00838626
0.00841387
0.00842718
0.00843308
0.00843563
0.00843602
0.00843788
0.00845397
0.00846873
0.00846931
0.00842974
0.00831255
0.00749372
0.00743943
0.00733261
0.00725469
0.00752288
0.00741776
0.00748177
0.00738992
0.0074996
0.00735903
0.00755193
0.00739134
0.00760855
0.00745761
0.00767328
0.00752652
0.00776611
0.00762598
0.00791493
0.00773313
0.00799883
0.00789483
0.00801153
0.00820786
0.00803303
0.00808285
0.00837412
0.00828623
0.00723904
0.0083864
0.00817427
0.00838529
0.00838756
0.00840759
0.00842474
0.00843258
0.00843556
0.00843658
0.00843804
0.00843869
0.00843595
0.00843097
0.00842515
0.00841647
0.0084038
0.0083699
0.0083003
0.00825405
0.00825144
0.00827333
0.00832375
0.0083733
0.00840682
0.00842438
0.00843228
0.00843573
0.00843682
0.00843618
0.00844742
0.00846487
0.00847223
0.00843567
0.0083766
0.00741894
0.00717705
0.00717238
0.00711099
0.00707657
0.00698724
0.00726548
0.00715803
0.00724262
0.00715527
0.00725483
0.00708723
0.00731983
0.00707856
0.00738551
0.00716431
0.00744912
0.00726085
0.00753227
0.00737255
0.0077082
0.00748611
0.00788906
0.00768624
0.00789435
0.00814853
0.00791126
0.00794398
0.00834536
0.00819478
0.00735505
0.00837553
0.00818901
0.00837519
0.00836364
0.00838084
0.00840897
0.00842641
0.00843368
0.00843626
0.00843886
0.00843887
0.00843588
0.00843086
0.00842585
0.00841672
0.0084026
0.00837217
0.00830741
0.00825524
0.0082459
0.00826125
0.00830638
0.00835874
0.00839796
0.00842031
0.00843079
0.00843557
0.00843735
0.00843698
0.00844184
0.00845847
0.0084717
0.00844653
0.00838424
0.00797449
0.00705286
0.00685652
0.00688576
0.00681056
0.00701913
0.00693104
0.00701295
0.0069659
0.00694281
0.00713943
0.00686976
0.00713148
0.00695725
0.00715006
0.00703439
0.00692867
0.00709534
0.00703271
0.00717346
0.00708538
0.00746894
0.00726752
0.00769291
0.00747113
0.00771537
0.00801088
0.00774007
0.00778844
0.00827253
0.00809378
0.00749424
0.00834536
0.00823598
0.00835152
0.00835777
0.00838241
0.00841275
0.00843033
0.00843609
0.00843841
0.00843794
0.00843425
0.00842871
0.00842424
0.00841685
0.00840168
0.00837131
0.00831146
0.00825683
0.00824096
0.00825174
0.00828969
0.00834344
0.0083878
0.00841526
0.00842892
0.0084353
0.0084376
0.00843802
0.00843828
0.00845198
0.00846698
0.00845958
0.00839977
0.0082209
0.00677155
0.00683009
0.00672981
0.00673509
0.00684535
0.00677668
0.00704576
0.00697213
0.00703013
0.00699364
0.00703239
0.00724011
0.0070058
0.00733807
0.00710624
0.00743486
0.00717013
0.00718235
0.00720325
0.00724756
0.00724052
0.0072543
0.00744008
0.00738372
0.00757267
0.00745686
0.00761264
0.00785134
0.00762743
0.00745646
0.00818668
0.00794714
0.00765614
0.00828543
0.00816136
0.00833974
0.00836001
0.00838906
0.00842098
0.00843244
0.00843561
0.00843552
0.00842588
0.00840306
0.00833782
0.00832104
0.00840125
0.0083683
0.00831306
0.00825809
0.00823673
0.00824386
0.00827458
0.00832783
0.008376
0.00840878
0.00842627
0.00843458
0.00843794
0.00843887
0.00843784
0.00844455
0.00846085
0.00846365
0.00842119
0.00828907
0.00687812
0.00668648
0.00666168
0.00666653
0.00671292
0.00668201
0.00690832
0.00686074
0.00696493
0.00689945
0.00714382
0.00704588
0.00726767
0.00716956
0.00737449
0.00729885
0.00743496
0.00737448
0.00730138
0.00728155
0.00717297
0.0070821
0.00698728
0.00679807
0.00703297
0.00661846
0.00756088
0.0068986
0.00735578
0.00751268
0.00733325
0.00517612
0.00555966
0.00798489
0.00761443
0.00783399
0.00819854
0.00809659
0.00832847
0.00835301
0.00840252
0.0084234
0.00842971
0.00842912
0.00841833
0.00838167
0.00822252
0.0081799
0.0084004
0.00836552
0.00831243
0.00825832
0.0082326
0.00823697
0.00826164
0.00831236
0.00836333
0.00840083
0.00842268
0.0084333
0.00843838
0.00843993
0.00843949
0.00843906
0.00845274
0.00846169
0.0084232
0.00832137
0.00787128
0.00669959
0.00648993
0.00674107
0.00670394
0.00682522
0.00678399
0.0068465
0.00680537
0.0058698
0.0060165
0.00707065
0.00648395
0.00721587
0.00712448
0.00733928
0.00726984
0.00746422
0.00739235
0.00743637
0.00750009
0.00733196
0.00754717
0.00684755
0.00731918
0.00674317
0.00719276
0.00717699
0.00468181
0.00499534
0.00540134
0.00475189
0.00537725
0.0056637
0.00524695
0.00508012
0.00482354
0.00520829
0.00502216
0.00705595
0.00632251
0.00544699
0.00545222
0.00577821
0.00801652
0.00682536
0.00775053
0.00722553
0.00804044
0.00829397
0.00836554
0.00840742
0.00841876
0.00841739
0.00840951
0.00838707
0.00828625
0.0081554
0.00838076
0.00836345
0.00831115
0.00825754
0.00822878
0.00823074
0.00825046
0.00829778
0.00835009
0.00839176
0.0084179
0.00843146
0.00843822
0.0084408
0.0084412
0.00843942
0.00844357
0.00845569
0.00842311
0.00832301
0.00822982
0.0067659
0.00655967
0.00667594
0.00665987
0.00664344
0.00658865
0.00676084
0.0067036
0.00656322
0.00678057
0.00693873
0.00638281
0.00704424
0.00697938
0.00719867
0.00711872
0.00732823
0.00727457
0.00744717
0.00739324
0.00752142
0.00748905
0.00736978
0.007358
0.00515608
0.00489826
0.00501469
0.00499929
0.00506213
0.00507891
0.0052413
0.00506984
0.0050839
0.00486607
0.00465339
0.00497817
0.00497752
0.00489786
0.00502825
0.00505094
0.00487068
0.00481694
0.00467544
0.00498419
0.00600118
0.00510151
0.00520555
0.00550985
0.00810218
0.00766195
0.00644168
0.00700852
0.00799232
0.00831567
0.00838734
0.00840323
0.00840092
0.00839136
0.00838196
0.00837643
0.00827593
0.00835336
0.00836078
0.00830998
0.008257
0.00822505
0.00822488
0.00824111
0.00828412
0.00833687
0.00838191
0.00841232
0.0084289
0.00843724
0.00844121
0.00844245
0.00844153
0.00843983
0.00844679
0.00842353
0.00832689
0.00821266
0.00777017
0.00650975
0.00630994
0.00654838
0.00652414
0.00658182
0.00650781
0.00672598
0.00665676
0.00614105
0.00658977
0.00709829
0.00713428
0.00707084
0.00706491
0.00722261
0.00719426
0.00735219
0.00732835
0.00744997
0.00741729
0.00733895
0.00730835
0.00497289
0.0049666
0.00498208
0.00501525
0.0048851
0.00487346
0.00486299
0.00496707
0.0049667
0.00490307
0.00492317
0.00495218
0.00500699
0.00490729
0.00500251
0.00498889
0.00490639
0.00497869
0.00498611
0.00495601
0.00494223
0.00496661
0.00496815
0.00579038
0.00502991
0.00511061
0.00535417
0.00742783
0.00752103
0.00707738
0.00778059
0.0062192
0.006791
0.00798732
0.00837143
0.00838495
0.00838488
0.00837373
0.00836538
0.00836255
0.00836823
0.00835591
0.00835588
0.00830865
0.00825673
0.0082222
0.00821924
0.00823301
0.0082714
0.00832405
0.0083713
0.00840566
0.00842567
0.00843589
0.00844099
0.00844298
0.00844318
0.0084413
0.00844085
0.00842629
0.00834314
0.00821438
0.00809707
0.00647472
0.00627315
0.00636132
0.00634146
0.00644341
0.00639435
0.00658941
0.00648503
0.00679214
0.00669864
0.00690074
0.00679526
0.00729595
0.00738349
0.00722893
0.00727938
0.00733051
0.00738483
0.00741232
0.00743797
0.00728563
0.00728099
0.00497924
0.00500407
0.00495323
0.00493969
0.00485226
0.00487708
0.00491299
0.00493436
0.00487716
0.00488896
0.00493572
0.00496347
0.0049479
0.00491198
0.00494223
0.00493225
0.00501151
0.00499996
0.00500675
0.00498482
0.0050076
0.00495894
0.0049577
0.00499819
0.005009
0.00502802
0.00497782
0.00560558
0.00499351
0.00503868
0.00523039
0.00661298
0.00727885
0.00676174
0.00763881
0.00600721
0.00808057
0.00836657
0.00837108
0.00836027
0.00835155
0.00834915
0.00835355
0.00835986
0.00834812
0.00830694
0.0082567
0.00822129
0.00821429
0.0082258
0.00825993
0.00831165
0.0083605
0.00839803
0.00842162
0.00843416
0.00844047
0.00844295
0.00844373
0.00844319
0.00844223
0.00843021
0.00836209
0.00824943
0.00807173
0.00760917
0.00617913
0.00604669
0.00624821
0.00620317
0.00639345
0.00631364
0.00671672
0.0065654
0.00694395
0.0068742
0.00745713
0.00745792
0.00722592
0.00756083
0.0074603
0.00745129
0.00749236
0.00757773
0.00748967
0.00753889
0.00493645
0.00496001
0.00499547
0.00524549
0.00491757
0.00491342
0.00486612
0.0048279
0.00497602
0.0050211
0.00505328
0.00505773
0.00494352
0.00501901
0.00509267
0.00494338
0.00494395
0.005023
0.00509252
0.00499513
0.00500135
0.00500658
0.0049937
0.0049673
0.00501974
0.00496859
0.00496512
0.00502053
0.00503159
0.00505614
0.00501155
0.00545201
0.00497788
0.00499407
0.00513685
0.00583461
0.00644802
0.00716594
0.00789779
0.00757736
0.0081742
0.00835341
0.00835019
0.00834113
0.00833835
0.00834121
0.0083462
0.00833825
0.00830429
0.00825712
0.00822131
0.00821107
0.00821949
0.00824972
0.0083002
0.00834986
0.00838989
0.00841672
0.00843175
0.00843991
0.00844333
0.00844455
0.00844438
0.00844429
0.0084351
0.00837464
0.00828149
0.0077205
0.00784922
0.00616222
0.00605693
0.00607114
0.00602685
0.00620314
0.0061274
0.00642651
0.00630376
0.00696494
0.0067555
0.00738511
0.00718272
0.00775344
0.00781637
0.00707973
0.00786101
0.0076515
0.00754535
0.00760357
0.00769191
0.00729154
0.00743645
0.00481604
0.00485915
0.00490754
0.00518115
0.00505049
0.00502399
0.00498382
0.00491892
0.0051382
0.0051784
0.00519908
0.00519851
0.00511133
0.00519984
0.00526074
0.00495846
0.00504335
0.00521257
0.0052981
0.00517252
0.00497999
0.00500341
0.00499463
0.00500198
0.00502144
0.00500046
0.00499971
0.0050526
0.00504712
0.0050799
0.00505546
0.00533072
0.00497878
0.00497762
0.00506858
0.00570079
0.00629538
0.00697489
0.00761509
0.00733557
0.00837542
0.00833725
0.00833284
0.00832956
0.00833134
0.00833402
0.00832775
0.00830025
0.00825809
0.00822194
0.00820988
0.0082149
0.00824094
0.0082897
0.00834
0.00838209
0.00841163
0.00842904
0.00843858
0.00844454
0.00844636
0.00844695
0.00844662
0.00843634
0.00837679
0.00827729
0.00770844
0.00797579
0.00745797
0.00586831
0.0057872
0.006024
0.00593393
0.00624439
0.00612701
0.00656115
0.00638851
0.00732727
0.00706186
0.00768602
0.00749098
0.00802166
0.00806269
0.0075165
0.00807213
0.00778878
0.00776995
0.00749411
0.00776426
0.00526504
0.0053306
0.00547986
0.00541197
0.00487195
0.00490952
0.00497264
0.00505836
0.00518212
0.00514764
0.00509306
0.00501582
0.00529285
0.00532167
0.0053305
0.00531772
0.0052971
0.00536719
0.00540647
0.00510267
0.00524512
0.0053955
0.00547493
0.00537672
0.00504956
0.00502572
0.00510329
0.00518357
0.00505254
0.00505572
0.00504627
0.00508879
0.00509935
0.00512751
0.00511071
0.00524495
0.00500549
0.0049892
0.00502811
0.00558449
0.00612603
0.00667754
0.00721465
0.00702067
0.00832537
0.00832246
0.00832118
0.0083227
0.0083236
0.00831693
0.00829477
0.00825886
0.00822394
0.00820966
0.00821259
0.00823415
0.00828087
0.00833083
0.00837495
0.00840697
0.00842677
0.00843744
0.00844446
0.00844838
0.00844919
0.00844969
0.00843095
0.00837488
0.00826501
0.0081742
0.00797251
0.0077644
0.00588269
0.00569947
0.00582748
0.00575768
0.00605155
0.00592095
0.00638446
0.00620951
0.00680965
0.00658286
0.00749219
0.00735446
0.00801704
0.0077912
0.00811146
0.00812925
0.00801001
0.0079917
0.00784435
0.00793191
0.0055464
0.00577675
0.00746927
0.00520432
0.00527243
0.00541144
0.00534696
0.00495135
0.00498242
0.00504642
0.00513369
0.00528646
0.00523505
0.00515979
0.00506947
0.00541917
0.00543004
0.00541879
0.00538373
0.00545227
0.00549469
0.00550509
0.0053295
0.00544246
0.00552957
0.00557491
0.00553004
0.00525585
0.00515679
0.00532044
0.00541708
0.00519788
0.00512479
0.00510376
0.00515345
0.00524129
0.00526284
0.00517989
0.00518276
0.00506382
0.00502548
0.00501421
0.00547416
0.00593597
0.00637505
0.0072444
0.00685301
0.00827953
0.00831116
0.00831271
0.00831393
0.00830658
0.00828814
0.00825877
0.00822744
0.00821078
0.00821236
0.00822967
0.00827404
0.00832321
0.00836744
0.00840195
0.00842405
0.00843663
0.00844364
0.00844847
0.00845
0.00845032
0.00842017
0.00836436
0.008259
0.00814922
0.00720494
0.00774088
0.00734784
0.00566936
0.00560907
0.00588588
0.00577132
0.00618723
0.00601941
0.00663374
0.00639528
0.0071843
0.00689854
0.00799492
0.00782554
0.00812176
0.00807913
0.00804363
0.00815915
0.00779467
0.0077134
0.00759098
0.0078971
0.00546208
0.00570864
0.00554376
0.00556341
0.0052581
0.00530565
0.00539445
0.005356
0.00502643
0.0050678
0.00512887
0.00520495
0.00532992
0.00525847
0.00516701
0.00509733
0.00549083
0.0054743
0.00543454
0.00537565
0.00554749
0.00555326
0.00552756
0.0055185
0.00556172
0.00557735
0.00555925
0.0055779
0.00547417
0.00537843
0.00552282
0.00556833
0.00541384
0.00520416
0.00518631
0.00526697
0.00545157
0.00544631
0.00527011
0.00513212
0.00514551
0.00509783
0.00502375
0.00537485
0.0057554
0.00604318
0.00682762
0.00694232
0.00823659
0.00830153
0.00830197
0.0082971
0.00828122
0.00825814
0.00823152
0.00821446
0.00821362
0.00822824
0.00826832
0.00831687
0.00836025
0.00839556
0.00841983
0.00843422
0.00844235
0.00844719
0.0084494
0.00845005
0.00840701
0.00833911
0.00825705
0.00814044
0.00671407
0.00767663
0.00768973
0.00571763
0.00542576
0.00573496
0.00562164
0.00604847
0.0058779
0.00645991
0.00624096
0.00701533
0.00671831
0.0075745
0.00727744
0.00811904
0.00799727
0.00816695
0.00815486
0.00794565
0.00816578
0.0076394
0.00796347
0.00558842
0.00578002
0.00748965
0.00541989
0.00546023
0.00543006
0.00544502
0.00529385
0.00531754
0.00535579
0.00533948
0.00511155
0.00516083
0.00520651
0.00526202
0.00530478
0.00522919
0.00516638
0.00516305
0.00548127
0.00543663
0.00537798
0.00531656
0.00555335
0.00551678
0.00545668
0.00559145
0.00555977
0.00551728
0.00547188
0.00551689
0.00559147
0.00555909
0.00561411
0.00559471
0.00559132
0.00530157
0.00529073
0.00540268
0.00560122
0.00555754
0.00538103
0.00509207
0.00526264
0.00524275
0.00507234
0.00529124
0.0056688
0.0060887
0.0058838
0.00722217
0.00819413
0.00829013
0.00828654
0.00827467
0.00825666
0.0082358
0.00821964
0.00821612
0.0082287
0.00826447
0.00831054
0.00835361
0.0083889
0.00841449
0.00843033
0.00843946
0.00844506
0.00844845
0.0084494
0.00839696
0.00831331
0.00823964
0.00814338
0.0070068
0.00787972
0.00762168
0.00722673
0.00565272
0.00561036
0.0059284
0.00577659
0.00633975
0.00611521
0.00687044
0.00660103
0.00740839
0.00710616
0.00787696
0.00772152
0.00817566
0.00814207
0.008196
0.00819207
0.00805409
0.00814849
0.0056616
0.00592365
0.00758658
0.00547086
0.00571083
0.00556728
0.00551946
0.00536418
0.00539242
0.00536546
0.00537022
0.00531175
0.00531372
0.00531672
0.00531301
0.00520975
0.00524418
0.00526826
0.00530122
0.00526622
0.00523987
0.00524599
0.00527173
0.00539645
0.00535648
0.00532368
0.00530709
0.00547072
0.0054216
0.00536754
0.005556
0.00550352
0.00543207
0.00528136
0.00545698
0.00560118
0.00562961
0.00561544
0.00557088
0.00564942
0.00542896
0.0054477
0.00550459
0.00562237
0.005584
0.00555396
0.00510809
0.00547727
0.00547697
0.00521708
0.005301
0.00592384
0.00657759
0.00447439
0.00761572
0.00815176
0.00827745
0.00826852
0.00825358
0.00823834
0.00822526
0.00821991
0.00822909
0.00826221
0.0083054
0.00834725
0.00838277
0.00840908
0.00842571
0.00843553
0.00837258
0.00834085
0.0084492
0.00841219
0.00799432
0.00822144
0.00814195
0.0077056
0.0079036
0.00763141
0.0076208
0.0058096
0.00560028
0.00590526
0.00576151
0.00628257
0.00607693
0.00673026
0.00652714
0.00718555
0.00695959
0.00764647
0.00744652
0.00800507
0.0077915
0.00820185
0.00818267
0.00821162
0.00821946
0.00778187
0.00811155
0.00560957
0.00590059
0.00573108
0.00584884
0.00540263
0.00546416
0.00551609
0.00545703
0.00531818
0.00534115
0.00532738
0.00533164
0.00533065
0.00531878
0.0053006
0.00530519
0.00530202
0.00531573
0.0053219
0.00533567
0.00533191
0.00536053
0.00538264
0.00539145
0.00534316
0.00536271
0.0054157
0.00546433
0.0054064
0.00539078
0.00540599
0.00546279
0.00518914
0.00520176
0.00494367
0.00501293
0.00557634
0.00561952
0.00538595
0.00523113
0.00561723
0.00563707
0.0057096
0.00566229
0.00559383
0.00571039
0.00580538
0.00525361
0.00575069
0.00572606
0.00544494
0.00559807
0.00630816
0.0070199
0.0034996
0.00780808
0.00811233
0.00824573
0.00825094
0.00823764
0.00822834
0.00822433
0.00823023
0.00826045
0.00830198
0.00834223
0.00837717
0.00840352
0.00842014
0.00843029
0.00822395
0.00821265
0.00824468
0.00840212