/*--------------------------------*- C++ -*----------------------------------*\
  =========                 |
  \\      /  F ield         | OpenFOAM: The Open Source CFD Toolbox
   \\    /   O peration     | Website:  https://openfoam.org
    \\  /    A nd           | Version:  dev
     \\/     M anipulation  |
\*---------------------------------------------------------------------------*/
FoamFile
{
    version     2.0;
    format      ascii;
    class       volScalarField;
    location    "2500";
    object      rho;
}
// * * * * * * * * * * * * * * * * * * * * * * * * * * * * * * * * * * * * * //

dimensions      [1 -3 0 0 0 0 0];

internalField   nonuniform List<scalar> 
9842
(
1.17172
1.17156
1.17168
1.17156
1.17124
1.17168
1.17154
1.17101
1.17124
1.17177
1.17164
1.17099
1.17087
1.17129
1.17182
1.17164
1.17098
1.17068
1.17091
1.17143
1.17182
1.17163
1.17101
1.17057
1.1706
1.17101
1.17151
1.17185
1.17166
1.17116
1.17062
1.17037
1.17069
1.17117
1.17157
1.17187
1.17172
1.17118
1.1706
1.17025
1.17034
1.17077
1.17129
1.17162
1.17188
1.17173
1.17122
1.17067
1.17025
1.17014
1.17044
1.17093
1.17133
1.17164
1.17189
1.17175
1.17126
1.17074
1.17032
1.17002
1.17016
1.17055
1.17104
1.17141
1.17167
1.17191
1.17174
1.17132
1.17085
1.17032
1.16995
1.16996
1.17023
1.17072
1.17115
1.17145
1.1717
1.17191
1.17176
1.1714
1.17099
1.17041
1.16997
1.16981
1.16999
1.17042
1.17085
1.17119
1.17148
1.17171
1.17192
1.17177
1.17139
1.17099
1.17056
1.16999
1.16975
1.1698
1.17013
1.1706
1.17095
1.17124
1.1715
1.17173
1.17193
1.17178
1.17143
1.17104
1.17069
1.17003
1.16972
1.16966
1.16986
1.17025
1.17073
1.17104
1.1713
1.17153
1.17174
1.17193
1.1718
1.17148
1.17109
1.17071
1.17011
1.16976
1.16957
1.16967
1.16998
1.17045
1.17079
1.17109
1.17135
1.17155
1.17175
1.17194
1.17181
1.17152
1.17116
1.1708
1.17031
1.1698
1.16951
1.1695
1.16973
1.1701
1.17054
1.17088
1.17114
1.17138
1.17157
1.17177
1.17195
1.17182
1.1715
1.1712
1.17081
1.17041
1.16989
1.16953
1.16941
1.16953
1.16986
1.17028
1.17065
1.17093
1.17117
1.1714
1.1716
1.17178
1.17195
1.17182
1.17153
1.17124
1.17087
1.17048
1.16998
1.16959
1.16936
1.16938
1.16962
1.17002
1.1704
1.17074
1.171
1.17122
1.17141
1.17161
1.17177
1.17196
1.17182
1.17155
1.17127
1.17092
1.17059
1.17018
1.1697
1.16936
1.16928
1.16942
1.16976
1.17014
1.1705
1.1708
1.17105
1.17124
1.17143
1.17161
1.17179
1.17195
1.17182
1.17157
1.17131
1.17097
1.17068
1.17034
1.16985
1.1694
1.16922
1.16927
1.16952
1.16988
1.17027
1.17059
1.17084
1.17106
1.17126
1.17145
1.17163
1.17179
1.17195
1.17183
1.17159
1.17133
1.17101
1.17071
1.17035
1.16987
1.16943
1.16919
1.16916
1.16933
1.16965
1.17004
1.17037
1.17064
1.17089
1.1711
1.1713
1.17147
1.17163
1.17179
1.17195
1.17184
1.1716
1.17135
1.17106
1.17076
1.17042
1.17001
1.16954
1.16921
1.16909
1.16917
1.16942
1.16979
1.17014
1.17045
1.17072
1.17093
1.17113
1.1713
1.17147
1.17163
1.1718
1.17195
1.17185
1.17161
1.17138
1.1711
1.1708
1.17051
1.17014
1.1697
1.16927
1.16907
1.16906
1.16923
1.16957
1.16993
1.17025
1.17052
1.17077
1.17098
1.17114
1.17131
1.17149
1.17164
1.17179
1.17195
1.17186
1.17163
1.17139
1.17113
1.17087
1.17055
1.17029
1.1698
1.16936
1.16907
1.16898
1.16908
1.16936
1.16972
1.17005
1.17033
1.1706
1.17079
1.17099
1.17116
1.17133
1.17149
1.17164
1.1718
1.17196
1.17184
1.17163
1.1714
1.17119
1.17094
1.17066
1.17033
1.16986
1.16947
1.16912
1.16893
1.16896
1.16917
1.16952
1.16984
1.17013
1.17038
1.17063
1.17083
1.17101
1.17118
1.17133
1.17149
1.17164
1.17179
1.17195
1.17185
1.17164
1.17142
1.1712
1.17094
1.17069
1.17039
1.17001
1.16956
1.1692
1.16893
1.16887
1.16901
1.16928
1.16964
1.16994
1.17021
1.17045
1.17067
1.17086
1.17103
1.17119
1.17134
1.17149
1.17164
1.17179
1.17195
1.17186
1.17167
1.17144
1.17124
1.17098
1.17072
1.17043
1.17015
1.16968
1.16927
1.16896
1.16882
1.16887
1.1691
1.16944
1.16976
1.17007
1.1703
1.1705
1.1707
1.17089
1.17105
1.1712
1.17135
1.17149
1.17164
1.17179
1.17194
1.17185
1.17166
1.17146
1.17125
1.17102
1.17078
1.1705
1.17023
1.16976
1.16938
1.16901
1.1688
1.16878
1.16893
1.16923
1.16956
1.16985
1.17011
1.17036
1.17055
1.17074
1.1709
1.17106
1.17121
1.17135
1.17149
1.17163
1.17178
1.17195
1.17186
1.17167
1.17148
1.17128
1.17105
1.17082
1.17055
1.17029
1.1699
1.16947
1.16912
1.16882
1.16872
1.1688
1.16903
1.16937
1.16968
1.16994
1.17017
1.17039
1.17057
1.17076
1.17093
1.17106
1.17121
1.17135
1.17148
1.17162
1.17177
1.17194
1.17187
1.17169
1.17151
1.17131
1.17109
1.17088
1.1706
1.17035
1.16999
1.16955
1.16919
1.16886
1.1687
1.1687
1.16887
1.16916
1.16949
1.16979
1.17001
1.17023
1.17043
1.17061
1.17079
1.17092
1.17108
1.17121
1.17135
1.17148
1.17162
1.17177
1.17193
1.17186
1.17168
1.17153
1.17131
1.1711
1.1709
1.17064
1.17038
1.17004
1.16972
1.16928
1.16894
1.1687
1.16863
1.16874
1.16898
1.16928
1.16959
1.16985
1.1701
1.17028
1.17046
1.17063
1.17079
1.17093
1.17107
1.17121
1.17134
1.17147
1.17161
1.17176
1.17193
1.17187
1.17169
1.17153
1.17132
1.17114
1.17092
1.17068
1.17045
1.17013
1.1698
1.16938
1.16903
1.16874
1.16859
1.16863
1.16882
1.16909
1.16939
1.1697
1.16991
1.17014
1.17032
1.17048
1.17065
1.1708
1.17094
1.17106
1.1712
1.17133
1.17145
1.17159
1.17175
1.17193
1.17187
1.1717
1.17153
1.17136
1.17118
1.17095
1.17073
1.17047
1.17021
1.16988
1.16951
1.16911
1.16879
1.16858
1.16855
1.16869
1.16894
1.16922
1.1695
1.16976
1.16998
1.17017
1.17034
1.17051
1.17067
1.17079
1.17094
1.17106
1.17119
1.17131
1.17144
1.17158
1.17174
1.17201
1.17191
1.17186
1.1717
1.17154
1.17138
1.17118
1.17097
1.17078
1.17053
1.1703
1.16998
1.16962
1.16925
1.16886
1.16861
1.16849
1.16856
1.16876
1.16906
1.16934
1.16962
1.16984
1.17004
1.1702
1.17041
1.17052
1.17066
1.17081
1.17094
1.17106
1.17117
1.17129
1.17142
1.1716
1.17181
1.17171
1.17201
1.17191
1.17186
1.17171
1.17154
1.17137
1.1712
1.17104
1.17081
1.17058
1.17032
1.17005
1.16975
1.16936
1.16896
1.16864
1.16847
1.16848
1.16862
1.16888
1.1692
1.16944
1.1697
1.16988
1.17007
1.17021
1.17043
1.17053
1.17068
1.17081
1.17093
1.17104
1.17115
1.17127
1.17145
1.17138
1.17162
1.1715
1.17153
1.1718
1.17171
1.17202
1.1719
1.17187
1.17171
1.17154
1.17139
1.17121
1.17105
1.17084
1.17061
1.17038
1.17012
1.16983
1.16947
1.16905
1.16871
1.16848
1.1684
1.16851
1.1687
1.16899
1.16932
1.16953
1.16977
1.16993
1.17013
1.17024
1.17042
1.17054
1.17069
1.1708
1.17092
1.17102
1.17114
1.17131
1.17124
1.17141
1.17161
1.17145
1.17152
1.1718
1.17169
1.17201
1.1719
1.17187
1.1717
1.17156
1.1714
1.17123
1.17106
1.17086
1.17068
1.17041
1.17016
1.1699
1.16957
1.16915
1.16877
1.1685
1.16837
1.16841
1.16857
1.16882
1.1691
1.1694
1.16962
1.16981
1.16995
1.17011
1.17027
1.17043
1.17056
1.17068
1.1708
1.1709
1.171
1.17117
1.1711
1.17132
1.17124
1.17136
1.17159
1.17143
1.1715
1.17179
1.17168
1.17201
1.17189
1.17186
1.1717
1.17157
1.17139
1.17125
1.17107
1.17088
1.17074
1.17049
1.17022
1.16995
1.16967
1.16923
1.16886
1.16855
1.16836
1.16834
1.16845
1.16868
1.16895
1.16923
1.16945
1.16967
1.16984
1.17
1.17016
1.17028
1.17044
1.17057
1.17068
1.17077
1.17088
1.17103
1.17097
1.17117
1.17109
1.17128
1.17121
1.17134
1.17158
1.17141
1.17148
1.17178
1.17166
1.17201
1.17188
1.17185
1.1717
1.17155
1.1714
1.17126
1.17109
1.17091
1.17072
1.17049
1.1703
1.17001
1.16978
1.16934
1.16895
1.1686
1.16838
1.16829
1.16835
1.16854
1.16879
1.16906
1.16931
1.16952
1.16971
1.16986
1.17005
1.17015
1.17028
1.17045
1.17057
1.17066
1.17075
1.1709
1.17084
1.17102
1.17095
1.17113
1.17106
1.17126
1.17118
1.17132
1.17156
1.17138
1.17145
1.17176
1.17164
1.17201
1.17187
1.17185
1.17172
1.17155
1.1714
1.17127
1.17111
1.17092
1.17074
1.17056
1.17035
1.17003
1.16983
1.16942
1.16904
1.1687
1.16841
1.16827
1.16827
1.1684
1.16864
1.16891
1.1692
1.16939
1.16958
1.16974
1.16992
1.17006
1.17018
1.17027
1.17047
1.17056
1.17064
1.17077
1.17071
1.17088
1.17081
1.17099
1.17091
1.1711
1.17103
1.17123
1.17115
1.17129
1.17153
1.17135
1.17142
1.17175
1.17162
1.172
1.17186
1.17185
1.17169
1.17155
1.1714
1.17125
1.1711
1.17092
1.17077
1.17059
1.17038
1.1701
1.16988
1.16952
1.16918
1.16877
1.16846
1.16827
1.16821
1.16829
1.1685
1.16876
1.16903
1.16927
1.16944
1.16964
1.16978
1.16996
1.17009
1.17019
1.17026
1.17048
1.17054
1.17064
1.17056
1.17074
1.17066
1.17084
1.17076
1.17095
1.17087
1.17107
1.17099
1.1712
1.17111
1.17126
1.1715
1.17132
1.17139
1.17173
1.1716
1.17199
1.17185
1.17184
1.17168
1.17155
1.17139
1.17126
1.17111
1.17093
1.17077
1.17065
1.17042
1.17018
1.16991
1.16958
1.16926
1.16883
1.16851
1.16828
1.16817
1.16821
1.16836
1.16863
1.16886
1.16913
1.16932
1.1695
1.16966
1.16985
1.16997
1.17008
1.17019
1.17026
1.17043
1.17047
1.17034
1.17055
1.17041
1.17066
1.1705
1.17077
1.17064
1.1709
1.17078
1.17102
1.17092
1.17116
1.17106
1.17122
1.17147
1.17128
1.17135
1.17171
1.17157
1.17199
1.17183
1.17184
1.17168
1.17154
1.1714
1.17126
1.17112
1.17098
1.17081
1.17064
1.17041
1.17021
1.17002
1.16967
1.16932
1.16892
1.16858
1.16831
1.16816
1.16814
1.16825
1.16846
1.16873
1.16896
1.16922
1.16939
1.16956
1.16971
1.16988
1.16998
1.17007
1.17016
1.17018
1.17016
1.16992
1.17015
1.16969
1.17022
1.16966
1.17038
1.16984
1.17058
1.17016
1.17077
1.17048
1.17094
1.17075
1.17111
1.17097
1.17116
1.17143
1.17122
1.17129
1.17168
1.17153
1.17198
1.17182
1.17182
1.17166
1.17153
1.17139
1.17124
1.17111
1.17099
1.17089
1.1706
1.17043
1.17025
1.17004
1.16973
1.16939
1.16901
1.16865
1.16834
1.16816
1.16809
1.16815
1.16833
1.16856
1.16882
1.16905
1.16926
1.16943
1.16962
1.16975
1.16991
1.16997
1.17001
1.16986
1.16953
1.16963
1.16908
1.16812
1.16863
1.16707
1.16868
1.16651
1.16914
1.16693
1.16977
1.16803
1.17032
1.16918
1.17072
1.1701
1.171
1.17068
1.17104
1.17138
1.1711
1.17118
1.17165
1.17149
1.17197
1.17179
1.17181
1.17164
1.1715
1.17137
1.17122
1.17109
1.171
1.17091
1.17064
1.17043
1.17026
1.17008
1.16983
1.16946
1.16909
1.16874
1.16839
1.16816
1.16806
1.16808
1.16822
1.16843
1.16871
1.16892
1.16913
1.16933
1.16951
1.16965
1.16977
1.16993
1.16997
1.16956
1.16637
1.1672
1.16529
1.1651
1.16269
1.16358
1.16004
1.16323
1.15868
1.16431
1.15905
1.16644
1.16103
1.16839
1.16431
1.16983
1.16743
1.17066
1.16956
1.17067
1.17129
1.17072
1.17084
1.17161
1.17142
1.17196
1.17177
1.17178
1.1716
1.17146
1.17134
1.1712
1.17107
1.171
1.17092
1.17071
1.1704
1.17026
1.17011
1.16987
1.16955
1.16916
1.16879
1.16843
1.16818
1.16804
1.16801
1.16811
1.16831
1.16853
1.16879
1.169
1.1692
1.16936
1.16955
1.16969
1.1698
1.16991
1.16955
1.16545
1.15587
1.15401
1.1602
1.15777
1.15627
1.1524
1.15379
1.14885
1.15319
1.14725
1.1545
1.14765
1.15747
1.14992
1.16188
1.15382
1.1664
1.15933
1.16933
1.16548
1.16924
1.17102
1.1693
1.16956
1.17156
1.17124
1.17194
1.17173
1.17173
1.17153
1.1714
1.17129
1.17115
1.17104
1.17099
1.1709
1.17071
1.17033
1.17022
1.17012
1.16991
1.16962
1.16925
1.16886
1.16851
1.16821
1.16803
1.16796
1.16802
1.16818
1.16841
1.16866
1.16888
1.16906
1.16927
1.16942
1.16956
1.16972
1.16981
1.16954
1.16569
1.15278
1.15191
1.14321
1.14123
1.14884
1.14575
1.14418
1.13978
1.14156
1.13624
1.14097
1.13466
1.1423
1.13498
1.14532
1.13705
1.15008
1.14074
1.15684
1.14639
1.16478
1.15478
1.16444
1.17005
1.16457
1.16543
1.17147
1.17063
1.17193
1.17168
1.17167
1.17143
1.17128
1.1712
1.17109
1.17102
1.17095
1.17084
1.17059
1.17024
1.17016
1.17011
1.16991
1.16967
1.16932
1.16894
1.16856
1.16825
1.16803
1.16793
1.16794
1.16807
1.16827
1.1685
1.16874
1.16894
1.16909
1.1693
1.16949
1.16958
1.16971
1.16954
1.16564
1.15194
1.15325
1.13981
1.13912
1.13041
1.12862
1.13599
1.13285
1.13144
1.1271
1.12888
1.12369
1.12819
1.12205
1.12923
1.12206
1.13178
1.12357
1.13611
1.12654
1.14292
1.1316
1.1533
1.13992
1.1526
1.16695
1.15319
1.1556
1.17117
1.16866
1.1719
1.17157
1.17168
1.17139
1.17118
1.17104
1.17097
1.17097
1.17088
1.1707
1.17036
1.17014
1.17006
1.17002
1.16987
1.16967
1.16936
1.16901
1.16862
1.1683
1.16804
1.16791
1.16788
1.16797
1.16816
1.16839
1.16863
1.16883
1.169
1.16913
1.16932
1.16951
1.16962
1.16959
1.1662
1.14653
1.13906
1.1378
1.12748
1.12734
1.11895
1.11869
1.12356
1.12082
1.11927
1.11548
1.11671
1.11225
1.11573
1.11039
1.11618
1.10978
1.11788
1.11037
1.12128
1.11225
1.12738
1.11624
1.13759
1.12365
1.13633
1.15929
1.1366
1.13923
1.1702
1.16338
1.17187
1.17127
1.17157
1.1712
1.17095
1.17075
1.17081
1.17064
1.17044
1.17022
1.17007
1.16997
1.1699
1.16987
1.1697
1.16939
1.16905
1.1687
1.16834
1.16805
1.16789
1.16783
1.16789
1.16803
1.16825
1.16849
1.1687
1.16892
1.16906
1.16917
1.16934
1.16951
1.1696
1.16767
1.15031
1.12949
1.13105
1.12764
1.12831
1.1192
1.12033
1.1131
1.11488
1.11281
1.11234
1.10881
1.10686
1.10609
1.10303
1.10454
1.10057
1.10405
1.099
1.1046
1.0984
1.10674
1.09897
1.11158
1.10157
1.1208
1.1075
1.11915
1.14465
1.11924
1.12181
1.16757
1.15335
1.17181
1.17056
1.1716
1.17103
1.17068
1.17052
1.17031
1.17027
1.17018
1.16995
1.16987
1.16978
1.16976
1.16964
1.16935
1.16909
1.16874
1.16836
1.16807
1.16789
1.16779
1.16781
1.16793
1.16813
1.16836
1.16858
1.1688
1.16899
1.16912
1.16923
1.16938
1.16952
1.1687
1.1559
1.13268
1.13631
1.12448
1.12561
1.12174
1.1231
1.11694
1.11902
1.11211
1.11548
1.1074
1.10923
1.10201
1.1032
1.09779
1.09761
1.09536
1.09315
1.09364
1.09042
1.09289
1.08848
1.0936
1.08768
1.09685
1.08875
1.10441
1.09283
1.10265
1.12743
1.10263
1.10428
1.11494
1.16193
1.13825
1.17176
1.16985
1.17161
1.17081
1.17037
1.16986
1.17001
1.17002
1.1698
1.16968
1.16959
1.16956
1.1695
1.16923
1.16908
1.16878
1.16841
1.16812
1.16788
1.16775
1.16775
1.16783
1.16803
1.16824
1.16846
1.16865
1.16885
1.16903
1.16916
1.16927
1.16938
1.16909
1.16061
1.13444
1.12732
1.12757
1.12405
1.12504
1.12098
1.12266
1.11914
1.12254
1.11589
1.12184
1.10604
1.11036
1.09921
1.10292
1.09332
1.09532
1.08878
1.08923
1.08572
1.08464
1.08361
1.08131
1.08288
1.07918
1.0845
1.07884
1.08992
1.08195
1.08577
1.09513
1.08865
1.10695
1.12259
1.10953
1.09617
1.08832
1.08893
1.09714
1.16166
1.14868
1.11446
1.11974
1.13501
1.17177
1.15798
1.17055
1.16533
1.17157
1.17048
1.16964
1.16956
1.16967
1.16952
1.16939
1.16932
1.16929
1.16926
1.16911
1.16901
1.16881
1.16847
1.16815
1.16787
1.16773
1.16769
1.16776
1.16792
1.16814
1.16835
1.16852
1.16871
1.16889
1.16906
1.16919
1.1693
1.1692
1.16406
1.13968
1.12737
1.12898
1.12601
1.12656
1.12845
1.129
1.1253
1.12727
1.12736
1.13174
1.12515
1.13324
1.10896
1.11667
1.09983
1.10704
1.09151
1.0964
1.08535
1.08781
1.08071
1.08165
1.07721
1.07707
1.07773
1.07641
1.07544
1.0748
1.07909
1.07663
1.07514
1.0736
1.0749
1.08121
1.08386
1.07956
1.07785
1.08317
1.09919
1.10249
1.08915
1.08278
1.08269
1.09035
1.14305
1.10694
1.11308
1.12774
1.17164
1.16994
1.15307
1.16281
1.17143
1.16982
1.169
1.16918
1.16916
1.16905
1.169
1.16897
1.16896
1.16892
1.1689
1.16878
1.16847
1.16817
1.16786
1.16771
1.16765
1.16769
1.16781
1.16802
1.16823
1.16843
1.16858
1.16875
1.16894
1.16907
1.1692
1.1692
1.16636
1.14653
1.12948
1.12877
1.12875
1.12915
1.12903
1.13672
1.13649
1.13469
1.13628
1.13977
1.14405
1.13783
1.1472
1.1163
1.12704
1.10408
1.11405
1.09276
1.10022
1.0843
1.08914
1.0782
1.081
1.07451
1.07462
1.07505
1.07604
1.07402
1.07338
1.07314
1.07545
1.07378
1.07281
1.07209
1.07273
1.07662
1.07893
1.07585
1.07449
1.07835
1.09249
1.09567
1.08336
1.07815
1.0783
1.08456
1.13703
1.10021
1.10648
1.12111
1.16772
1.16893
1.1719
1.17117
1.14805
1.15949
1.17107
1.16893
1.16873
1.16874
1.16869
1.16866
1.16864
1.16864
1.16868
1.16876
1.1687
1.16847
1.16818
1.16786
1.16769
1.1676
1.16762
1.16772
1.1679
1.1681
1.16832
1.16849
1.16864
1.16879
1.16896
1.1691
1.16915
1.16767
1.1539
1.13167
1.13109
1.13022
1.13332
1.13197
1.13579
1.1346
1.14625
1.14507
1.1462
1.14667
1.15335
1.15618
1.15131
1.15873
1.12598
1.13935
1.11007
1.12204
1.09614
1.10526
1.08577
1.09241
1.07723
1.07904
1.08116
1.08395
1.07328
1.07378
1.07468
1.07602
1.07233
1.0722
1.07237
1.07317
1.07236
1.07177
1.07167
1.0719
1.07398
1.0754
1.0738
1.07295
1.07521
1.08653
1.08955
1.07884
1.07523
1.07541
1.07985
1.13108
1.09397
1.10025
1.11476
1.15596
1.1666
1.1719
1.17108
1.14299
1.17029
1.16838
1.16832
1.16832
1.16832
1.16831
1.16833
1.16843
1.16857
1.16858
1.16842
1.16815
1.16784
1.16766
1.16756
1.16755
1.16763
1.16779
1.16799
1.16819
1.16839
1.16854
1.16869
1.1688
1.16897
1.16906
1.16831
1.15952
1.13605
1.13032
1.1348
1.13321
1.13896
1.13679
1.14323
1.14114
1.15446
1.15222
1.15662
1.15602
1.16247
1.16383
1.15788
1.16284
1.13597
1.14894
1.11639
1.12931
1.10081
1.11079
1.08692
1.09058
1.09427
1.09868
1.0778
1.0801
1.08287
1.0861
1.07286
1.07376
1.07513
1.07701
1.0717
1.07188
1.07239
1.07238
1.07211
1.07166
1.07224
1.07208
1.07303
1.07384
1.07334
1.07275
1.074
1.08152
1.0842
1.07577
1.07418
1.07438
1.07645
1.12528
1.08835
1.09446
1.10871
1.13808
1.15274
1.16559
1.17176
1.17044
1.16908
1.16798
1.16795
1.16799
1.168
1.16803
1.16818
1.16835
1.16842
1.16833
1.16811
1.16783
1.16763
1.16751
1.16749
1.16755
1.16769
1.16788
1.16807
1.16827
1.16845
1.16858
1.16873
1.16885
1.16896
1.16854
1.16296
1.14188
1.13031
1.13465
1.13266
1.13903
1.13667
1.14427
1.14159
1.14968
1.147
1.16003
1.15744
1.16366
1.16232
1.16541
1.16662
1.15912
1.16321
1.14177
1.15205
1.12213
1.13287
1.10684
1.11622
1.08965
1.09352
1.09758
1.10183
1.07939
1.08228
1.08561
1.08928
1.07334
1.07477
1.07673
1.07924
1.07192
1.07251
1.07351
1.07283
1.07309
1.07261
1.074
1.07347
1.07349
1.07382
1.0745
1.07402
1.07434
1.07763
1.07972
1.07453
1.07477
1.07487
1.07469
1.11972
1.08336
1.08914
1.103
1.13353
1.14993
1.16358
1.17129
1.16885
1.1678
1.16763
1.16768
1.1677
1.16776
1.16792
1.16811
1.16822
1.1682
1.16804
1.1678
1.1676
1.16747
1.16743
1.16747
1.16759
1.16777
1.16796
1.16814
1.16833
1.16849
1.16861
1.16876
1.16881
1.1686
1.16492
1.14791
1.13108
1.13166
1.1378
1.13578
1.143
1.1403
1.14876
1.14584
1.15464
1.15172
1.16382
1.16138
1.16678
1.16587
1.16573
1.16721
1.15622
1.16027
1.14307
1.15118
1.12498
1.13269
1.1086
1.11246
1.11873
1.11563
1.09315
1.0971
1.1011
1.105
1.08226
1.08568
1.08937
1.09315
1.07503
1.07712
1.07976
1.08289
1.07328
1.07438
1.07601
1.07465
1.07534
1.0748
1.07704
1.0761
1.07556
1.0756
1.07729
1.0767
1.07657
1.07517
1.07637
1.07469
1.07717
1.07713
1.0743
1.11447
1.0791
1.08429
1.09764
1.12933
1.14658
1.16034
1.17048
1.16675
1.16741
1.1674
1.16743
1.1675
1.16768
1.16787
1.16801
1.16804
1.16794
1.16775
1.16755
1.16742
1.16737
1.1674
1.1675
1.16766
1.16785
1.16803
1.16821
1.16838
1.16854
1.16863
1.16875
1.16859
1.166
1.15327
1.13343
1.12964
1.13642
1.13414
1.14117
1.13869
1.14675
1.14388
1.15273
1.14972
1.15864
1.15573
1.16687
1.16488
1.16794
1.16785
1.1642
1.16697
1.14754
1.15332
1.13905
1.14342
1.12136
1.12378
1.12392
1.10896
1.11139
1.11507
1.11338
1.09682
1.10023
1.10333
1.10626
1.08634
1.08991
1.09332
1.09629
1.07822
1.08097
1.08412
1.08742
1.07599
1.07772
1.08002
1.07779
1.07884
1.07833
1.08127
1.07994
1.07906
1.07899
1.08151
1.08069
1.08034
1.07399
1.07425
1.07637
1.08102
1.08067
1.07499
1.10954
1.07579
1.07999
1.09267
1.12511
1.14263
1.15675
1.17046
1.16613
1.16716
1.16718
1.16726
1.16744
1.16763
1.16779
1.16786
1.16782
1.16767
1.1675
1.16737
1.16731
1.16733
1.16741
1.16756
1.16775
1.16793
1.1681
1.16827
1.16843
1.16858
1.16865
1.16856
1.16663
1.15732
1.13711
1.12903
1.13259
1.13962
1.13751
1.14481
1.14212
1.1506
1.14765
1.15665
1.15363
1.16238
1.1596
1.16844
1.16767
1.1682
1.16863
1.1601
1.16546
1.13583
1.14422
1.12647
1.13011
1.11648
1.11785
1.11024
1.11178
1.10553
1.10643
1.10781
1.10716
1.09881
1.10103
1.10291
1.10438
1.09054
1.09314
1.09514
1.09659
1.08277
1.08572
1.08851
1.09078
1.0801
1.08234
1.08484
1.08208
1.0833
1.08293
1.08586
1.08455
1.08378
1.08373
1.08676
1.08557
1.08533
1.07361
1.07299
1.07916
1.08588
1.08497
1.07665
1.10485
1.07339
1.07632
1.08807
1.12083
1.1387
1.15481
1.1714
1.16754
1.16696
1.16705
1.16721
1.16739
1.16756
1.16767
1.16767
1.16758
1.16744
1.16731
1.16725
1.16726
1.16733
1.16747
1.16765
1.16783
1.168
1.16815
1.16832
1.16845
1.16856
1.16847
1.16694
1.15976
1.14085
1.12924
1.13003
1.13863
1.13617
1.14343
1.14097
1.14892
1.14611
1.15484
1.15185
1.16082
1.15785
1.16604
1.16359
1.16901
1.1688
1.16808
1.16885
1.15407
1.16264
1.12581
1.13597
1.11342
1.11604
1.11758
1.10848
1.10928
1.10278
1.10492
1.09793
1.09796
1.09881
1.09823
1.09749
1.09793
1.09804
1.098
1.0923
1.09289
1.0928
1.09216
1.08723
1.08914
1.09004
1.09005
1.08483
1.08672
1.08804
1.08689
1.08788
1.08715
1.08886
1.08866
1.08901
1.08925
1.09213
1.09044
1.09081
1.07382
1.07203
1.08241
1.0909
1.089
1.07864
1.10041
1.07159
1.07336
1.08379
1.11683
1.1358
1.15574
1.1719
1.16989
1.16686
1.167
1.16716
1.16733
1.16746
1.16751
1.16746
1.16736
1.16725
1.16719
1.16719
1.16726
1.16738
1.16755
1.16773
1.1679
1.16805
1.1682
1.16836
1.16849
1.1684
1.167
1.16116
1.14436
1.12988
1.12831
1.13507
1.14283
1.14068
1.14795
1.14531
1.15365
1.15075
1.15957
1.15661
1.16514
1.16245
1.16825
1.16715
1.16919
1.16921
1.16738
1.16887
1.14764
1.15886
1.11837
1.12395
1.12983
1.10747
1.11036
1.11437
1.10962
1.09974
1.10107
1.0967
1.09952
1.088
1.08816
1.09026
1.08895
1.09116
1.09
1.08896
1.08826
1.08913
1.08736
1.08519
1.08289
1.08835
1.08801
1.08647
1.08388
1.08778
1.08776
1.08689
1.09112
1.09124
1.08858
1.08941
1.09083
1.09369
1.09448
1.09642
1.09416
1.09556
1.07453
1.07139
1.08533
1.09462
1.09172
1.08053
1.09636
1.07019
1.07096
1.07994
1.11345
1.13479
1.15929
1.17203
1.17132
1.1668
1.16694
1.1671
1.16724
1.16732
1.16733
1.16726
1.16718
1.16712
1.16713
1.16718
1.16729
1.16745
1.16763
1.1678
1.16796
1.1681
1.16823
1.16835
1.16831
1.16696
1.16163
1.1472
1.13115
1.12708
1.13171
1.1431
1.14062
1.14788
1.14545
1.15324
1.15049
1.15899
1.1561
1.16458
1.16188
1.16796
1.16671
1.16905
1.16867
1.16926
1.16935
1.16607
1.16871
1.14204
1.15459
1.11413
1.11928
1.11949
1.12694
1.10263
1.10601
1.10937
1.1051
1.09203
1.09419
1.09144
1.0945
1.07826
1.07936
1.08326
1.08108
1.08079
1.07912
1.07817
1.07791
1.08067
1.07723
1.07399
1.0713
1.08499
1.08195
1.07784
1.07336
1.08716
1.08498
1.08156
1.09407
1.09306
1.08701
1.0876
1.09085
1.09695
1.09818
1.099
1.09681
1.0983
1.07529
1.07088
1.08735
1.09636
1.09277
1.08178
1.09267
1.06891
1.06888
1.07647
1.11041
1.13576
1.16438
1.17206
1.17179
1.16673
1.16687
1.16702
1.16713
1.16717
1.16715
1.16709
1.16705
1.16706
1.16711
1.1672
1.16736
1.16754
1.16771
1.16786
1.16801
1.16812
1.16823
1.1682
1.16687
1.16158
1.14883
1.1326
1.12628
1.12921
1.14012
1.14882
1.14661
1.15382
1.15125
1.15921
1.15649
1.16462
1.16205
1.16782
1.16661
1.16897
1.16855
1.16933
1.16921
1.16928
1.16943
1.16422
1.16828
1.13307
1.14098
1.14932
1.10798
1.11358
1.11304
1.12034
1.09774
1.10124
1.10296
1.09857
1.08578
1.08853
1.08568
1.08851
1.07026
1.07225
1.07733
1.07467
1.06938
1.06852
1.06832
1.06888
1.06906
1.06531
1.06239
1.06053
1.07671
1.07127
1.066
1.06128
1.08344
1.07803
1.0714
1.09543
1.09271
1.08273
1.08297
1.08886
1.09892
1.09966
1.09983
1.09751
1.09879
1.07581
1.07024
1.08787
1.09626
1.09223
1.08217
1.0891
1.06761
1.06695
1.07336
1.10814
1.13943
1.16755
1.17207
1.17192
1.16664
1.16679
1.16692
1.167
1.16702
1.167
1.16697
1.16698
1.16703
1.16712
1.16727
1.16745
1.16762
1.16777
1.16791
1.16802
1.16811
1.16804
1.16669
1.16135
1.14906
1.13365
1.12581
1.12738
1.13663
1.15262
1.15542
1.15283
1.16053
1.15792
1.16529
1.16304
1.16789
1.16685
1.16893
1.16854
1.16931
1.16916
1.16945
1.1694
1.16922
1.16952
1.16155
1.16754
1.12799
1.13566
1.14795
1.13839
1.10008
1.10623
1.10527
1.11321
1.09149
1.09478
1.09471
1.09017
1.08011
1.08291
1.07844
1.08079
1.0637
1.06607
1.07124
1.06864
1.05977
1.05961
1.06022
1.06169
1.05742
1.05454
1.05286
1.05216
1.06477
1.05902
1.0543
1.05062
1.07576
1.06765
1.05985
1.09478
1.09058
1.07472
1.07496
1.08401
1.09894
1.09954
1.09939
1.09664
1.09782
1.07569
1.06918
1.08684
1.09434
1.08882
1.08096
1.08574
1.06612
1.06523
1.07069
1.1073
1.14495
1.16903
1.17207
1.17185
1.16651
1.16669
1.16682
1.16688
1.16689
1.16689
1.1669
1.16696
1.16704
1.16718
1.16736
1.16754
1.16769
1.16782
1.16791
1.16796
1.16782
1.16634
1.16079
1.14879
1.13379
1.12543
1.12607
1.13386
1.14913
1.16475
1.16033
1.16288
1.16271
1.16628
1.16477
1.16814
1.16738
1.16894
1.16863
1.16926
1.16913
1.16945
1.16937
1.16952
1.1695
1.169
1.16955
1.15731
1.16628
1.1216
1.13016
1.14289
1.13373
1.09137
1.09794
1.09795
1.1062
1.08338
1.08642
1.08563
1.08082
1.07376
1.07615
1.0698
1.07172
1.05745
1.05971
1.06419
1.062
1.05194
1.05236
1.05361
1.05536
1.04795
1.04641
1.04571
1.04543
1.05344
1.04863
1.04516
1.04279
1.06534
1.05659
1.0496
1.09232
1.08537
1.06458
1.06437
1.07561
1.09758
1.09803
1.0967
1.09335
1.09481
1.07414
1.06748
1.08322
1.08932
1.08404
1.07776
1.08311
1.0646
1.06371
1.06859
1.10733
1.1477
1.16913
1.17067
1.17097
1.16633
1.16659
1.16671
1.16677
1.16679
1.16682
1.16688
1.16696
1.16709
1.16727
1.16745
1.16761
1.16771
1.16776
1.16771
1.16738
1.16565
1.15978
1.14799
1.13359
1.12496
1.12509
1.13178
1.1462
1.16307
1.16626
1.16792
1.16704
1.16729
1.16846
1.16799
1.16898
1.16877
1.16923
1.16912
1.1694
1.16932
1.16953
1.16948
1.16964
1.16957
1.16864
1.16955
1.14761
1.15734
1.16438
1.11507
1.12435
1.13845
1.12872
1.08351
1.09037
1.09254
1.10064
1.07401
1.07696
1.07738
1.07215
1.0662
1.06803
1.06081
1.06252
1.05085
1.05279
1.05646
1.0547
1.04543
1.04614
1.0474
1.049
1.04117
1.04028
1.03985
1.03963
1.04475
1.04145
1.03923
1.03771
1.05485
1.04731
1.04252
1.08605
1.07578
1.05373
1.05416
1.06397
1.09278
1.09376
1.09018
1.08562
1.08863
1.07099
1.06569
1.07934
1.08435
1.08106
1.07477
1.08084
1.0632
1.06248
1.06682
1.10686
1.14734
1.167
1.16935
1.1674
1.16609
1.16648
1.16662
1.16669
1.16673
1.16679
1.16688
1.167
1.16718
1.16736
1.16751
1.16757
1.16748
1.16712
1.16637
1.1642
1.15787
1.14637
1.13295
1.12443
1.12436
1.13044
1.14401
1.16131
1.16825
1.16841
1.16879
1.16852
1.1687
1.16901
1.16888
1.16921
1.16912
1.16936
1.16929
1.1695
1.16943
1.1696
1.16956
1.16971
1.16971
1.16818
1.16946
1.14478
1.15452
1.16537
1.15955
1.10946
1.11892
1.13475
1.12472
1.07806
1.08508
1.09101
1.09843
1.06478
1.06793
1.0715
1.06558
1.058
1.0594
1.05275
1.05452
1.04371
1.04533
1.04854
1.04695
1.03961
1.04009
1.04101
1.04224
1.03661
1.03575
1.03519
1.03485
1.03965
1.03776
1.03656
1.03563
1.04624
1.04263
1.04007
1.07467
1.06387
1.049
1.05332
1.05768
1.08361
1.08643
1.08252
1.07518
1.08388
1.06897
1.06488
1.07829
1.08162
1.07965
1.07413
1.07885
1.06218
1.06127
1.06525
1.10444
1.14085
1.15749
1.15844
1.14853
1.16584
1.16639
1.16655
1.16663
1.1667
1.1668
1.16691
1.16709
1.16728
1.16741
1.16735
1.16679
1.16566
1.16406
1.16119
1.15475
1.14396
1.13159
1.12379
1.12393
1.12983
1.14267
1.15987
1.16789
1.16896
1.1689
1.16893
1.16901
1.16903
1.16918
1.16911
1.16932
1.16925
1.16946
1.16939
1.16957
1.16952
1.16975
1.16963
1.16975
1.16979
1.16457
1.16704
1.16861
1.16936
1.14178
1.15115
1.15825
1.10641
1.11516
1.13214
1.12285
1.0765
1.08381
1.09191
1.09881
1.05703
1.06068
1.06891
1.06169
1.04997
1.05135
1.04537
1.04779
1.03637
1.0376
1.04045
1.03898
1.03457
1.03453
1.03477
1.03546
1.0349
1.03415
1.03347
1.03276
1.0385
1.0375
1.03662
1.03586
1.04603
1.04463
1.0443
1.0676
1.06455
1.05179
1.05706
1.06044
1.07781
1.08226
1.08009
1.07311
1.08211
1.06747
1.06397
1.07814
1.08174
1.07974
1.07265
1.0762
1.0611
1.06053
1.06378
1.09717
1.11972
1.12379
1.10651
1.10429
1.1656
1.16632
1.1665
1.1666
1.1667
1.16682
1.167
1.16718
1.16728
1.16691
1.1653
1.16268
1.16025
1.15698
1.15065
1.14044
1.1295
1.12304
1.12382
1.12984
1.14219
1.15892
1.16759
1.16885
1.16913
1.16903
1.16911
1.16907
1.16908
1.1691
1.16915
1.16928
1.16921
1.16941
1.16934
1.16953
1.16947
1.16967
1.16958
1.16984
1.16979
1.16976
1.16984
1.16338
1.16677
1.1684
1.16926
1.14057
1.14958
1.15675
1.10613
1.11414
1.1316
1.12301
1.07735
1.08495
1.09598
1.10199
1.0511
1.05565
1.06888
1.05984
1.04192
1.04354
1.03868
1.04187
1.03097
1.03125
1.03305
1.03191
1.0323
1.03172
1.03119
1.03103
1.03525
1.03447
1.03369
1.03309
1.04375
1.04299
1.04205
1.04116
1.04979
1.04776
1.07134
1.07066
1.07783
1.07269
1.07147
1.07431
1.07854
1.08188
1.08127
1.07575
1.08269
1.06635
1.06279
1.07688
1.08154
1.07798
1.07273
1.07241
1.06074
1.05965
1.06226
1.08637
1.09611
1.09331
1.08706
1.07996
1.1654
1.16626
1.16647
1.1666
1.16673
1.16689
1.16709
1.16714
1.16624
1.16305
1.15909
1.1559
1.15219
1.14583
1.1362
1.12723
1.12275
1.12401
1.1303
1.14236
1.15859
1.16739
1.16873
1.16902
1.16919
1.16918
1.16918
1.16912
1.16917
1.16923
1.16936
1.16929
1.1695
1.16942
1.1696
1.16955
1.16981
1.1697
1.1699
1.16987
1.16977
1.16989
1.16286
1.16643
1.16819
1.16813
1.169
1.16951
1.14069
1.14896
1.15657
1.10823
1.11518
1.1326
1.12508
1.08086
1.08943
1.10232
1.10756
1.04626
1.05218
1.06998
1.05941
1.03449
1.03637
1.03445
1.0379
1.02926
1.02906
1.02968
1.0291
1.03233
1.0309
1.03016
1.02976
1.04049
1.03934
1.03823
1.03709
1.07088
1.06965
1.06945
1.06901
1.07154
1.06832
1.09528
1.08059
1.09708
1.09532
1.09467
1.09592
1.0872
1.0826
1.08952
1.08244
1.09325
1.06725
1.06318
1.0759
1.09494
1.0801
1.09592
1.07213
1.06853
1.06007
1.05898
1.06087
1.07618
1.07858
1.07327
0.859958
1.06172
1.16526
1.16622
1.16647
1.16661
1.16679
1.16698
1.16697
1.16545
1.16053
1.15542
1.15144
1.14721
1.14059
1.13226
1.12578
1.12289
1.12485
1.13173
1.14334
1.15887
1.16732
1.16866
1.16889
1.16912
1.16924
1.16924
1.16924
1.16924
1.16917
1.1693
1.16944
1.16936
1.16956
1.1695
1.16973
1.16962
1.16987
1.16981
1.16997
1.16993
1.16978
1.16994
1.16248
1.16621
1.16803
1.16894
1.16944
1.14214
1.14941
1.15686
1.11266
1.1184
1.13522
1.1289
1.08542
1.09571
1.10948
1.11446
1.04282
1.05014
1.07273
1.0601
1.03059
1.03225
1.03329
1.03682
1.02913
1.02887
1.029
1.02866
1.036
1.0334
1.03071
1.03024
1.06898
1.0686
1.06844
1.0681
1.09547
1.0948
1.09493
1.09485
1.09547
1.09415
1.12561
1.09875
1.12589
1.12539
1.12486
1.1254
1.103
1.09039
1.10508
1.10064
1.10884
1.0672
1.06227
1.07596
1.1108
1.09547
1.11175
1.07016
1.06436
1.0597
1.0582
1.05929
1.06813
1.06847
1.06536
0.488093
1.01949
1.16517
1.1662
1.16648
1.16666
1.16688
1.16681
1.16449
1.15816
1.15205
1.14728
1.14228
1.13588
1.12951
1.12559
1.12364
1.12691
1.13431
1.14574
1.16002
1.16739
1.16858
1.16881
1.16899
1.1692
1.16922
1.16931
1.1693
1.1693
1.16928
1.16937
1.16952
1.16944
1.16965
1.16957
1.1698
1.16974
1.16994
1.16987
1.17001
1.17002
1.16978
1.16997
1.16241
1.16597
1.16793
1.16885
1.1694
1.14473
1.15077
1.15776
1.11876
1.12341
1.13905
1.13398
1.09076
1.1021
1.11593
1.12127
1.04174
1.04978
1.07639
1.06143
1.02969
1.03129
1.03333
1.03691
1.03159
1.03143
1.02995
1.02961
1.06747
1.04034
1.03341
1.03406
1.09501
1.0949
1.09498