/*--------------------------------*- C++ -*----------------------------------*\
  =========                 |
  \\      /  F ield         | OpenFOAM: The Open Source CFD Toolbox
   \\    /   O peration     | Website:  https://openfoam.org
    \\  /    A nd           | Version:  dev
     \\/     M anipulation  |
\*---------------------------------------------------------------------------*/
FoamFile
{
    version     2.0;
    format      ascii;
    class       volScalarField;
    location    "2500";
    object      T;
}
// * * * * * * * * * * * * * * * * * * * * * * * * * * * * * * * * * * * * * //

dimensions      [0 0 0 1 0 0 0];

internalField   nonuniform List<scalar> 
9842
(
300.097
300.138
300.109
300.136
300.22
300.108
300.141
300.278
300.22
300.084
300.116
300.284
300.314
300.206
300.073
300.116
300.286
300.363
300.304
300.171
300.071
300.116
300.276
300.389
300.382
300.28
300.15
300.065
300.109
300.237
300.376
300.441
300.359
300.238
300.136
300.061
300.094
300.233
300.382
300.472
300.448
300.341
300.208
300.124
300.057
300.088
300.22
300.361
300.47
300.499
300.424
300.298
300.197
300.119
300.054
300.083
300.209
300.343
300.452
300.529
300.494
300.396
300.269
300.176
300.111
300.05
300.086
300.195
300.314
300.45
300.547
300.546
300.476
300.351
300.242
300.166
300.102
300.049
300.08
300.172
300.279
300.428
300.542
300.583
300.538
300.429
300.318
300.231
300.158
300.1
300.047
300.076
300.175
300.277
300.389
300.535
300.598
300.586
300.501
300.382
300.294
300.218
300.152
300.094
300.044
300.073
300.164
300.263
300.353
300.524
300.604
300.622
300.569
300.471
300.349
300.269
300.204
300.146
300.093
300.044
300.068
300.15
300.251
300.349
300.504
300.593
300.645
300.619
300.541
300.42
300.334
300.256
300.192
300.139
300.09
300.042
300.063
300.138
300.232
300.325
300.452
300.584
300.658
300.661
300.603
300.509
300.397
300.31
300.244
300.183
300.134
300.084
300.04
300.061
300.143
300.22
300.322
300.424
300.559
300.652
300.685
300.653
300.569
300.463
300.368
300.298
300.235
300.179
300.128
300.083
300.039
300.061
300.134
300.211
300.305
300.406
300.535
300.636
300.697
300.692
300.631
300.529
300.432
300.346
300.279
300.223
300.175
300.126
300.083
300.037
300.06
300.128
300.202
300.291
300.377
300.483
300.606
300.696
300.718
300.682
300.594
300.499
300.405
300.331
300.267
300.218
300.169
300.124
300.079
300.039
300.058
300.124
300.192
300.279
300.354
300.441
300.568
300.684
300.733
300.718
300.656
300.563
300.465
300.382
300.318
300.262
300.212
300.164
300.12
300.079
300.039
300.055
300.119
300.184
300.268
300.346
300.439
300.562
300.675
300.739
300.747
300.705
300.623
300.523
300.438
300.369
300.306
300.254
300.204
300.161
300.119
300.08
300.039
300.052
300.115
300.18
300.254
300.332
300.419
300.526
300.647
300.733
300.764
300.743
300.68
300.586
300.496
300.419
300.35
300.296
300.246
300.203
300.159
300.119
300.077
300.039
300.049
300.111
300.17
300.243
300.32
300.397
300.492
300.604
300.716
300.769
300.773
300.728
300.642
300.549
300.469
300.399
300.337
300.283
300.242
300.199
300.155
300.117
300.078
300.039
300.046
300.106
300.166
300.234
300.302
300.386
300.452
300.58
300.694
300.767
300.793
300.767
300.696
300.605
300.52
300.449
300.379
300.331
300.28
300.238
300.196
300.155
300.116
300.078
300.038
300.049
300.104
300.164
300.219
300.284
300.356
300.442
300.562
300.664
300.754
300.803
300.797
300.743
300.655
300.572
300.498
300.435
300.372
300.321
300.276
300.233
300.194
300.154
300.117
300.08
300.038
300.047
300.1
300.157
300.217
300.282
300.346
300.424
300.523
300.639
300.734
300.804
300.819
300.785
300.716
300.623
300.546
300.478
300.418
300.362
300.315
300.27
300.231
300.192
300.155
300.117
300.08
300.04
300.044
300.094
300.151
300.205
300.272
300.338
300.414
300.488
300.608
300.714
300.794
300.832
300.819
300.76
300.674
300.592
300.514
300.456
300.404
300.353
300.306
300.267
300.227
300.19
300.154
300.117
300.08
300.04
300.045
300.095
300.146
300.201
300.26
300.324
300.396
300.466
300.587
300.687
300.78
300.835
300.841
300.803
300.727
300.644
300.57
300.504
300.439
300.391
300.343
300.302
300.263
300.224
300.189
300.155
300.119
300.081
300.04
300.042
300.091
300.142
300.193
300.252
300.311
300.382
300.45
300.55
300.661
300.753
300.829
300.857
300.838
300.778
300.691
300.613
300.546
300.489
300.432
300.387
300.339
300.296
300.262
300.226
300.189
300.156
300.121
300.084
300.042
300.04
300.085
300.132
300.184
300.242
300.297
300.369
300.434
300.527
300.64
300.733
300.818
300.862
300.862
300.819
300.745
300.662
300.584
300.528
300.473
300.423
300.377
300.331
300.297
300.258
300.226
300.19
300.157
300.123
300.085
300.043
300.041
300.088
300.126
300.184
300.239
300.29
300.358
300.426
300.514
300.595
300.71
300.799
300.861
300.879
300.853
300.791
300.714
300.634
300.568
300.505
300.461
300.413
300.371
300.332
300.296
300.261
300.226
300.192
300.16
300.125
300.087
300.043
300.038
300.085
300.126
300.181
300.226
300.284
300.347
300.407
300.489
300.575
300.684
300.775
300.85
300.889
300.879
300.832
300.762
300.685
300.606
300.553
300.495
300.449
300.41
300.366
300.328
300.292
300.262
300.226
300.195
300.164
300.129
300.09
300.045
300.038
300.082
300.126
300.17
300.218
300.277
300.333
300.4
300.468
300.552
300.649
300.753
300.836
300.891
300.899
300.864
300.801
300.728
300.656
300.591
300.535
300.488
300.444
300.403
300.361
300.33
300.294
300.262
300.232
300.2
300.167
300.133
300.092
300.023
300.048
300.038
300.08
300.122
300.163
300.217
300.269
300.319
300.385
300.444
300.527
300.619
300.717
300.816
300.882
300.913
300.897
300.845
300.768
300.697
300.626
300.572
300.52
300.479
300.427
300.4
300.363
300.327
300.294
300.263
300.235
300.204
300.172
300.127
300.075
300.1
300.023
300.049
300.037
300.076
300.122
300.165
300.209
300.253
300.311
300.37
300.438
300.508
300.587
300.686
300.791
300.874
300.918
300.917
300.882
300.814
300.734
300.671
300.607
300.562
300.512
300.476
300.421
300.396
300.358
300.327
300.295
300.267
300.239
300.209
300.166
300.184
300.123
300.152
300.145
300.076
300.1
300.022
300.051
300.036
300.077
300.12
300.16
300.207
300.248
300.303
300.362
300.422
300.489
300.564
300.659
300.766
300.856
300.916
300.935
300.91
300.86
300.787
300.703
300.65
300.589
300.548
300.497
300.468
300.424
300.395
300.357
300.327
300.298
300.272
300.244
300.202
300.219
300.175
300.125
300.166
300.149
300.078
300.104
300.023
300.051
300.035
300.078
300.114
300.157
300.201
300.246
300.298
300.345
300.414
300.479
300.546
300.631
300.74
300.838
300.91
300.942
300.935
300.893
300.829
300.757
300.683
300.626
300.577
300.543
300.501
300.462
300.42
300.388
300.357
300.329
300.304
300.277
300.236
300.254
300.197
300.217
300.187
300.129
300.171
300.153
300.08
300.107
300.023
300.054
300.037
300.078
300.112
300.158
300.196
300.242
300.291
300.328
300.394
300.462
300.533
300.606
300.72
300.814
300.896
300.945
300.952
300.923
300.865
300.797
300.725
300.669
300.612
300.57
300.528
300.49
300.458
300.42
300.386
300.359
300.335
300.309
300.27
300.287
300.236
300.255
300.207
300.226
300.193
300.134
300.177
300.159
300.083
300.112
300.024
300.056
300.037
300.076
300.116
300.156
300.192
300.235
300.282
300.331
300.392
300.441
300.518
300.575
300.692
300.792
300.881
300.94
300.963
300.949
300.9
300.837
300.767
300.704
300.651
300.603
300.564
300.518
300.49
300.459
300.416
300.386
300.364
300.34
300.304
300.32
300.273
300.291
300.245
300.264
300.214
300.234
300.199
300.139
300.183
300.165
300.087
300.116
300.025
300.058
300.038
300.072
300.115
300.154
300.19
300.231
300.281
300.327
300.374
300.429
300.512
300.563
300.67
300.767
300.855
300.931
300.968
300.968
300.936
300.874
300.806
300.733
300.683
300.634
300.594
300.549
300.515
300.485
300.461
300.411
300.388
300.369
300.336
300.352
300.308
300.326
300.282
300.3
300.253
300.272
300.22
300.241
300.206
300.145
300.19
300.173
300.091
300.122
300.026
300.061
300.037
300.078
300.116
300.154
300.193
300.232
300.28
300.319
300.365
300.421
300.491
300.55
300.643
300.73
300.836
300.918
300.968
300.983
300.963
300.91
300.844
300.775
300.714
300.67
300.62
300.583
300.539
300.506
300.481
300.464
300.408
300.394
300.37
300.388
300.344
300.364
300.319
300.339
300.291
300.312
300.262
300.282
300.228
300.25
300.215
300.152
300.199
300.181
300.095
300.129
300.028
300.064
300.038
300.079
300.114
300.156
300.191
300.229
300.276
300.318
300.35
300.409
300.472
300.541
300.626
300.71
300.821
300.904
300.964
300.992
300.984
300.945
300.878
300.819
300.748
300.7
300.656
300.614
300.567
300.536
300.509
300.482
300.464
300.421
300.412
300.445
300.391
300.428
300.365
300.404
300.336
300.37
300.305
300.335
300.273
300.299
300.238
300.263
300.225
300.161
300.21
300.192
300.101
300.136
300.03
300.069
300.039
300.079
300.115
300.152
300.189
300.226
300.263
300.306
300.35
300.411
300.463
300.513
300.602
300.694
300.798
300.886
300.956
300.995
301
300.972
300.92
300.849
300.793
300.726
300.682
300.639
300.602
300.559
300.534
300.512
300.489
300.484
300.489
300.551
300.493
300.609
300.475
300.617
300.434
300.57
300.384
300.491
300.337
300.41
300.293
300.342
300.252
300.287
300.24
300.171
300.224
300.206
300.107
300.145
300.032
300.073
300.042
300.083
300.119
300.155
300.193
300.227
300.258
300.286
300.361
300.406
300.453
300.506
300.585
300.675
300.774
300.865
300.948
300.994
301.013
300.998
300.952
300.893
300.827
300.769
300.717
300.671
300.623
300.592
300.551
300.536
300.528
300.565
300.648
300.623
300.762
301.004
300.874
301.269
300.863
301.411
300.746
301.305
300.588
301.027
300.45
300.737
300.35
300.505
300.28
300.359
300.269
300.184
300.255
300.234
300.115
300.157
300.034
300.079
300.045
300.089
300.125
300.159
300.197
300.231
300.255
300.278
300.35
300.404
300.447
300.497
300.561
300.655
300.753
300.842
300.934
300.992
301.021
301.016
300.981
300.927
300.854
300.802
300.749
300.698
300.652
300.616
300.586
300.547
300.536
300.64
301.445
301.235
301.719
301.769
302.38
302.156
303.059
302.245
303.406
301.97
303.314
301.431
302.806
300.938
301.97
300.574
301.179
300.366
300.643
300.364
300.207
300.35
300.321
300.124
300.175
300.037
300.086
300.052
300.099
300.134
300.166
300.204
300.237
300.255
300.277
300.332
300.411
300.447
300.487
300.549
300.633
300.732
300.828
300.922
300.987
301.024
301.033
301.008
300.957
300.9
300.834
300.78
300.729
300.69
300.641
300.606
300.578
300.551
300.642
301.68
304.129
304.609
303.017
303.64
304.027
305.027
304.668
305.949
304.821
306.368
304.483
306.263
303.719
305.671
302.589
304.661
301.439
303.243
300.699
301.675
300.723
300.275
300.709
300.641
300.137
300.22
300.041
300.095
300.063
300.116
300.15
300.178
300.214
300.243
300.258
300.282
300.329
300.429
300.456
300.484
300.538
300.614
300.708
300.811
300.9
300.979
301.027
301.044
301.03
300.989
300.932
300.868
300.811
300.765
300.712
300.674
300.64
300.599
300.576
300.645
301.619
304.928
305.152
307.428
307.951
305.952
306.761
307.172
308.333
307.863
309.276
308.02
309.697
307.668
309.61
306.874
309.057
305.631
308.08
303.881
306.593
301.852
304.412
301.937
300.519
301.905
301.687
300.162
300.372
300.045
300.107
300.077
300.14
300.178
300.201
300.23
300.247
300.268
300.295
300.36
300.452
300.472
300.486
300.537
300.601
300.69
300.789
300.886
300.969
301.026
301.053
301.05
301.018
300.965
300.907
300.846
300.797
300.758
300.704
300.656
300.634
300.602
300.645
301.629
305.146
304.805
308.326
308.509
310.837
311.319
309.341
310.182
310.558
311.731
311.248
312.656
311.435
313.101
311.154
313.098
310.467
312.688
309.31
311.881
307.506
310.515
304.795
308.297
304.977
301.301
304.822
304.2
300.236
300.87
300.051
300.136
300.074
300.15
300.204
300.241
300.26
300.26
300.284
300.33
300.419
300.477
300.498
300.507
300.546
300.599
300.678
300.771
300.872
300.954
301.023
301.057
301.064
301.042
300.993
300.935
300.875
300.822
300.781
300.747
300.698
300.652
300.623
300.63
301.488
306.556
308.526
308.858
311.627
311.667
313.952
314.027
312.692
313.439
313.865
314.907
314.568
315.802
314.837
316.318
314.712
316.486
314.244
316.322
313.31
315.797
311.652
314.692
308.915
312.663
309.248
303.252
309.178
308.48
300.482
302.206
300.06
300.211
300.102
300.2
300.262
300.314
300.3
300.344
300.396
300.453
300.493
300.52
300.538
300.547
300.592
300.671
300.759
300.851
300.944
301.019
301.062
301.076
301.063
301.027
300.971
300.91
300.855
300.801
300.765
300.736
300.695
300.652
300.629
301.116
305.567
311.084
310.665
311.586
311.404
313.886
313.575
315.568
315.075
315.649
315.78
316.76
317.308
317.52
318.384
317.954
319.078
318.091
319.521
317.934
319.69
317.333
319.526
315.983
318.789
313.439
317.118
313.892
307.05
313.866
313.163
301.144
304.781
300.075
300.39
300.096
300.242
300.333
300.375
300.428
300.439
300.463
300.524
300.545
300.569
300.573
300.606
300.682
300.749
300.84
300.939
301.013
301.061
301.086
301.082
301.051
301
300.942
300.885
300.831
300.783
300.751
300.723
300.685
300.65
300.854
304.118
310.226
309.254
312.442
312.136
313.189
312.819
314.509
313.937
315.846
314.911
317.158
316.644
318.671
318.337
319.868
319.921
320.558
321.195
321.049
321.975
321.262
322.535
321.058
322.766
320.127
322.454
317.986
321.276
318.482
311.635
318.484
318.019
315.05
302.577
308.738
300.087
300.568
300.093
300.298
300.413
300.544
300.505
300.504
300.561
300.592
300.616
300.624
300.641
300.711
300.751
300.828
300.925
301
301.062
301.096
301.096
301.077
301.026
300.972
300.916
300.87
300.817
300.772
300.739
300.711
300.683
300.756
302.91
309.755
311.673
311.604
312.562
312.293
313.398
312.941
313.905
312.974
314.798
313.165
317.538
316.33
319.466
318.416
321.147
320.574
322.452
322.323
323.335
323.651
323.948
324.622
324.159
325.244
323.684
325.342
322.111
324.426
323.313
320.615
322.478
317.27
312.951
316.55
320.317
322.573
322.396
320.041
302.645
305.993
315.181
313.728
309.6
300.085
303.587
300.393
301.71
300.103
300.384
300.599
300.622
300.594
300.631
300.667
300.685
300.694
300.701
300.741
300.767
300.82
300.908
300.99
301.064
301.101
301.111
301.094
301.053
300.997
300.945
300.901
300.854
300.807
300.766
300.731
300.705
300.729
302.03
308.36
311.658
311.224
312.028
311.877
311.371
311.221
312.221
311.689
311.666
310.484
312.264
310.082
316.723
314.583
319.29
317.259
321.667
320.265
323.448
322.733
324.799
324.526
325.826
325.869
325.669
326.059
326.345
326.535
325.265
325.991
326.432
326.888
326.501
324.643
323.867
325.124
325.631
324.068
319.457
318.522
322.332
324.18
324.207
321.984
307.467
317.271
315.562
311.551
300.118
300.547
304.852
302.352
300.139
300.553
300.765
300.718
300.723
300.752
300.767
300.774
300.778
300.79
300.794
300.826
300.906
300.986
301.065
301.106
301.122
301.112
301.081
301.029
300.974
300.923
300.885
300.842
300.794
300.763
300.729
300.729
301.447
306.554
311.087
311.282
311.286
311.181
311.211
309.151
309.212
309.693
309.269
308.342
307.213
308.858
306.388
314.685
311.751
318.092
315.307
321.308
319.179
323.753
322.35
325.537
324.716
326.624
326.591
326.466
326.173
326.767
326.955
327.027
326.338
326.832
327.124
327.335
327.144
325.992
325.311
326.216
326.619
325.478
321.369
320.457
324.01
325.537
325.492
323.661
309.06
319.168
317.4
313.352
301.105
300.799
300.051
300.235
306.156
303.2
300.232
300.782
300.834
300.832
300.844
300.854
300.86
300.86
300.85
300.831
300.846
300.906
300.982
301.066
301.11
301.132
301.13
301.104
301.058
301.007
300.952
300.908
300.871
300.833
300.789
300.754
300.74
301.114
304.635
310.497
310.657
310.889
310.06
310.421
309.399
309.716
306.634
306.944
306.648
306.525
304.786
304.054
305.316
303.4
312.039
308.455
316.412
313.112
320.34
317.757
323.327
321.407
325.824
325.291
324.67
323.856
326.988
326.84
326.574
326.179
327.266
327.306
327.257
327.014
327.252
327.432
327.461
327.39
326.771
326.35
326.823
327.077
326.403
323.087
322.213
325.333
326.397
326.344
325.035
310.65
320.941
319.152
315.094
304.105
301.389
300.052
300.259
307.483
300.432
300.924
300.94
300.94
300.941
300.944
300.939
300.914
300.88
300.877
300.918
300.989
301.069
301.118
301.144
301.146
301.127
301.086
301.036
300.984
300.933
300.895
300.858
300.829
300.787
300.763
300.954
303.189
309.324
310.863
309.663
310.088
308.556
309.131
307.427
307.98
304.499
305.079
303.941
304.096
302.443
302.097
303.618
302.348
309.353
305.932
314.66
311.138
319.013
316.211
322.991
321.935
320.873
319.616
325.655
324.978
324.17
323.229
327.111
326.845
326.441
325.888
327.453
327.402
327.25
327.246
327.326
327.464
327.291
327.337
327.051
326.809
326.957
327.134
326.76
324.546
323.763
326.235
326.707
326.647
326.035
312.215
322.559
320.8
316.774
308.779
304.937
301.644
300.087
300.42
300.743
301.025
301.034
301.026
301.024
301.015
300.979
300.936
300.918
300.942
301
301.07
301.124
301.154
301.162
301.147
301.112
301.064
301.015
300.964
300.918
300.885
300.847
300.817
300.79
300.894
302.309
307.776
310.864
309.703
310.234
308.536
309.163
307.154
307.86
305.737
306.439
303.065
303.73
302.138
302.48
301.694
301.386
303.3
302.254
307.813
305.122
313.087
310.18
317.314
314.706
322.201
321.087
319.928
318.723
325.187
324.341
323.371
322.307
326.97
326.548
325.968
325.23
327.389
327.216
326.918
327.113
327.036
327.182
326.767
326.925
326.913
326.812
326.611
326.758
326.657
325.686
325.07
326.601
326.53
326.498
326.552
313.73
324.005
322.327
318.376
309.991
305.666
302.154
300.204
300.82
301.073
301.116
301.105
301.099
301.086
301.043
300.995
300.967
300.974
301.017
301.078
301.132
301.165
301.176
301.165
301.136
301.091
301.043
300.995
300.948
300.907
300.876
300.84
300.827
300.88
301.81
306.191
310.654
310.502
308.863
309.402
307.487
308.2
305.976
306.741
304.451
305.207
302.096
302.72
301.347
301.577
301.612
301.237
304.043
303.003
307.47
305.349
312.309
310.228
316.82
315.747
314.016
314.867
321.195
320.064
318.928
317.829
324.347
323.349
322.281
321.194
326.469
325.855
325.077
324.162
326.983
326.66
326.179
326.571
326.369
326.534
325.87
326.146
326.3
326.285
325.787
325.966
325.997
326.409
326.054
326.551
325.819
325.828
326.665
315.175
325.25
323.733
319.891
311.118
306.538
302.981
300.41
301.35
301.172
301.177
301.169
301.151
301.106
301.056
301.021
301.014
301.041
301.091
301.142
301.177
301.191
301.184
301.159
301.117
301.069
301.024
300.978
300.934
300.895
300.871
300.841
300.883
301.537
304.798
310.024
311.046
309.229
309.838
307.971
308.625
306.502
307.254
304.945
305.727
303.421
304.17
301.323
301.826
301.051
301.075
302.002
301.299
306.296
304.792
308.533
307.377
313.296
312.635
312.597
316.721
316.043
315.023
315.49
320.144
319.176
318.3
317.475
323.158
322.125
321.144
320.294
325.529
324.721
323.803
322.845
326.182
325.674
325
325.644
325.34
325.492
324.631
325.018
325.269
325.286
324.55
324.794
324.887
326.755
326.679
326.05
324.687
324.786
326.458
316.541
326.222
324.988
321.31
312.26
307.575
303.9
300.414
301.507
301.237
301.232
301.211
301.167
301.118
301.077
301.059
301.072
301.11
301.155
301.189
301.205
301.201
301.18
301.142
301.095
301.049
301.007
300.964
300.923
300.883
300.868
300.889
301.378
303.752
309.04
311.207
310.253
308.379
308.939
307.011
307.717
305.496
306.267
303.932
304.713
302.463
303.175
300.926
301.119
300.986
300.877
303.046
301.678
309.388
307.164
311.905
310.921
314.635
314.256
316.364
315.935
317.68
317.428
317.042
317.224
319.576
318.948
318.418
318.003
321.942
321.194
320.622
320.209
324.196
323.335
322.528
321.873
324.975
324.32
323.591
324.39
324.034
324.147
323.292
323.673
323.889
323.899
323.021
323.372
323.432
326.866
327.048
325.228
323.268
323.531
325.964
317.852
326.931
326.064
322.634
313.424
308.613
304.401
300.178
301.149
301.289
301.266
301.225
301.178
301.136
301.109
301.109
301.134
301.171
301.203
301.22
301.218
301.201
301.166
301.12
301.074
301.032
300.993
300.951
300.918
300.889
300.911
301.298
303.125
308.045
311.151
310.94
308.64
309.296
307.372
308.02
305.934
306.67
304.398
305.173
302.862
303.622
301.532
302.153
300.782
300.833
301.017
300.822
304.598
302.396
312.082
309.351
315.48
314.756
314.333
316.854
316.63
318.456
317.854
319.828
319.821
319.58
319.744
319.951
319.826
319.794
319.806
321.434
321.264
321.29
321.475
322.899
322.344
322.084
322.081
323.592
323.045
322.66
322.992
322.705
322.917
322.423
322.481
322.373
322.3
321.476
321.966
321.847
326.799
327.33
324.272
321.819
322.362
325.373
319.105
327.462
326.936
323.875
314.521
309.384
304.162
300.051
300.557
301.313
301.279
301.237
301.195
301.163
301.151
301.163
301.191
301.219
301.235
301.235
301.219
301.189
301.145
301.099
301.056
301.018
300.981
300.941
300.906
300.928
301.283
302.768
307.119
310.975
311.402
309.588
307.529
308.097
306.186
306.878
304.704
305.457
303.181
303.942
301.76
302.445
300.974
301.251
300.735
300.73
301.194
300.815
306.269
303.363
314.113
312.587
310.995
317.138
316.332
315.216
316.536
319.315
318.94
320.182
319.379
322.679
322.631
322.028
322.405
321.762
322.097
322.398
322.602
322.347
322.856
323.486
324.158
322.571
322.667
323.114
323.864
322.735
322.741
322.992
321.771
321.735
322.503
322.26
321.852
321.031
320.798
320.249
320.895
320.488
326.585
327.518
323.42
320.752
321.578
324.815
320.254
327.875
327.648
324.998
315.453
309.655
303.249
300.018
300.196
301.33
301.294
301.254
301.218
301.197
301.197
301.215
301.237
301.251
301.252
301.238
301.211
301.169
301.123
301.081
301.041
301.006
300.972
300.942
300.953
301.293
302.647
306.373
310.632
311.735
310.486
307.459
308.113
306.203
306.839
304.811
305.523
303.329
304.071
301.902
302.591
301.045
301.361
300.771
300.866
300.718
300.693
301.523
300.856
307.738
304.46
315.283
313.864
313.806
311.776
318.5
317.546
316.604
317.803
321.52
320.899
321.689
320.811
325.524
325.201
324.059
324.699
324.773
325.263
325.544
325.625
324.802
325.814
326.773
327.574
323.54
324.426
325.63
326.956
322.911
323.542
324.537
320.923
321.211
322.953
322.779
321.843
320.097
319.745
319.513
320.137
319.706
326.355
327.663
322.83
320.255
321.273
324.443
321.309
328.252
328.261
326.017
316.295
309.395
301.951
300.01
300.08
301.348
301.312
301.275
301.247
301.236
301.243
301.258
301.27
301.269
301.257
301.233
301.193
301.147
301.104
301.065
301.028
300.999
300.973
300.979
301.315
302.659
305.947
310.242
311.951
311.159
308.243
305.958
306.536
304.659
305.324
303.271
303.97
301.891
302.546
301.08
301.388
300.79
300.896
300.699
300.731
300.713
300.673
301.993
300.964
310.123
308.017
305.829
316.992
315.433
315.583
313.572
319.886
318.892
318.404
319.646
323.326
322.53
323.354
322.535
327.895
327.304
325.8
326.588
328.15
328.409
328.471
328.306
328.236
329.363
330.246
330.813
325.962
327.571
329.149
330.572
323.989
325.569
327.529
320.53
321.306
324.192
324.118
322.413
319.534
319.322
319.276
319.934
319.565
326.191
327.847
322.675
320.281
321.425
324.323
322.334
328.632
328.833
326.932
316.929
308.419
301.147
300.008
300.046
301.372
301.333
301.3
301.279
301.275
301.282
301.29
301.288
301.275
301.253
301.216
301.17
301.126
301.087
301.052
301.025
301.003
301.019
301.361
302.718
305.889
309.96
312.076
311.652
309.169
304.968
304.246
304.915
302.933
303.603
301.722
302.292
301.061
301.324
300.801
300.898
300.705
300.743
300.67
300.68
300.725
300.65
302.674
301.151
311.491
309.43
306.185
308.705
319.217
317.484
317.753
315.536
321.674
320.727
320.747
322.053
324.983
324.164
325.472
324.78
329.866
329.151
327.607
328.382
331.044
331.095
330.914
330.469
331.749
332.631
333.149
333.367
329.513
331.251
332.693
333.828
326.235
328.645
330.996
320.711
321.913
326.535
326.457
323.808
319.527
319.354
319.398
320.181
319.839
326.22
328.153
322.966
320.825
322.393
324.661
323.305
329.069
329.344
327.723
317.162
306.964
300.772
300.008
300.064
301.404
301.358
301.327
301.311
301.308
301.311
301.307
301.294
301.273
301.238
301.192
301.147
301.107
301.075
301.053
301.04
301.076
301.449
302.861
305.957
309.921
312.178
312.007
309.909
305.876
301.856
302.984
302.333
302.377
301.469
301.852
300.999
301.191
300.798
300.875
300.715
300.75
300.668
300.689
300.652
300.656
300.781
300.642
303.758
301.469
313.226
310.904
307.513
309.947
321.707
319.824
319.824
317.491
324.025
323.138
323.369
324.771
326.858
326.149
328.036
327.462
331.761
331.074
329.719
330.38
333.436
333.313
332.931
332.396
334.656
335.134
335.356
335.443
332.951
334.435
335.51
336.253
329.331
331.98
334.126
321.412
323.417
329.552
329.62
326.273
319.911
319.782
320.16
321.118
320.693
326.66
328.649
323.993
322.246
323.747
325.573
324.067
329.519
329.797
328.345
317.155
306.244
300.747
300.359
300.285
301.45
301.385
301.353
301.339
301.335
301.329
301.314
301.293
301.26
301.215
301.169
301.129
301.102
301.09
301.104
301.187
301.625
303.117
306.165
309.976
312.304
312.272
310.467
306.641
302.284
301.474
301.052
301.275
301.213
300.917
301.035
300.787
300.84
300.722
300.751
300.679
300.7
300.647
300.66
300.619
300.638
300.872
300.642
306.274
303.75
301.951
315.021
312.477
308.688
311.293
323.985
321.996
321.37
319.059
326.782
325.907
325.786
327.336
329.114
328.563
330.742
330.223
333.784
333.187
332.064
332.603
335.445
335.233
334.845
334.352
336.761
337.039
337.177
337.247
335.628
336.66
337.356
337.833
332.504
334.825
336.312
323.217
326.213
332.841
332.659
329.711
321.278
320.99
322.006
323.331
322.436
327.581
329.177
325.101
323.643
324.574
326.437
324.73
329.933
330.162
328.872
317.285
306.339
301.285
300.693
301.185
301.51
301.412
301.376
301.361
301.352
301.335
301.313
301.282
301.237
301.191
301.152
301.137
301.162
301.253
301.441
301.991
303.608
306.59
310.145
312.449
312.468
310.825
307.215
302.731
300.97
300.928
300.834
300.901
300.857
300.777
300.811
300.728
300.751
300.689
300.709
300.654
300.671
300.629
300.64
300.603
300.602
300.987
300.663
307.016
304.477
301.7
303.183
316.58
313.961
309.674
312.376
325.586
323.529
321.812
319.687
329.542
328.595
327.531
329.303
331.595
331.169
333.204
332.662
335.994
335.492
334.5
334.989
337.259
337.115
336.832
336.448
338.179
338.453
338.633
338.742
337.208
337.8
338.178
338.471
335.138
336.243
337.046
326.509
329.689
334.222
332.859
331.536
323.881
323.054
324.162
326.313
323.767
328.171
329.401
325.371
324.39
324.958
326.596
325.313
330.234
330.521
329.34
317.962
308.041
303.708
303.465
306.027
301.575
301.435
301.395
301.377
301.357
301.334
301.305
301.26
301.212
301.179
301.193
301.334
301.621
302.027
302.757
304.41
307.222
310.509
312.622
312.586
310.988
307.568
303.1
301.06
300.79
300.806
300.798
300.778
300.773
300.735
300.753
300.699
300.718
300.665
300.682
300.636
300.649
300.591
300.621
300.592
300.582
301.901
301.276
300.878
300.688
307.807
305.351
303.518
317.434
314.995
310.372
312.885
326.046
323.899
321.552
319.579
331.895
330.785
328.302
330.476
334.058
333.634
335.486
334.736
338.292
337.907
337.02
337.477
338.834
338.853
338.786
338.572
338.705
338.945
339.162
339.392
337.536
337.849
338.127
338.367
335.132
335.556
335.647
328.526
329.434
333.321
331.691
330.667
325.504
324.21
324.814
326.878
324.227
328.598
329.661
325.382
324.332
324.901
327.02
326.09
330.547
330.734
329.776
320.016
313.724
312.613
317.374
318.001
301.636
301.455
301.408
301.384
301.357
301.328
301.283
301.236
301.21
301.304
301.713
302.377
302.997
303.835
305.473
308.15
311.071
312.824
312.614
310.986
307.694
303.343
301.135
300.818
300.746
300.771
300.75
300.761
300.76
300.753
300.743
300.71
300.727
300.675
300.694
300.645
300.66
300.612
300.634
300.568
300.581
300.588
300.568
302.206
301.343
300.932
300.713
308.126
305.76
303.902
317.512
315.28
310.518
312.841
325.795
323.567
320.385
318.678
333.714
332.317
328.31
331.038
336.561
336.054
337.577
336.579
339.991
339.91
339.347
339.703
339.539
339.731
339.909
339.965
338.56
338.811
339.061
339.257
335.802
336.034
336.323
336.607
333.928
334.558
327.09
327.598
325.233
326.727
327.122
326.275
325.262
324.283
324.454
326.076
324.022
328.927
330.005
325.751
324.351
325.423
326.982
327.209
330.641
330.992
330.229
323.119
320.319
321.117
322.916
324.977
301.686
301.469
301.417
301.384
301.352
301.309
301.258
301.247
301.473
302.283
303.295
304.114
305.072
306.729
309.276
311.685
312.903
312.561
310.86
307.647
303.427
301.185
300.846
300.774
300.732
300.732
300.734
300.747
300.737
300.722
300.689
300.706
300.654
300.672
300.629
300.641
300.576
300.602
300.553
300.561
300.587
300.556
302.337
301.431
300.984
301.001
300.78
300.651
308.094
305.922
303.948
316.922
314.992
310.25
312.28
324.76
322.267
318.584
317.111
335.212
333.38
327.981
331.166
338.894
338.305
338.905
337.819
340.523
340.595
340.41
340.587
339.507
339.979
340.225
340.359
336.821
337.19
337.547
337.919
327.224
327.593
327.652
327.781
327.058
328.031
319.906
324.427
319.452
319.921
320.125
319.773
322.509
324.05
321.841
323.913
320.757
328.633
329.865
326.022
320.264
324.738
319.977
327.14
328.36
330.831
331.191
330.641
326.095
325.389
326.951
406.267
330.411
301.723
301.479
301.417
301.38
301.335
301.286
301.289
301.674
302.925
304.235
305.265
306.368
308.108
310.329
312.078
312.865
312.333
310.475
307.388
303.355
301.202
300.865
300.805
300.747
300.717
300.717
300.718
300.719
300.734
300.703
300.668
300.687
300.639
300.652
300.594
300.623
300.56
300.574
300.536
300.544
300.583
300.543
302.435
301.485
301.026
300.795
300.668
307.711
305.805
303.875
315.688
314.104
309.548
311.246
323.428
320.461
316.573
315.191
336.28
334.006
327.159
330.95
340.124
339.601
339.262
338.152
340.552
340.642
340.613
340.717
338.273
339.124
340.022
340.177
327.786
327.901
327.949
328.05
319.844
320.036
319.994
320.014
319.866
320.245
311.261
318.987
311.23
311.339
311.495
311.354
317.793
321.597
317.214
318.462
316.16
328.622
330.134
325.966
315.61
320.107
315.347
327.715
329.603
330.928
331.414
331.108
328.478
328.375
329.298
703.303
343.801
301.746
301.483
301.413
301.369
301.311
301.328
301.917
303.53
305.108
306.349
307.663
309.359
311.067
312.129
312.66
311.774
309.783
306.758
303.06
301.185
300.883
300.827
300.781
300.728
300.722
300.702
300.702
300.703
300.707
300.685
300.648
300.667
300.616
300.635
300.576
300.593
300.541
300.56
300.524
300.523
300.582
300.533
302.453
301.546
301.05
300.818
300.678
307.029
305.45
303.642
314.004
312.732
308.528
309.881
321.88
318.645
314.782
313.318
336.612
334.111
326.07
330.544
340.399
339.896
339.236
338.112
339.716
339.776
340.282
340.387
328.245
336.839
339.111
338.898