/*--------------------------------*- C++ -*----------------------------------*\
  =========                 |
  \\      /  F ield         | OpenFOAM: The Open Source CFD Toolbox
   \\    /   O peration     | Website:  https://openfoam.org
    \\  /    A nd           | Version:  dev
     \\/     M anipulation  |
\*---------------------------------------------------------------------------*/
FoamFile
{
    version     2.0;
    format      ascii;
    class       volVectorField;
    location    "2500";
    object      U;
}
// * * * * * * * * * * * * * * * * * * * * * * * * * * * * * * * * * * * * * //

dimensions      [0 1 -1 0 0 0 0];

internalField   nonuniform List<vector> 
9842
(
(0.00445691 0.00702297 0)
(0.0105542 0.00627996 -7.01513e-30)
(0.00444768 0.0184466 -2.99515e-28)
(0.014555 0.0051822 0)
(0.0117232 0.0187997 -1.57887e-27)
(0.00380361 0.0266852 -6.87509e-29)
(0.017661 0.0043202 0)
(0.0164179 0.018265 -1.0048e-27)
(0.011242 0.0277053 0)
(0.00316205 0.0333373 4.10612e-28)
(0.0199942 0.00358949 7.23954e-28)
(0.0194233 0.0163919 0)
(0.0171457 0.0284963 -8.93512e-28)
(0.00990206 0.0343362 -3.80017e-28)
(0.00277821 0.0392707 7.89643e-29)
(0.0219259 0.00299502 7.01334e-28)
(0.0214649 0.0139476 0)
(0.021435 0.0281101 -1.14423e-27)
(0.0163184 0.0358977 -6.30033e-28)
(0.00853891 0.0399806 0)
(0.00250676 0.0447019 -1.61936e-28)
(0.0237371 0.00253897 0)
(0.0231177 0.0115877 0)
(0.02424 0.0264722 0)
(0.021732 0.0370168 -6.21092e-29)
(0.0145964 0.0414686 0)
(0.00761791 0.0452133 4.08146e-28)
(0.00228897 0.0496598 -8.95047e-36)
(0.0254955 0.00220709 0)
(0.0246533 0.00962745 0)
(0.0259394 0.0239949 -1.65435e-29)
(0.0258277 0.0370605 1.18337e-27)
(0.0205141 0.0432859 -3.75602e-29)
(0.0129356 0.0463543 8.9355e-29)
(0.00695939 0.0500478 -7.19141e-29)
(0.00211617 0.0542651 1.46748e-27)
(0.0271959 0.00198581 0)
(0.02612 0.00827408 1.48019e-28)
(0.0269783 0.0211797 -5.97748e-28)
(0.0285174 0.0358065 1.30666e-27)
(0.0256284 0.0447137 0)
(0.0185371 0.0480768 0)
(0.0117301 0.0509257 4.33919e-28)
(0.00640963 0.0545837 1.04569e-27)
(0.00196572 0.0585791 0)
(0.0288814 0.00184343 0)
(0.0276009 0.00746023 -9.10719e-29)
(0.0278672 0.0184514 -5.0654e-28)
(0.0300564 0.0335083 2.10861e-29)
(0.0295998 0.0451389 0)
(0.0240849 0.0500827 0)
(0.0166919 0.0522963 9.09536e-29)
(0.0107886 0.0553408 0)
(0.00593032 0.0588396 -2.85211e-28)
(0.00182915 0.0626201 1.80242e-27)
(0.030598 0.00174975 0)
(0.0291468 0.00694294 0)
(0.0288537 0.0160848 -7.58545e-29)
(0.0308595 0.030545 8.30983e-29)
(0.0323302 0.0443095 0)
(0.0290291 0.0517591 0)
(0.0219272 0.0542098 -2.80692e-29)
(0.0152663 0.0564373 -4.55047e-28)
(0.009992 0.0594854 0)
(0.00550784 0.0628392 2.91544e-27)
(0.00170898 0.0664164 0)
(0.032366 0.00167654 0)
(0.0307908 0.00654823 0)
(0.0300261 0.0143526 0)
(0.0314011 0.0273606 8.22793e-29)
(0.0339369 0.0422993 8.79505e-29)
(0.0329851 0.0525411 -5.47024e-28)
(0.027211 0.0564162 -1.31271e-29)
(0.0199494 0.0579501 -1.83214e-28)
(0.0141358 0.0603991 8.02654e-28)
(0.00929731 0.0634433 2.67738e-27)
(0.00513185 0.0665938 0)
(0.00159517 0.0700079 -3.07978e-28)
(0.0341553 0.00160989 3.63629e-28)
(0.032513 0.00620807 0)
(0.0314671 0.0132034 1.1115e-28)
(0.0320573 0.0243328 -6.5217e-28)
(0.0347768 0.0394645 9.01332e-29)
(0.0358403 0.0521062 -5.71042e-28)
(0.0320783 0.0583318 4.34477e-28)
(0.0249158 0.0599628 -1.46768e-29)
(0.018391 0.0616492 5.25601e-28)
(0.0131483 0.0642686 1.10017e-27)
(0.00865654 0.0671644 0)
(0.00478288 0.0701636 2.64538e-28)
(0.00148566 0.0733803 -2.97784e-28)
(0.0359672 0.00155822 7.51622e-28)
(0.0342687 0.00593003 1.49728e-28)
(0.0330936 0.0123772 0)
(0.0329354 0.0217874 -5.41209e-28)
(0.0352074 0.0362097 0)
(0.0376361 0.0504352 8.8602e-29)
(0.0361063 0.0594194 4.72802e-28)
(0.0300337 0.0622603 -1.68149e-30)
(0.0228648 0.0633142 0)
(0.0170934 0.0653591 -8.53396e-28)
(0.0122556 0.0679358 0)
(0.00806125 0.0707115 0)
(0.00444468 0.0735093 5.05812e-28)
(0.0013798 0.0765544 -2.59088e-27)
(0.0378437 0.00152585 7.84688e-28)
(0.0360445 0.00572673 0)
(0.0347417 0.0116994 1.41165e-28)
(0.0341096 0.0200205 0)
(0.0355721 0.0329302 0)
(0.038597 0.0478178 0)
(0.0391274 0.0593569 5.06657e-28)
(0.0348602 0.0643971 -1.35937e-29)
(0.0276314 0.0654396 -6.38062e-30)
(0.0211872 0.0667508 -5.97282e-28)
(0.0159412 0.0689332 0)
(0.0114287 0.0714388 0)
(0.007493 0.074057 2.19387e-27)
(0.00411789 0.0766629 -2.72077e-27)
(0.00127388 0.0795334 2.70469e-28)
(0.0398074 0.00150655 8.17108e-28)
(0.0378874 0.00557823 0)
(0.03642 0.0111427 7.1309e-28)
(0.0355288 0.0188708 6.07666e-28)
(0.0360831 0.0299514 0)
(0.0390036 0.0446327 0)
(0.0411337 0.058091 -7.54461e-32)
(0.0389741 0.0658582 -5.62967e-29)
(0.0325726 0.0678765 0)
(0.0254721 0.068538 0)
(0.0197326 0.0702108 0)
(0.014872 0.0723689 0)
(0.010641 0.0747634 1.99519e-27)
(0.00694958 0.0772012 2.48096e-27)
(0.00379686 0.0796233 -2.22716e-28)
(0.00117037 0.0823099 -3.44511e-27)
(0.0418207 0.00148082 6.23208e-28)
(0.0398221 0.00545264 0)
(0.0381989 0.0107139 7.34351e-28)
(0.0371125 0.0179715 1.54273e-27)
(0.036924 0.0276024 0)
(0.0391752 0.0411817 0)
(0.0422577 0.0557856 -1.36631e-35)
(0.0421767 0.0662565 1.77801e-28)
(0.0373508 0.0702617 0)
(0.0300436 0.070773 2.40143e-30)
(0.023644 0.0717941 5.44428e-29)
(0.01839 0.07355 -7.13176e-30)
(0.0138568 0.0756522 0)
(0.00987378 0.0779007 2.39538e-27)
(0.0064161 0.080174 2.91788e-27)
(0.00348041 0.0823769 -4.13569e-33)
(0.00106639 0.0848927 3.73631e-27)
(0.043869 0.00147459 4.43566e-28)
(0.0417988 0.00537394 9.15315e-28)
(0.0400797 0.0103931 0)
(0.0387653 0.0171505 1.60934e-27)
(0.0381819 0.0259517 2.70805e-28)
(0.0394669 0.0378119 1.02958e-28)
(0.0427869 0.0527433 7.86963e-28)
(0.044437 0.0654455 -6.45693e-28)
(0.0415967 0.0720633 1.75528e-28)
(0.0348335 0.0733578 2.37404e-29)
(0.0277926 0.0737061 1.39093e-28)
(0.0220248 0.0750003 -3.93585e-28)
(0.0171391 0.0767848 4.13946e-31)
(0.0128667 0.0787722 0)
(0.00911634 0.0808822 2.67517e-27)
(0.00587413 0.0829389 6.10024e-27)
(0.00315966 0.0849483 3.59789e-27)
(0.000956397 0.0872822 -4.23048e-28)
(0.0459643 0.00149093 6.8267e-28)
(0.0438105 0.00531796 1.09003e-27)
(0.0420465 0.0101245 3.79999e-28)
(0.0405053 0.0164411 8.37045e-28)
(0.0397178 0.0247462 8.7216e-28)
(0.0400556 0.0348862 1.03838e-27)
(0.0429635 0.0492613 8.9788e-28)
(0.0458326 0.0634985 -6.27459e-28)
(0.045026 0.0729038 1.90992e-37)
(0.0396141 0.0759381 -1.81643e-28)
(0.0322272 0.076012 -2.80823e-28)
(0.0258464 0.0767348 -3.43241e-28)
(0.0205304 0.0781527 0)
(0.01594 0.0798716 0)
(0.0118913 0.0817379 0)
(0.0083559 0.0836732 2.87e-27)
(0.00532449 0.0855296 -1.12184e-28)
(0.00282729 0.0873274 -3.89042e-27)
(0.000844466 0.0894546 -1.10156e-31)
(0.0480947 0.0015088 0)
(0.0458874 0.0052404 1.56668e-27)
(0.0440696 0.00987479 1.98987e-28)
(0.0424021 0.0158802 -1.1941e-27)
(0.0413758 0.0236703 8.92852e-28)
(0.0411194 0.0326827 7.86277e-28)
(0.043117 0.0456238 1.14599e-27)
(0.0465593 0.0606945 0)
(0.0475775 0.0725691 1.41669e-28)
(0.04399 0.0780788 -5.94695e-29)
(0.0369049 0.0786788 3.11467e-28)
(0.0298878 0.0787986 -3.08719e-28)
(0.0240677 0.0797644 -3.1102e-28)
(0.0191048 0.0812038 8.07298e-28)
(0.01475 0.0828273 0)
(0.0109156 0.0845485 0)
(0.00758439 0.0862779 4.34782e-29)
(0.00476869 0.087928 -3.53228e-33)
(0.00248837 0.0894795 0)
(0.000731243 0.0914315 3.21181e-28)
(0.0502726 0.00151767 5.10139e-28)
(0.0480152 0.00514982 8.1583e-28)
(0.0461304 0.00967697 4.15263e-28)
(0.0443918 0.0154363 -1.03941e-27)
(0.0430918 0.0226633 3.97716e-28)
(0.0425701 0.0311219 0)
(0.043513 0.0422411 1.24321e-28)
(0.0468579 0.057356 8.62257e-28)
(0.0492704 0.0710825 8.0096e-28)
(0.0476717 0.079372 0)
(0.0416506 0.0814559 2.6066e-28)
(0.0341787 0.0812468 2.30796e-28)
(0.0277866 0.0816616 -4.61077e-29)
(0.0223899 0.0827591 5.95856e-28)
(0.0176934 0.0841691 2.19207e-28)
(0.0135486 0.085645 0)
(0.00993195 0.0871562 2.63332e-29)
(0.00680461 0.0886961 3.49987e-27)
(0.0042018 0.0901016 0)
(0.00214047 0.0914443 0)
(0.000610818 0.093187 5.1707e-27)
(0.0524914 0.00152125 7.67968e-28)
(0.0501823 0.00508976 0)
(0.0482408 0.00952713 8.83759e-28)
(0.0464082 0.0150659 -2.01793e-28)
(0.0449086 0.0218144 1.72794e-27)
(0.0441726 0.0299461 1.50106e-28)
(0.0442451 0.0395603 -5.63957e-28)
(0.0469164 0.0537507 1.02021e-27)
(0.0502167 0.0686307 1.56191e-27)
(0.0505101 0.0795745 -1.67601e-28)
(0.0461479 0.083953 -1.49618e-28)
(0.0387341 0.0840485 -3.52238e-28)
(0.0317009 0.0838889 0)
(0.0258349 0.0845681 3.43629e-28)
(0.0207533 0.0857164 -1.04379e-28)
(0.0162814 0.0869873 2.73899e-28)
(0.0123481 0.0882606 0)
(0.00892234 0.0895971 5.42435e-29)
(0.00600334 0.0909155 -1.04909e-29)
(0.00360658 0.0920955 0)
(0.00177726 0.0931896 4.78238e-27)
(0.000487376 0.0947025 1.32614e-31)
(0.0547377 0.00152551 0)
(0.0523922 0.00506927 4.70231e-28)
(0.0503891 0.00937242 9.19836e-28)
(0.0484813 0.0147496 2.10036e-28)
(0.046849 0.0211247 4.1232e-28)
(0.045848 0.0289266 1.1968e-27)
(0.045448 0.0376667 -6.22073e-28)
(0.0470589 0.0501452 4.31525e-28)
(0.0506495 0.0655125 5.04989e-28)
(0.0524976 0.0786071 1.90886e-28)
(0.0500636 0.0857281 9.02522e-43)
(0.043437 0.0870443 3.58613e-28)
(0.0358712 0.0864693 -1.4231e-28)
(0.0294406 0.0866531 6.34013e-28)
(0.0239605 0.0874824 3.78632e-28)
(0.0191362 0.0885335 0)
(0.0148604 0.0896252 1.27562e-27)
(0.0111172 0.090729 -1.26982e-28)
(0.0078812 0.0918555 0)
(0.00516255 0.0929512 0)
(0.00298897 0.0938633 0)
(0.0014053 0.0946829 -5.07758e-27)
(0.00036588 0.0959976 -2.72631e-28)
(0.057009 0.00152415 -5.69992e-28)
(0.0546447 0.00504553 2.39875e-28)
(0.0525799 0.00921348 2.27858e-28)
(0.0506253 0.0144726 2.17056e-28)
(0.0488752 0.0205474 2.03331e-28)
(0.0476358 0.0279968 8.71921e-28)
(0.0470093 0.0362539 1.00408e-27)
(0.0475654 0.0469344 1.08283e-27)
(0.0507763 0.0620034 0)
(0.0537249 0.0765807 7.74973e-29)
(0.0531946 0.0864994 -1.95574e-28)
(0.0480324 0.089865 1.71851e-27)
(0.0403356 0.0894045 -1.59792e-28)
(0.0332599 0.0890294 4.64865e-29)
(0.027321 0.0894814 8.71805e-28)
(0.022116 0.0903023 -5.22762e-28)
(0.0174996 0.0912101 1.93581e-27)
(0.0134084 0.0921226 0)
(0.00984418 0.0930183 -1.57303e-28)
(0.00681013 0.093926 1.1321e-28)
(0.00429621 0.0947496 4.2101e-27)
(0.00235948 0.0953758 -4.78186e-27)
(0.00102757 0.0959574 -6.26836e-30)
(0.000240372 0.0970442 -7.09987e-29)
(0.0592991 0.00151713 -5.87672e-28)
(0.0569221 0.00499676 2.44123e-28)
(0.0548368 0.00907925 -2.32532e-28)
(0.0528229 0.014198 4.45394e-28)
(0.0509849 0.0200635 8.6054e-28)
(0.0495436 0.0271512 9.0085e-28)
(0.0487212 0.0350592 0)
(0.0485262 0.0444947 2.63856e-27)
(0.050828 0.0583336 -2.72814e-29)
(0.0543663 0.0737569 9.98107e-28)
(0.0555089 0.0861101 -4.31366e-28)
(0.0521765 0.0921107 9.46826e-28)
(0.0450082 0.0925827 -1.06292e-42)
(0.0373535 0.0917447 1.76e-29)
(0.0308464 0.0917358 -1.71969e-28)
(0.0252377 0.0923059 6.49731e-28)
(0.0202533 0.0930132 -1.13659e-27)
(0.0158147 0.0937508 9.02354e-28)
(0.011905 0.0944648 -2.04669e-27)
(0.00853603 0.0951243 0)
(0.00569504 0.095758 4.22286e-27)
(0.00340749 0.0963055 -1.98142e-28)
(0.0017081 0.0966626 0)
(0.000676109 0.0970429 -1.39141e-31)
(0.000100294 0.0978286 0)
(0.0615883 0.0015068 -3.55719e-28)
(0.0592107 0.0049379 -2.47454e-28)
(0.0571272 0.00895909 -3.15465e-28)
(0.0550716 0.0139071 -4.55365e-28)
(0.0531898 0.0196292 4.32997e-28)
(0.0515599 0.0263886 1.74437e-27)
(0.0505132 0.0340076 9.60393e-28)
(0.0499181 0.0427919 3.62527e-28)
(0.051108 0.0548223 1.07001e-27)
(0.0546236 0.0704163 -5.03356e-28)
(0.0570612 0.0846102 -4.69037e-28)
(0.0556305 0.0934332 1.65478e-27)
(0.0496684 0.0957186 1.17754e-28)
(0.0417319 0.0948195 -1.8366e-28)
(0.0345944 0.094292 -2.74867e-43)
(0.0285075 0.0945469 1.90037e-28)
(0.0231428 0.0950292 -1.57315e-27)
(0.0183481 0.0956128 5.29844e-28)
(0.0140826 0.0961565 -2.41615e-28)
(0.0103435 0.0966238 6.78891e-28)
(0.00717483 0.0970013 0)
(0.00453625 0.097356 -1.72832e-28)
(0.00248938 0.0976386 -4.92718e-27)
(0.0010145 0.0976702 0)
(0.000309064 0.0979152 -1.09711e-28)
(-4.34206e-05 0.0983877 -2.94687e-28)
(0.0638706 0.00148522 -3.70152e-28)
(0.0615072 0.00487501 -4.93989e-28)
(0.0594358 0.00883275 -2.35153e-27)
(0.0573513 0.0136228 -6.401e-28)
(0.0554194 0.019216 -1.40873e-27)
(0.0537052 0.0257141 1.29423e-28)
(0.0524065 0.0330729 1.01195e-27)
(0.051609 0.0414843 7.191e-28)
(0.0518093 0.0518563 -1.26518e-27)
(0.0546978 0.0668104 0)
(0.0579641 0.0821743 0)
(0.058289 0.0936596 4.8225e-28)
(0.0540212 0.0984288 0)
(0.0463568 0.0981743 -6.35395e-29)
(0.0386059 0.097169 1.33673e-29)
(0.0319781 0.0970322 2.1492e-28)
(0.0261879 0.0972712 2.0916e-28)
(0.021023 0.0976832 -7.99361e-28)
(0.0163934 0.0980725 0)
(0.0122827 0.0983887 4.3612e-27)
(0.00873116 0.0985522 -6.012e-28)
(0.00574872 0.0986501 0)
(0.00334182 0.0987214 -4.84855e-27)
(0.00153953 0.098721 0)
(0.000349045 0.0984321 0)
(-0.000104611 0.0984971 0)
(-0.000184826 0.0987272 -5.67997e-28)
(0.0661432 0.00145245 0)
(0.0638024 0.00480518 -5.12059e-28)
(0.0617589 0.00869039 -3.59972e-28)
(0.0596558 0.0133553 -2.74606e-27)
(0.0576655 0.0188444 -1.92692e-27)
(0.0559141 0.0250997 4.31338e-28)
(0.0544355 0.0322178 -1.87075e-27)
(0.0534783 0.0403025 -7.54885e-28)
(0.0530082 0.0496619 6.77872e-28)
(0.0548817 0.0631721 -1.17717e-27)
(0.0584285 0.0790881 1.70156e-27)
(0.0601971 0.0927294 1.08595e-27)
(0.0577903 0.10033 3.98946e-28)
(0.0510613 0.101594 1.21706e-27)
(0.0429182 0.100386 4.68564e-28)
(0.0356837 0.0997716 3.4252e-28)
(0.0294293 0.0997368 -4.84814e-28)
(0.0238565 0.0999659 0)
(0.0188523 0.100202 8.89405e-28)
(0.0143659 0.100383 8.35028e-28)
(0.0104111 0.100384 1.30251e-27)
(0.00704596 0.100279 0)
(0.00426892 0.100052 0)
(0.00211123 0.0998387 0)
(0.000558672 0.0995227 0)
(-0.000276292 0.0989856 -3.53908e-28)
(-0.0005192 0.0988021 0)
(-0.000335004 0.0988348 0)
(0.0683832 0.00142003 -5.0697e-28)
(0.0660761 0.00473156 1.56269e-27)
(0.0640756 0.00852569 -4.84868e-28)
(0.0619788 0.0130999 -4.60564e-28)
(0.0599621 0.0184947 -1.45747e-27)
(0.0581486 0.0244986 2.09607e-27)
(0.0565778 0.0314634 -1.09341e-27)
(0.055415 0.0392193 -1.12885e-27)
(0.0546412 0.0481063 -1.21291e-27)
(0.0554149 0.059794 6.34487e-28)
(0.0586667 0.0755998 9.67696e-29)
(0.0614443 0.090767 1.73412e-27)
(0.0608421 0.101185 1.05142e-27)
(0.0555933 0.104713 8.1066e-28)
(0.0474984 0.103907 9.91329e-28)
(0.0396526 0.102811 8.45341e-29)
(0.0328794 0.102436 4.90928e-28)
(0.0268736 0.102468 0)
(0.0214677 0.102556 5.10743e-28)
(0.0165987 0.102595 9.83741e-28)
(0.0122389 0.102483 7.16419e-28)
(0.00845758 0.102204 -2.45703e-28)
(0.00527898 0.10174 2.99367e-27)
(0.00274042 0.101208 -3.02451e-28)
(0.000836864 0.10068 0)
(-0.000424264 0.100048 3.5637e-28)
(-0.000881711 0.0992866 1.28052e-27)
(-0.000918879 0.098812 9.30595e-28)
(-0.000468012 0.0987296 -2.08176e-27)
(0.0705742 0.00138532 2.52442e-28)
(0.0683203 0.00463441 1.0894e-27)
(0.0663796 0.00832655 0)
(0.0643126 0.0128417 -4.75119e-28)
(0.0622965 0.0181223 0)
(0.0604268 0.0239191 2.17485e-27)
(0.0588045 0.0307895 5.94005e-28)
(0.0574268 0.038262 -1.18432e-27)
(0.0564805 0.0469071 2.00421e-27)
(0.0563878 0.0570018 0)
(0.0588781 0.0719242 -6.88038e-28)
(0.0621983 0.0879835 7.1688e-28)
(0.0631569 0.100895 0)
(0.0596906 0.107186 0)
(0.0522291 0.10756 5.57919e-28)
(0.0439107 0.106172 -2.39711e-28)
(0.0365525 0.105403 -5.46819e-29)
(0.0300854 0.105196 -2.08897e-36)
(0.0242544 0.10514 7.7506e-28)
(0.0189822 0.105055 1.13502e-27)
(0.0142226 0.104832 -1.08605e-27)
(0.010006 0.104403 -2.29258e-28)
(0.00640172 0.103762 1.88511e-27)
(0.00343316 0.102965 7.86046e-28)
(0.00115474 0.102085 -3.17513e-28)
(-0.000470386 0.101232 1.69874e-27)
(-0.00137069 0.100322 7.406e-28)
(-0.00150058 0.0993787 5.24251e-28)
(-0.00128849 0.0985738 9.63567e-28)
(-0.000576615 0.0984096 -2.38817e-27)
(0.0726822 0.0013362 -8.00928e-27)
(0.0705315 0.00448429 2.49356e-28)
(0.0686577 0.00810081 1.93065e-27)
(0.0666547 0.0125615 -2.05986e-27)
(0.0646579 0.0177117 -1.85598e-27)
(0.0627719 0.0233826 0)
(0.0610864 0.0301023 2.39037e-27)
(0.059582 0.0373808 -3.29168e-27)
(0.0584427 0.0458452 2.6034e-27)
(0.0577965 0.0549177 7.18269e-28)
(0.0593323 0.0682808 -4.07734e-27)
(0.0627156 0.0846671 1.36639e-27)
(0.0648305 0.0994824 0)
(0.063159 0.108702 -1.14738e-27)
(0.0569149 0.111068 2.06908e-27)
(0.04845 0.10984 2.31608e-27)
(0.040489 0.108651 -1.01993e-27)
(0.0335104 0.108152 0)
(0.0272422 0.107946 -7.02174e-28)
(0.0215473 0.10775 -9.26505e-28)
(0.0163696 0.107427 -1.29859e-27)
(0.011715 0.106871 -7.11246e-28)
(0.00765337 0.106095 8.50211e-28)
(0.00423093 0.105091 1.66055e-27)
(0.00151274 0.103897 0)
(-0.000478915 0.102657 0)
(-0.00177479 0.101503 -3.01326e-31)
(-0.00225787 0.100353 7.6328e-28)
(-0.00212383 0.0991779 -9.03626e-28)
(-0.00163147 0.0981969 2.46078e-26)
(-0.000682707 0.0978845 0)
(0.0746703 0.00126644 -6.66777e-27)
(0.072668 0.00428134 -1.11285e-26)
(0.0708957 0.00786368 0)
(0.0689779 0.0122355 -1.00443e-26)
(0.0670287 0.0172757 5.57214e-27)
(0.0651643 0.022862 -6.46893e-27)
(0.0634221 0.0293603 0)
(0.0618616 0.0365635 6.92298e-27)
(0.0605579 0.0448171 -1.59588e-27)
(0.0595795 0.0533484 0)
(0.0601693 0.0649318 -2.9022e-27)
(0.063148 0.0810456 0)
(0.0660037 0.0971286 0)
(0.0659489 0.109109 0)
(0.0613151 0.114061 1.04207e-27)
(0.053207 0.113707 2.03545e-27)
(0.0447151 0.112204 1.70089e-27)
(0.0371829 0.111334 0)
(0.0304631 0.110953 0)
(0.0243249 0.110648 -2.07924e-27)
(0.018721 0.11026 -1.77621e-27)
(0.0136075 0.109618 4.31934e-27)
(0.00906526 0.108719 5.65937e-28)
(0.00515619 0.107555 1.05e-27)
(0.0019598 0.106106 2.06733e-27)
(-0.000468268 0.104513 -3.55032e-28)
(-0.00213427 0.102925 0)
(-0.00302087 0.101488 -8.99121e-28)
(-0.00311598 0.100148 0)
(-0.00272089 0.0987735 2.36748e-26)
(-0.00195186 0.0976611 0)
(-0.000815708 0.0971935 0)
(0.0765206 0.00117345 8.98612e-27)
(0.0746895 0.00404 -1.09815e-26)
(0.0730731 0.00759187 4.73813e-28)
(0.0712647 0.0118296 -4.15465e-27)
(0.0693987 0.0168196 4.4816e-31)
(0.0675671 0.0223271 -1.20126e-27)
(0.0658114 0.0285947 -5.11663e-27)
(0.0642327 0.0357744 1.07067e-26)
(0.0628031 0.0437707 2.38641e-27)
(0.0616617 0.0520704 1.17161e-26)
(0.0614204 0.0621107 0)
(0.0636501 0.0772923 0)
(0.0668433 0.0940872 0)
(0.0681056 0.108372 0)
(0.0652253 0.116237 1.01171e-28)
(0.058028 0.117522 0)
(0.0492491 0.116037 0)
(0.0411325 0.11477 0)
(0.0339175 0.114157 0)
(0.0273459 0.113751 0)
(0.0212895 0.113312 -8.36427e-28)
(0.0157194 0.112635 -2.79288e-28)
(0.0106714 0.111636 2.41129e-27)
(0.00624844 0.110337 -1.414e-31)
(0.00252433 0.108694 2.51338e-27)
(-0.000407596 0.106805 -3.48109e-28)
(-0.00250192 0.10479 3.28436e-27)
(-0.00375374 0.102853 -2.73695e-27)
(-0.00419398 0.101238 -6.39411e-28)
(-0.00392465 0.0997011 -5.02175e-28)
(-0.00328513 0.0982001 2.81303e-28)
(-0.0022211 0.0969691 0)
(-0.000954528 0.0963813 0)
(0.0781872 0.00106297 -5.60022e-28)
(0.0765712 0.00376622 1.68208e-26)
(0.075162 0.00723591 -7.41315e-27)
(0.0734989 0.0113346 2.31473e-27)
(0.0717493 0.0163278 5.53182e-27)
(0.069986 0.0217615 -6.33891e-27)
(0.0682382 0.0278241 5.25685e-27)
(0.0666606 0.0349368 0)
(0.0651585 0.0427279 -9.76314e-31)
(0.0639356 0.0509305 1.22023e-26)
(0.0630884 0.059918 -1.28014e-26)
(0.0644494 0.0735841 0)
(0.0675738 0.0906337 -2.37255e-27)
(0.0697433 0.106596 -2.36615e-27)
(0.0685207 0.117375 -6.01419e-27)
(0.0627078 0.12099 1.30448e-27)
(0.0540472 0.120065 0)
(0.0453804 0.118473 -1.38746e-27)
(0.0376401 0.117578 2.38317e-28)
(0.0306111 0.117046 -1.71195e-27)
(0.0241047 0.116565 -1.12276e-27)
(0.018076 0.115889 0)
(0.0125139 0.114852 5.83858e-28)
(0.00754645 0.113441 8.14825e-28)
(0.00324814 0.111648 2.32295e-27)
(-0.000255842 0.109525 -3.38635e-28)
(-0.0028601 0.107133 0)
(-0.00453353 0.104671 4.45502e-27)
(-0.00529941 0.102509 -8.91301e-28)
(-0.00524974 0.100703 0)
(-0.00466026 0.0990215 -5.78046e-27)
(-0.00368298 0.0974786 -1.12197e-27)
(-0.00257519 0.0961679 -1.69817e-29)
(-0.00050967 0.095743 0)
(-0.00154682 0.0954461 -2.60452e-28)
(0.0796173 0.000930447 -5.12494e-28)
(0.0782766 0.00345031 1.50093e-27)
(0.0771109 0.00676019 7.20943e-27)
(0.0756743 0.0107763 2.08814e-31)
(0.0740574 0.0157542 1.11774e-26)
(0.0723975 0.0211512 -1.37707e-26)
(0.070696 0.0270518 3.87763e-27)
(0.0691146 0.0340301 0)
(0.0676056 0.0417337 -6.05171e-27)
(0.0662941 0.0498254 0)
(0.0651388 0.0582664 -2.64827e-26)
(0.0655945 0.0701344 5.3507e-27)
(0.0683036 0.0869584 0)
(0.0709994 0.104003 1.61622e-26)
(0.0712017 0.117414 4.27703e-27)
(0.0670252 0.123795 3.01386e-27)
(0.0589834 0.124149 -2.65038e-27)
(0.0499418 0.122446 3.59165e-27)
(0.0416415 0.121209 -9.65351e-28)
(0.0341415 0.120516 1.47747e-28)
(0.0272035 0.119995 -1.97545e-27)
(0.0207026 0.119335 0)
(0.0146416 0.11833 1.15673e-27)
(0.00909565 0.116874 -1.6409e-27)
(0.00419242 0.114985 3.88954e-27)
(4.498e-05 0.112661 -3.23794e-28)
(-0.00318079 0.10995 0)
(-0.0053527 0.107022 0)
(-0.00649205 0.104213 2.55664e-27)
(-0.00667791 0.101812 -1.75912e-27)
(-0.00616257 0.0998675 -6.71753e-27)
(-0.00526571 0.0982148 -4.63433e-26)
(-0.00410654 0.0967694 0)
(-0.00230162 0.0955172 -2.7364e-28)
(-0.00328656 0.0957711 0)
(-0.000586992 0.0951082 0)
(-0.00154238 0.0949194 4.61264e-28)
(0.0807737 0.000773875 0)
(0.0797578 0.00308067 0)
(0.0788718 0.0061816 -3.57847e-27)
(0.0777385 0.0101424 2.84102e-27)
(0.0763078 0.0150359 8.29481e-27)
(0.0748189 0.020454 8.72853e-28)
(0.0731718 0.0262528 0)
(0.0716065 0.033077 -6.6441e-27)
(0.0701044 0.040753 0)
(0.0687219 0.0487068 1.93606e-26)
(0.0674614 0.0569437 -1.97246e-26)
(0.0670851 0.067187 0)
(0.0691356 0.0832025 4.88466e-27)
(0.0720373 0.100853 1.92624e-26)
(0.0733307 0.116372 2.39844e-26)
(0.0708268 0.1257 0)
(0.0638846 0.128035 0)
(0.0547755 0.12665 1.98098e-27)
(0.0459363 0.125072 0)
(0.0379618 0.124156 -3.26226e-27)
(0.0305792 0.123579 0)
(0.0236461 0.122944 0)
(0.0170855 0.122023 0)
(0.0109591 0.120614 0)
(0.00540604 0.118698 0)
(0.000568828 0.116231 2.83345e-27)
(-0.00337186 0.113258 0)
(-0.00619598 0.109913 0)
(-0.00781454 0.106468 0)
(-0.00827488 0.103319 -1.85485e-27)
(-0.0078379 0.100779 0)
(-0.00694303 0.098879 -5.33651e-26)
(-0.00528019 0.0974844 1.14943e-26)
(-0.00612143 0.0978922 1.02625e-26)
(-0.00399006 0.0960456 0)
(-0.00526888 0.0971789 0)
(-0.00491464 0.0963371 0)
(-0.00249739 0.0950723 2.10232e-28)
(-0.00340287 0.095367 -5.50862e-28)
(-0.0005867 0.0944883 -2.86233e-27)
(-0.00161805 0.0943745 -2.47702e-27)
(0.0816136 0.000589366 0)
(0.0809674 0.00263931 0)
(0.0804354 0.00551768 1.71694e-27)
(0.0796341 0.00937685 -4.17738e-27)
(0.0784795 0.0141557 4.80245e-27)
(0.0772136 0.0196079 0)
(0.0756859 0.0253948 8.44655e-28)
(0.0741335 0.0321071 0)
(0.0726368 0.0397261 0)
(0.0712292 0.0475853 2.1007e-26)
(0.0699039 0.055758 2.02255e-26)
(0.0689741 0.0648677 9.11827e-27)
(0.0702092 0.0795001 -9.9992e-27)
(0.0730322 0.0973952 1.08434e-26)
(0.0750375 0.114411 4.59677e-27)
(0.0740308 0.126563 4.80751e-27)
(0.0685542 0.131436 5.14701e-27)
(0.0597978 0.130967 0)
(0.0505426 0.129188 0)
(0.0420563 0.127974 -6.34427e-27)
(0.0342574 0.127306 -2.24173e-28)
(0.026892 0.126704 3.93296e-27)
(0.0198704 0.125893 -9.31989e-28)
(0.0131789 0.12461 2.20977e-27)
(0.00696822 0.122767 0)
(0.00138998 0.120258 -2.13945e-27)
(-0.00334679 0.117086 4.00749e-27)
(-0.00698569 0.113358 -8.74547e-28)
(-0.00924246 0.109332 0)
(-0.0101336 0.105389 -2.86168e-27)
(-0.0098205 0.10205 4.51626e-27)
(-0.00878857 0.0995234 0)
(-0.00701981 0.0980381 0)
(-0.00787141 0.0983238 0)
(-0.00611106 0.0975159 4.13305e-27)
(-0.00427883 0.0956976 7.09054e-28)
(-0.00569623 0.0966008 -1.22822e-27)
(-0.00512313 0.0960184 0)
(-0.00265976 0.0945828 0)
(-0.00364906 0.0949213 3.61412e-28)
(-0.000631596 0.0938107 4.32748e-27)
(-0.00175923 0.0937774 4.28821e-27)
(0.0820779 0.000393726 0)
(0.0818606 0.00210629 0)
(0.0817617 0.0047302 8.0592e-27)
(0.081328 0.00845068 -6.51763e-27)
(0.0805438 0.0131324 -1.78105e-27)
(0.0795194 0.0185908 -2.07971e-27)
(0.0782238 0.0244512 0)
(0.0766869 0.0311004 -6.24407e-27)
(0.0752149 0.0386512 0)
(0.0737896 0.0464411 1.39631e-26)
(0.0724245 0.054624 2.0275e-26)
(0.071187 0.0630611 1.52684e-26)
(0.0715986 0.0760257 0)
(0.0740616 0.0937869 -1.86067e-27)
(0.0764564 0.111763 1.21477e-26)
(0.0766686 0.126367 -9.21524e-27)
(0.0728024 0.134077 0)
(0.0648607 0.135205 5.33001e-27)
(0.0554287 0.13352 -1.16143e-26)
(0.0464439 0.131989 -9.02478e-27)
(0.0382175 0.131168 6.16571e-27)
(0.0304491 0.130591 3.05788e-27)
(0.0230078 0.129901 4.23024e-27)
(0.0157979 0.128818 -2.28907e-27)
(0.00892909 0.127135 7.3689e-27)
(0.00259478 0.1247 -3.60985e-27)
(-0.00300849 0.121459 -1.23328e-27)
(-0.00756711 0.11744 4.97011e-27)
(-0.0107431 0.112866 -3.50127e-27)
(-0.0122506 0.108121 0)
(-0.0122023 0.103817 2.53347e-27)
(-0.0110544 0.100411 -7.40015e-28)
(-0.00892354 0.0984302 0)
(-0.00983506 0.098743 0)
(-0.00705313 0.0977209 6.03105e-27)
(-0.00792003 0.0979011 0)
(-0.00650774 0.0968793 -1.33199e-27)
(-0.00458245 0.0953297 3.36381e-27)
(-0.00591605 0.0962966 0)
(-0.00544099 0.0957192 5.89249e-27)
(-0.00292023 0.0940345 -6.39114e-28)
(-0.00399662 0.0944315 2.76283e-28)
(-0.000695777 0.093045 0)
(-0.00195201 0.0930966 0)
(0.0820943 0.000162522 6.39956e-27)
(0.0823829 0.00142433 0)
(0.0827882 0.00381864 6.05797e-27)
(0.0827889 0.00737853 -7.91897e-31)
(0.082446 0.0119661 -2.9753e-27)
(0.0817228 0.0174045 -9.48036e-27)
(0.0807091 0.0233451 3.17016e-27)
(0.0792896 0.0300068 -5.63323e-27)
(0.0778451 0.0375287 0)
(0.0764088 0.0452477 1.49027e-27)
(0.0750116 0.0534995 1.36351e-26)
(0.073624 0.0615695 -1.07192e-26)
(0.0733318 0.0729631 0)
(0.0752047 0.090099 0)
(0.0777412 0.108673 8.92308e-27)
(0.0788431 0.125201 8.7495e-27)
(0.0765134 0.135782 2.49394e-26)
(0.0697877 0.1391 -5.8769e-27)
(0.0605071 0.137986 -1.40472e-26)
(0.0511181 0.136209 0)
(0.042454 0.135156 0)
(0.0343289 0.134568 6.14981e-27)
(0.026483 0.134019 8.77858e-27)
(0.0188394 0.133169 -1.41232e-27)
(0.0113677 0.131724 -5.22512e-27)
(0.00427879 0.1295 4.0696e-27)
(-0.00223488 0.126355 1.66257e-27)
(-0.00784856 0.122208 0)
(-0.0121089 0.117187 -1.43373e-27)
(-0.0145681 0.11162 -4.15346e-27)
(-0.0150666 0.106212 0)
(-0.0139022 0.101633 7.97759e-30)
(-0.011171 0.0988574 -1.39977e-27)
(-0.0123104 0.0992327 -9.30829e-28)
(-0.00893031 0.0979986 9.0416e-28)
(-0.00991489 0.0981153 1.36654e-29)
(-0.00734222 0.0971132 -2.70422e-27)
(-0.00816476 0.0972975 7.91691e-28)
(-0.00670552 0.0965594 1.25675e-27)
(-0.00499104 0.0949499 3.75045e-27)
(-0.00623143 0.0960607 -4.73472e-28)
(-0.00586131 0.095446 6.53509e-27)
(-0.00326923 0.0934112 -8.37394e-28)
(-0.00444475 0.0938994 -2.4439e-27)
(-0.000781982 0.0921521 9.01615e-28)
(-0.00221444 0.0923003 6.16078e-28)
(0.0814729 -0.000187692 1.61876e-30)
(0.0825005 0.000704101 3.26361e-28)
(0.0834538 0.00280893 0)
(0.0839817 0.00612348 7.59774e-27)
(0.0841042 0.0106501 -5.85033e-27)
(0.0837759 0.0160479 -4.86934e-28)
(0.0831265 0.0219744 -3.02084e-27)
(0.0819354 0.0287769 0)
(0.0805289 0.0363325 3.73076e-28)
(0.0791021 0.0440228 0)
(0.0776786 0.0523377 9.23575e-27)
(0.0762055 0.0602446 -9.50111e-27)
(0.0753717 0.0703969 1.28958e-27)
(0.0765721 0.0864228 -8.88386e-27)
(0.0790248 0.105317 0)
(0.0806836 0.123241 -4.10132e-27)
(0.0796656 0.136499 5.54373e-26)
(0.0743999 0.142424 -1.77574e-26)
(0.0656667 0.142458 -2.09613e-29)
(0.0560375 0.140611 -2.57171e-26)
(0.0469568 0.13927 0)
(0.038481 0.138618 -7.5383e-27)
(0.0303196 0.138183 -8.60694e-27)
(0.0222892 0.137586 1.26306e-26)
(0.014329 0.136469 -2.86132e-27)
(0.0065181 0.134556 -5.84143e-27)
(-0.000900709 0.131704 3.62339e-27)
(-0.00762393 0.127639 1.23834e-31)
(-0.0131421 0.122362 -1.67116e-27)
(-0.0168504 0.116048 -6.25812e-27)
(-0.0183183 0.109458 1.31928e-27)
(-0.0175124 0.103408 -3.93566e-26)
(-0.0141139 0.0993927 3.61415e-28)
(-0.0156608 0.0999498 1.17448e-27)
(-0.0111753 0.0981643 2.86406e-27)
(-0.0124813 0.0982552 2.70793e-27)
(-0.00905119 0.0973801 6.42559e-28)
(-0.0100252 0.0974187 -2.12418e-27)
(-0.00747326 0.0967959 -3.8937e-27)
(-0.00822626 0.0969605 2.84423e-27)
(-0.00697461 0.096375 0)
(-0.00551482 0.0945682 0)
(-0.00663696 0.0958954 -3.10991e-27)
(-0.00640343 0.0952171 0)
(-0.00372332 0.0926921 0)
(-0.0050331 0.0933146 -1.65194e-27)
(-0.000893189 0.0910891 -1.30282e-27)
(-0.0025674 0.0913516 -7.9121e-28)
(0.080123 -0.00049813 7.86619e-29)
(0.0819296 -6.18145e-05 3.72423e-28)
(0.0835615 0.00166013 1.09072e-27)
(0.0847967 0.00469493 1.73999e-27)
(0.0854923 0.00914857 -4.55757e-27)
(0.0856497 0.0144866 0)
(0.0853836 0.020362 6.24883e-27)
(0.0845821 0.0272917 -2.89959e-27)
(0.0833297 0.0349775 -8.66665e-27)
(0.0818922 0.042769 -5.30469e-28)
(0.0804277 0.0511042 8.05983e-27)
(0.0788992 0.0590142 1.34019e-27)
(0.0776813 0.0682913 1.28163e-27)
(0.0782103 0.0829109 -6.99276e-27)
(0.0803527 0.101817 0)
(0.0823047 0.120679 1.89884e-27)
(0.0823127 0.136243 1.96693e-26)
(0.0785561 0.144963 1.05622e-26)
(0.070759 0.146761 1.82965e-26)
(0.061132 0.145169 -2.73954e-26)
(0.0516978 0.143536 2.29207e-29)
(0.0428888 0.142699 1.42072e-26)
(0.0344599 0.142339 -9.58046e-31)
(0.0261319 0.141984 -9.585e-27)
(0.0177916 0.141269 2.87967e-27)
(0.00937376 0.139822 0)
(0.00111191 0.137378 2.05753e-27)
(-0.00672582 0.133617 4.19746e-28)
(-0.0136316 0.128381 -4.0237e-27)
(-0.0189059 0.121619 0)
(-0.0217543 0.113871 -1.9671e-27)
(-0.0219325 0.106179 -4.1779e-26)
(-0.0180387 0.100255 0)
(-0.0200896 0.101247 2.60339e-27)
(-0.0142081 0.0983105 -1.39441e-27)
(-0.0160405 0.0984942 0)
(-0.0111695 0.0973712 4.00966e-31)
(-0.0125125 0.0972912 2.22008e-27)
(-0.00902112 0.09699 1.47685e-27)
(-0.00992039 0.0969255 0)
(-0.00765008 0.0966548 -5.26116e-27)
(-0.0082813 0.0968265 5.441e-28)
(-0.00730887 0.0963021 -4.20517e-27)
(-0.00620463 0.0941805 2.07034e-28)
(-0.00716693 0.0958197 0)
(-0.00713749 0.0950428 -1.80821e-28)
(-0.00431103 0.0918473 0)
(-0.00581062 0.0926521 1.77367e-28)
(-0.00103644 0.0897874 -1.52414e-27)
(-0.00303721 0.0901904 1.21174e-27)
(0.0781248 -0.000907081 0)
(0.0807863 -0.00106739 -4.76923e-27)
(0.0832119 0.000358946 5.27395e-27)
(0.0851579 0.00309819 6.15937e-27)
(0.0865136 0.00737255 -4.83199e-27)
(0.0872628 0.0126996 0)
(0.0874564 0.0185607 6.32441e-27)
(0.0871851 0.0254679 4.23289e-27)
(0.086215 0.033377 -1.0187e-26)
(0.0848642 0.0413901 -1.35538e-27)
(0.0832859 0.0498228 -1.67089e-28)
(0.0817069 0.0578446 0)
(0.0802102 0.0665228 1.04754e-26)
(0.0801115 0.0797125 2.24135e-27)