/*--------------------------------*- C++ -*----------------------------------*\
  =========                 |
  \\      /  F ield         | OpenFOAM: The Open Source CFD Toolbox
   \\    /   O peration     | Website:  https://openfoam.org
    \\  /    A nd           | Version:  dev
     \\/     M anipulation  |
\*---------------------------------------------------------------------------*/
FoamFile
{
    version     2.0;
    format      ascii;
    class       volScalarField;
    location    "2500";
    object      a;
}
// * * * * * * * * * * * * * * * * * * * * * * * * * * * * * * * * * * * * * //

dimensions      [0 -1 0 0 0 0 0];

internalField   nonuniform List<scalar> 
9838
(
0.100011
0.100011
0.100011
0.100011
0.100011
0.100011
0.100011
0.100011
0.100011
0.100011
0.10001
0.100011
0.100011
0.100011
0.100011
0.10001
0.10001
0.100011
0.100011
0.100011
0.100011
0.10001
0.10001
0.10001
0.100011
0.100011
0.100011
0.100011
0.10001
0.10001
0.10001
0.10001
0.100011
0.100011
0.100011
0.100011
0.100009
0.10001
0.10001
0.10001
0.10001
0.100011
0.100011
0.100011
0.100011
0.100009
0.100009
0.10001
0.10001
0.10001
0.10001
0.100011
0.100011
0.100011
0.100011
0.100009
0.100009
0.100009
0.10001
0.10001
0.10001
0.10001
0.100011
0.100011
0.100011
0.100011
0.100009
0.100009
0.100009
0.100009
0.10001
0.10001
0.10001
0.10001
0.100011
0.100011
0.100011
0.100011
0.100009
0.100009
0.100009
0.100009
0.100009
0.10001
0.10001
0.10001
0.10001
0.100011
0.100011
0.100011
0.100011
0.100008
0.100009
0.100009
0.100009
0.100009
0.100009
0.10001
0.10001
0.10001
0.10001
0.100011
0.100011
0.100011
0.100011
0.100008
0.100008
0.100009
0.100009
0.100009
0.100009
0.100009
0.10001
0.10001
0.10001
0.10001
0.100011
0.100011
0.100011
0.100011
0.100008
0.100008
0.100008
0.100009
0.100009
0.100009
0.100009
0.100009
0.10001
0.10001
0.10001
0.10001
0.100011
0.100011
0.100011
0.100011
0.100008
0.100008
0.100008
0.100008
0.100009
0.100009
0.100009
0.100009
0.100009
0.10001
0.10001
0.10001
0.10001
0.100011
0.100011
0.100011
0.100011
0.100007
0.100008
0.100008
0.100008
0.100008
0.100009
0.100009
0.100009
0.100009
0.100009
0.10001
0.10001
0.10001
0.10001
0.100011
0.100011
0.100011
0.100011
0.100007
0.100007
0.100008
0.100008
0.100008
0.100008
0.100009
0.100009
0.100009
0.100009
0.100009
0.10001
0.10001
0.10001
0.10001
0.100011
0.100011
0.100011
0.100011
0.100007
0.100007
0.100007
0.100008
0.100008
0.100008
0.100008
0.100009
0.100009
0.100009
0.100009
0.100009
0.10001
0.10001
0.10001
0.10001
0.100011
0.100011
0.100011
0.100011
0.100007
0.100007
0.100007
0.100007
0.100008
0.100008
0.100008
0.100008
0.100009
0.100009
0.100009
0.100009
0.100009
0.10001
0.10001
0.10001
0.10001
0.100011
0.100011
0.100011
0.100011
0.100006
0.100007
0.100007
0.100007
0.100007
0.100008
0.100008
0.100008
0.100008
0.100009
0.100009
0.100009
0.100009
0.100009
0.10001
0.10001
0.10001
0.10001
0.100011
0.100011
0.100011
0.100011
0.100006
0.100006
0.100007
0.100007
0.100007
0.100007
0.100008
0.100008
0.100008
0.100008
0.100009
0.100009
0.100009
0.100009
0.100009
0.10001
0.10001
0.10001
0.10001
0.100011
0.100011
0.100011
0.100011
0.100006
0.100006
0.100006
0.100007
0.100007
0.100007
0.100007
0.100008
0.100008
0.100008
0.100008
0.100009
0.100009
0.100009
0.100009
0.100009
0.10001
0.10001
0.10001
0.10001
0.100011
0.100011
0.100011
0.100011
0.100006
0.100006
0.100006
0.100006
0.100007
0.100007
0.100007
0.100007
0.100008
0.100008
0.100008
0.100008
0.100009
0.100009
0.100009
0.100009
0.100009
0.10001
0.10001
0.10001
0.10001
0.100011
0.100011
0.100011
0.100011
0.100006
0.100006
0.100006
0.100006
0.100006
0.100007
0.100007
0.100007
0.100007
0.100008
0.100008
0.100008
0.100008
0.100008
0.100009
0.100009
0.100009
0.100009
0.10001
0.10001
0.10001
0.10001
0.100011
0.100011
0.100011
0.100011
0.100005
0.100006
0.100006
0.100006
0.100006
0.100006
0.100007
0.100007
0.100007
0.100007
0.100008
0.100008
0.100008
0.100008
0.100008
0.100009
0.100009
0.100009
0.100009
0.10001
0.10001
0.10001
0.10001
0.100011
0.100011
0.100011
0.100011
0.100005
0.100005
0.100006
0.100006
0.100006
0.100006
0.100006
0.100007
0.100007
0.100007
0.100007
0.100008
0.100008
0.100008
0.100008
0.100008
0.100009
0.100009
0.100009
0.100009
0.10001
0.10001
0.10001
0.10001
0.100011
0.100011
0.100011
0.100011
0.100005
0.100005
0.100005
0.100006
0.100006
0.100006
0.100006
0.100006
0.100007
0.100007
0.100007
0.100007
0.100008
0.100008
0.100008
0.100008
0.100008
0.100009
0.100009
0.100009
0.100009
0.10001
0.10001
0.10001
0.10001
0.100011
0.100011
0.100011
0.100011
0.100005
0.100005
0.100005
0.100005
0.100006
0.100006
0.100006
0.100006
0.100006
0.100007
0.100007
0.100007
0.100007
0.100008
0.100008
0.100008
0.100008
0.100008
0.100009
0.100009
0.100009
0.100009
0.10001
0.10001
0.10001
0.10001
0.100011
0.100011
0.100011
0.100011
0.100004
0.100005
0.100005
0.100005
0.100005
0.100006
0.100006
0.100006
0.100006
0.100006
0.100007
0.100007
0.100007
0.100007
0.100008
0.100008
0.100008
0.100008
0.100008
0.100009
0.100009
0.100009
0.100009
0.10001
0.10001
0.10001
0.10001
0.100011
0.100011
0.100011
0.100011
0.100004
0.100004
0.100005
0.100005
0.100005
0.100005
0.100006
0.100006
0.100006
0.100006
0.100006
0.100007
0.100007
0.100007
0.100007
0.100008
0.100008
0.100008
0.100008
0.100008
0.100009
0.100009
0.100009
0.100009
0.10001
0.10001
0.10001
0.10001
0.100011
0.100011
0.100011
0.100011
0.100004
0.100004
0.100004
0.100005
0.100005
0.100005
0.100005
0.100006
0.100006
0.100006
0.100006
0.100006
0.100007
0.100007
0.100007
0.100007
0.100008
0.100008
0.100008
0.100008
0.100008
0.100009
0.100009
0.100009
0.100009
0.10001
0.10001
0.10001
0.10001
0.100011
0.100011
0.100011
0.100011
0.100004
0.100004
0.100004
0.100004
0.100005
0.100005
0.100005
0.100005
0.100006
0.100006
0.100006
0.100006
0.100006
0.100007
0.100007
0.100007
0.100007
0.100008
0.100008
0.100008
0.100008
0.100008
0.100009
0.100009
0.100009
0.100009
0.10001
0.10001
0.10001
0.10001
0.100011
0.100011
0.100011
0.100011
0.100011
0.100004
0.100004
0.100004
0.100004
0.100004
0.100005
0.100005
0.100005
0.100005
0.100006
0.100006
0.100006
0.100006
0.100006
0.100007
0.100007
0.100007
0.100007
0.100008
0.100008
0.100008
0.100008
0.100008
0.100009
0.100009
0.100009
0.100009
0.10001
0.10001
0.10001
0.10001
0.100011
0.100011
0.100011
0.100011
0.100011
0.100011
0.100003
0.100004
0.100004
0.100004
0.100004
0.100004
0.100005
0.100005
0.100005
0.100005
0.100006
0.100006
0.100006
0.100006
0.100006
0.100007
0.100007
0.100007
0.100007
0.100008
0.100008
0.100008
0.100008
0.100008
0.100009
0.100009
0.100009
0.100009
0.10001
0.10001
0.10001
0.10001
0.100011
0.10001
0.100011
0.100011
0.100011
0.100011
0.100011
0.100011
0.100011
0.100003
0.100003
0.100004
0.100004
0.100004
0.100004
0.100004
0.100005
0.100005
0.100005
0.100005
0.100006
0.100006
0.100006
0.100006
0.100006
0.100007
0.100007
0.100007
0.100007
0.100008
0.100008
0.100008
0.100008
0.100008
0.100009
0.100009
0.100009
0.100009
0.10001
0.10001
0.10001
0.10001
0.10001
0.10001
0.100011
0.100011
0.100011
0.100011
0.100011
0.100011
0.100011
0.100003
0.100003
0.100003
0.100004
0.100004
0.100004
0.100004
0.100004
0.100005
0.100005
0.100005
0.100005
0.100006
0.100006
0.100006
0.100006
0.100006
0.100007
0.100007
0.100007
0.100007
0.100008
0.100008
0.100008
0.100008
0.100008
0.100009
0.100009
0.100009
0.100009
0.10001
0.10001
0.10001
0.10001
0.10001
0.10001
0.10001
0.100011
0.100011
0.100011
0.100011
0.100011
0.100011
0.100011
0.100003
0.100003
0.100003
0.100003
0.100004
0.100004
0.100004
0.100004
0.100004
0.100005
0.100005
0.100005
0.100005
0.100006
0.100006
0.100006
0.100006
0.100006
0.100007
0.100007
0.100007
0.100007
0.100008
0.100008
0.100008
0.100008
0.100008
0.100009
0.100009
0.100009
0.100009
0.10001
0.10001
0.10001
0.10001
0.10001
0.10001
0.10001
0.10001
0.100011
0.100011
0.100011
0.100011
0.100011
0.100011
0.100011
0.100002
0.100003
0.100003
0.100003
0.100003
0.100004
0.100004
0.100004
0.100004
0.100004
0.100005
0.100005
0.100005
0.100005
0.100006
0.100006
0.100006
0.100006
0.100006
0.100007
0.100007
0.100007
0.100007
0.100008
0.100008
0.100008
0.100008
0.100008
0.100009
0.100009
0.100009
0.100009
0.10001
0.10001
0.10001
0.10001
0.10001
0.10001
0.10001
0.10001
0.10001
0.100011
0.100011
0.100011
0.100011
0.100011
0.100011
0.100011
0.100002
0.100002
0.100003
0.100003
0.100003
0.100003
0.100004
0.100004
0.100004
0.100004
0.100004
0.100005
0.100005
0.100005
0.100005
0.100006
0.100006
0.100006
0.100006
0.100006
0.100007
0.100007
0.100007
0.100007
0.100008
0.100008
0.100008
0.100008
0.100008
0.100009
0.100009
0.100009
0.100009
0.100009
0.10001
0.10001
0.10001
0.10001
0.10001
0.10001
0.10001
0.10001
0.10001
0.100011
0.100011
0.100011
0.100011
0.100011
0.100011
0.100011
0.100002
0.100002
0.100002
0.100003
0.100003
0.100003
0.100003
0.100004
0.100004
0.100004
0.100004
0.100004
0.100005
0.100005
0.100005
0.100005
0.100006
0.100006
0.100006
0.100006
0.100006
0.100007
0.100007
0.100007
0.100007
0.100008
0.100008
0.100008
0.100008
0.100008
0.100009
0.100009
0.100009
0.100009
0.10001
0.10001
0.10001
0.10001
0.10001
0.10001
0.10001
0.10001
0.10001
0.10001
0.100011
0.100011
0.100011
0.100011
0.100011
0.100011
0.100011
0.100011
0.100002
0.100002
0.100002
0.100002
0.100003
0.100003
0.100003
0.100003
0.100004
0.100004
0.100004
0.100004
0.100004
0.100005
0.100005
0.100005
0.100005
0.100006
0.100006
0.100006
0.100006
0.100006
0.100007
0.100007
0.100007
0.100007
0.100008
0.100008
0.100008
0.100008
0.100009
0.100009
0.10001
0.10001
0.10001
0.100011
0.10001
0.100012
0.100011
0.100012
0.100011
0.100012
0.100011
0.100012
0.100011
0.100011
0.100011
0.100011
0.100011
0.100011
0.100011
0.100011
0.100011
0.100011
0.100001
0.100002
0.100002
0.100002
0.100002
0.100003
0.100003
0.100003
0.100003
0.100004
0.100004
0.100004
0.100004
0.100004
0.100005
0.100005
0.100005
0.100005
0.100006
0.100006
0.100006
0.100006
0.100006
0.100007
0.100007
0.100007
0.100007
0.100008
0.100008
0.100008
0.100009
0.100009
0.100012
0.100014
0.100013
0.100019
0.100015
0.100023
0.100017
0.100028
0.100017
0.100031
0.100016
0.10003
0.100014
0.100024
0.100012
0.100016
0.100012
0.100011
0.100012
0.100012
0.100011
0.100011
0.100011
0.100011
0.100001
0.100001
0.100002
0.100002
0.100002
0.100002
0.100003
0.100003
0.100003
0.100003
0.100004
0.100004
0.100004
0.100004
0.100004
0.100005
0.100005
0.100005
0.100005
0.100006
0.100006
0.100006
0.100006
0.100006
0.100007
0.100007
0.100007
0.100007
0.100008
0.100008
0.100009
0.100013
0.10002
0.100008
0.100028
0.100046
0.100038
0.100075
0.100052
0.100106
0.100067
0.10015
0.100072
0.100183
0.100061
0.100176
0.100038
0.100124
0.10002
0.100059
0.100023
0.100012
0.100024
0.100023
0.100011
0.100012
0.100011
0.100011
0.100001
0.100001
0.100001
0.100002
0.100002
0.100002
0.100002
0.100003
0.100003
0.100003
0.100003
0.100004
0.100004
0.100004
0.100004
0.100004
0.100005
0.100005
0.100005
0.100005
0.100006
0.100006
0.100006
0.100006
0.100006
0.100007
0.100007
0.100007
0.100007
0.100008
0.10001
0.100027
0.100127
0.100072
0.10015
0.100127
0.100239
0.100209
0.100439
0.100335
0.100725
0.10046
0.101073
0.100503
0.101315
0.100411
0.101253
0.100232
0.100864
0.100084
0.100383
0.100103
0.10002
0.10011
0.100098
0.100012
0.100017
0.100011
0.100011
0.100001
0.100001
0.100001
0.100001
0.100002
0.100002
0.100002
0.100002
0.100003
0.100003
0.100003
0.100003
0.100004
0.100004
0.100004
0.100004
0.100004
0.100005
0.100005
0.100005
0.100005
0.100006
0.100006
0.100006
0.100006
0.100006
0.100007
0.100007
0.100007
0.100008
0.100013
0.100047
0.10032
0.100998
0.101689
0.100375
0.100661
0.10073
0.101349
0.101379
0.102659
0.102336
0.104645
0.10315
0.10683
0.103382
0.108037
0.102767
0.107522
0.101583
0.105297
0.100548
0.102489
0.100669
0.100074
0.100696
0.100592
0.100014
0.100049
0.100011
0.100013
0.100001
0.100001
0.100001
0.100001
0.100001
0.100002
0.100002
0.100002
0.100002
0.100003
0.100003
0.100003
0.100003
0.100004
0.100004
0.100004
0.100004
0.100004
0.100005
0.100005
0.100005
0.100005
0.100006
0.100006
0.100006
0.100006
0.100006
0.100007
0.100007
0.100009
0.100022
0.100122
0.100628
0.102614
0.103994
0.105627
0.108916
0.102154
0.103704
0.104408
0.107443
0.108333
0.113811
0.113233
0.122421
0.117033
0.130894
0.117627
0.135619
0.114538
0.133305
0.108732
0.124248
0.103375
0.112565
0.103967
0.100416
0.104016
0.103381
0.10003
0.100239
0.100012
0.100019
0.1
0.100001
0.100001
0.100001
0.100001
0.100001
0.100002
0.100002
0.100002
0.100002
0.100003
0.100003
0.100003
0.100003
0.100004
0.100004
0.100004
0.100004
0.100004
0.100005
0.100005
0.100005
0.100005
0.100006
0.100006
0.100006
0.100006
0.100006
0.100007
0.10001
0.100046
0.100346
0.102231
0.107112
0.105743
0.112743
0.119083
0.124033
0.132295
0.111624
0.117243
0.120856
0.129775
0.133846
0.146578
0.148085
0.166337
0.159059
0.184585
0.162593
0.195818
0.154784
0.195262
0.135362
0.178778
0.115915
0.146345
0.117849
0.102346
0.117595
0.114823
0.100114
0.101271
0.100013
0.100047
0.1
0.1
0.100001
0.100001
0.100001
0.100001
0.100001
0.100002
0.100002
0.100002
0.100002
0.100003
0.100003
0.100003
0.100003
0.100004
0.100004
0.100004
0.100004
0.100004
0.100005
0.100005
0.100005
0.100005
0.100006
0.100006
0.100006
0.100006
0.100007
0.100013
0.100088
0.100834
0.105998
0.130415
0.12514
0.139864
0.141502
0.152476
0.161777
0.173521
0.139838
0.150569
0.159872
0.17356
0.184333
0.201281
0.209461
0.231985
0.228847
0.259455
0.237399
0.276937
0.229813
0.279334
0.201667
0.261729
0.154588
0.220614
0.15822
0.110402
0.156098
0.147725
0.100515
0.105593
0.100018
0.100156
0.1
0.1
0.100001
0.100001
0.100001
0.100001
0.100001
0.100002
0.100002
0.100002
0.100002
0.100003
0.100003
0.100003
0.100003
0.100004
0.100004
0.100004
0.100004
0.100004
0.100005
0.100005
0.100005
0.100005
0.100006
0.100006
0.100006
0.100008
0.10002
0.100147
0.101487
0.110978
0.147907
0.188497
0.191508
0.163846
0.175129
0.185462
0.198484
0.21209
0.224411
0.186858
0.199654
0.217156
0.231755
0.251933
0.26937
0.286458
0.309349
0.312567
0.343803
0.32479
0.365011
0.318151
0.368695
0.288247
0.350547
0.232638
0.30767
0.236026
0.134689
0.229293
0.212221
0.102078
0.119525
0.100031
0.100429
0.1
0.1
0.100001
0.100001
0.100001
0.100001
0.100001
0.100002
0.100002
0.100002
0.100002
0.100003
0.100003
0.100003
0.100003
0.100004
0.100004
0.100004
0.100004
0.100004
0.100005
0.100005
0.100005
0.100005
0.100006
0.100006
0.100009
0.100033
0.100257
0.102343
0.11643
0.162662
0.242363
0.233717
0.254067
0.210888
0.224021
0.23668
0.24964
0.268827
0.280037
0.244981
0.257236
0.284809
0.297953
0.328501
0.344412
0.370067
0.391333
0.400069
0.430034
0.413259
0.452038
0.406247
0.455025
0.375148
0.435364
0.318365
0.391592
0.31943
0.186145
0.310918
0.29642
0.243235
0.106674
0.152537
0.100041
0.100707
0.1
0.1
0.100001
0.100001
0.100001
0.100001
0.100001
0.100002
0.100002
0.100002
0.100002
0.100003
0.100003
0.100003
0.100003
0.100004
0.100004
0.100004
0.100004
0.100004
0.100005
0.100005
0.100005
0.100005
0.100006
0.100014
0.100066
0.100489
0.103827
0.122626
0.176959
0.257351
0.306387
0.315082
0.2853
0.296704
0.262049
0.274272
0.291208
0.302866
0.328358
0.336925
0.309198
0.319203
0.357444
0.367388
0.408101
0.420955
0.454206
0.472883
0.486076
0.513686
0.496975
0.534955
0.489118
0.535286
0.456127
0.514624
0.398619
0.467714
0.432479
0.355663
0.398198
0.281888
0.209888
0.267553
0.339396
0.387807
0.39232
0.330949
0.105993
0.125411
0.245926
0.225381
0.165715
0.100108
0.112715
0.100873
0.105572
0.1
0.1
0.100001
0.100001
0.100001
0.100001
0.100001
0.100002
0.100002
0.100002
0.100002
0.100003
0.100003
0.100003
0.100003
0.100004
0.100004
0.100004
0.100004
0.100004
0.100005
0.100005
0.100005
0.100007
0.100024
0.100144
0.10101
0.106332
0.130978
0.190612
0.273685
0.321255
0.321945
0.347674
0.347615
0.332978
0.34113
0.313691
0.323955
0.345474
0.354121
0.386296
0.390687
0.375032
0.381207
0.42999
0.435138
0.485964
0.493787
0.53018
0.53696
0.557288
0.561824
0.572754
0.585466
0.535195
0.560327
0.578311
0.596707
0.496694
0.52981
0.569882
0.584872
0.55589
0.468965
0.433114
0.472686
0.503095
0.432214
0.317153
0.299536
0.376534
0.419995
0.427834
0.364818
0.143865
0.279104
0.254382
0.196503
0.100114
0.10054
0.101885
0.123736
0.110446
0.1
0.1
0.100001
0.100001
0.100001
0.100001
0.100001
0.100002
0.100002
0.100002
0.100002
0.100003
0.100003
0.100003
0.100003
0.100004
0.100004
0.100004
0.100004
0.100004
0.100005
0.100005
0.100008
0.100047
0.100329
0.102109
0.111366
0.141333
0.203342
0.279178
0.323958
0.345045
0.339678
0.3697
0.361016
0.372733
0.37305
0.36134
0.367418
0.394992
0.398879
0.438663
0.43788
0.437877
0.438955
0.497074
0.49617
0.539304
0.538938
0.559033
0.553923
0.579063
0.563916
0.601999
0.600388
0.595557
0.583182
0.59255
0.608124
0.611944
0.535117
0.565401
0.605526
0.614965
0.592546
0.506532
0.469852
0.50664
0.539971
0.466833
0.349764
0.331543
0.409664
0.461019
0.452355
0.396766
0.16798
0.30976
0.283743
0.225598
0.100197
0.100899
0.103616
0.140109
0.118199
0.1
0.1
0.100001
0.100001
0.100001
0.100001
0.100001
0.100002
0.100002
0.100002
0.100002
0.100003
0.100003
0.100003
0.100003
0.100004
0.100004
0.100004
0.100004
0.100004
0.100005
0.10001
0.10008
0.100691
0.104262
0.118607
0.153655
0.215044
0.279318
0.310029
0.325749
0.314258
0.350399
0.338615
0.37517
0.358596
0.397519
0.388568
0.400671
0.400304
0.436907
0.434782
0.484625
0.478406
0.494189
0.490108
0.538114
0.536489
0.549012
0.545704
0.539591
0.518198
0.56442
0.538168
0.513703
0.485903
0.608212
0.598117
0.577915
0.548941
0.6185
0.619353
0.613366
0.571661
0.600192
0.627347
0.635401
0.623298
0.542094
0.504777
0.54182
0.575749
0.500615
0.380852
0.36168
0.441187
0.493693
0.483985
0.427227
0.193524
0.338785
0.3114
0.253308
0.100277
0.105967
0.101321
0.159158
0.127913
0.1
0.1
0.100001
0.100001
0.100001
0.100001
0.100001
0.100002
0.100002
0.100002
0.100002
0.100003
0.100003
0.100003
0.100003
0.100004
0.100004
0.100004
0.100004
0.100005
0.10001
0.100112
0.101154
0.107342
0.127621
0.166723
0.226062
0.277975
0.298573
0.280227
0.301074
0.278457
0.339397
0.319101
0.365595
0.338101
0.408073
0.389547
0.430488
0.422359
0.471117
0.46195
0.520167
0.510018
0.533345
0.528044
0.544439
0.544611
0.506385
0.505321
0.465818
0.446885
0.436409
0.431753
0.515249
0.480536
0.448282
0.421224
0.597116
0.569042
0.532181
0.490784
0.626785
0.617603
0.595029
0.605929
0.63011
0.633718
0.640812
0.642776
0.577379
0.539221
0.576543
0.609645
0.534104
0.410289
0.390052
0.471647
0.526026
0.515089
0.456452
0.218186
0.365892
0.337117
0.279154
0.100253
0.108616
0.101543
0.178239
0.138005
0.1
0.1
0.100001
0.100001
0.100001
0.100001
0.100001
0.100002
0.100002
0.100002
0.100002
0.100003
0.100003
0.100003
0.100003
0.100004
0.100004
0.100004
0.100004
0.10001
0.100128
0.101587
0.110679
0.137145
0.180084
0.236518
0.275892
0.288767
0.262067
0.225322
0.216272
0.259898
0.2404
0.309661
0.282873
0.340418
0.302505
0.407462
0.376519
0.449627
0.431423
0.497289
0.481264
0.539672
0.530475
0.544554
0.54344
0.510265
0.520539
0.410033
0.425473
0.400935
0.387718
0.381035
0.379085
0.448908
0.410328
0.378498
0.355485
0.560054
0.516655
0.468835
0.420408
0.621243
0.593787
0.553425
0.635385
0.649438
0.625918
0.632217
0.647904
0.610942
0.573323
0.609984
0.63908
0.567308
0.438263
0.416728
0.501358
0.558051
0.545857
0.484724
0.240909
0.391159
0.36091
0.302815
0.10014
0.110785
0.101329
0.195589
0.14667
0.1
0.1
0.100001
0.100001
0.100001
0.100001
0.100001
0.100002
0.100002
0.100002
0.100002
0.100003
0.100003
0.100003
0.100003
0.100004
0.100004
0.100004
0.100009
0.100131
0.101805
0.113464
0.145884
0.192259
0.244192
0.272813
0.279423
0.24598
0.179753
0.180574
0.165571
0.211233
0.193093
0.266472
0.235523
0.304128
0.257039
0.395526
0.351903
0.459931
0.431836
0.515038
0.493223
0.540696
0.536967
0.531772
0.539516
0.450466
0.477421
0.353538
0.369052
0.400564
0.38255
0.34154
0.335703
0.336488
0.342622
0.375709
0.33912
0.313941
0.300258
0.504843
0.451816
0.397779
0.347469
0.594991
0.551002
0.498582
0.655294
0.655066
0.599569
0.607656
0.640093
0.64083
0.606438
0.640418
0.660047
0.599759
0.465024
0.441913
0.53057
0.58967
0.576241
0.512236
0.261234
0.414842
0.382776
0.324251
0.100059
0.111665
0.100836
0.210264
0.152112
0.1
0.1
0.100001
0.100001
0.100001
0.100001
0.100001
0.100002
0.100002
0.100002
0.100002
0.100003
0.100003
0.100003
0.100003
0.100004
0.100004
0.100008
0.100125
0.101841
0.114733
0.152649
0.202595
0.248474
0.269575
0.269368
0.229667
0.163525
0.124524
0.120067
0.13642
0.128681
0.160498
0.145809
0.215427
0.183014
0.26243
0.207867
0.376341
0.320929
0.463481
0.424538
0.524428
0.498277
0.530868
0.530516
0.501796
0.520822
0.415483
0.433315
0.449543
0.332718
0.348766
0.38357
0.365773
0.296396
0.298556
0.306585
0.318429
0.306842
0.279796
0.268287
0.265965
0.441721
0.383598
0.329395
0.285584
0.553493
0.498957
0.439846
0.662091
0.649206
0.5614
0.574427
0.618797
0.663326
0.637195
0.664836
0.669094
0.63063
0.490751
0.465872
0.559319
0.620294
0.605873
0.539086
0.278925
0.437117
0.402907
0.343525
0.100045
0.110585
0.100488
0.221655
0.153693
0.1
0.1
0.100001
0.100001
0.100001
0.100001
0.100001
0.100002
0.100002
0.100002
0.100002
0.100003
0.100003
0.100003
0.100003
0.100004
0.100006
0.100098
0.101774
0.11483
0.155829
0.210267
0.250852
0.26583
0.257925
0.211452
0.148187
0.110449
0.106004
0.103381
0.110656
0.107687
0.123515
0.115189
0.165955
0.138921
0.229387
0.177849
0.355839
0.29189
0.461339
0.41344
0.521574
0.496631
0.514159
0.516946
0.478346
0.500662
0.400875
0.418364
0.420618
0.438127
0.316581
0.332631
0.367466
0.349733
0.269313
0.277436
0.288585
0.301812
0.258527
0.248612
0.246287
0.248283
0.379527
0.323301
0.277572
0.250277
0.50642
0.446891
0.386066
0.659645
0.632086
0.520809
0.541177
0.591198
0.674675
0.66375
0.679054
0.670041
0.658799
0.515689
0.488881
0.587416
0.649084
0.634175
0.56536
0.294035
0.458148
0.421622
0.36078
0.100125
0.107553
0.100904
0.229368
0.150425
0.1
0.1
0.100001
0.100001
0.100001
0.100001
0.100001
0.100002
0.100002
0.100002
0.100002
0.100003
0.100003
0.100003
0.100003
0.100005
0.10006
0.101462
0.114401
0.1561
0.213762
0.251203
0.261858
0.245919
0.193949
0.136866
0.108464
0.100719
0.100776
0.101037
0.100591
0.10279
0.101597
0.110634
0.105295
0.142487
0.121586
0.216585
0.170548
0.341221
0.27594
0.455743
0.403091
0.510258
0.487961
0.488133
0.492687
0.453076
0.466961
0.475128
0.385401
0.40309
0.39825
0.415827
0.297408
0.311743
0.344501
0.327549
0.254351
0.262974
0.273082
0.284662
0.23992
0.237488
0.238205
0.24208
0.329035
0.282661
0.252432
0.239979
0.462495
0.402738
0.346335
0.64714
0.610505
0.485841
0.515356
0.565337
0.679018
0.681639
0.686681
0.662655
0.680958
0.539922
0.511151
0.614605
0.674732
0.660858
0.590912
0.306646
0.478308
0.439249
0.37632
0.100581
0.107088
0.103161
0.23323
0.14724
0.1
0.1
0.100001
0.100001
0.100001
0.100001
0.100001
0.100002
0.100002
0.100002
0.100002
0.100003
0.100003
0.100003
0.100004
0.100034
0.100952
0.112738
0.155148
0.213749
0.250763
0.257795
0.234595
0.179141
0.128686
0.106295
0.100425
0.100119
0.100032
0.100292
0.100156
0.101581
0.10065
0.108913
0.103855
0.138916
0.119427
0.23313
0.190269
0.341379
0.283641
0.448639
0.398537
0.487346
0.469442
0.449372
0.45422
0.447079
0.431861
0.447306
0.44036
0.428093
0.362141
0.380262
0.363329
0.381063
0.274269
0.284761
0.312228
0.297401
0.247099
0.252659
0.258741
0.265617
0.236128
0.236122
0.238535
0.242436
0.29967
0.266356
0.247994
0.242417
0.429107
0.37499
0.327671
0.631251
0.591818
0.463864
0.50299
0.548742
0.677287
0.691828
0.690022
0.652275
0.695033
0.563574
0.533058
0.640558
0.693887
0.684678
0.615624
0.317126
0.498039
0.456222
0.390633
0.101511
0.11059
0.107532
0.23613
0.15096
0.1
0.1
0.100001
0.100001
0.100001
0.100001
0.100002
0.100002
0.100002
0.100002
0.100003
0.100003
0.100003
0.100004
0.100021
0.100542
0.109375
0.151836
0.212341
0.249785
0.254344
0.225275
0.168236
0.123342
0.10481
0.100424
0.100025
0.100027
0.100059
0.100024
0.100199
0.100105
0.101531
0.100543
0.11125
0.104244
0.153611
0.126681
0.260184
0.209717
0.353276
0.307369
0.437973
0.398237
0.445275
0.434513
0.411188
0.422463
0.377227
0.381365
0.39821
0.413952
0.39892
0.383799
0.328007
0.345389
0.315915
0.333062
0.261373
0.26483
0.276126
0.269368
0.24665
0.250753
0.254738
0.258409
0.242323
0.24509
0.248832
0.252731
0.291157
0.267805
0.2605
0.260101
0.412759
0.365532
0.327273
0.61916
0.58251
0.45635
0.505596
0.543911
0.672349
0.699024
0.690809
0.645382
0.704762
0.587067
0.555014
0.665403
0.707047
0.703117
0.639933
0.32682
0.517689
0.472988
0.404364
0.10388
0.120199
0.114613
0.242519
0.163494
0.1
0.1
0.100001
0.100001
0.100001
0.100001
0.100002
0.100002
0.100002
0.100003
0.100003
0.100004
0.100004
0.100015
0.100284
0.106133
0.144246
0.208562
0.248446
0.252218
0.219244
0.162349
0.120599
0.104135
0.100414
0.100021
0.100012
0.100007
0.100045
0.10002
0.100171
0.100092
0.1015
0.100501
0.112005
0.104361
0.162845
0.129757
0.26461
0.210432
0.352742
0.312911
0.414372
0.386448
0.365615
0.366076
0.354478
0.367473
0.314529
0.329444
0.350481
0.36763
0.339556
0.323317
0.286619
0.299975
0.268377
0.277653
0.260776
0.260744
0.260702
0.260698
0.25611
0.258374
0.259825
0.260536
0.264128
0.269692
0.275604
0.28046
0.302106
0.292094
0.291326
0.294629
0.413057
0.37695
0.350889
0.6156
0.585612
0.469127
0.528319
0.555807
0.670064
0.704667
0.692456
0.646636
0.71281
0.611078
0.577484
0.688673
0.717246
0.716423
0.665366
0.337836
0.537539
0.489954
0.418304
0.105504
0.13632
0.12086
0.254696
0.184874
0.1
0.100001
0.100001
0.100001
0.100002
0.100002
0.100003
0.100003
0.100003
0.100004
0.100005
0.100006
0.100013
0.100163
0.103522
0.13481
0.200664
0.246603
0.251421
0.217857
0.161797
0.120361
0.104115
0.100455
0.10003
0.100007
0.10001
0.100007
0.100036
0.100017
0.10013
0.10007
0.10116
0.100375
0.110464
0.103576
0.161108
0.127514
0.235806
0.185277
0.31548
0.281151
0.35745
0.339871
0.259925
0.271909
0.282192
0.278933
0.283481
0.2989
0.238307
0.248209
0.290822
0.306379
0.269699
0.25854
0.261128
0.263452
0.251185
0.249776
0.277362
0.2721
0.261181
0.266538
0.283649
0.28459
0.284384
0.281929
0.303897
0.3129
0.321662
0.328619
0.337984
0.336378
0.339568
0.349635
0.437026
0.413358
0.399856
0.623849
0.603347
0.506304
0.57406
0.587998
0.674234
0.70986
0.697347
0.657516
0.720566
0.636119
0.600599
0.70866
0.725504
0.726704
0.691361
0.350086
0.558035
0.506565
0.432321
0.103505
0.151552
0.120824
0.27128
0.206062
0.100001
0.100002
0.100003
0.100004
0.100004
0.100005
0.100006
0.100006
0.100007
0.100008
0.100009
0.100014
0.100107
0.101907
0.125077
0.190029
0.242966
0.25155
0.21878
0.16394
0.1221
0.104666
0.100602
0.100049
0.100007
0.100006
0.100007
0.100006
0.100009
0.100022
0.100012
0.100085
0.100049
0.100582
0.100187
0.105905
0.101873
0.142846
0.117224
0.17828
0.142179
0.238421
0.213665
0.258777
0.253004
0.203545
0.206612
0.224855
0.213918
0.230962
0.232971
0.209684
0.205964
0.249537
0.252183
0.23218
0.234305
0.256951
0.253553
0.254365
0.247159
0.320718
0.311016
0.287044
0.29948
0.332359
0.333536
0.333204
0.328862
0.362263
0.375205
0.386954
0.396306
0.39653
0.39886
0.409265
0.423229
0.488347
0.476121
0.472779
0.646082
0.63769
0.562588
0.622478
0.629041
0.686724
0.714555
0.70602
0.682573
0.725559
0.66278
0.624692
0.722605
0.730782
0.733894
0.713221
0.363394
0.577911
0.522877
0.446197
0.101014
0.160099
0.113421
0.288867
0.22279
0.100008
0.10001
0.100012
0.100014
0.100014
0.100015
0.100015
0.100016
0.100016
0.100017
0.10002
0.100081
0.101181
0.11667
0.177252
0.23665
0.252233
0.221857
0.170167
0.127877
0.106441
0.100922
0.100091
0.10001
0.100006
0.100007
0.100006
0.100006
0.100008
0.100014
0.10001
0.100055
0.100027
0.100221
0.100092
0.101959
0.100642
0.117489
0.106065
0.124225
0.111525
0.150139
0.139557
0.172265
0.172958
0.156539
0.192406
0.183992
0.17366
0.177495
0.222268
0.215484
0.217173
0.203519
0.241515
0.237222
0.229789
0.237664
0.274854
0.263754
0.288637
0.273147
0.388283
0.375939
0.342781
0.360463
0.401784
0.403604
0.403486
0.398882
0.438919
0.454258
0.467812
0.478211
0.474266
0.483191
0.49648
0.511783
0.555885
0.555293
0.557998
0.677398
0.673634
0.620075
0.671538
0.671528
0.699632
0.719879
0.712058
0.693997
0.730958
0.689395
0.648799
0.736755
0.738362
0.744833
0.729992
0.377112
0.597903
0.541256
0.460469
0.100151
0.158086
0.105053
0.305395
0.233074
0.100059
0.100055
0.100055
0.100051
0.100045
0.100041
0.10004
0.100038
0.100036
0.100037
0.100078
0.100829
0.110366
0.162776
0.227655
0.252347
0.228106
0.179964
0.137996
0.110604
0.101593
0.100168
0.100016
0.100006
0.100006
0.100007
0.100006
0.100006
0.100007
0.100011
0.100009
0.10003
0.100017
0.100097
0.100057
0.100566
0.100216
0.104551
0.101622
0.105954
0.102702
0.119397
0.112032
0.155427
0.15032
0.127894
0.137224
0.217344
0.195661
0.164858
0.178112
0.246792
0.232242
0.263887
0.240828
0.259446
0.247838
0.261602
0.276494
0.324316
0.305993
0.349357
0.329052
0.46821
0.454404
0.416031
0.436641
0.484186
0.486054
0.485749
0.48025
0.528636
0.543832
0.55714
0.566606
0.567258
0.579085
0.592476
0.606895
0.619801
0.624548
0.633902
0.691249
0.690455
0.674192
0.691515
0.690493
0.7088
0.728654
0.728167
0.708635
0.739923
0.711155
0.676178
0.743933
0.751268
0.759119
0.741649
0.390631
0.62532
0.557186
0.473355
0.100029
0.146334
0.101344
0.318716
0.232299
0.100355
0.100256
0.1002
0.100157
0.100125
0.100109
0.100098
0.100083
0.100076
0.100095
0.100539
0.106182
0.147766
0.21606
0.251516
0.23562
0.191394
0.149849
0.11877
0.102982
0.100325
0.100029
0.100006
0.100005
0.100006
0.100006
0.100006
0.100006
0.100007
0.100009
0.100008
0.100017
0.100012
0.10005
0.100028
0.100175
0.100083
0.101116
0.100435
0.103796
0.101406
0.131999
0.134565
0.119708
0.111568
0.165045
0.148217
0.149995
0.275943
0.245974
0.188335
0.216046
0.302382
0.284116
0.327166
0.30386
0.309804
0.29273
0.320079
0.336988
0.393949
0.371488
0.418176
0.395874
0.550273
0.534974
0.492901
0.515357
0.570928
0.571836
0.570818
0.563806
0.621861
0.634592
0.645644
0.651858
0.64467
0.653967
0.663785
0.671441
0.677187
0.685169
0.690537
0.710305
0.715185
0.695118
0.70782
0.711966
0.731213
0.741279
0.74366
0.733738
0.754515
0.729497
0.704948
0.757015
0.766845
0.773804
0.75478
0.404363
0.647396
0.583031
0.490137
0.100016
0.125235
0.100543
0.327337
0.222349
0.101648
0.10092
0.100596
0.100418
0.100308
0.100251
0.100201
0.100166
0.100154
0.100448
0.103611
0.134057