/*--------------------------------*- C++ -*----------------------------------*\
  =========                 |
  \\      /  F ield         | OpenFOAM: The Open Source CFD Toolbox
   \\    /   O peration     | Website:  https://openfoam.org
    \\  /    A nd           | Version:  dev
     \\/     M anipulation  |
\*---------------------------------------------------------------------------*/
FoamFile
{
    version     2.0;
    format      ascii;
    class       volScalarField;
    location    "2500";
    object      alphat;
}
// * * * * * * * * * * * * * * * * * * * * * * * * * * * * * * * * * * * * * //

dimensions      [1 -1 -1 0 0 0 0];

internalField   nonuniform List<scalar> 
9838
(
0.000150525
0.000154659
0.000146924
0.00014129
0.00018716
0.000130833
0.000131025
0.000197139
0.000177376
0.000124562
0.000125965
0.000189476
0.000204686
0.000151931
0.000122183
0.000122522
0.000169036
0.000219439
0.000190184
0.000137802
0.000120921
0.000120564
0.000151513
0.000217712
0.000215969
0.000162132
0.000131638
0.000120017
0.000119832
0.000139573
0.000205751
0.000231601
0.000195518
0.000145728
0.000127906
0.000119381
0.000119566
0.00013148
0.000180935
0.000237637
0.000223083
0.000167305
0.000137783
0.0001253
0.000118905
0.000119411
0.000126802
0.000159975
0.000231987
0.000238251
0.000196578
0.000150401
0.00013284
0.000123432
0.000118588
0.000119267
0.00012412
0.000145796
0.000214424
0.000250038
0.000225659
0.000169465
0.000141545
0.000129355
0.000121991
0.000118393
0.000118807
0.000122522
0.000136439
0.000185652
0.000249659
0.000245498
0.00019464
0.000153112
0.000136071
0.000126768
0.000120951
0.000118191
0.000118284
0.000121885
0.000130737
0.000164268
0.000241082
0.000256471
0.000224929
0.000169024
0.000144049
0.00013217
0.000124642
0.00012028
0.000118
0.000117896
0.000121425
0.000127473
0.000149752
0.000218775
0.000263494
0.000247543
0.000192188
0.000153838
0.000138245
0.000129235
0.00012302
0.00011974
0.000117893
0.000117719
0.000120913
0.000125476
0.000140183
0.000188335
0.000260284
0.000261692
0.000219814
0.000168036
0.00014524
0.000134054
0.000126772
0.000121884
0.000119295
0.000117735
0.000117637
0.000120218
0.000124136
0.000134272
0.000167507
0.000248249
0.000271521
0.000247017
0.000188323
0.000153834
0.00013963
0.000130892
0.000124773
0.000120924
0.000118988
0.000117551
0.000117692
0.000119631
0.000123341
0.000130509
0.000153418
0.000221769
0.000275339
0.000265215
0.000213019
0.000166132
0.000145601
0.000135446
0.000128292
0.000123256
0.000120242
0.000118642
0.000117442
0.00011777
0.000119015
0.000122681
0.000128049
0.000143894
0.000190623
0.000270086
0.000275589
0.000241415
0.000183557
0.000153141
0.000140114
0.000132107
0.000126118
0.000121943
0.000119774
0.000118228
0.000117385
0.000117739
0.000118474
0.000121864
0.000126186
0.000137643
0.000170943
0.000255606
0.00028464
0.000264127
0.000206338
0.000163773
0.000145493
0.000135978
0.000129372
0.000124382
0.000120986
0.000119333
0.000117869
0.000117347
0.000117579
0.00011813
0.000120914
0.000124732
0.000133258
0.000157461
0.000226319
0.000286342
0.000280056
0.000232558
0.000178548
0.000152012
0.000140258
0.000132665
0.000127106
0.000122864
0.000120356
0.000118819
0.000117614
0.000117304
0.000117393
0.000118157
0.000120121
0.000123722
0.000130212
0.000147592
0.000195598
0.000279818
0.000288007
0.000259687
0.000199001
0.000160828
0.00014479
0.000136226
0.000129961
0.00012526
0.000121647
0.000119818
0.000118286
0.00011745
0.000117254
0.000117239
0.000118253
0.000119214
0.000122851
0.000128044
0.000140964
0.000175177
0.000263523
0.000296458
0.000278909
0.000222745
0.000174086
0.000150444
0.00013985
0.000132957
0.000127708
0.000123683
0.000120839
0.000119269
0.000117845
0.00011733
0.000117206
0.000117119
0.000118299
0.000118435
0.000121998
0.000126297
0.000136342
0.00016267
0.000234851
0.000296661
0.000292934
0.00024924
0.000190929
0.000158324
0.000143934
0.000136063
0.000130307
0.000125862
0.000122328
0.000120189
0.000118688
0.000117528
0.000117223
0.000117168
0.000117041
0.000118281
0.000117833
0.000121271
0.000124849
0.000132978
0.000152718
0.000205322
0.000290223
0.000299178
0.000274683
0.000213077
0.000168896
0.000148871
0.000139277
0.000132959
0.00012815
0.000124286
0.000121272
0.000119597
0.000118134
0.000117324
0.000117109
0.000117144
0.000116996
0.000118172
0.000117406
0.00012052
0.000123695
0.000130472
0.000145752
0.000182303
0.000274568
0.00030683
0.000291195
0.000236518
0.000184008
0.000155485
0.000142852
0.000135665
0.000130427
0.000126319
0.000122927
0.000120515
0.000119025
0.000117681
0.000117172
0.000117022
0.000117123
0.000116972
0.000118011
0.000117207
0.000119774
0.000122878
0.000128499
0.000140795
0.000170221
0.000249141
0.000307276
0.000303462
0.000262308
0.000201979
0.000164603
0.000147202
0.000138593
0.000132753
0.000128342
0.000124734
0.00012177
0.000119877
0.000118446
0.000117387
0.000117009
0.000116972
0.00011711
0.000116968
0.000117833
0.000117074
0.000118969
0.000122203
0.000126995
0.00013714
0.00016054
0.000220089
0.00030207
0.000309349
0.000285229
0.000224309
0.000176575
0.000152833
0.000141682
0.000135289
0.000130403
0.000126572
0.000123403
0.00012086
0.000119291
0.000117919
0.000117204
0.000116877
0.000116939
0.000117109
0.000116965
0.000117654
0.000116961
0.000118268
0.000121564
0.000125842
0.000134412
0.000153162
0.000195535
0.00028902
0.000316119
0.00030087
0.000246354
0.000192314
0.00016028
0.000145513
0.000137814
0.00013256
0.000128439
0.000125072
0.000122268
0.000120153
0.000118746
0.000117531
0.000117034
0.000116807
0.000116937
0.000117124
0.000116967
0.000117512
0.000116835
0.00011766
0.000121002
0.000124917
0.000132409
0.00014775
0.000180416
0.000268024
0.000317954
0.000311832
0.000270789
0.000210498
0.00017006
0.0001503
0.000140578
0.00013473
0.000130331
0.000126782
0.00012379
0.000121278
0.000119547
0.000118241
0.000117304
0.000116886
0.000116785
0.000116962
0.000117163
0.000116974
0.000117401
0.000116708
0.000117161
0.000120529
0.000124119
0.000131028
0.000143752
0.000171302
0.000242146
0.000314751
0.000318785
0.000291132
0.000231356
0.00018275
0.000156333
0.000143932
0.00013708
0.000132245
0.000128505
0.000125352
0.000122684
0.000120487
0.000119029
0.000117808
0.000117174
0.000116836
0.000116827
0.000117036
0.000117234
0.000116985
0.000117306
0.000116563
0.000116766
0.000120164
0.000123436
0.000129879
0.000141355
0.000163747
0.00021721
0.00030575
0.000323657
0.000308311
0.000252393
0.000197961
0.000164288
0.0001479
0.000139569
0.00013427
0.000130234
0.000126955
0.000124118
0.000121742
0.000119855
0.000118576
0.000117496
0.000117061
0.000116877
0.000116957
0.000117207
0.000117369
0.000117008
0.000117233
0.0001164
0.000116462
0.000119874
0.000122912
0.000129016
0.000139952
0.000158197
0.000197223
0.000288156
0.000327348
0.000318309
0.00027379
0.000215778
0.000174224
0.000152961
0.000142362
0.000136344
0.000132001
0.000128547
0.000125629
0.000123076
0.000120929
0.000119337
0.000118198
0.000117342
0.000117026
0.000117006
0.000117185
0.000117518
0.000117574
0.000117038
0.000117174
0.000116214
0.000116244
0.00011965
0.000122533
0.000128563
0.000138872
0.000154876
0.000185032
0.000268344
0.000326073
0.000326083
0.000293776
0.000234362
0.000186642
0.000159185
0.00014589
0.000138523
0.000133729
0.000130143
0.000127124
0.000124486
0.000122176
0.000120258
0.000118926
0.000117895
0.000117301
0.000117119
0.000117243
0.000117539
0.000118027
0.000117837
0.000117069
0.000117111
0.000115995
0.000116144
0.000119507
0.000122275
0.000128298
0.000138074
0.000153138
0.000177888
0.000245836
0.000320838
0.000329081
0.00031167
0.000254229
0.000201032
0.000167061
0.00014993
0.000141023
0.000135645
0.00013166
0.000128569
0.000125911
0.000123475
0.000121379
0.000119726
0.000118601
0.000117704
0.000117392
0.000117426
0.000117685
0.000118134
0.000118835
0.00011785
0.000117873
0.000117103
0.000117038
0.000115781
0.00011617
0.000119422
0.000122155
0.000128169
0.000137675
0.000151832
0.000173239
0.000224906
0.000309578
0.000333666
0.000321963
0.000272682
0.000217199
0.000176765
0.00015502
0.000144038
0.00013757
0.000133326
0.000129975
0.000127271
0.00012482
0.000122561
0.000120712
0.000119324
0.000118392
0.000117694
0.000117661
0.000117954
0.00011851
0.000119213
0.000114075
0.000113851
0.000101186
0.000100008
0.000117127
0.000116954
0.000115594
0.000116293
0.000119366
0.000122144
0.000128118
0.000137531
0.00015079
0.000169151
0.000207909
0.000294147
0.000334143
0.000329635
0.000292536
0.000234399
0.000188196
0.00016118
0.000147547
0.000139836
0.000134928
0.000131427
0.000128576
0.000126123
0.000123832
0.00012179
0.000120194
0.000119053
0.00011832
0.000117873
0.000118077
0.000118789
0.000119094
0.000119325
0.000110314
0.000119529
0.000102862
9.82488e-05
9.56018e-05
8.57201e-05
8.38725e-05
0.000117154
0.000116857
0.00011545
0.000116468
0.000119366
0.000122254
0.000128156
0.000137516
0.000149818
0.000166386
0.000196018
0.000276034
0.0003325
0.000334224
0.000308707
0.000251896
0.000201532
0.000168608
0.000151619
0.000142516
0.0001368
0.000132856
0.00012987
0.000127359
0.000125109
0.000122981
0.000121167
0.000119813
0.000118952
0.000118437
0.000118356
0.000118843
0.000119561
0.000117568
0.000115014
9.27762e-05
9.39784e-05
8.7714e-05
8.22258e-05
7.98302e-05
7.28815e-05
7.08778e-05
0.00011718
0.00011676
0.000115364
0.000116699
0.00011943
0.000122471
0.000128323
0.000137574
0.000149023
0.000164191
0.000189217
0.000257413
0.00032743
0.000336242
0.000322719
0.000269883
0.000216039
0.000177577
0.000156415
0.000145488
0.000138903
0.000134451
0.000131177
0.000128598
0.000126327
0.000124205
0.000122257
0.000120724
0.000119622
0.000119071
0.000118968
0.000119356
0.000113963
0.000110493
0.000107652
0.000102617
9.21577e-05
7.78283e-05
8.28318e-05
7.43787e-05
6.9542e-05
6.7871e-05
6.22494e-05
6.05039e-05
0.000117208
0.000116646
0.000115317
0.000116952
0.000119573
0.000122762
0.000128586
0.00013764
0.000148489
0.000162186
0.000184538
0.000239201
0.000317374
0.00033972
0.00033008
0.000285186
0.000231712
0.000188071
0.000162283
0.000148961
0.000141257
0.000136268
0.000132594
0.000129825
0.000127541
0.000125412
0.000123407
0.000121711
0.000120488
0.000119694
0.00011963
0.000120053
0.000108223
0.000105853
9.65103e-05
9.50414e-05
8.97869e-05
8.58371e-05
7.93394e-05
6.61866e-05
7.09326e-05
6.39881e-05
5.9548e-05
5.82932e-05
5.34803e-05
5.21559e-05
0.000117228
0.000116526
0.000115328
0.000117231
0.000119833
0.000123148
0.000128973
0.000137773
0.000148147
0.000160491
0.000180406
0.000223262
0.00030408
0.000340141
0.000335796
0.000302088
0.000246882
0.000199937
0.000169083
0.000152898
0.00014407
0.00013822
0.00013421
0.000131136
0.000128751
0.000126634
0.000124602
0.000122702
0.000121327
0.000120434
0.000120197
0.000120698
0.000104822
0.000103359
9.02008e-05
9.10845e-05
8.24004e-05
7.95408e-05
7.64547e-05
7.32562e-05
6.79953e-05
5.69445e-05
6.10421e-05
5.5128e-05
5.14837e-05
5.05197e-05
4.63092e-05
4.53798e-05
0.000117231
0.000116394
0.000115396
0.000117551
0.000120178
0.00012363
0.000129463
0.000138057
0.00014793
0.000159055
0.00017647
0.00021085
0.000288541
0.000339382
0.000339701
0.000315103
0.00026181
0.00021284
0.000177127
0.000157389
0.00014698
0.000140609
0.000136005
0.000132583
0.000130002
0.000127895
0.00012586
0.000123909
0.000122258
0.000121305
0.000120974
0.000121434
0.000104968
0.00010662
8.68261e-05
8.90744e-05
7.70354e-05
7.57485e-05
7.03259e-05
6.78151e-05
6.53064e-05
6.29186e-05
5.85338e-05
4.94518e-05
5.27815e-05
4.78387e-05
4.49391e-05
4.4209e-05
4.02934e-05
3.98548e-05
0.000117235
0.000116266
0.000115523
0.000117884
0.000120562
0.000124283
0.000130118
0.000138402
0.000147783
0.000157934
0.000173271
0.000201328
0.000272067
0.000335258
0.00034198
0.000327222
0.000277137
0.000225767
0.000186367
0.000162628
0.000150219
0.000143047
0.000137999
0.000134248
0.000131371
0.000129098
0.000127025
0.000125142
0.00012345
0.000122187
0.000121892
0.000122332
0.000112027
0.000116688
8.68298e-05
9.13577e-05
7.396e-05
7.38084e-05
6.57126e-05
6.42472e-05
6.02674e-05
5.81088e-05
5.61795e-05
5.41669e-05
5.06714e-05
4.32788e-05
4.60853e-05
4.19289e-05
3.96222e-05
3.90339e-05
3.55102e-05
3.52707e-05
0.000117243
0.000116149
0.000115714
0.000118227
0.000120929
0.000124946
0.000130784
0.000138704
0.000147624
0.000157139
0.00017067
0.000194815
0.000255586
0.000326669
0.000344846
0.000334731
0.000289586
0.00023958
0.00019653
0.00016863
0.000153937
0.000145607
0.000140212
0.000136068
0.000132893
0.000130445
0.000128366
0.00012638
0.000124663
0.000123476
0.000122989
0.000123501
0.000124005
0.000124657
9.19747e-05
9.79311e-05
7.37187e-05
7.54476e-05
6.27278e-05
6.22808e-05
5.63724e-05
5.49437e-05
5.19796e-05
5.01065e-05
4.87153e-05
4.69723e-05
4.42449e-05
3.81802e-05
4.06318e-05
3.7154e-05
3.52754e-05
3.47735e-05
3.16171e-05
3.164e-05
0.000117252
0.00011608
0.000115941
0.00011859
0.000121303
0.00012558
0.000131443
0.000138983
0.000147423
0.00015649
0.000168509
0.000190241
0.000239586
0.000315111
0.000345617
0.000340267
0.000305047
0.000252453
0.000207547
0.000175651
0.000157873
0.000148484
0.000142487
0.000138068
0.000134538
0.000131878
0.000129744
0.000127894
0.00012602
0.000124768
0.000124297
0.000124715
0.00012516
0.00012545
0.00010249
0.000110577
7.68638e-05
7.93053e-05
6.23123e-05
6.30132e-05
5.35077e-05
5.30571e-05
4.87996e-05
4.7521e-05
4.51522e-05
4.37022e-05
4.26467e-05
4.10843e-05
3.89755e-05
3.40051e-05
3.6089e-05
3.32603e-05
3.17391e-05
3.12876e-05
2.8466e-05
2.87245e-05
0.000117324
0.000116041
0.000116135
0.000118909
0.000121718
0.000126206
0.000132134
0.000139224
0.000147187
0.000155808
0.000166686
0.000185656
0.000225371
0.000301049
0.000345328
0.000344207
0.000317566
0.000265223
0.00021907
0.000183533
0.000162445
0.000151538
0.000144925
0.000140322
0.000136625
0.000133405
0.000131026
0.000129159
0.000127751
0.000126319
0.000125702
0.000125723
0.00012607
0.000127102
0.000120111
0.000125591
8.26009e-05
8.87223e-05
6.36292e-05
6.57794e-05
5.24545e-05
5.41914e-05
4.6238e-05
4.70496e-05
4.29571e-05
4.29751e-05
3.99182e-05
3.96557e-05
3.76663e-05
3.69138e-05
3.46681e-05
3.06661e-05
3.22095e-05
3.00113e-05
2.88223e-05
2.84856e-05
2.59158e-05
2.64246e-05
0.000117488
0.000116065
0.000116256
0.000119131
0.000122145
0.000126929
0.000132815
0.000139423
0.000146884
0.000155008
0.000165091
0.000181443
0.00021415
0.000285311
0.000342535
0.000346907
0.000329597
0.000279181
0.000230165
0.000192067
0.000167857
0.000154873
0.000147574
0.00014272
0.000138896
0.000135345
0.000132612
0.000130544
0.000129169
0.000128153
0.000127535
0.000127521
0.000121888
0.000124645
0.000121394
9.59509e-05
0.000112964
7.08949e-05
8.49562e-05
5.87706e-05
7.36271e-05
5.20033e-05
6.94248e-05
4.71919e-05
6.36819e-05
4.24627e-05
5.61996e-05
3.77751e-05
4.62028e-05
3.43226e-05
3.69258e-05
3.19708e-05
2.79877e-05
2.98125e-05
2.78097e-05
2.64719e-05
2.62876e-05
2.39426e-05
2.45015e-05
0.000117688
0.000116312
0.000116262
0.00011929
0.000122525
0.000127723
0.00013344
0.000139643
0.000146411
0.00015412
0.000163668
0.000177867
0.000204996
0.000269564
0.000335378
0.000349994
0.000337938
0.0002909
0.00024243
0.000201105
0.000173708
0.000158559
0.000150395
0.000145292
0.000141278
0.000137618
0.000134398
0.000132284
0.000130408
0.00012958
0.000129163
0.000127018
0.000116021
0.000100728
9.61495e-05
0.000113208
0.000105081
0.000105079
9.94035e-05
9.83913e-05
0.000101091
0.000100497
0.000107477
0.000103919
0.000116355
9.69471e-05
0.000119761
7.55069e-05
0.000117574
5.35346e-05
0.000103633
3.62554e-05
6.15078e-05
3.51503e-05
2.61221e-05
3.29798e-05
2.98583e-05
2.46544e-05
2.47418e-05
2.24878e-05
2.29907e-05
0.000119445
0.000117557
0.000116293
0.000119391
0.000122817
0.000128477
0.000134054
0.000139844
0.000145875
0.000153138
0.000162319
0.000174796
0.000198812
0.000254161
0.00032483
0.000351205
0.000344381
0.00030616
0.000253992
0.000211149
0.00018
0.000162746
0.000153335
0.000147991
0.00014387
0.000140199
0.000136725
0.000133977
0.000132127
0.000130735
0.000129852
0.000124522
0.000104226
9.91589e-05
0.000100235
0.000105131
0.000126057
9.45272e-05
0.000100262
0.000102468
0.000118207
0.00012347
0.000150207
0.000145305
0.000184571
0.000155317
0.000207976
0.000150189
0.000211849
0.000136216
0.000191675
0.000117526
0.00015591
6.76252e-05
0.000123413
7.02894e-05
2.67436e-05
6.56246e-05
5.59924e-05
2.34191e-05
2.43382e-05
2.14932e-05
2.214e-05
0.000128954
0.000121111
0.000117064
0.000119535
0.000123022
0.000128908
0.000134445
0.00013996
0.000145487
0.000152122
0.00016096
0.000172136
0.000193309
0.000238908
0.000312046
0.000351553
0.000349145
0.00031961
0.000266198
0.000221822
0.000187112
0.000167144
0.000156554
0.000150695
0.000146637
0.000142955
0.000139538
0.000136228
0.000133984
0.000132414
0.000130241
0.000120606
0.000109836
0.000136329
8.93185e-05
0.000145887
0.000180569
0.000200185
0.000240691
0.000137843
0.000167937
0.000182611
0.000223232
0.000231659
0.000284108
0.000271125
0.000338589
0.00028921
0.000370758
0.000279541
0.000374017
0.000240871
0.000347927
0.000175752
0.000288921
0.000126667
0.00019304
0.000126223
4.33527e-05
0.00012144
0.000112071
2.28115e-05
3.15968e-05
2.10678e-05
2.18584e-05
0.000143703
0.000131285
0.000120318
0.000120197
0.000123138
0.000129145
0.000134606
0.000139963
0.000145229
0.00015112
0.000159585
0.000169788
0.000188007
0.000226008
0.000297386
0.000349729
0.000352359
0.000333095
0.000280527
0.000232039
0.000195583
0.000171802
0.000159938
0.000153668
0.000149674
0.000145921
0.000142378
0.000139235
0.000136192
0.000133915
0.000130008
0.000122082
0.000146817
0.000257613
0.000216674
0.000295768
0.000284645
0.000338878
0.000363752
0.0004117
0.000267756
0.000315695
0.000338633
0.000393129
0.000402233
0.000459094
0.000444207
0.000504077
0.000456831
0.00052374
0.000444164
0.00052004
0.000403391
0.000495019
0.000324209
0.000442795
0.000202602
0.000348025
0.00020199
9.89446e-05
0.000190417
0.000170701
2.46334e-05
7.38646e-05
2.1681e-05
2.18351e-05
0.000155603
0.000129408
0.000122161
0.000123388
0.000129143
0.000134539
0.000139819
0.000144896
0.000150107
0.000158133
0.000167592
0.000183283
0.000214528
0.00028184
0.000344081
0.000356389
0.000342498
0.000293138
0.000243966
0.000204553
0.000177264
0.000163217
0.00015685
0.00015299
0.000149319
0.000145794
0.000142405
0.000139462
0.00013561
0.000128863
0.000127882
0.000192219
0.000383154
0.000498373
0.000562922
0.000394426
0.000459116
0.00045986
0.000509575
0.000523379
0.000554967
0.000441442
0.000485577
0.000507633
0.000547716
0.000551907
0.00059
0.000574099
0.0006099
0.000575457
0.000612469
0.000561059
0.000603097
0.000529527
0.000584907
0.000468069
0.000550994
0.000358789
0.000482893
0.000354029
0.000143926
0.000331597
0.000293277
3.96867e-05
0.000110914
2.38467e-05
2.17279e-05
0.000147536
0.00012846
0.000125147
0.000128736
0.00013405
0.000139477
0.000144522
0.000149324
0.000156545
0.000165471
0.000179083
0.000205963
0.000266537
0.000334405
0.000358673
0.000350362
0.00030955
0.000255539
0.00021415
0.000183694
0.000166534
0.000160142
0.000156388
0.000152962
0.000150081
0.000146433
0.000142941
0.000137976
0.000126785
0.000132591
0.000236311
0.000482482
0.000655821
0.00061064
0.000652189
0.000550472
0.000586586
0.000582598
0.000606516
0.000617501
0.000630127
0.000576628
0.00060042
0.000616112
0.000634331
0.000635019
0.000650775
0.000635814
0.000647349
0.000627014
0.000637142
0.000615475
0.000625814
0.000598976
0.000617975
0.000564858
0.000607779
0.000487217
0.000573619
0.000480963
0.000239292
0.000462577
0.000439127
0.000352896
7.48204e-05
0.000171506
2.81949e-05
2.37246e-05
0.000142391
0.000130557
0.000129605
0.000133444
0.000138627
0.000143883
0.000148559
0.000155186
0.000163335
0.000175285
0.00019915
0.000250858
0.000322093
0.000359084
0.000356284
0.000324952
0.000269145
0.000223904
0.000191174
0.000170745
0.000163379
0.000159917
0.000156841
0.000154528
0.000151574
0.000147072
0.000140299
0.000123869
0.000143382
0.000280294
0.000565339
0.000698422
0.000693553
0.00071433
0.000663055
0.00067926
0.000626841
0.000645517
0.000641056
0.000649545
0.000656946
0.000658855
0.000644767
0.000653487
0.000656666
0.000662513
0.000654336
0.00065385
0.000638841
0.000633729
0.000623217
0.000614099
0.000614513
0.000597836
0.000614859
0.000593988
0.00061192
0.000605215
0.000576223
0.000609864
0.000599991
0.000528094
0.000573413
0.000414218
0.000289799
0.000388038
0.000504651
0.000561474
0.000565534
0.000491201
6.86352e-05
0.000109362
0.000350647
0.000309029
0.000196658
4.15874e-05
8.15716e-05
2.64912e-05
6.46073e-05
0.00014588
0.000133881
0.000134169
0.0001381
0.000142976
0.000147601
0.000153835
0.000161363
0.000171858
0.000192706
0.000235877
0.000307635
0.000357582
0.000359912
0.000339845
0.000284728
0.000234514
0.000199518
0.000175855
0.000166409
0.000163393
0.000161235
0.000159902
0.000157373
0.000152945
0.000140769
0.000121598
0.000162633
0.000343023
0.000626429
0.000741411
0.0007367
0.000754141
0.000724483
0.000757684
0.000682018
0.000700006
0.000658217
0.000669906
0.00066177
0.000668208
0.000663319
0.00066412
0.000664655
0.000664268
0.000653218
0.00065178
0.00063033
0.000626402
0.000603875
0.000593654
0.000580598
0.0005686
0.000561695
0.000539308
0.000589327
0.000567693
0.000549028
0.000526516
0.000607227
0.000590159
0.00055359
0.000536573
0.00056798
0.000606223
0.000599121
0.000608668
0.000603104
0.000597397
0.000469945
0.000441932
0.000549825
0.000589488
0.00059483
0.000535717
0.000147959
0.000407389
0.000364411
0.000255548
6.07041e-05
3.6697e-05
5.06534e-05
0.00010499
7.55654e-05
0.000150345
0.000137622
0.00013884
0.00014266
0.000146664
0.000152401
0.000159517
0.000169162
0.000186746
0.000223221
0.000291768
0.000352789
0.000364805
0.000350506
0.000299637
0.000247414
0.0002084
0.000181461
0.000169283
0.000166499
0.00016539
0.000165869
0.000164699
0.000159821
0.000141957
0.00013042
0.000211341
0.000429043
0.000679029
0.000779573
0.000821518
0.000783318
0.00083083
0.000777767
0.000816961
0.000709688
0.000741296
0.000679448
0.000691977
0.000670178
0.000681823
0.000651656
0.000658126
0.000649862
0.000650539
0.000620982
0.000619327
0.00059029
0.000585303
0.00056236
0.000561585
0.000532494
0.00054123
0.000515961
0.000506771
0.000508589
0.000514609
0.000529174
0.000509127
0.00049658
0.000585135
0.000556952
0.000510783
0.000495277
0.000524692
0.000601806
0.000608047
0.000600422
0.000580479
0.000607457
0.000516074
0.000490177
0.000581279
0.000606131
0.000603541
0.000569664
0.000198155
0.000457275
0.000415317
0.00031211
5.58604e-05
4.53108e-05
6.16558e-05
0.000140784
9.43601e-05
0.000153774
0.00014133
0.000143215
0.000146458
0.0001513
0.000157867
0.0001668
0.000181821
0.000211878
0.000275432
0.000342659
0.000367101
0.000359196
0.000318463
0.000261182
0.000218524
0.000188157
0.000172828
0.000169175
0.000169154
0.000171125
0.000172772
0.000167572
0.000148687
0.000163196
0.000281656
0.000530061
0.000722552
0.000803955
0.000881306
0.000914189
0.000936883
0.000855411
0.000889451
0.000846386
0.000885149
0.000753615
0.000799045
0.000695449
0.000715258
0.000672184
0.000689173
0.000627156
0.00064266
0.000618541
0.000621961
0.000579326
0.000577347
0.000562873
0.000564289
0.0005624
0.000586411
0.00052773
0.00054503
0.000557022
0.000576672
0.000491876
0.000496026
0.000507839
0.0005239
0.000490774
0.000479159
0.000477139
0.000547939
0.000512308
0.000473605
0.000456958
0.000480072
0.00057694
0.000599667
0.000574961
0.000541079
0.000600058
0.000553033
0.00053029
0.000599213
0.000601128
0.000602368
0.000591697
0.000250904
0.000499867
0.000460023
0.000363598
6.61452e-05
6.68222e-05
6.09047e-05
0.000182182
0.000117792
0.00015586
0.000145051
0.000146876
0.000150945
0.000156757
0.000164718
0.000177965
0.000203452
0.000259477
0.000329057
0.000367099
0.000365181
0.000335795
0.000277656
0.000229855
0.00019589
0.000176761
0.000172598
0.000172142
0.000176238
0.000179593
0.0001765
0.000162028
0.000213323
0.000389333
0.000638416
0.000764216
0.000828445
0.000916562
0.000964129
0.000935173
0.000948845
0.000907875
0.000925106
0.000882348
0.000903131
0.000803009
0.000849445
0.000712796
0.000751653
0.000663264
0.000689056
0.000593522
0.000615879
0.000578181
0.000584122
0.000563326
0.000561072
0.000607284
0.000623252
0.000587165
0.000604774
0.000615257
0.000626103
0.000538943
0.00055368
0.000563523
0.000561793
0.000484733
0.000499547
0.000514667
0.000515437
0.000462411
0.000462455
0.000472593
0.000501765
0.000466719
0.000445933
0.000429988
0.000441627
0.000536608
0.000575065
0.000534906
0.00049393
0.000577214
0.000579565
0.000561102
0.000602649
0.000581367
0.000586828
0.00060053
0.000300488
0.000534531
0.000498072
0.000409456
6.44832e-05
7.41787e-05
5.79496e-05
0.000223709
0.000142142
0.000157113
0.0001484
0.000151158
0.000156181
0.000163134
0.000175136
0.000196749
0.000244003
0.000313708
0.000364807
0.000369294
0.000351156
0.000295384
0.000243006
0.000205332
0.000181958
0.000175637
0.00017581
0.00018083
0.00018546
0.000185004
0.000179137
0.000266796
0.000503461
0.000726699
0.000804704
0.000854849
0.000946896
0.000980578
0.000910658
0.000920269
0.000924227
0.000916897
0.000915857
0.000924479
0.000881857
0.000889919
0.000821515
0.000859567
0.000727797
0.000776984
0.000643201
0.0006776
0.000566803
0.000587295
0.000558865
0.000560187
0.00062604
0.000613635
0.000630183
0.000663088
0.000559193
0.000564251
0.000571237
0.000550297
0.000499344
0.000484751
0.000476018
0.000472239
0.000487735
0.000487232
0.000461417
0.000437498
0.000447709
0.00045883
0.000474625
0.000455397
0.000427714
0.000432314
0.000416249
0.000414495
0.000488982
0.000536011
0.000487551
0.000446925
0.000540236
0.000594323
0.000581774
0.000592307
0.000547694
0.000557474
0.00059628
0.000344962
0.000560982
0.000529409
0.000449331
1.67476e-05
8.12706e-05
5.52097e-05
0.000261576
0.000164092
0.000158254
0.000152256
0.000156225
0.000162159
0.000172988
0.000191247
0.00023037
0.0002976
0.000357948
0.000373174
0.000362364
0.000314316
0.000258888
0.000216278
0.000188956
0.000180231
0.000178163
0.000184752
0.000191861
0.00019305
0.000192662
0.000315097
0.000610935
0.000799032
0.000841369
0.000882667
0.000977984
0.00101422
0.000815461
0.000738809
0.000685491
0.000797254
0.000763942
0.000869203
0.000833578
0.00083109
0.000777527
0.000815624
0.000838064
0.000724798
0.000774698
0.000618923
0.00065777
0.000568957
0.000574807
0.000595166
0.000578138
0.000681094
0.000677267
0.000516594
0.000544601
0.000601906
0.000550408
0.000471085
0.000473678
0.000475062
0.000499074
0.000417243
0.000402149
0.000395356
0.000395571
0.000448168
0.00041988
0.00039192
0.000366994
0.000443729
0.000453265
0.000422223
0.000415469
0.000399681
0.000427798
0.000410988
0.000400163
0.00044148
0.000489572
0.000439269
0.000405575
0.000495604
0.000596866
0.000591712
0.000568645
0.00050562
0.000518964
0.000579805
0.000383925
0.000578819
0.000553841
0.000483424
1.78933e-05
8.4485e-05
2.26271e-05
0.00029418
0.000180436
0.000159829
0.000156905
0.000161984
0.00017126
0.000186665
0.000218984
0.000281024
0.000345476
0.000373847
0.000369634
0.000335375
0.000277452
0.000229496
0.000196833
0.000186084
0.000182061
0.000186697
0.000198783
0.000201454
0.000204619
0.000346911
0.000699108
0.000857523
0.000874314
0.000912753
0.00101064
0.0010455
0.000803255
0.000363025
0.000332868
0.00044586
0.000398014
0.000551844
0.000491194
0.000705322
0.000626303
0.000687096
0.00057209
0.000771289
0.000759324
0.000706551
0.000747078
0.000597361
0.000631294
0.000600243
0.00058473
0.000659039
0.000628859
0.000594198
0.000643227
0.000615886
0.000462246
0.000479217
0.000520576
0.000501874
0.000398867
0.000406515
0.000415305
0.000436989
0.000347983
0.000338897
0.000338465
0.000342934
0.000390425
0.000361525
0.000334684
0.00031354
0.000436521
0.000407401
0.000375133
0.000386144
0.000384308
0.000424518
0.000405772
0.000394041
0.000398741
0.000441004
0.000394984
0.000374056
0.000447669
0.000588445
0.000592051
0.0005349
0.000459535
0.000476328
0.000552614
0.000417351
0.000587724
0.000571316
0.000512159
3.21715e-05
8.32286e-05
2.17377e-05
0.000320542
0.00018856
0.000162587
0.000162284
0.000170385
0.000183539
0.000210103
0.00026582
0.000330843
0.000372771
0.000374324
0.000353708
0.000298389
0.000245122
0.000206651
0.000192228
0.00018735
0.000190011
0.000204119
0.000211455
0.000209576
0.000359301
0.000758345
0.000909987
0.000900612
0.000952198
0.00104951
0.00106464
0.000756725
0.000261316
0.000183345
0.000156796
0.000212092
0.000194803
0.000273645
0.000235267
0.000443613
0.000338426
0.000500526
0.000370219
0.000685637
0.00061826
0.000668111
0.000693779
0.000587981
0.000600069
0.000632117
0.000603753
0.000630798
0.000647185
0.000544156
0.000517307
0.000504929
0.000570931
0.000418024
0.000438069
0.000472317
0.000457069
0.000349879
0.00036056
0.000374004
0.000393792
0.000302453
0.000301975
0.000304892
0.000311395
0.000345077
0.000319856
0.000299518
0.000289934
0.000401477
0.000371698
0.000343103
0.000368416
0.000376704
0.000403106
0.000399384
0.000386704
0.00036455
0.000394891
0.000358212
0.000352929
0.000399957
0.000569437
0.000583078
0.00049699
0.000411457
0.000430204
0.000520018
0.00044551
0.000588988
0.000582225
0.00053561
5.16824e-05
7.56823e-05
4.23041e-05
0.000339756
0.000187164
0.000166447
0.000170131
0.000182255
0.000202832
0.00025184
0.000316102
0.000367183
0.000378153
0.00036708
0.000318654
0.000262528
0.000218752
0.000199834
0.000192841
0.000195568
0.000209766
0.000221461
0.000213335
0.00035889
0.000784808
0.000956117
0.000929004
0.00098832
0.00107958
0.00108193
0.000700215
0.000279347
0.00012497
0.000132445
0.000119838
0.000118893
0.000125991
0.000121381
0.000154858
0.000135351
0.000263362
0.000193565
0.000363327
0.000260971
0.00057072
0.000480556
0.000615335
0.000612179
0.000586334
0.000571758
0.000558143
0.00057227
0.000536278
0.000642936
0.000552894
0.000485295
0.000505063
0.000482101
0.00048388
0.000386034
0.000406175
0.000440726
0.000423676
0.000319788
0.000331334
0.000345928
0.000364778
0.000289679
0.000290126
0.00029367
0.00030275
0.000320187
0.000304178
0.00029468
0.000290652
0.000377507
0.000353493
0.000334412
0.000358959
0.000368032
0.000388957
0.00038855
0.000378784
0.000339784
0.000355644
0.000329775
0.000339936
0.00035746
0.000543337
0.000565983
0.000455169
0.000365582
0.000383899
0.000484523
0.000468516
0.000582673
0.000586314