/*--------------------------------*- C++ -*----------------------------------*\
  =========                 |
  \\      /  F ield         | OpenFOAM: The Open Source CFD Toolbox
   \\    /   O peration     | Website:  https://openfoam.org
    \\  /    A nd           | Version:  dev
     \\/     M anipulation  |
\*---------------------------------------------------------------------------*/
FoamFile
{
    version     2.0;
    format      ascii;
    class       volScalarField;
    location    "2500";
    object      CO2;
}
// * * * * * * * * * * * * * * * * * * * * * * * * * * * * * * * * * * * * * //

dimensions      [0 0 0 0 0 0 0];

internalField   nonuniform List<scalar> 
9838
(
1.0153e-32
3.94605e-32
1.49378e-32
9.053e-32
1.04309e-31
2.30266e-32
2.31227e-31
2.65112e-31
1.19765e-31
1.24079e-32
5.41935e-31
6.76871e-31
3.51431e-31
8.66208e-32
3.79773e-33
7.49643e-31
2.00909e-30
8.58236e-31
3.47196e-31
5.99518e-32
1.71985e-33
2.32462e-30
6.29206e-30
2.77256e-30
1.06389e-30
2.11168e-31
2.23903e-32
1.11191e-33
5.96498e-30
1.57214e-29
1.04523e-29
3.46531e-30
7.52259e-31
1.76056e-31
1.41436e-32
3.77777e-34
1.67899e-29
5.1004e-29
2.58962e-29
1.36416e-29
3.20172e-30
7.66167e-31
8.99914e-32
4.94758e-33
1.35402e-34
4.84318e-29
1.151e-28
1.05536e-28
4.95844e-29
1.59779e-29
3.35325e-30
5.40019e-31
5.81687e-32
2.2297e-33
5.30072e-35
7.8065e-29
2.50957e-28
2.97404e-28
1.52768e-28
5.59136e-29
1.41992e-29
2.76878e-30
3.51554e-31
2.04031e-32
7.68326e-34
1.4874e-35
9.02639e-29
5.46463e-28
7.49098e-28
4.48274e-28
1.86068e-28
4.28272e-29
1.12152e-29
1.66304e-30
1.92499e-31
9.85896e-33
2.08382e-34
5.33301e-36
4.3356e-28
1.20114e-27
1.57658e-27
1.35317e-27
5.70013e-28
1.7034e-28
3.65178e-29
5.28165e-30
9.30342e-31
6.86714e-32
2.31766e-33
6.3042e-35
1.74438e-36
1.39111e-27
2.30368e-27
2.80948e-27
3.39938e-27
1.72328e-27
4.8055e-28
1.006e-28
2.63344e-29
3.69951e-30
4.41045e-31
2.69457e-32
8.7023e-34
1.97858e-35
6.09306e-37
2.1884e-27
7.14413e-27
8.91857e-27
7.14007e-27
4.69461e-27
1.85692e-27
3.62917e-28
6.63063e-29
1.56634e-29
1.96311e-30
1.67204e-31
9.62044e-33
2.99484e-34
9.36139e-36
1.40299e-37
5.85184e-27
1.44759e-26
1.80774e-26
2.12305e-26
1.14624e-26
4.88901e-27
1.68828e-27
3.25864e-28
5.5076e-29
8.09728e-30
9.21051e-31
6.57259e-32
3.09847e-33
1.09886e-34
4.49839e-36
7.67141e-37
2.28135e-26
3.73399e-26
6.80572e-26
7.79684e-26
4.4011e-26
1.65579e-26
4.55668e-27
1.13626e-27
2.40802e-28
3.03343e-29
3.91941e-30
3.8354e-31
2.14056e-32
1.07245e-33
3.30612e-35
1.94487e-35
1.68054e-35
2.9946e-26
1.4577e-25
2.20438e-25
1.8464e-25
1.50467e-25
6.30999e-26
1.76422e-26
3.86044e-27
7.4398e-28
1.01562e-28
1.44677e-29
1.57044e-30
1.53196e-31
7.87777e-33
3.85133e-34
1.10851e-34
2.14881e-34
1.70277e-34
6.20275e-26
1.42715e-25
5.38002e-25
4.41316e-25
3.8024e-25
2.17302e-25
5.39382e-26
1.45049e-26
3.03706e-27
5.83465e-28
7.33654e-29
5.93114e-30
7.62088e-31
5.33683e-32
2.64871e-33
8.5353e-34
1.24717e-33
3.40393e-33
1.92903e-33
7.3216e-26
3.26108e-25
1.01505e-24
1.25225e-24
1.18928e-24
6.68295e-25
2.44824e-25
5.68715e-26
1.10566e-26
2.08911e-27
3.42966e-28
4.31272e-29
3.11394e-30
2.31282e-31
1.6311e-32
5.15738e-33
8.14601e-33
2.12488e-32
4.51087e-32
5.44704e-32
1.92037e-25
8.94764e-25
1.52691e-24
2.68317e-24
2.38608e-24
1.72743e-24
7.30527e-25
2.15939e-25
3.30451e-26
7.0231e-27
1.13894e-27
1.96663e-28
1.94855e-29
1.19427e-30
6.65786e-32
3.07916e-32
5.59352e-32
1.32908e-31
3.87835e-31
6.03497e-31
8.36999e-31
1.81174e-25
1.10132e-24
3.02635e-24
5.15081e-24
5.82008e-24
4.38421e-24
2.05442e-24
5.95803e-25
1.33145e-25
1.87239e-26
3.95102e-27
5.41025e-28
8.75006e-29
6.55119e-30
4.87638e-31
1.49957e-31
4.26114e-31
9.26219e-31
2.39071e-30
4.99607e-30
7.67549e-30
8.24962e-30
1.61799e-25
1.24367e-24
2.86521e-24
8.21098e-24
9.51497e-24
9.97383e-24
5.7104e-24
2.0341e-24
5.81347e-25
8.44748e-26
1.02588e-26
2.34446e-27
2.78644e-28
3.37725e-29
2.73259e-30
4.8462e-31
1.72469e-30
5.12398e-30
9.38524e-30
2.8827e-29
5.04612e-29
8.31731e-29
6.72834e-29
8.39123e-26
1.17019e-24
3.80607e-24
7.58507e-24
1.70187e-23
1.97302e-23
1.17512e-23
5.15973e-24
1.70882e-24
4.19355e-25
4.45646e-26
6.26654e-27
1.17955e-27
1.36656e-28
1.27486e-29
2.82333e-30
5.73345e-30
2.33062e-29
5.90675e-29
1.78361e-28
3.07757e-28
5.27912e-28
7.41473e-28
2.73313e-28
7.22451e-26
7.37912e-25
2.94381e-24
1.12892e-23
3.02177e-23
2.65305e-23
2.85286e-23
1.40363e-23
4.6812e-24
1.27869e-24
2.03153e-25
2.0533e-26
3.73386e-27
5.06277e-28
4.3973e-29
8.5144e-30
2.15374e-29
9.79613e-29
2.38351e-28
7.67185e-28
1.91389e-27
3.74412e-27
5.61254e-27
4.5927e-27
2.38094e-27
3.01734e-25
1.36651e-24
4.94262e-24
1.30809e-23
3.89818e-23
5.33378e-23
5.18341e-23
3.32534e-23
1.08326e-23
3.68834e-24
8.11037e-25
9.63476e-26
1.06694e-26
1.78726e-27
1.86937e-28
3.48701e-29
7.96334e-29
2.87488e-28
1.0761e-27
3.02741e-27
6.90926e-27
1.66166e-26
3.03461e-26
3.72446e-26
2.06271e-26
1.72135e-26
1.92044e-25
2.10398e-24
6.80377e-24
2.10272e-23
4.86349e-23
7.81736e-23
9.14588e-23
5.98465e-23
3.21536e-23
1.01273e-23
2.82311e-24
3.62036e-25
5.11491e-26
6.18366e-27
9.0718e-28
1.38375e-28
2.25743e-28
9.4313e-28
3.93246e-27
1.43806e-26
3.32167e-26
6.42191e-26
1.41359e-25
3.00756e-25
3.50188e-25
2.09459e-25
5.73994e-26
3.41003e-25
4.22499e-24
7.18462e-24
1.89161e-23
5.94277e-23
9.79646e-23
1.20132e-22
1.21429e-22
6.4244e-23
2.73797e-23
7.71852e-24
1.66002e-24
1.98402e-25
2.04906e-26
3.06709e-27
5.10101e-28
7.15267e-28
3.44965e-27
1.08083e-26
6.11314e-26
1.56239e-25
2.32875e-25
5.09176e-25
1.09672e-24
1.94828e-24
2.42731e-24
1.66362e-24
6.64275e-25
2.41969e-25
4.91026e-24
1.64373e-23
2.6344e-23
7.20395e-23
1.3163e-22
1.80543e-22
2.03511e-22
1.22978e-22
5.38786e-23
1.93376e-23
5.06385e-24
1.00715e-24
1.00506e-25
8.20715e-27
2.01935e-27
2.69033e-27
9.8807e-27
5.32871e-26
1.48739e-25
7.19022e-25
1.33136e-24
3.60925e-24
5.42286e-24
1.35012e-23
1.81045e-23
1.3847e-23
1.74423e-23
5.21999e-24
6.07084e-25
5.05653e-24
1.40148e-23
5.02093e-23
9.49557e-23
1.37491e-22
2.10283e-22
2.91418e-22
2.3205e-22
1.17594e-22
4.26427e-23
1.38247e-23
2.85053e-24
4.29321e-25
4.18282e-26
5.57265e-27
8.00421e-27
3.33594e-26
1.71411e-25
6.50274e-25
2.29218e-24
7.49345e-24
9.57636e-24
3.28862e-23
6.0156e-23
1.06753e-22
1.47141e-22
2.58021e-22
1.68658e-22
1.55047e-22
4.18454e-24
9.48576e-24
3.05715e-23
7.13441e-23
9.56733e-23
1.84495e-22
3.11361e-22
4.0628e-22
3.82502e-22
2.22129e-22
8.53959e-23
2.84487e-23
7.72785e-24
1.57209e-24
1.74474e-25
2.18104e-26
2.68109e-26
7.85845e-26
5.14576e-25
1.93451e-24
6.0783e-24
2.51015e-23
6.43391e-23
1.25697e-22
3.08447e-22
7.30405e-22
1.78588e-21
2.90137e-21
3.63726e-21
3.25637e-21
1.31628e-21
6.58861e-24
2.58248e-23
6.22848e-23
8.00537e-23
1.50404e-22
3.06769e-22
4.48328e-22
5.83023e-22
6.11418e-22
3.90066e-22
1.90497e-22
6.54992e-23
1.77079e-23
4.49391e-24
6.63719e-25
8.63107e-26
6.5064e-26
3.48407e-25
1.10214e-24
5.94989e-24
1.58579e-23
6.29215e-23
2.19088e-22
5.97029e-22
1.22928e-21
4.68597e-21
1.33738e-20
3.3926e-20
4.36737e-20
5.15984e-20
3.70545e-20
1.73674e-20
6.01644e-24
4.36716e-23
7.32343e-23
2.12998e-22
3.30466e-22
4.52015e-22
5.20902e-22
6.82472e-22
8.5928e-22
6.55836e-22
3.56396e-22
1.20793e-22
4.19207e-23
1.12685e-23
2.65532e-24
3.59472e-25
2.18731e-25
9.64923e-25
3.97258e-24
1.97489e-23
5.70432e-23
1.61001e-22
4.78615e-22
2.1838e-21
6.21019e-21
2.4559e-20
1.19484e-19
3.40519e-19
5.14458e-19
6.63766e-19
7.58086e-19
4.6366e-19
1.35452e-19
3.9253e-23
1.08344e-22
1.8899e-22
3.8879e-22
5.72617e-22
8.17746e-22
7.54799e-22
9.1802e-22
1.27301e-21
1.03862e-21
6.00879e-22
2.91628e-22
8.20054e-23
2.32429e-23
6.90845e-24
1.26795e-24
7.69186e-25
2.85441e-24
1.03259e-23
6.66019e-23
2.25685e-22
5.12888e-22
1.49418e-21
6.59686e-21
2.40986e-20
1.29679e-19
7.32911e-19
2.33056e-18
5.98782e-18
1.12671e-17
1.05119e-17
7.73628e-18
4.77848e-18
1.05976e-19
1.31616e-18
1.24907e-22
4.09725e-22
4.24696e-22
6.83331e-22
1.02068e-21
1.35907e-21
1.64159e-21
1.63796e-21
1.83373e-21
1.61624e-21
1.02373e-21
4.4149e-22
1.86288e-22
5.03516e-23
1.55764e-23
3.8274e-24
2.07764e-24
7.76566e-24
3.09781e-23
1.2031e-22
6.18519e-22
2.07744e-21
4.66748e-21
1.74246e-20
9.54666e-20
5.83942e-19
4.02928e-18
1.87934e-17
4.74964e-17
8.21779e-17
1.46107e-16
8.38689e-17
7.57655e-17
1.02248e-17
7.24418e-17
5.82039e-19
5.33845e-18
2.06644e-21
1.56448e-21
1.51522e-21
1.11864e-21
1.94077e-21
2.32927e-21
2.49428e-21
2.57257e-21
2.61035e-21
2.43e-21
1.69277e-21
8.82502e-22
3.37527e-22
1.12393e-22
3.13927e-23
8.47462e-24
5.30407e-24
1.83518e-23
8.71291e-23
2.41628e-22
1.63386e-21
4.63326e-21
1.63745e-20
4.44577e-20
3.15395e-19
2.5418e-18
1.71805e-17
1.02847e-16
3.79638e-16
9.90269e-16
1.75409e-15
1.56275e-15
3.49641e-16
1.24907e-15
3.16619e-16
1.63014e-15
1.97401e-15
3.69813e-17
2.90841e-16
1.88834e-18
2.83208e-17
9.17581e-21
1.26678e-20
8.25935e-21
4.71946e-21
3.82455e-21
3.66196e-21
4.80864e-21
3.76023e-21
4.22305e-21
3.61484e-21
2.42041e-21
1.53427e-21
6.94588e-22
2.19513e-22
6.61121e-23
1.98473e-23
1.17053e-23
4.11956e-23
1.67193e-22
9.49633e-22
2.8782e-21
1.41919e-20
3.95069e-20
1.93771e-19
1.08409e-18
1.05436e-17
7.61454e-17
5.43196e-16
2.15379e-15
7.23615e-15
1.92096e-14
2.242e-14
5.67666e-15
2.69314e-14
8.488e-15
2.10094e-15
1.03441e-14
1.20812e-14
1.8283e-16
1.87864e-15
1.16513e-17
1.10007e-16
4.08631e-20
5.50892e-20
4.03445e-20
1.90186e-20
1.22856e-20
6.55104e-21
8.39228e-21
7.031e-21
6.82195e-21
5.26308e-21
4.30948e-21
2.30983e-21
1.21762e-21
4.83244e-22
1.45084e-22
4.27129e-23
3.11304e-23
7.87277e-23
4.05293e-22
1.90952e-21
8.14644e-21
2.44848e-20
1.20414e-19
5.6336e-19
2.92451e-18
3.71095e-17
3.92905e-16
2.21402e-15
1.29011e-14
5.35757e-14
1.59394e-13
2.9646e-13
1.15547e-13
4.79737e-13
4.27454e-14
2.09565e-13
6.25174e-14
1.2063e-14
8.02976e-14
8.95533e-14
9.90584e-16
9.8114e-15
2.43826e-17
5.7489e-16
1.50597e-19
5.07369e-19
2.98928e-19
1.61114e-19
6.28649e-20
2.25532e-20
1.54644e-20
1.29354e-20
1.04569e-20
8.61409e-21
6.2573e-21
4.23217e-21
1.85431e-21
8.90614e-22
3.29373e-22
1.06374e-22
6.72335e-23
2.18466e-22
1.0084e-21
3.32086e-21
1.87918e-20
7.69133e-20
2.73042e-19
1.22106e-18
1.35115e-17
1.14255e-16
1.23357e-15
1.20887e-14
6.91467e-14
3.35088e-13
1.21323e-12
2.94812e-12
1.75283e-12
6.26808e-12
9.34646e-13
3.79999e-12
3.41131e-13
1.69736e-12
4.99309e-13
8.5078e-14
6.23871e-13
6.84606e-13
6.58011e-15
6.73208e-14
1.34825e-16
3.38838e-15
1.10206e-18
2.59842e-18
2.27669e-18
1.1718e-18
3.352e-19
1.05071e-19
3.38037e-20
2.37091e-20
1.84306e-20
1.29392e-20
1.12502e-20
6.39329e-21
3.47378e-21
1.50827e-21
6.24982e-22
2.19074e-22
1.78042e-22
4.84375e-22
1.95716e-21
1.08072e-20
2.99154e-20
1.42921e-19
5.76227e-19
2.94247e-18
2.90126e-17
4.89978e-16
4.2998e-15
4.1011e-14
3.81054e-13
1.91161e-12
7.35266e-12
2.33823e-11
1.94083e-11
6.13626e-11
1.41316e-11
4.85528e-11
7.62872e-12
3.104e-11
2.76804e-12
1.38659e-11
3.97721e-12
6.34194e-13
4.8849e-12
5.27517e-12
4.48433e-14
4.90034e-13
9.18785e-16
2.26674e-14
1.56129e-17
1.44816e-17
1.23346e-17
7.15985e-18
1.97012e-18
6.28889e-19
1.1904e-19
5.16297e-20
2.84981e-20
2.28991e-20
1.69238e-20
1.06814e-20
5.63767e-21
2.37963e-21
1.09643e-21
4.27852e-22
3.08789e-22
1.13314e-21
4.47842e-21
2.12733e-20
9.82908e-20
3.45798e-19
9.01337e-19
5.39387e-18
6.16154e-17
1.02423e-15
1.88539e-14
1.62452e-13
1.2205e-12
1.06522e-11
3.84949e-11
1.44601e-10
1.6766e-10
4.80678e-10
1.52037e-10
4.56561e-10
1.15199e-10
3.9023e-10
6.28266e-11
2.56636e-10
2.25457e-11
1.13724e-10
3.18464e-11
4.75899e-12
3.86105e-11
4.08102e-11
3.17704e-13
3.59241e-12
5.40473e-15
1.57561e-13
6.0491e-17
6.42879e-17
7.25771e-17
4.27001e-17
1.35033e-17
3.28352e-18
7.85579e-19
1.46898e-19
6.94242e-20
3.98969e-20
2.86881e-20
1.79786e-20
1.02661e-20
4.18008e-21
1.79567e-21
7.19467e-22
6.0407e-22
1.9199e-21
9.41075e-21
3.18862e-20
1.48624e-19
7.34778e-19
2.49893e-18
1.28634e-17
1.16868e-16
2.04413e-15
4.80204e-14
8.35176e-13
5.3643e-12
3.0363e-11
2.22817e-10
7.14038e-10
1.16487e-09
2.9519e-09
1.25707e-09
3.3894e-09
1.21319e-09
3.54057e-09
9.51089e-10
3.19535e-09
5.2201e-10
2.14469e-09
1.84726e-10
9.43033e-10
2.57145e-10
3.5759e-11
3.07163e-10
3.15566e-10
2.2947e-12
2.64661e-11
3.612e-14
1.11537e-12
1.82193e-16
3.88512e-16
3.82692e-16
2.35398e-16
8.66321e-17
2.08721e-17
5.11723e-18
8.67798e-19
1.7916e-19
7.58141e-20
4.66813e-20
2.93517e-20
1.66866e-20
8.51144e-21
3.13351e-21
1.4474e-21
1.57152e-21
4.51036e-21
1.66793e-20
8.01803e-20
2.58947e-19
1.20932e-18
5.26255e-18
2.93522e-17
2.32008e-16
3.7728e-15
7.86329e-14
1.82577e-12
2.97423e-11
1.45482e-10
4.85675e-10
3.78284e-09
6.37981e-09
1.4684e-08
8.24192e-09
1.97373e-08
9.62417e-09
2.48346e-08
9.82904e-09
2.81017e-08
7.93453e-09
2.64542e-08
4.38294e-09
1.80715e-08
1.52521e-09
7.90175e-09
2.08758e-09
2.67602e-10
2.44476e-09
2.4235e-09
1.66145e-11
1.94612e-10
2.57169e-13
7.94535e-12
6.2428e-16
1.21847e-15
1.21746e-15
1.02363e-15
4.49708e-16
1.18969e-16
2.80826e-17
4.80608e-18
8.37084e-19
1.89867e-19
7.83706e-20
5.00375e-20
2.57857e-20
1.41182e-20
6.84482e-21
3.7258e-21
3.91511e-21
1.16783e-20
3.77662e-20
1.60151e-19
6.86473e-19
2.27689e-18
1.08804e-17
7.24931e-17
6.02754e-16
7.90594e-15
1.49854e-13
2.98768e-12
5.69794e-11
7.82021e-10
2.75205e-09
5.05427e-09
2.84489e-08
5.72005e-08
4.32381e-08
9.96435e-08
5.92545e-08
1.3548e-07
7.49294e-08
1.87436e-07
8.04998e-08
2.26124e-07
6.64817e-08
2.1927e-07
3.69935e-08
1.51754e-07
1.2626e-08
6.60839e-08
1.69125e-08
1.98386e-09
1.93266e-08
1.83535e-08
1.18976e-10
1.40451e-09
1.8488e-12
5.59373e-11
2.56912e-15
6.13533e-15
5.62204e-15
4.36178e-15
1.88685e-15
7.09031e-16
1.55557e-16
3.04435e-17
4.58354e-18
6.94087e-19
1.83809e-19
8.30649e-20
4.91012e-20
2.07687e-20
1.28558e-20
8.37477e-21
1.10261e-20
2.74927e-20
8.37072e-20
4.06072e-19
1.44153e-18
4.61846e-18
1.80121e-17
1.50778e-16
1.69129e-15
1.99627e-14
3.40278e-13
5.96182e-12
9.94429e-11
1.37948e-09
1.37441e-08
4.76659e-08
1.21855e-07
0
1.90019e-07
3.84802e-07
2.89916e-07
6.6315e-07
4.38209e-07
9.81022e-07
5.93944e-07
1.45628e-06
6.60587e-07
1.8238e-06
5.50576e-07
1.78206e-06
3.07857e-07
1.23851e-06
1.03329e-07
5.38833e-07
1.34794e-07
1.44692e-08
1.49622e-07
1.36071e-07
8.30579e-10
9.81905e-09
1.30758e-11
3.80306e-10
1.37483e-14
3.3539e-14
2.97359e-14
2.00395e-14
9.3113e-15
3.36823e-15
8.74045e-16
1.72414e-16
2.67402e-17
3.57118e-18
5.86407e-19
1.54221e-19
8.36831e-20
4.96594e-20
2.53539e-20
1.96688e-20
2.21567e-20
5.68629e-20
1.74477e-19
7.00351e-19
3.09425e-18
7.19561e-18
4.7354e-17
3.03022e-16
3.89929e-15
5.74378e-14
8.79391e-13
1.45976e-11
2.24096e-10
2.678e-09
2.59734e-08
1.9722e-07
1.213e-06
6.49841e-07
1.45356e-06
1.19076e-06
2.3337e-06
2.02229e-06
4.34858e-06
3.35696e-06
7.34077e-06
4.72039e-06
1.11008e-05
5.26607e-06
1.38647e-05
4.35382e-06
1.3416e-05
2.44169e-06
9.34745e-06
8.16262e-07
4.12425e-06
1.03515e-06
1.02864e-07
1.11398e-06
9.75379e-07
5.55356e-09
6.58291e-08
8.89315e-11
2.45017e-09
7.93194e-14
1.80118e-13
1.60858e-13
9.92398e-14
4.61335e-14
1.83083e-14
3.95308e-15
9.21528e-16
1.5356e-16
1.56111e-17
2.71077e-18
4.96036e-19
1.60123e-19
9.78767e-20
7.63915e-20
5.84644e-20
6.23231e-20
1.558e-19
3.2536e-19
1.37403e-18
5.71459e-18
2.16794e-17
9.5801e-17
7.7439e-16
9.80215e-15
1.50251e-13
2.40025e-12
3.80745e-11
6.10707e-10
6.38836e-09
6.00909e-08
4.15632e-07
3.19278e-06
1.00782e-05
1.71608e-05
3.71939e-06
6.61879e-06
7.30409e-06
1.35565e-05
1.39981e-05
2.70454e-05
2.42063e-05
4.80033e-05
3.31774e-05
7.18207e-05
3.61921e-05
8.57247e-05
2.99806e-05
8.12115e-05
1.72939e-05
5.77421e-05
5.98485e-06
2.73624e-05
7.36591e-06
7.05347e-07
7.70539e-06
6.57092e-06
3.50877e-08
4.20995e-07
5.73605e-10
1.47571e-08
4.51417e-13
9.65203e-13
7.96223e-13
5.82846e-13
2.56683e-13
7.85652e-14
2.40247e-14
4.02702e-15
6.98288e-16
1.16831e-16
1.26932e-17
1.78237e-18
4.05779e-19
2.21637e-19
2.02343e-19
2.03592e-19
2.09874e-19
3.41892e-19
8.81221e-19
2.41637e-18
1.04539e-17
3.35939e-17
2.32171e-16
1.92709e-15
2.6115e-14
3.812e-13
5.85183e-12
9.63643e-11
1.53955e-09
1.65671e-08
1.64759e-07
1.21758e-06
6.49727e-06
2.67789e-05
4.13133e-05
5.72302e-05
9.14086e-05
2.16956e-05
3.75167e-05
4.47918e-05
7.57449e-05
8.58282e-05
0.000142244
0.00013848
0.000234156
0.000180914
0.000327146
0.000189727
0.000381849
0.000157849
0.000361355
9.55362e-05
0.000264197
3.73164e-05
0.000138063
4.40978e-05
4.58942e-06
4.48829e-05
3.80167e-05
2.07673e-07
2.56291e-06
3.42449e-09
8.11269e-08
2.10917e-12
4.88975e-12
3.96583e-12
2.46931e-12
1.08866e-12
3.61488e-13
1.59468e-13
2.59257e-14
4.35455e-15
5.19219e-16
6.93354e-17
8.17941e-18
1.27364e-18
5.19264e-19
6.83018e-19
6.53168e-19
7.90253e-19
9.89343e-19
1.68476e-18
4.51264e-18
1.58563e-17
6.1891e-17
3.81185e-16
4.272e-15
6.53034e-14
9.85925e-13
1.42281e-11
2.1529e-10
3.42701e-09
3.82196e-08
4.35465e-07
3.67882e-06
2.36448e-05
7.4661e-05
6.05954e-05
0.000131534
0.000198773
0.000247802
0.000334889
0.000118636
0.000176799
0.00021506
0.000307798
0.000353544
0.00048751
0.000509425
0.00070458
0.000633529
0.000910923
0.000678075
0.00104306
0.000598605
0.00104399
0.000387509
0.000866142
0.000175623
0.000510637
0.000197747
2.65052e-05
0.000195879
0.000166265
1.1402e-06
1.43389e-05
1.79736e-08
3.92909e-07
5.7018e-12
1.97776e-11
1.83426e-11
1.1547e-11
4.82611e-12
1.64746e-12
5.8191e-13
1.56169e-13
2.01929e-14
3.60119e-15
3.32919e-16
4.0374e-17
4.87807e-18
1.33507e-18
1.34612e-18
3.15814e-18
2.89872e-18
4.45193e-18
5.77808e-18
1.20009e-17
2.72533e-17
1.31104e-16
7.70467e-16
1.00291e-14
1.61292e-13
2.5487e-12
3.62345e-11
4.95619e-10
7.17162e-09
7.41134e-08
9.01722e-07
9.08774e-06
6.46179e-05
0.000323749
0.000263588
0.000421879
0.000432837
0.000551049
0.00064652
0.000773542
0.000413171
0.00052667
0.000628475
0.000774903
0.000898878
0.00108386
0.00118528
0.00143726
0.00141328
0.00176362
0.00151955
0.0019784
0.00143942
0.00201474
0.00112546
0.00181298
0.000604224
0.00134407
0.000646623
0.000117752
0.000624438
0.000534592
5.70477e-06
6.38728e-05
7.75626e-08
1.60503e-06
4.34589e-11
7.14326e-11
4.94059e-11
2.07874e-11
6.5533e-12
1.72687e-12
7.00318e-13
1.40515e-13
1.31957e-14
1.53399e-15
1.58119e-16
2.05194e-17
5.62358e-18
5.78358e-18
7.38717e-18
1.25538e-17
1.39155e-17
2.2688e-17
2.72696e-17
6.50145e-17
2.19495e-16
1.22035e-15
1.92967e-14
4.06309e-13
6.27975e-12
9.24216e-11
1.21043e-09
1.55524e-08
1.42321e-07
1.55211e-06
1.63785e-05
0.000119172
0.000515294
0.00094819
0.000984498
0.00067482
0.000799729
0.000904318
0.00104906
0.00119615
0.00133441
0.000918544
0.0010584
0.00125896
0.0014216
0.00166324
0.00186315
0.00207875
0.00235023
0.00240329
0.00278458
0.00256113
0.00306035
0.00248649
0.00311468
0.0021305
0.00289085
0.0014859
0.00236776
0.00153
0.00039191
0.00145679
0.00126624
2.37004e-05
0.000223411
2.23251e-07
4.79662e-06
1.74481e-10
1.7908e-10
8.19315e-11
2.62247e-11
6.62795e-12
2.20048e-12
5.01369e-13
7.89986e-14
8.85576e-15
7.36834e-16
9.40194e-17
1.64519e-17
1.88998e-17
2.21694e-17
2.62116e-17
4.38807e-17
6.43496e-17
7.49302e-17
1.61608e-16
4.2829e-16
1.85328e-15
2.82755e-14
7.92538e-13
1.59987e-11
2.27853e-10
3.05355e-09
3.62201e-08
2.91433e-07
2.73677e-06
2.56929e-05
0.000178975
0.000678716
0.00156029
0.00145119
0.00168801
0.00118881
0.0013389
0.00147391
0.00162391
0.00184367
0.00197497
0.00157036
0.00170981
0.00204199
0.0021957
0.00258022
0.0027734
0.00311257
0.00338168
0.00350977
0.00389876
0.00368775
0.0042025
0.00360272
0.00424887
0.00320557
0.0039909
0.00250129
0.00342057
0.00251802
0.000975463
0.00241833
0.00224738
0.00162233
7.80712e-05
0.000601857
3.89977e-07
8.98301e-06
4.76683e-10
2.86839e-10
1.01083e-10
2.58785e-11
6.0999e-12
2.64706e-12
4.70293e-13
5.4715e-14
2.72369e-15
3.58355e-16
6.83602e-17
4.85425e-17
7.16216e-17
7.0895e-17
1.09814e-16
1.70245e-16
1.93087e-16
3.25474e-16
8.66703e-16
3.35226e-15
3.83287e-14
1.15294e-12
3.19137e-11
5.77055e-10
7.46537e-09
8.41349e-08
6.36302e-07
5.17353e-06
4.14999e-05
0.000245811
0.000837464
0.00174021
0.00230951
0.00241861
0.00204896
0.00218822
0.00176962
0.00191516
0.00210748
0.00224889
0.00255805
0.00266343
0.00232819
0.00244727
0.00293296
0.00305558
0.00359542
0.00376058
0.00422639
0.00447327
0.0046724
0.00503702
0.00482162
0.00535035
0.00471929
0.00535411
0.00427505
0.00507823
0.00351529
0.00443659
0.00396047
0.00296993
0.00351398
0.00207606
0.00124633
0.00190937
0.00277088
0.00338322
0.00343948
0.00266825
7.35684e-05
0.000303062
0.00166131
0.00142576
0.00075622
1.3853e-06
0.000156874
1.13823e-05
7.10147e-05
8.23355e-10
3.60243e-10
9.90946e-11
2.36783e-11
7.41796e-12
2.19567e-12
3.3046e-13
1.63303e-14
1.19033e-15
2.29796e-16
1.38834e-16
1.8103e-16
2.50303e-16
3.35138e-16
4.20968e-16
5.84966e-16
7.89834e-16
2.01322e-15
7.58632e-15
5.47387e-14
1.38523e-12
4.6891e-11
1.16808e-09
1.86433e-08
1.929e-07
1.45275e-06
1.05989e-05
6.75477e-05
0.000333829
0.000990944
0.00193716
0.00249955
0.0025127
0.00282299
0.00282965
0.00262724
0.00273042
0.00238272
0.00251059
0.00276989
0.00288098
0.00329193
0.0033494
0.00315006
0.00322706
0.00387718
0.00394403
0.00464382
0.00474589
0.00522548
0.00529666
0.00558986
0.0055964
0.00584727
0.00592756
0.00535873
0.00570569
0.00594973
0.00616613
0.00483378
0.00529458
0.00583661
0.0060528
0.00565511
0.00445535
0.00397414
0.00451016
0.00492595
0.00396417
0.00250101
0.00229014
0.0032399
0.00380546
0.00390788
0.00309229
0.000516318
0.00204815
0.0017609
0.00110318
1.46744e-06
7.47873e-06
2.5105e-05
0.000288573
0.000132132
1.14675e-09
3.69452e-10
8.80302e-11
1.91212e-11
6.84386e-12
1.10188e-12
9.45431e-14
5.19716e-15
5.57213e-16
4.59629e-16
6.72911e-16
9.15948e-16
1.0888e-15
1.52284e-15
2.39734e-15
2.31305e-15
5.78242e-15
1.85503e-14
9.29301e-14
1.56641e-12
5.48221e-11
1.74534e-09
3.76515e-08
4.42481e-07
3.37705e-06
2.19805e-05
0.000119737
0.000442474
0.00113009
0.00199944
0.00253707
0.00280104
0.00273514
0.00311421
0.00301202
0.00313252
0.0031505
0.0029775
0.00305788
0.00340671
0.00346168
0.00399033
0.00398185
0.00397899
0.0039933
0.0047883
0.00477675
0.00531754
0.00531389
0.00555494
0.0054677
0.0058056
0.00553202
0.00618436
0.0061238
0.00599743
0.00575844
0.00613993
0.00629512
0.00629331
0.00537203
0.00579335
0.00631852
0.00644833
0.0061631
0.0049776
0.00447351
0.00498218
0.00544444
0.00443469
0.00290437
0.00267961
0.00367069
0.00435742
0.00424128
0.00350332
0.000788133
0.00241534
0.00210611
0.00143316
2.67227e-06
1.25689e-05
4.79069e-05
0.000478043
0.000226523
1.34493e-09
3.35868e-10
6.65167e-11
1.47566e-11
5.18984e-12
4.36965e-13
2.80994e-14
2.59804e-15
9.83245e-16
1.5676e-15
2.66882e-15
4.13952e-15
6.45604e-15
1.02223e-14
9.06211e-15
1.7657e-14
5.22277e-14
1.95265e-13
1.84116e-12
5.71654e-11
2.02917e-09
5.71874e-08
8.13665e-07
7.2791e-06
4.4622e-05
0.000195587
0.000572397
0.00125721
0.00199421
0.00236122
0.00256307
0.00241632
0.00287683
0.00272689
0.00320222
0.00299391
0.00347098
0.00337137
0.00349516
0.00349713
0.00397163
0.00394961
0.00462255
0.00454188
0.00474962
0.0046957
0.00530695
0.00529354
0.00539588
0.00535713
0.00514737
0.00484709
0.00544504
0.00503764
0.00468897
0.00431616
0.00620555
0.00598313
0.00562066
0.00516382
0.00642683
0.00639007
0.00624557
0.00588619
0.00627477
0.00654216
0.00665111
0.00656674
0.00547857
0.00495954
0.00547922
0.00594914
0.00490445
0.00329879
0.0030558
0.00409158
0.00481046
0.00467739
0.00390535
0.00107484
0.00277099
0.00243787
0.00175244
3.91185e-06
7.85427e-05
1.86311e-05
0.000694057
0.000342001
1.32627e-09
2.63737e-10
4.56691e-11
1.08384e-11
2.4952e-12
1.45024e-13
1.01256e-14
3.2706e-15
4.6716e-15
9.37142e-15
1.66612e-14
2.67511e-14
4.45784e-14
4.51097e-14
5.97017e-14
1.53551e-13
4.83181e-13
2.49939e-12
5.62076e-11
2.05106e-09
6.69349e-08
1.19129e-06
1.24122e-05
7.76207e-05
0.000291136
0.000711735
0.00137708
0.00197569
0.00221722
0.00199646
0.00226487
0.00198476
0.00275038
0.0024929
0.0031015
0.00275398
0.00363447
0.00340281
0.00390267
0.00381315
0.00444942
0.0043349
0.00510794
0.00498072
0.005263
0.00520355
0.00535433
0.00536887
0.00471053
0.00472761
0.00406613
0.00384343
0.00373325
0.00370108
0.00467456
0.00420438
0.00379615
0.00347668
0.00591828
0.00544535
0.00488885
0.00430957
0.00647886
0.00626201
0.0058446
0.00636106
0.00666674
0.00656509
0.00665759
0.00675675
0.00597824
0.00544687
0.0059728
0.00642059
0.00537835
0.00368164
0.00341841
0.00450799
0.00526714
0.00511465
0.00430016
0.00135384
0.00311042
0.00275257
0.00205551
3.8147e-06
0.000112796
2.1941e-05
0.000909355
0.000460142
1.19408e-09
1.84112e-10
3.01128e-11
7.90987e-12
7.42904e-13
4.21109e-14
1.27431e-14
1.55236e-14
3.29396e-14
6.29616e-14
1.0862e-13
1.7831e-13
2.42537e-13
2.20432e-13
4.7153e-13
1.30229e-12
4.43989e-12
5.22755e-11
1.93193e-09
6.68333e-08
1.41009e-06
1.74266e-05
0.000114213
0.000393314
0.000857595
0.00149167
0.00194557
0.00209585
0.00177535
0.00135863
0.00125061
0.00177682
0.00153925
0.00239577
0.00206103
0.00280586
0.00233231
0.00365237
0.00326092
0.00418336
0.00395471
0.0048185
0.00461406
0.00535535
0.00525641
0.00538978
0.00538775
0.00481412
0.00498715
0.00346694
0.00370022
0.00325373
0.00312307
0.00307252
0.00307867
0.00376269
0.00329345
0.00293536
0.00270007
0.00528193
0.00464585
0.00399224
0.00337487
0.00628449
0.00579509
0.00516314
0.00674869
0.00685775
0.00633075
0.00641294
0.00675712
0.00644795
0.00593329
0.00644419
0.00681043
0.00585314
0.00405385
0.00376681
0.00492235
0.00572516
0.00555349
0.00468991
0.00161446
0.00343331
0.00304935
0.00233802
2.18223e-06
0.000141214
1.98139e-05
0.00110613
0.000561618
9.32619e-10
1.18583e-10
2.24913e-11
3.16767e-12
2.21256e-13
4.97411e-14
5.50495e-14
1.13823e-13
2.28453e-13
4.11681e-13
7.21874e-13
1.19575e-12
9.01495e-13
1.51699e-12
3.66065e-12
1.00267e-11
5.44677e-11
1.53192e-09
6.06987e-08
1.45947e-06
2.01727e-05
0.000145951
0.000488912
0.000991315
0.00157652
0.00190672
0.00198271
0.00158673
0.000841171
0.000856274
0.000688245
0.00121738
0.00100207
0.00188767
0.00151013
0.00237749
0.00180312
0.00352011
0.00297025
0.00434209
0.00398218
0.00506366
0.00478537
0.00535123
0.00531809
0.00517012
0.00530864
0.00405003
0.00442463
0.00283375
0.00304019
0.00344668
0.00321417
0.00257557
0.00254343
0.00258436
0.00268305
0.00284807
0.00245863
0.00221678
0.00211687
0.00446323
0.00374916
0.00307233
0.00249923
0.00579118
0.00511045
0.00436256
0.00695235
0.00686589
0.00584461
0.00595863
0.00652871
0.00684978
0.00640385
0.00685895
0.00703591
0.00631764
0.00441711
0.00410217
0.00533629
0.0061796
0.00599049
0.00507553
0.00185134
0.00374171
0.00332709
0.00259859
8.03983e-07
0.000153515
1.28875e-05
0.00127479
0.000627473
6.51225e-10
7.85863e-11
1.12174e-11
1.05648e-12
1.86561e-13
1.852e-13
3.95982e-13
8.02009e-13
1.4714e-12
2.66787e-12
5.12244e-12
4.1149e-12
5.16819e-12
1.06143e-11
2.54127e-11
7.82449e-11
1.11588e-09
4.51996e-08
1.40988e-06
2.07717e-05
0.000161791
0.000565673
0.0011062
0.00162376
0.00186733
0.00186286
0.00140076
0.000666337
0.000251297
0.000204494
0.000377954
0.000294085
0.000653452
0.000483647
0.00130366
0.000918207
0.00189311
0.00124505
0.00328917
0.00260127
0.00440172
0.00390102
0.00517915
0.00485427
0.00521154
0.00522326
0.00476943
0.00504751
0.00364097
0.00387412
0.00409852
0.00261211
0.00281188
0.00324822
0.00302419
0.00210801
0.00216551
0.00227991
0.002433
0.00208096
0.00185496
0.0017846
0.00178458
0.00360307
0.00288636
0.0022838
0.00185615
0.00513255
0.00435688
0.00357
0.00698384
0.00667365
0.00523675
0.00542258
0.00612722
0.00710566
0.00683253
0.00715305
0.00710041
0.00675471
0.00477224
0.00442661
0.00574822
0.00661695
0.00641768
0.00545663
0.00206113
0.00403671
0.00358712
0.002837
5.15015e-07
0.000142787
7.27528e-06
0.00140863
0.000651173
4.29792e-10
4.53381e-11
4.52531e-12
4.75707e-13
7.50144e-13
1.39553e-12
2.79126e-12
5.09587e-12
9.08292e-12
1.77563e-11
2.0429e-11
1.87192e-11
3.19914e-11
6.72147e-11
1.56296e-10
9.65129e-10
2.90843e-08
1.13649e-06
2.01912e-05
0.000163917
0.00060509
0.00119419
0.00164955
0.00182201
0.00172819
0.00119689
0.000504634
0.000107038
6.09756e-05
3.39946e-05
0.000110282
7.84084e-05
0.000255877
0.0001608
0.00075089
0.000434602
0.00150376
0.000898911
0.00303311
0.00225043
0.00437421
0.00375813
0.00512401
0.00481737
0.00498339
0.00503322
0.00448483
0.00479014
0.00346853
0.0036942
0.00372002
0.00394947
0.00242426
0.00261651
0.00304393
0.00282467
0.00185144
0.00195799
0.00209202
0.00224862
0.0016616
0.00159869
0.00159518
0.00163856
0.00283121
0.00221121
0.00177936
0.001587
0.00445074
0.00365657
0.00290756
0.00684696
0.00633798
0.00464396
0.0049289
0.00567407
0.00721161
0.00716969
0.00730534
0.00703647
0.00713387
0.00512116
0.00474266
0.00615296
0.00702414
0.00682346
0.00583254
0.00224364
0.00431942
0.00383255
0.00305403
1.43678e-06
0.00010746
1.16154e-05
0.00150342
0.000624686
2.64661e-10
2.14997e-11
1.8164e-12
1.97552e-12
5.21459e-12
9.86503e-12
1.76716e-11
3.00867e-11
5.55167e-11
8.83958e-11
6.97087e-11
1.00826e-10
1.83756e-10
3.65381e-10
1.10404e-09
1.81773e-08
6.91004e-07
1.71207e-05
0.000160002
0.000610586
0.00123884
0.00165286
0.0017739
0.00158793
0.0010023
0.000385407
8.72684e-05
7.2985e-06
7.88562e-06
1.07074e-05
6.00842e-06
3.01865e-05
1.68406e-05
0.000120058
5.87318e-05
0.000488061
0.000246463
0.00134265
0.000808021
0.00283833
0.00204586
0.00428696
0.00361177
0.00495565
0.00467819
0.00462053
0.00468842
0.00414784
0.00433299
0.00444012
0.00326889
0.00349401
0.00341719
0.00364447
0.00219011
0.00235472
0.00274543
0.00254096
0.00170957
0.00180447
0.00191419
0.00204229
0.00152581
0.00152104
0.00154726
0.00160027
0.00227836
0.00183472
0.00161142
0.0015314
0.00385789
0.00311302
0.00248111
0.0065842
0.0059742
0.00416756
0.00457408
0.00528367
0.00720694
0.00736581
0.0073638
0.00684861
0.00739355
0.00546356
0.00505206
0.00654458
0.00735544
0.0071983
0.00619959
0.00239913
0.00459384
0.00406671
0.00325244
6.51261e-06
9.96892e-05
3.5629e-05
0.00155838
0.000600046
1.41181e-10
8.83447e-12
4.77803e-12
2.23584e-11
3.57182e-11
6.287e-11
1.01371e-10
1.71288e-10
3.22158e-10
2.66222e-10
3.29126e-10
5.19344e-10
9.0752e-10
1.81606e-09
1.31186e-08
3.81126e-07
1.13989e-05
0.000144199
0.000602062
0.00124054
0.00164763
0.00172478
0.00145584
0.000837791
0.000298526
6.49037e-05
4.31092e-06
1.19977e-06
2.84496e-07
3.17601e-06
1.60046e-06
1.80884e-05
7.31436e-06
0.000102744
4.42847e-05
0.000445737
0.000223487
0.00150924
0.00101911
0.00281232
0.00210806
0.0041672
0.00352513
0.00462486
0.00439853
0.00407132
0.00413815