/*--------------------------------*- C++ -*----------------------------------*\
  =========                 |
  \\      /  F ield         | OpenFOAM: The Open Source CFD Toolbox
   \\    /   O peration     | Website:  https://openfoam.org
    \\  /    A nd           | Version:  dev
     \\/     M anipulation  |
\*---------------------------------------------------------------------------*/
FoamFile
{
    version     2.0;
    format      ascii;
    class       volScalarField;
    location    "2500";
    object      G;
}
// * * * * * * * * * * * * * * * * * * * * * * * * * * * * * * * * * * * * * //

dimensions      [1 0 -3 0 0 0 0];

internalField   nonuniform List<scalar> 
9838
(
4180.34
4186.53
4188.18
4191.89
4194.38
4196.87
4196.43
4199.76
4203.09
4206.44
4200.16
4204.31
4208.48
4212.67
4216.88
4203.09
4208.03
4213.02
4218.05
4223.13
4228.23
4205.23
4210.95
4216.73
4222.58
4228.5
4234.48
4240.49
4206.61
4213.08
4219.63
4226.27
4233.01
4239.85
4246.76
4253.71
4207.25
4214.45
4221.73
4229.13
4236.65
4244.32
4252.1
4259.98
4267.91
4207.17
4215.06
4223.05
4231.17
4239.45
4247.91
4256.53
4265.3
4274.18
4283.14
4206.4
4214.95
4223.61
4232.43
4241.43
4250.63
4260.05
4269.67
4279.47
4289.41
4299.43
4204.96
4214.15
4223.45
4232.92
4242.6
4252.51
4262.68
4273.1
4283.77
4294.65
4305.69
4316.83
4202.91
4212.68
4222.59
4232.67
4242.99
4253.57
4264.44
4275.61
4287.1
4298.86
4310.88
4323.09
4335.42
4200.25
4210.58
4221.05
4231.72
4242.63
4253.83
4265.35
4277.23
4289.47
4302.06
4315
4328.22
4341.66
4355.24
4197.03
4207.89
4218.88
4230.08
4241.54
4253.32
4265.45
4277.98
4290.91
4304.27
4318.05
4332.21
4346.71
4361.47
4376.38
4193.29
4204.62
4216.11
4227.81
4239.78
4252.08
4264.77
4277.88
4291.46
4305.52
4320.06
4335.09
4350.56
4366.43
4382.58
4398.93
4189.06
4200.83
4212.77
4224.92
4237.36
4250.15
4263.34
4276.99
4291.14
4305.83
4321.07
4336.88
4353.24
4370.11
4387.43
4405.1
4422.99
4184.37
4196.55
4208.9
4221.47
4234.33
4247.55
4261.2
4275.33
4289.99
4305.24
4321.11
4337.61
4354.77
4372.55
4390.93
4409.82
4429.11
4448.66
4179.25
4191.81
4204.53
4217.48
4230.72
4244.34
4258.39
4272.94
4288.06
4303.8
4320.21
4337.34
4355.19
4373.78
4393.1
4413.09
4433.68
4454.73
4476.09
4173.76
4186.65
4199.7
4212.99
4226.58
4240.54
4254.95
4269.88
4285.39
4301.56
4318.44
4336.09
4354.55
4373.85
4393.98
4414.95
4436.69
4459.12
4482.09
4505.41
4167.91
4181.1
4194.46
4208.04
4221.94
4236.2
4250.92
4266.17
4282.03
4298.56
4315.83
4333.93
4352.9
4372.79
4393.63
4415.44
4438.18
4461.83
4486.26
4511.33
4536.8
4161.74
4175.2
4188.82
4202.68
4216.83
4231.36
4246.35
4261.88
4278.01
4294.85
4312.45
4330.91
4350.29
4370.67
4392.1
4414.61
4438.21
4462.9
4488.61
4515.25
4542.62
4570.47
4155.29
4168.99
4182.84
4196.92
4211.31
4226.07
4241.28
4257.03
4273.4
4290.48
4308.35
4327.1
4346.81
4367.57
4389.46
4412.54
4436.85
4462.41
4489.2
4517.18
4546.24
4576.15
4606.63
4148.59
4162.48
4176.54
4190.82
4205.4
4220.34
4235.75
4251.68
4268.24
4285.51
4303.58
4322.54
4342.5
4363.55
4385.79
4409.3
4434.16
4460.42
4488.1
4517.21
4547.69
4579.41
4612.15
4645.56
4141.66
4155.73
4169.95
4184.4
4199.14
4214.24
4229.79
4245.87
4262.57
4279.97
4298.19
4317.31
4337.44
4358.69
4381.17
4404.98
4430.23
4457.02
4485.4
4515.41
4547.05
4580.3
4614.99
4650.89
4687.66
4134.55
4148.76
4163.12
4177.7
4192.57
4207.79
4223.46
4239.64
4256.44
4273.94
4292.24
4311.46
4331.69
4353.06
4375.68
4399.68
4425.18
4452.31
4481.19
4511.89
4544.45
4578.9
4615.2
4653.22
4692.74
4733.33
4127.26
4141.59
4156.07
4170.76
4185.72
4201.04
4216.78
4233.04
4249.89
4267.44
4285.79
4305.04
4325.31
4346.72
4369.4
4393.48
4419.11
4446.43
4475.6
4506.75
4539.98
4575.35
4612.91
4652.64
4694.46
4738.09
4782.94
4119.84
4134.26
4148.82
4163.59
4178.63
4194.01
4209.81
4226.1
4242.98
4260.54
4278.88
4298.12
4318.37
4339.75
4362.4
4386.47
4412.12
4439.49
4468.77
4500.14
4533.78
4569.79
4608.26
4649.29
4692.92
4739.07
4787.32
4837.04
4112.31
4126.79
4141.42
4156.24
4171.33
4186.75
4202.57
4218.87
4235.74
4253.28
4271.58
4290.75
4310.92
4332.22
4354.78
4378.75
4404.3
4431.6
4460.85
4492.24
4526.01
4562.36
4601.43
4643.35
4688.31
4736.38
4787.38
4840.91
4896.25
4104.69
4119.21
4133.88
4148.73
4163.85
4179.28
4195.09
4211.38
4228.21
4245.69
4263.91
4282.99
4303.04
4324.19
4346.59
4370.39
4395.75
4422.87
4451.95
4483.21
4516.89
4553.26
4592.59
4635.05
4680.86
4730.27
4783.32
4839.85
4899.51
4961.38
4097
4111.54
4126.22
4141.09
4156.21
4171.63
4187.42
4203.66
4220.44
4237.83
4255.95
4274.89
4294.77
4315.74
4337.92
4361.47
4386.57
4413.41
4442.21
4473.18
4506.6
4542.75
4581.97
4624.57
4670.82
4721.02
4775.42
4834.13
4897.07
4963.9
5033.44
4089.25
4103.8
4118.49
4133.35
4148.44
4163.83
4179.58
4195.75
4212.44
4229.73
4247.71
4266.49
4286.18
4306.91
4328.83
4352.08
4376.85
4403.33
4431.73
4462.3
4495.3
4531.04
4569.87
4612.19
4658.43
4708.94
4764.04
4824.08
4889.3
4959.73
5034.98
5113.59
4081.47
4096.01
4110.69
4125.52
4140.58
4155.91
4171.59
4187.68
4204.27
4221.43
4239.25
4257.84
4277.3
4297.77
4319.39
4342.3
4366.67
4392.71
4420.63
4450.68
4483.13
4518.3
4556.55
4598.29
4644.02
4694.32
4749.56
4810.16
4876.65
4949.4
5028.67
5113.96
5203.39
4073.67
4088.18
4102.83
4117.63
4132.64
4147.91
4163.5
4179.49
4195.94
4212.95
4230.59
4248.97
4268.18
4288.37
4309.65
4332.18
4356.12
4381.67
4409.04
4438.47
4470.26
4504.71
4542.19
4583.13
4628.03
4677.56
4732.33
4792.84
4859.68
4933.57
5015.11
5105.03
5202.27
5277.89
5279.71
4065.89
4080.34
4094.95
4109.7
4124.64
4139.83
4155.33
4171.2
4187.52
4204.35
4221.79
4239.93
4258.87
4278.74
4299.67
4321.78
4345.26
4370.27
4397.03
4425.79
4456.81
4490.43
4527
4566.95
4610.79
4659.17
4712.85
4772.55
4838.97
4912.91
4995.38
5087.22
5190.45
5278.36
5273.72
5331.96
5333.5
4058.13
4072.52
4087.06
4101.74
4116.61
4131.71
4147.1
4162.84
4179
4195.65
4212.88
4230.77
4249.42
4268.95
4289.49
4311.16
4334.14
4358.59
4384.71
4412.73
4442.93
4475.61
4511.15
4549.96
4592.55
4639.54
4691.71
4749.9
4815.08
4888.15
4970.24
5062.78
5153.81
5140.72
5266.16
5196.06
5255.18
5331.42
5325.87
5389.67
5390.91
4050.41
4064.72
4079.18
4093.79
4108.56
4123.56
4138.83
4154.42
4170.42
4186.88
4203.88
4221.52
4239.87
4259.05
4279.18
4300.39
4322.84
4346.69
4372.13
4399.39
4428.72
4460.41
4494.83
4532.37
4573.54
4618.96
4669.36
4725.59
4788.72
4859.98
4940.6
5032.1
5126.17
5109.51
5181.99
5316.94
5241.44
5304.57
5388.1
5381.44
5451.48
5452.44
4042.75
4056.96
4071.33
4085.84
4100.52
4115.4
4130.54
4145.98
4161.8
4178.06
4194.83
4212.19
4230.24
4249.07
4268.79
4289.53
4311.43
4334.66
4359.39
4385.85
4414.27
4444.93
4478.17
4514.38
4554.02
4597.69
4646.13
4700.14
4760.74
4829.29
4907.33
4996.55
5091.76
5072.28
5165.6
5147.21
5225.41
5371.06
5289.15
5357.02
5448.82
5440.84
5517.9
5518.52
4035.14
4049.25
4063.53
4077.93
4092.5
4107.25
4122.25
4137.54
4153.18
4169.22
4185.75
4202.83
4220.56
4239.03
4258.33
4278.6
4299.97
4322.57
4346.58
4372.21
4399.68
4429.28
4461.3
4496.12
4534.18
4576.01
4622.33
4673.92
4731.75
4797.06
4871.52
4957.14
5052
5030.21
5127.35
5106.05
5206.99
5186.51
5271.06
5428.79
5339.6
5412.79
5513.94
5504.42
5589.41
5589.6
4027.61
4041.61
4055.78
4070.07
4084.51
4099.13
4113.99
4129.11
4144.56
4160.39
4176.67
4193.47
4210.87
4228.97
4247.85
4267.64
4288.46
4310.45
4333.75
4358.56
4385.08
4413.58
4444.34
4477.73
4514.16
4554.12
4598.25
4647.3
4702.17
4764.02
4834.37
4915.25
5007.89
4984.42
5083.57
5059.92
5164.45
5140.96
5250.42
5227.61
5319.21
5490.43
5393.05
5472.13
5583.92
5572.69
5666.68
5666.35
4020.17
4034.05
4048.09
4062.26
4076.57
4091.06
4105.76
4120.71
4135.96
4151.58
4167.61
4184.12
4201.2
4218.93
4237.39
4256.7
4276.96
4298.32
4320.93
4344.94
4370.54
4397.95
4427.46
4459.39
4494.13
4532.17
4574.09
4620.55
4672.38
4730.65
4796.71
4872.35
4960.95
4936.8
5035.39
5010.1
5116.22
5090.35
5203.08
5177.11
5296.11
5270.66
5370.02
5556.43
5449.68
5535.41
5659.45
5646.25
5750.44
5749.51
4012.81
4026.57
4040.49
4054.53
4068.7
4083.04
4097.57
4112.35
4127.41
4142.8
4158.58
4174.82
4191.57
4208.93
4226.98
4245.81
4265.53
4286.27
4308.16
4331.36
4356.07
4382.44
4410.74
4441.25
4474.32
4510.4
4550.05
4593.91
4642.68
4697.33
4759.06
4829.42
4913.04
4888.98
4984.5
4958.65
5063.55
5036.1
5149.87
5121.52
5243.32
5214.54
5344.15
5315.69
5423.65
5627.29
5509.85
5603.08
5741.19
5725.68
5841.56
5839.88
4005.55
4019.18
4032.97
4046.87
4060.9
4075.09
4089.46
4104.05
4118.91
4134.08
4149.61
4165.56
4182
4199
4216.63
4234.99
4254.18
4274.31
4295.51
4317.91
4341.71
4367.07
4394.2
4423.35
4454.83
4489.01
4526.39
4567.61
4613.32
4664.37
4721.81
4786.98
4865.48
4841.84
4932.92
4907.34
5008.34
4980.5
5092.26
5062.42
5184.52
5153.41
5285.18
5253.26
5394.6
5362.71
5480.37
5703.58
5573.92
5675.64
5829.84
5811.69
5941.07
5938.46
3998.4
4011.89
4025.55
4039.31
4053.19
4067.21
4081.42
4095.83
4110.48
4125.42
4140.7
4156.38
4172.5
4189.14
4206.37
4224.27
4242.95
4262.49
4283.01
4304.65
4327.55
4351.9
4377.87
4405.7
4435.67
4468.08
4503.31
4541.95
4584.63
4632.09
4685.29
4745.38
4818.82
4795.74
4882.1
4857.12
4952.82
4925.46
5032.35
5002.31
5121.44
5088.98
5220.12
5185.94
5328.68
5293.24
5447.63
5411.86
5540.48
5785.98
5642.34
5753.63
5926.35
5905.08
6050.25
6046.48
3991.35
4004.7
4018.22
4031.84
4045.57
4059.43
4073.46
4087.69
4102.14
4116.85
4131.88
4147.27
4163.08
4179.37
4196.21
4213.67
4231.83
4250.8
4270.68
4291.58
4313.63
4337
4361.85
4388.39
4416.88
4447.61
4480.85
4517.07
4556.86
4600.87
4649.93
4705.03
4773.3
4751.22
4832.54
4808.23
4898.51
4871.97
4972.56
4943.27
5056.39
5023.98
5150.98
5115.66
5256.62
5218.99
5373.86
5334.48
5503.47
5463.27
5604.31
5875.1
5715.48
5837.54
6031.78
6006.7
6170.68
6165.44
3984.42
3997.63
4011.01
4024.48
4038.05
4051.75
4065.61
4079.64
4093.88
4108.38
4123.16
4138.27
4153.77
4169.71
4186.16
4203.19
4220.86
4239.28
4258.53
4278.72
4299.97
4322.41
4346.2
4371.51
4398.55
4427.63
4459
4492.97
4530.06
4570.84
4616.02
4666.47
4723.06
4784.41
4761.22
4845.86
4820.15
4914.53
4886.35
4992.02
4960.7
5080.37
5045.43
5180.75
5142.41
5293.97
5252.56
5420.79
5377
5562.34
5517.11
5672.09
5971.69
5793.63
5928.07
6147.51
6117.81
6304.09
6297.04
3977.6
3990.67
4003.9
4017.23
4030.65
4044.18
4057.86
4071.7
4085.74
4100
4114.54
4129.38
4144.57
4160.18
4176.25
4192.85
4210.05
4227.93
4246.58
4266.08
4286.56
4308.13
4330.91
4355.08
4380.78
4408.27
4437.81
4469.68
4504.26
4542.03
4583.61
4629.75
4681.25
4747.02
4723.94
4795.02
4770.67
4858.7
4831.55
4930.09
4900.21
5011.15
4977.74
5104.28
5066.76
5210.86
5169.41
5332.28
5286.97
5469.64
5421.08
5624.47
5573.72
5744.07
6076.87
5877.42
6026.15
6275.19
6239.84
6452.43
6443.31
3970.9
3983.82
3996.92
4010.09
4023.35
4036.72
4050.22
4063.88
4077.71
4091.75
4106.03
4120.6
4135.5
4150.77
4166.48
4182.67
4199.41
4216.77
4234.83
4253.69
4273.43
4294.16
4316
4339.09
4363.56
4389.59
4417.4
4447.26
4479.49
4514.46
4552.69
4594.83
4641.61
4701.8
4680.11
4755.01
4731.09
4805.14
4779.66
4871.02
4842.46
4945.26
4913.68
5030.16
4994.64
5128.46
5088.3
5241.79
5197.15
5372.03
5322.81
5520.95
5467.46
5690.22
5633.69
5820.91
6191.82
5967.78
6132.86
6416.77
6374.5
6618.24
6606.83
3964.31
3977.1
3990.05
4003.07
4016.18
4029.39
4042.71
4056.17
4069.8
4083.62
4097.66
4111.96
4126.57
4141.52
4156.86
4172.65
4188.94
4205.81
4223.32
4241.54
4260.58
4280.52
4301.46
4323.53
4346.85
4371.56
4397.81
4425.82
4455.85
4488.21
4523.31
4561.73
4604.11
4659.11
4639.06
4707.97
4685.41
4762.41
4737.49
4814.78
4788.14
4882.91
4852.87
4960.18
4926.74
5049.2
5011.38
5153.1
5110.09
5273.86
5225.7
5413.91
5360.29
5575.54
5516.84
5760.51
5698.08
5904
6317.98
6066.28
6250.06
6574.63
6524.02
6804.49
6790.45
3957.93
3970.49
3983.3
3996.18
4009.13
4022.17
4035.32
4048.59
4062.02
4075.62
4089.42
4103.46
4117.78
4132.41
4147.4
4162.81
4178.67
4195.06
4212.03
4229.66
4248.02
4267.21
4287.31
4308.42
4330.66
4354.14
4378.99
4405.34
4433.39
4463.38
4495.61
4530.54
4568.91
4610.96
4663.59
4642.31
4713.3
4689.68
4768.92
4742.83
4823.8
4795.87
4894.22
4862.57
4974.84
4939.44
5068.46
5028.35
5178.55
5132.76
5307.45
5255.84
5458.3
5400.27
5634.28
5570.02
5837.11
5768.51
5995.55
6457.72
6175.9
6381.4
6751.67
6691.26
7014.72
6997.62
3964.09
3976.68
3989.42
4002.21
4015.09
4028.06
4041.15
4054.37
4067.75
4081.32
4095.11
4109.14
4123.47
4138.12
4153.15
4168.6
4184.52
4200.98
4218.04
4235.77
4254.24
4273.54
4293.75
4314.98
4337.33
4360.89
4385.76
4412.07
4439.96
4469.63
4501.42
4535.92
4573.35
4623.24
4602.9
4666.77
4644.67
4717.46
4692.65
4774.37
4746.94
4832.02
4802.69
4905.02
4871.63
4989.65
4952.11
5088.57
5046.01
5205.51
5156.73
5343.32
5287.83
5506.22
5443
5698.64
5628
5922.27
5846.69
6098.66
6615.13
6301.04
6531.93
6951.32
6880.4
7253.52
7232.62
3970.27
3982.78
3995.43
4008.14
4020.94
4033.85
4046.87
4060.04
4073.37
4086.9
4100.67
4114.69
4129.01
4143.68
4158.73
4174.21
4190.18
4206.7
4223.82
4241.62
4260.16
4279.53
4299.81
4321.09
4343.46
4366.99
4391.77
4417.84
4445.31
4474.38
4505.38
4538.21
4572.05
4623.11
4601.5
4668.58
4645.41
4720.22
4694.05
4778.66
4749.66
4839.49
4808.56
4915.56
4880.21
5004.9
4964.92
5109.7
5064.43
5233.86
5181.74
5381.06
5320.96
5557.36
5487.52
5769.23
5689.98
6018.09
5932.68
6215.93
6797.29
6445.94
6640.23
6687.62
7177.09
7098.04
7526.17
7499.93
3976.36
3988.77
4001.33
4013.96
4026.68
4039.51
4052.47
4065.58
4078.86
4092.36
4106.09
4120.09
4134.41
4149.07
4164.14
4179.64
4195.64
4212.19
4229.34
4247.17
4265.74
4285.13
4305.41
4326.67
4348.98
4372.38
4396.89
4422.51
4449.29
4477.29
4506
4534.67
4575.74
4554.94
4620.72
4597.89
4668.66
4644.25
4721.38
4693.67
4781.72
4750.89
4846.23
4813.46
4926.01
4888.45
5020.64
4977.96
5131.65
5083.51
5262.91
5207.2
5419.44
5353.94
5610.2
5532.26
5845.15
5754.75
6125.83
5979.2
6027.91
6340.32
6291.14
6781.51
6980.05
6931.6
6593.84
6542.16
6411.45
6733.77
7389.05
7350.01
7092.14
7261.81
7309.11
7839.6
7524.15
7741.94
7713.42
3982.34
3994.65
4007.12
4019.66
4032.3
4045.05
4057.94
4070.99
4084.22
4097.67
4111.36
4125.35
4139.65
4154.3
4169.36
4184.86
4200.86
4217.4
4234.55
4252.37
4270.92
4290.27
4310.5
4331.67
4353.82
4376.96
4401.03
4425.95
4451.44
4476.71
4500.74
4535.3
4517.27
4569.08
4547.56
4616.09
4592.07
4666.78
4640.97
4720.8
4691.35
4783.53
4750.61
4852.31
4817.39
4936.43
4896.4
5036.89
4991.34
5153.92
5102.85
5291.31
5231.99
5456.71
5385.02
5672.51
5628.4
5586.14
5543.13
5930.72
5880.12
5700.04
5777.78
5829.67
6078.75
6241.23
6187.62
6026.66
6359.73
6884.23
7045.29
6682.96
6628.27
6488.29
6833.43
7485.85
7216.05
7399.06
7444.35
8106.38
8101.67
7902.83
7675.5
7875.64
3988.21
4000.42
4012.79
4025.24
4037.8
4050.47
4063.28
4076.26
4089.44
4102.84
4116.5
4130.44
4144.71
4159.33
4174.36
4189.84
4205.8
4222.31
4239.41
4257.17
4275.65
4294.91
4315.02
4336.02
4357.93
4380.68
4404.07
4427.49
4450.05
4470.56
4488.24
4527.65
4509.42
4560.2
4538.3
4609.18
4583.96
4662.83
4635.5
4718.44
4687.1
4784.22
4748.94
4857.81
4820.45
4947
4904.2
5053.37
5004.93
5175.8
5122.04
5317.92
5255.32
5502.89
5462.44
5425.03
5387.4
5653.44
5607.69
5562.69
5973.63
5919.32
5727.3
5808.93
5864.26
6132.29
6305.26
6247.82
6075.45
6431.99
6994.71
7166.76
6778.66
6569.86
6719.57
6939.93
7635.18
7350.09
7546.16
7592.88
8296.63
8291.82
8082.42
7838.29
8052.8
3993.97
4006.07
4018.34
4030.7
4043.17
4055.76
4068.49
4081.41
4094.52
4107.86
4121.45
4135.34
4149.56
4164.14
4179.11
4194.53
4210.43
4226.87
4243.89
4261.55
4279.9
4299.01
4318.93
4339.7
4361.28
4383.38
4405.14
4425.63
4443.76
4458.94
4483.55
4468.87
4518.32
4500.15
4549.77
4527.75
4600.25
4574.02
4656.91
4627.98
4714.53
4681.23
4783.93
4746.08
4862.86
4822.81
4957.67
4911.91
5069.68
5018.26
5196.42
5140.19
5353.06
5318.59
5286.96
5255.16
5519.59
5477.91
5438.23
5400.13
5677.36
5628.45
5580.87
6017.69
5958.78
5754.19
5839.33
5899.05
6187.7
6372.83
6310.53
6125.7
6508.31
7112.63
7296.98
6880.49
6656.05
6816.21
7053.27
7797.97
7494.11
7704.75
7754.13
8500.28
8273.73
8495.59
8015.48
8244.13
3999.61
4011.61
4023.78
4036.04
4048.41
4060.91
4073.56
4086.39
4099.42
4112.69
4126.22
4140.04
4154.18
4168.69
4183.59
4198.92
4214.73
4231.05
4247.94
4265.45
4283.62
4302.52
4322.21
4342.71
4363.65
4384.09
4403.06
4419.62
4433.51
4444.9
4474.64
4460.72
4507.99
4490.36
4538.34
4516.53
4589.81
4562.83
4649.32
4618.81
4709.37
4674.13
4782.87
4742.32
4867.6
4824.63
4967.99
4919.13
5084.89
5030.47
5225.38
5195.49
5166.78
5138.5
5364.22
5329.72
5296.92
5265.08
5535.37
5491.98
5450.78
5411.82
5700.46
5648.23
5597.88
6062.71
5998.63
5780.26
5869.36
5933.88
6245.19
6443.78
6375.93
6177.62
6588.64
7238.46
7436.45
6988.6
6747.05
6918.55
7173.9
7974.43
7648.74
7874.72
7928.05
8716.7
8478.34
8712.51
8207.28
8449.65
4005.13
4017.02
4029.08
4041.24
4053.5
4065.9
4078.46
4091.19
4104.14
4117.32
4130.77
4144.5
4158.56
4172.97
4187.77
4202.98
4218.66
4234.82
4251.53
4268.83
4286.77
4305.41
4324.86
4344.77
4364.12
4381.98
4397.56
4410.78
4421.96
4441.09
4430.2
4465.98
4452.98
4497.36
4480.64
4526.67
4505.43
4578.48
4551.06
4640.46
4608.46
4703.31
4666.14
4781.03
4737.84
4871.75
4825.75
4977.17
4925.15
5097.61
5040.2
5234.3
5203.91
5174.04
5144.31
5375.06
5340.08
5306.63
5274.29
5550.17
5505.15
5462.77
5423
5722.63
5667.08
5614.09
6108.72
6038.95
5805.74
5899.26
5968.87
6304.84
6517.96
6443.87
6231.1
6673.3
7372.59
7585.67
7103.27
6843.06
7026.58
7301.95
8164.47
7813.75
8055.78
8114.29
8944.28
8696.55
8940.96
8412.85
8669.01
4010.52
4022.3
4034.24
4046.29
4058.44
4070.73
4083.18
4095.82
4108.66
4121.75
4135.09
4148.73
4162.67
4176.96
4191.62
4206.68
4222.18
4238.14
4254.62
4271.65
4289.3
4307.7
4326.67
4345.18
4362.18
4377.18
4390.05
4401.37
4412.43
4435.37
4425.26
4458.25
4446.31
4487.24
4471.7
4515.54
4495.26
4566.89
4539.45
4630.77
4597.5
4696.67
4657.64
4778.06
4732.56
4874.64
4825.58
4983.92
4928.54
5119.28
5089.24
5029.43
5058.87
5242.71
5211.49
5180.63
5149.94
5385.59
5350.06
5315.94
5282.85
5564.37
5517.93
5474.55
5434.09
5744.18
5685.47
5630.02
6155.79
6079.97
5831.03
5929.47
6004.29
6366.4
6595.68
6514.64
6286.06
6762.3
7515.38
7744.72
7224.54
6943.98
7140.58
7437.73
8367.54
7988.77
8247.95
8312.57
9181.1
8927.32
9178.67
8631.22
8901.09
4015.77
4027.43
4039.25
4051.17
4063.2
4075.38
4087.72
4100.24
4112.98
4125.95
4139.18
4152.68
4166.5
4180.63
4195.12
4209.99
4225.26
4240.97
4257.15
4273.88
4291.27
4309.31
4327.18
4343.63
4358.27
4371
4382.51
4394.13
4412.25
4403.54
4430.88
4421.38
4451.93
4440.99
4478.34
4464.15
4505.71
4486.7
4555.83
4528.76
4620.8
4586.66
4689.45
4648.8
4773.31
4726.03
4874.97
4823.12
4999.82
4971.5
4927.37
5122.77
5091.59
5029.97
5060.56
5250.33
5218.07
5186.15
5154.38
5396.08
5359.84
5324.8
5290.59
5578.51
5530.84
5486.64
5445.53
5765.7
5704
5646.31
6204.09
6122.02
5856.8
5960.72
6040.61
6430.25
6677.07
6588.38
6342.93
6855.68
7667.19
7912.98
7352.9
7050.18
7260.84
7581.59
8582.46
8174.01
8451.13
8522.28
9425.85
9167.43
9423.28
8861.34
9142.93
4020.88
4032.41
4044.1
4055.88
4067.79
4079.84
4092.05
4104.46
4117.07
4129.91
4143
4156.36
4170.01
4183.96
4198.24
4212.87
4227.86
4243.24
4259.09
4275.57
4292.72
4310.03
4326.23
4340.71
4353.44
4365.16
4377.14
4389.7
4409.54
4401.14
4427.34
4418.27
4447.04
4436.86
4471.19
4458.27
4497.68
4479.9
4545.93
4519.6
4610.96
4576.5
4681.47
4639.74
4766
4717.6
4871.46
4817.36
4999.81
4970.37
4937.42
4908.37
5124.47
5092.26
5028.95
5060.41
5256.84
5223.32
5190.15
5157.19
5406.72
5369.34
5332.86
5297.16
5593.23
5544.5
5499.52
5457.45
5787.88
5723.39
5663.64
6254.12
6165.58
5883.86
5993.81
6078.49
6496.51
6762.36
6665.27
6402.04
6953.66
7827.63
8090.53
7488.46
7161.62
7387.39
7733.35
8808.2
8369.76
8664.85
8742.48
9679.35
9412.5
9675.15
9101.55
9390.06
4025.84
4037.22
4048.77
4060.42
4072.19
4084.1
4096.18
4108.45
4120.92
4133.62
4146.55
4159.73
4173.19
4186.92
4200.95
4215.28
4229.93
4244.95
4260.55
4276.93
4293.7
4309.79
4324.33
4337.18
4349.13
4361.28
4373.79
4390.79
4383.02
4407
4398.83
4424.11
4415.41
4442.85
4433.19
4465.48
4453.42
4491.08
4474.13
4537.37
4511.99
4601.47
4567.25
4672.22
4630.2
4755.79
4706.83
4879.41
4851.96
4807.73
4998.05
4967.71
4933.18
4903.39
5124.31
5091.09
5026.2
5058.41
5261.92
5226.94
5192.39
5158.17
5417.26
5378.17
5339.93
5302.48
5609.11
5559.28
5513.09
5469.42
5811.51
5744.3
5682.53
6306.35
6211.43
5913.04
6029.42
6118.74
6565.44
6851.71
6745.83
6463.72
7056.17
7996.88
8278.01
7631
7278.67
7520.19
7893.45
9044.02
8575.73
8888.73
8972.78
9945.57
9662.1
9938.58
9348.88
9640.48
4030.63
4041.87
4053.26
4064.76
4076.38
4088.15
4100.09
4112.21
4124.53
4137.05
4149.8
4162.78
4176.01
4189.48
4203.21
4217.2
4231.46
4246.19
4261.84
4278.17
4294.2
4308.92
4322.04
4334.2
4346.38
4358.69
4370.58
4388.65
4381.01
4404.39
4396.45
4420.83
4412.5
4438.7
4429.5
4460.33
4448.79
4485.02
4468.45
4529.76
4505.28
4592.24
4558.74
4661.31
4619.76
4758.45
4733.86
4693.5
4874.42
4846.38
4784.6
4811.22
4994.66
4963.74
4927.29
4897.17
5122.33
5088.05
5021.69
5054.54
5265.51
5228.91
5192.89
5157.36
5427.3
5386.21
5346
5306.63
5626.4
5574.98
5526.9
5481.1
5837.34
5767.24
5703.12
6361.32
6260.21
5944.78
6067.98
6162.02
6637.88
6945.39
6830.8
6528.87
7163.79
8175.53
8475.25
7780.92
7401.57
7659.6
8062.41
9288.76
8791.83
9122.78
9212.89
10231.1
9920.82
10221.1
9601.74
9897.75
4035.25
4046.32
4057.56
4068.89
4080.36
4091.98
4103.76
4115.72
4127.86
4140.2
4152.73
4165.48
4178.45
4191.63
4205.02
4218.62
4232.53
4247.36
4263.29
4279.3
4294.29
4307.77
4320.15
4332.27
4344.33
4356.01
4371.54
4364.39
4386.37
4378.91
4401.66
4393.96
4417.46
4409.49
4434.34
4425.68
4454.99
4443.89
4478.41
4462.23
4522.06
4498.25
4582.67
4550.14
4648.5
4608.03
4751.24
4726.45
4693.83
4670.98
4867.95
4839.38
4777.04
4803.76
4989.6
4958.2
4919.94
4889.71
5118.75
5083.37
5015.55
5048.99
5267.85
5229.57
5192
5155.06
5436.75
5393.45
5351.08
5309.66
5644.87
5591.28
5540.77
5492.39
5865.49
5792.18
5725.32
6419.8
6312.45
5979.11
6109.79
6208.75
6714.48
7043.89
6920.38
6597.92
7276.67
8363.32
8682.31
7939.02
7530.65
7806.51
8239.92
9541.79
9018.27
9368.12
9463.49
10543.2
10197.2
10531.4
9862.23
10170.8
4039.68
4050.59
4061.65
4072.82
4084.12
4095.57
4107.19
4118.97
4130.91
4143.04
4155.34
4167.83
4180.51
4193.36
4206.36
4219.56
4233.52
4248.94
4264.94
4280.24
4294.15
4306.81
4318.84
4330.62
4342.05
4352.82
4369.52
4362.45
4383.98
4376.7
4398.84
4391.37
4414.06
4406.41
4429.98
4421.86
4449.31
4438.88
4471.21
4455.83
4513.35
4490.33
4572.01
4540.49
4634.16
4595.08
4743.17
4718.24
4685.95
4663.15
4860.36
4831.66
4768.89
4795.49
4982.97
4951.09
4911.43
4881.22
5114.07
5077.61
5008.16
5042.29
5269
5229.01
5189.87
5151.56
5445.52
5399.81
5355.14
5311.53
5664.42
5607.89
5554.32
5503.02
5895.92
5819.12
5748.98
6482
6368.36
6016.1
6154.3
6258.81
6795.41
7147.35
7015.01
6670.93
7395.63
8560.38
8899.75
8105.36
7666.57
7960.94
8426.02
9804.63
9256.06
9625.49
9725.26
10884
10503
10873
10136.6
10471.3
4043.92
4054.64
4065.52
4076.52
4087.65
4098.93
4110.36
4121.95
4133.68
4145.57
4157.62
4169.83
4182.17
4194.65
4207.24
4220.37
4235.1
4250.99
4266.59
4280.98
4293.97
4305.96
4317.45
4328.62
4339.28
4349.31
4367.37
4360.46
4381.49
4374.39
4395.96
4388.68
4410.7
4403.3
4425.87
4418.18
4443.78
4434.14
4464.08
4449.91
4503.82
4482.01
4560.1
4529.73
4633.47
4613.56
4576.52
4594.22
4734.74
4709.93
4677.69
4655.07
4851.81
4823.16
4760.34
4786.72
4975.04
4942.75
4902.27
4871.98
5108.25
5070.82
4999.93
5034.67
5268.95
5227.27
5186.52
5146.84
5453.41
5405.09
5357.99
5312.12
5684.56
5624.32
5567.2
5512.58
5928.41
5847.6
5773.41
6547.93
6427.79
6055.22
6200.79
6311.82
6881.33
7256.6
7115.01
6748.4
7521
8767.38
9128.32
8279.76
7809.06
8122.62
8621.4
10080.9
9506.37
9896.07
10000.2
11245.1
10842.8
11238.6
10433.8
10804.3
4047.95
4058.47
4069.16
4079.98
4090.94
4102.04
4113.28
4124.65
4136.15
4147.79
4159.55
4171.44
4183.43
4195.5
4207.89
4221.82
4237.38
4253.22
4268.06
4281.47
4293.54
4304.78
4315.66
4326.15
4336.11
4349.64
4358.35
4343.22
4365.11
4378.89
4371.96
4393.01
4385.91
4407.4
4400.17
4422.14
4414.69
4438.91
4430
4457.93
4445.11
4494.51
4474.29
4547.9
4518.87
4626.05
4606.3
4569.98
4587.54
4725.88
4701.34
4669.32
4647.07
4842.53
4814.05
4751.31
4777.58
4966.37
4933.75
4892.57
4862.37
5101.24
5062.97
4990.76
5026.1
5267.57
5224.22
5181.91
5140.87
5459.88
5408.76
5359.11
5310.93
5704.54
5639.9
5578.69
5520.26
5962.34
5876.6
5797.33
6617.64
6489.91
6095.39
6247.97
6366.36
6971.97
7371.43
7219.35
6829.59
7651.85
8985.27
9369.27
8462.42
7957.84
8291.87
8827.19
10375.7
9770.12
10182
10291.7
11611.9
11209.9
11612.3
10758.1
11164.2
4051.75
4062.06
4072.57
4083.21
4094
4104.91
4115.93
4127.07
4138.31
4149.67
4161.12
4172.66
4184.26
4196.04
4209.1
4224.14
4240.03
4255.28
4269.14
4281.46
4292.55
4303.12
4313.43
4323.31
4332.59
4356.18
4347.52
4341.17
4362.78
4376.21
4369.46
4389.97
4383.05
4404.08
4396.98
4418.69
4411.29
4434.98
4426.44
4453.02
4441.16
4486.39
4467.89
4546.68
4532.06
4508.87
4618.37
4598.79
4562.98
4580.31
4716.98
4692.66
4660.82
4639.04
4833.04
4804.73
4742.22
4768.22
4956.74
4923.97
4882.01
4851.94
5092.58
5053.61
4980.49
5016.25
5264.35
5219.33
5175.57
5133.22
5464.13
5409.96
5357.63
5307.08
5723.22
5653.52
5587.6
5524.91
5996.46
5904.73
5819.34
6689.54
6552.89
6135.13
6294.16
6420.79
7065.53
7490.81
7326.83
6912.34
7788.22
9215.09
9623.67
8654.73
8113.33
8469.58
9044.13
10692.9
10048.4
10485.7
10602.5
11975.1
11591.8
11979.8
11107.5
11543.1
4055.31
4065.41
4075.74
4086.22
4096.82
4107.52
4118.31
4129.18
4140.15
4151.2
4162.32
4173.49
4184.75
4196.96
4211.29
4227.01
4242.56
4256.83
4269.5
4280.66
4290.97
4301.06
4310.85
4320.2
4328.95
4353.94
4345.35
4339.13
4360.39
4373.49
4366.91
4386.87
4380.14
4400.65
4393.7
4415.15
4407.78
4431.41
4422.92
4447.8
4436.7
4478
4461.33
4540.57
4526.33
4495.8
4507.02
4610.29
4591.06
4556.18
4573.02
4707.68
4683.72
4651.97
4630.62
4822.9
4795.02
4732.56
4758.16
4946.13
4913.28
4870.27
4840.45
5081.69
5042.12
4968.5
5004.45
5258.45
5211.79
5166.73
5123.23
5465.01
5407.58
5352.45
5299.55
5739.15
5663.67
5592.45
5525.11
6028.82
5929.93
5837.38
6761.61
6614.3
6172.3
6331.81
6472.24
7160.82
7614.91
7437.71
6995.06
7930.38
9458.08
9892.01
8857.37
8275.78
8656.67
9273.34
11032.4
10343.4
10808
10933.2
12331.9
11974.1
12338.3
11476.5
11929.7
4058.6
4068.52
4078.69
4089
4099.4
4109.86
4120.39
4130.99
4141.65
4152.38
4163.15
4173.96
4185.39
4198.87
4214.2
4229.85
4244.49
4257.54
4268.95
4279.15
4289.01
4298.7
4308.05
4316.92
4325.24
4337.07
4351.61
4343.15
4357.91
4370.69
4364.27
4383.68
4377.15
4397.08
4390.32
4411.26
4404.03
4427.28
4418.92
4441.17
4431.03
4490.58
4475.01
4466.78
4453.22
4533.89
4519.98
4501.33
4601.68
4582.96
4549.01
4565.38
4697.65
4674.3
4642.21
4621.48
4811.86
4784.51
4721.89
4746.85
4934.09
4901.35
4856.68
4827.32
5068.06
5028.05
4954.12
4990.15
5248.96
5200.75
5154.58
5110.25
5461.23
5400.44
5342.51
5287.32
5750.25
5668.58
5591.84
5519.78
6056.67
5943.71
5842.49
6827.06
6666.41
6200.54
6389.68
6520.62
7252.2
7744.34
7552.45
7074.19
8077.55
9714.05
10175.8
9071.01
8442.65
8853.18
9515.54
11391.2
10655.7
11149.9
11283.6
12682.9
12342.9
12692.9
11858.5
12311.9
4061.58
4071.39
4081.42
4091.54
4101.71
4111.92
4122.17
4132.47
4142.82
4153.21
4163.62
4174.39
4186.95
4201.65
4217.19
4232.1
4245.52
4257.28
4267.57
4277.26
4286.81
4296.13
4305.08
4313.54
4325.25
4335.04
4332.98
4319.6
4349.25
4340.97
4355.39
4367.8
4361.57
4380.39
4374.06
4393.33
4386.8
4406.96
4400.02
4422.22
4414.29
4433.07
4424.2
4484.59
4469.48
4461.69
4443.58
4526.86
4513.49
4495.01
4592.07
4574.07
4541.43
4557.17
4686.27
4663.79
4631.01
4611.09
4799.35
4772.61
4709.64
4733.83
4919.87
4887.46
4840.96
4812.2
5051.05
5010.88
4937.08
4972.98
5234.92
5185.31
5138.3
5093.55
5452.04
5388.03
5327.47
5270.2
5751.21
5666.15
5585.86
5510.5
6083.51
5978.77
5831.62
6910.93
6677.99
6202.07
6368.95
6538.75
7362.48
7880.03
7684.5
7102.18
8223.58
9983.5
10476.4
9301.26
8625.74
9067.84
9770.02
11766.3
10987.6
11511.4
11652.4
13023.4
12701.8
13049
12246
12685.3
4064.23
4074.02
4083.91
4093.83
4103.75
4113.67
4123.62
4133.61
4143.65
4153.7
4163.92
4175.56
4189.45
4204.66
4219.68
4233.44
4245.58
4256.14
4265.74
4275.17
4284.43
4293.41
4302
4310.09
4330.92
4323.28
4338.78
4317.69
4346.92
4352.88
4364.88
4358.87
4377.01
4370.92
4389.39
4383.16
4402.28
4395.75
4416.31
4409.08
4423.99
4416.57
4478.29
4463.32
4456
4450.03
4438.07
4433.05
4519.24
4506.55
4488.09
4581.22
4564.07
4533.06
4548.01
4673.25
4651.73
4618.3
4599.33
4784.96
4758.92
4695.66
4719
4903.19
4871.26
4822.96
4795.02
5030.18
4990.12
4917.05
4952.46
5216.2
5165.41
5117.87
5072.88
5440.03
5373.67
5311.13
5252.18
5742.51
5658.87
5578.7
5502.8
6092.22
5958.9
5827.37
6887.42
6673.05
6197.64
6363.56
6534.55
7339.9
8027.81
7667.29
7097.35
8286.86
10269.3
10797.1
9551.93
8609.98
9060.14
10037.2
12156.3
11340.9
11897
12042.6
13334.1
13067.4
13416.2
12637.5
13065.5
4066.56
4076.4
4086.14
4095.84
4105.48
4115.1
4124.74
4134.42
4144.14
4153.93
4164.72
4177.71
4192.37
4207.3
4221.3
4233.82
4244.75
4254.39
4263.72
4272.92
4281.9
4290.58
4298.86
4306.72
4336.6
4328.85
4321.33
4344.59
4315.84
4350.39
4362
4356.2
4373.61
4367.79
4385.32
4379.44
4397.28
4391.26
4409.82
4403.44
4414.65
4427.76
4408.65
4471.48
4456.72
4443.66
4432.19
4510.8
4498.92
4480.55
4569.15
4552.94
4523.75
4537.8
4658.66
4638.1
4604.22
4586.26
4768.59
4743.33
4680.07
4702.45
4883.86
4852.57
4802.47
4775.56
5005.67
4965.61
4893.84
4928.47
5196.51
5143.25
5094.2
5048.82
5431.68
5364.71
5301.78
5242.5
5738.22
5654.54
5574.36
5498.47
6088.25
5954.23
5823.52
6881.5
6668.44
6193.53
6358.91
6530.43
7333.65
8011.36
7660.67
7092.59
8281.69
10585.1
11139.3
9800.48
9441.35
8602.11
9052.24
10332.7
12560.8
11716.6
12309.2
12453.6
13720.8
13457.5
13872.4
13043.9
13478.9
4068.57
4078.47
4088.07
4097.53
4106.86
4116.18
4125.52
4134.92
4144.37
4154.44
4166.48
4180.43
4195.06
4209.16
4221.99
4233.31
4243.16
4252.43
4261.57
4270.54
4279.27
4287.68
4295.73
4303.4
4314.03
4342.26
4334.4
4326.8
4319.44
4347.91
4359.14
4353.54
4370.24
4364.71
4381.24
4375.75
4392.15
4386.7
4403.06
4397.6
4422.36
4416.94
4409
4406.41
4400.87
4464.18
4449.76
4437.12
4426.27
4501.55
4490.56
4472.44
4556.05
4540.86
4513.57
4526.68
4642.56
4623
4588.95
4572.1
4750.12
4725.81
4662.9
4684.12
4861.58
4831.14
4779.4
4753.68
4980.26
4938.74
4867.49
4901.39
5186.33
5114.64
5070.36
5024.95
5427.35
5360.39
5297.46
5238.24