/*--------------------------------*- C++ -*----------------------------------*\
  =========                 |
  \\      /  F ield         | OpenFOAM: The Open Source CFD Toolbox
   \\    /   O peration     | Website:  https://openfoam.org
    \\  /    A nd           | Version:  dev
     \\/     M anipulation  |
\*---------------------------------------------------------------------------*/
FoamFile
{
    version     2.0;
    format      ascii;
    class       volScalarField;
    location    "2500";
    object      H2O;
}
// * * * * * * * * * * * * * * * * * * * * * * * * * * * * * * * * * * * * * //

dimensions      [0 0 0 0 0 0 0];

internalField   nonuniform List<scalar> 
9838
(
9.67658e-33
3.76089e-32
1.42369e-32
8.62821e-32
9.94142e-32
2.19461e-32
2.20377e-31
2.52672e-31
1.14145e-31
1.18257e-32
5.16506e-31
6.4511e-31
3.3494e-31
8.25563e-32
3.61953e-33
7.14468e-31
1.91482e-30
8.17965e-31
3.30904e-31
5.71387e-32
1.63915e-33
2.21554e-30
5.99681e-30
2.64246e-30
1.01397e-30
2.0126e-31
2.13397e-32
1.05974e-33
5.68509e-30
1.49837e-29
9.96188e-30
3.30271e-30
7.16961e-31
1.67795e-31
1.348e-32
3.60051e-34
1.60021e-29
4.86108e-29
2.46811e-29
1.30015e-29
3.05149e-30
7.30216e-31
8.57687e-32
4.71543e-33
1.29049e-34
4.61593e-29
1.09699e-28
1.00584e-28
4.72577e-29
1.52281e-29
3.19591e-30
5.14679e-31
5.54393e-32
2.12508e-33
5.052e-35
7.44019e-29
2.39181e-28
2.83449e-28
1.456e-28
5.329e-29
1.3533e-29
2.63886e-30
3.35058e-31
1.94457e-32
7.32274e-34
1.4176e-35
8.60284e-29
5.20821e-28
7.13948e-28
4.2724e-28
1.77337e-28
4.08177e-29
1.06889e-29
1.585e-30
1.83466e-31
9.39634e-33
1.98604e-34
5.08277e-36
4.13216e-28
1.14478e-27
1.5026e-27
1.28967e-27
5.43266e-28
1.62347e-28
3.48043e-29
5.03382e-30
8.86687e-31
6.54492e-32
2.20891e-33
6.00839e-35
1.66252e-36
1.32584e-27
2.19558e-27
2.67765e-27
3.23987e-27
1.64242e-27
4.58001e-28
9.58795e-29
2.50987e-29
3.52592e-30
4.2035e-31
2.56813e-32
8.29396e-34
1.88573e-35
5.80716e-37
2.08571e-27
6.80891e-27
8.50009e-27
6.80504e-27
4.47432e-27
1.76979e-27
3.45888e-28
6.3195e-29
1.49284e-29
1.87099e-30
1.59358e-31
9.16902e-33
2.85431e-34
8.92213e-36
1.33716e-37
5.57725e-27
1.37966e-26
1.72292e-26
2.02343e-26
1.09245e-26
4.6596e-27
1.60906e-27
3.10573e-28
5.24917e-29
7.71733e-30
8.77832e-31
6.26418e-32
2.95308e-33
1.0473e-34
4.28731e-36
7.31144e-37
2.1743e-26
3.55878e-26
6.48637e-26
7.43099e-26
4.19458e-26
1.5781e-26
4.34287e-27
1.08295e-27
2.29502e-28
2.89109e-29
3.7355e-30
3.65544e-31
2.04011e-32
1.02212e-33
3.15098e-35
1.85361e-35
1.60169e-35
2.85408e-26
1.3893e-25
2.10094e-25
1.75976e-25
1.43406e-25
6.01391e-26
1.68144e-26
3.6793e-27
7.0907e-28
9.67961e-29
1.37888e-29
1.49675e-30
1.46007e-31
7.50812e-33
3.67062e-34
1.0565e-34
2.04798e-34
1.62287e-34
5.91169e-26
1.36019e-25
5.12757e-25
4.20608e-25
3.62398e-25
2.07106e-25
5.14072e-26
1.38243e-26
2.89456e-27
5.56087e-28
6.99229e-29
5.65283e-30
7.26329e-31
5.08641e-32
2.52442e-33
8.13479e-34
1.18864e-33
3.2442e-33
1.83852e-33
6.97805e-26
3.10806e-25
9.67425e-25
1.19349e-24
1.13348e-24
6.36936e-25
2.33337e-25
5.42029e-26
1.05378e-26
1.99108e-27
3.26873e-28
4.11036e-29
2.96782e-30
2.20429e-31
1.55456e-32
4.91538e-33
7.76378e-33
2.02517e-32
4.2992e-32
5.19145e-32
1.83026e-25
8.52779e-25
1.45527e-24
2.55726e-24
2.27412e-24
1.64638e-24
6.96248e-25
2.05806e-25
3.14945e-26
6.69355e-27
1.0855e-27
1.87435e-28
1.85711e-29
1.13823e-30
6.34545e-32
2.93467e-32
5.33105e-32
1.26672e-31
3.69637e-31
5.75179e-31
7.97725e-31
1.72673e-25
1.04964e-24
2.88434e-24
4.90911e-24
5.54699e-24
4.17849e-24
1.95802e-24
5.67846e-25
1.26897e-25
1.78453e-26
3.76563e-27
5.15638e-28
8.33948e-29
6.24379e-30
4.64757e-31
1.4292e-31
4.06119e-31
8.82757e-31
2.27853e-30
4.76164e-30
7.31533e-30
7.86252e-30
1.54207e-25
1.18531e-24
2.73076e-24
7.8257e-24
9.0685e-24
9.50583e-24
5.44245e-24
1.93866e-24
5.54068e-25
8.0511e-26
9.77742e-27
2.23445e-27
2.65569e-28
3.21878e-29
2.60437e-30
4.6188e-31
1.64376e-30
4.88355e-30
8.94486e-30
2.74744e-29
4.80934e-29
7.92704e-29
6.41262e-29
7.99749e-26
1.11528e-24
3.62747e-24
7.22916e-24
1.62202e-23
1.88044e-23
1.11998e-23
4.91762e-24
1.62864e-24
3.99677e-25
4.24735e-26
5.9725e-27
1.1242e-27
1.30244e-28
1.21504e-29
2.69085e-30
5.46442e-30
2.22126e-29
5.62958e-29
1.69992e-28
2.93316e-28
5.03141e-28
7.0668e-28
2.60488e-28
6.88551e-26
7.03287e-25
2.80568e-24
1.07595e-23
2.87997e-23
2.52856e-23
2.719e-23
1.33777e-23
4.46154e-24
1.21869e-24
1.9362e-25
1.95695e-26
3.55866e-27
4.82521e-28
4.19097e-29
8.11488e-30
2.05268e-29
9.33646e-29
2.27167e-28
7.31186e-28
1.82409e-27
3.56844e-27
5.34918e-27
4.37719e-27
2.26922e-27
2.87575e-25
1.30239e-24
4.7107e-24
1.24671e-23
3.71526e-23
5.0835e-23
4.94018e-23
3.1693e-23
1.03243e-23
3.51527e-24
7.7298e-25
9.18266e-26
1.01688e-26
1.70339e-27
1.78165e-28
3.32338e-29
7.58967e-29
2.73998e-28
1.0256e-27
2.88536e-27
6.58506e-27
1.58369e-26
2.89221e-26
3.5497e-26
1.96592e-26
1.64058e-26
1.83033e-25
2.00525e-24
6.48452e-24
2.00406e-23
4.63528e-23
7.45054e-23
8.71673e-23
5.70383e-23
3.06449e-23
9.65214e-24
2.69064e-24
3.45048e-25
4.8749e-26
5.8935e-27
8.64612e-28
1.31882e-28
2.1515e-28
8.98876e-28
3.74794e-27
1.37058e-26
3.16581e-26
6.12057e-26
1.34726e-25
2.86644e-25
3.33756e-25
1.99631e-25
5.4706e-26
3.25002e-25
4.02674e-24
6.84749e-24
1.80285e-23
5.66392e-23
9.33678e-23
1.14495e-22
1.15731e-22
6.12295e-23
2.60949e-23
7.35634e-24
1.58213e-24
1.89092e-25
1.95291e-26
2.92317e-27
4.86165e-28
6.81705e-28
3.28778e-27
1.03011e-26
5.82629e-26
1.48908e-25
2.21948e-25
4.85284e-25
1.04526e-24
1.85686e-24
2.31341e-24
1.58556e-24
6.33105e-25
2.30615e-25
4.67986e-24
1.5666e-23
2.51079e-23
6.86592e-23
1.25454e-22
1.72071e-22
1.93962e-22
1.17208e-22
5.13505e-23
1.84302e-23
4.82624e-24
9.59891e-25
9.57904e-26
7.82205e-27
1.9246e-27
2.56409e-27
9.41707e-27
5.07867e-26
1.4176e-25
6.85283e-25
1.26889e-24
3.43989e-24
5.1684e-24
1.28677e-23
1.7255e-23
1.31972e-23
1.66238e-23
4.97505e-24
5.78598e-25
4.81926e-24
1.33571e-23
4.78533e-23
9.05001e-23
1.3104e-22
2.00416e-22
2.77744e-22
2.21161e-22
1.12076e-22
4.06418e-23
1.3176e-23
2.71678e-24
4.09176e-25
3.98655e-26
5.31116e-27
7.62863e-27
3.1794e-26
1.63367e-25
6.19762e-25
2.18462e-24
7.14183e-24
9.127e-24
3.13431e-23
5.73333e-23
1.01744e-22
1.40237e-22
2.45914e-22
1.60744e-22
1.47772e-22
3.98819e-24
9.04066e-24
2.9137e-23
6.79964e-23
9.1184e-23
1.75838e-22
2.96751e-22
3.87216e-22
3.64554e-22
2.11706e-22
8.13889e-23
2.71138e-23
7.36523e-24
1.49832e-24
1.66288e-25
2.0787e-26
2.55528e-26
7.48971e-26
4.90431e-25
1.84374e-24
5.79308e-24
2.39236e-23
6.13201e-23
1.19799e-22
2.93974e-22
6.96133e-22
1.70208e-21
2.76523e-21
3.46658e-21
3.10357e-21
1.25452e-21
6.27945e-24
2.4613e-23
5.93622e-23
7.62974e-23
1.43347e-22
2.92375e-22
4.27291e-22
5.55666e-22
5.82728e-22
3.71763e-22
1.81558e-22
6.24258e-23
1.6877e-23
4.28304e-24
6.32576e-25
8.22608e-26
6.2011e-26
3.32059e-25
1.05043e-24
5.6707e-24
1.51138e-23
5.9969e-23
2.08808e-22
5.69015e-22
1.1716e-21
4.46609e-21
1.27462e-20
3.23341e-20
4.16244e-20
4.91772e-20
3.53158e-20
1.65525e-20
5.73413e-24
4.16224e-23
6.97979e-23
2.03004e-22
3.14959e-22
4.30805e-22
4.96459e-22
6.50448e-22
8.1896e-22
6.25062e-22
3.39672e-22
1.15125e-22
3.99537e-23
1.07398e-23
2.53073e-24
3.42604e-25
2.08467e-25
9.19646e-25
3.78617e-24
1.88222e-23
5.43666e-23
1.53446e-22
4.56157e-22
2.08133e-21
5.91879e-21
2.34066e-20
1.13878e-19
3.24541e-19
4.90318e-19
6.3262e-19
7.22515e-19
4.41904e-19
1.29096e-19
3.74111e-23
1.0326e-22
1.80122e-22
3.70546e-22
5.45748e-22
7.79375e-22
7.19381e-22
8.74944e-22
1.21327e-21
9.89888e-22
5.72684e-22
2.77943e-22
7.81575e-23
2.21522e-23
6.58428e-24
1.20845e-24
7.33094e-25
2.72047e-24
9.84134e-24
6.34768e-23
2.15095e-22
4.88822e-22
1.42407e-21
6.28731e-21
2.29678e-20
1.23594e-19
6.9852e-19
2.2212e-18
5.70685e-18
1.07384e-17
1.00186e-17
7.37327e-18
4.55426e-18
1.01003e-19
1.2544e-18
1.19046e-22
3.905e-22
4.04768e-22
6.51267e-22
9.72787e-22
1.2953e-21
1.56456e-21
1.5611e-21
1.74769e-21
1.5404e-21
9.75696e-22
4.20774e-22
1.77546e-22
4.7989e-23
1.48455e-23
3.64781e-24
1.98015e-24
7.40127e-24
2.95245e-23
1.14664e-22
5.89496e-22
1.97996e-21
4.44847e-21
1.6607e-20
9.0987e-20
5.56542e-19
3.84021e-18
1.79116e-17
4.52677e-17
7.83219e-17
1.39252e-16
7.99335e-17
7.22103e-17
9.74504e-18
6.90426e-17
5.54728e-19
5.08795e-18
1.96947e-21
1.49107e-21
1.44412e-21
1.06615e-21
1.8497e-21
2.21998e-21
2.37724e-21
2.45185e-21
2.48786e-21
2.31598e-21
1.61334e-21
8.41092e-22
3.21689e-22
1.07119e-22
2.99197e-23
8.07697e-24
5.05518e-24
1.74906e-23
8.30408e-23
2.3029e-22
1.5572e-21
4.41585e-21
1.56062e-20
4.23716e-20
3.00596e-19
2.42253e-18
1.63744e-17
9.80212e-17
3.61825e-16
9.43803e-16
1.67178e-15
1.48942e-15
3.33235e-16
1.19046e-15
3.01763e-16
1.55364e-15
1.88138e-15
3.5246e-17
2.77194e-16
1.79974e-18
2.69919e-17
8.74525e-21
1.20734e-20
7.87179e-21
4.49801e-21
3.64509e-21
3.49013e-21
4.58301e-21
3.58379e-21
4.02489e-21
3.44522e-21
2.30683e-21
1.46228e-21
6.61996e-22
2.09213e-22
6.30099e-23
1.8916e-23
1.11561e-23
3.92626e-23
1.59348e-22
9.05073e-22
2.74315e-21
1.3526e-20
3.76531e-20
1.84679e-19
1.03322e-18
1.00489e-17
7.25725e-17
5.17707e-16
2.05273e-15
6.89661e-15
1.83083e-14
2.1368e-14
5.4103e-15
2.56677e-14
8.08972e-15
2.00235e-15
9.85871e-15
1.15143e-14
1.74251e-16
1.79049e-15
1.11046e-17
1.04845e-16
3.89457e-20
5.25042e-20
3.84514e-20
1.81262e-20
1.17091e-20
6.24365e-21
7.99848e-21
6.70108e-21
6.50184e-21
5.01612e-21
4.10726e-21
2.20144e-21
1.16049e-21
4.60569e-22
1.38276e-22
4.07086e-23
2.96697e-23
7.50335e-23
3.86275e-22
1.81992e-21
7.76419e-21
2.33359e-20
1.14764e-19
5.36925e-19
2.78728e-18
3.53682e-17
3.74469e-16
2.11013e-15
1.22958e-14
5.10618e-14
1.51915e-13
2.82549e-13
1.10125e-13
4.57226e-13
4.07397e-14
1.99732e-13
5.95839e-14
1.1497e-14
7.65298e-14
8.53512e-14
9.44103e-16
9.35101e-15
2.32385e-17
5.47914e-16
1.43531e-19
4.83561e-19
2.84901e-19
1.53554e-19
5.99151e-20
2.14949e-20
1.47388e-20
1.23284e-20
9.96621e-21
8.20989e-21
5.96368e-21
4.03358e-21
1.7673e-21
8.48824e-22
3.13918e-22
1.01383e-22
6.40787e-23
2.08215e-22
9.61078e-22
3.16504e-21
1.791e-20
7.33043e-20
2.6023e-19
1.16376e-18
1.28775e-17
1.08894e-16
1.17569e-15
1.15214e-14
6.59022e-14
3.19365e-13
1.1563e-12
2.80978e-12
1.67059e-12
5.97396e-12
8.9079e-13
3.62169e-12
3.25124e-13
1.61772e-12
4.7588e-13
8.10859e-14
5.94597e-13
6.52483e-13
6.27135e-15
6.41619e-14
1.28499e-16
3.22939e-15
1.05035e-18
2.4765e-18
2.16986e-18
1.11682e-18
3.19471e-19
1.00141e-19
3.22175e-20
2.25966e-20
1.75658e-20
1.23321e-20
1.07223e-20
6.0933e-21
3.31078e-21
1.43749e-21
5.95656e-22
2.08794e-22
1.69688e-22
4.61647e-22
1.86532e-21
1.03001e-20
2.85117e-20
1.36214e-19
5.49189e-19
2.8044e-18
2.76512e-17
4.66986e-16
4.09804e-15
3.90867e-14
3.63174e-13
1.82191e-12
7.00765e-12
2.22852e-11
1.84976e-11
5.84832e-11
1.34685e-11
4.62745e-11
7.27075e-12
2.95835e-11
2.63816e-12
1.32153e-11
3.79059e-12
6.04436e-13
4.65568e-12
5.02764e-12
4.27391e-14
4.6704e-13
8.75673e-16
2.16037e-14
1.48803e-17
1.38021e-17
1.17558e-17
6.82389e-18
1.87767e-18
5.9938e-19
1.13455e-19
4.92071e-20
2.71609e-20
2.18246e-20
1.61297e-20
1.01802e-20
5.37313e-21
2.26797e-21
1.04498e-21
4.07776e-22
2.943e-22
1.07997e-21
4.26828e-21
2.02751e-20
9.36786e-20
3.29572e-19
8.59044e-19
5.14077e-18
5.87242e-17
9.76166e-16
1.79692e-14
1.54829e-13
1.16323e-12
1.01524e-11
3.66886e-11
1.37816e-10
1.59793e-10
4.58123e-10
1.44903e-10
4.35138e-10
1.09793e-10
3.71919e-10
5.98786e-11
2.44594e-10
2.14878e-11
1.08388e-10
3.03521e-11
4.53568e-12
3.67988e-11
3.88953e-11
3.02796e-13
3.42385e-12
5.15113e-15
1.50168e-13
5.76526e-17
6.12714e-17
6.91715e-17
4.06965e-17
1.28697e-17
3.12945e-18
7.48717e-19
1.40005e-19
6.61666e-20
3.80248e-20
2.73419e-20
1.7135e-20
9.78435e-21
3.98394e-21
1.71141e-21
6.85707e-22
5.75725e-22
1.82981e-21
8.96917e-21
3.039e-20
1.41651e-19
7.003e-19
2.38168e-18
1.22598e-17
1.11384e-16
1.94821e-15
4.57671e-14
7.95987e-13
5.11259e-12
2.89383e-11
2.12362e-10
6.80534e-10
1.11021e-09
2.81339e-09
1.19809e-09
3.23036e-09
1.15626e-09
3.37443e-09
9.06461e-10
3.04542e-09
4.97516e-10
2.04405e-09
1.76059e-10
8.98783e-10
2.45079e-10
3.40811e-11
2.9275e-10
3.00758e-10
2.18703e-12
2.52243e-11
3.44251e-14
1.06303e-12
1.73644e-16
3.70282e-16
3.64735e-16
2.24353e-16
8.25671e-17
1.98927e-17
4.87711e-18
8.27078e-19
1.70753e-19
7.22567e-20
4.44909e-20
2.79744e-20
1.59036e-20
8.11206e-21
2.98648e-21
1.37948e-21
1.49778e-21
4.29872e-21
1.58967e-20
7.6418e-20
2.46796e-19
1.15257e-18
5.01562e-18
2.79749e-17
2.21121e-16
3.59577e-15
7.49432e-14
1.7401e-12
2.83467e-11
1.38655e-10
4.62886e-10
3.60534e-09
6.08045e-09
1.3995e-08
7.85518e-09
1.88112e-08
9.17258e-09
2.36693e-08
9.36783e-09
2.67831e-08
7.56222e-09
2.52129e-08
4.17728e-09
1.72236e-08
1.45364e-09
7.53098e-09
1.98962e-09
2.55045e-10
2.33004e-09
2.30979e-09
1.58349e-11
1.8548e-10
2.45102e-13
7.57253e-12
5.94987e-16
1.16129e-15
1.16033e-15
9.75595e-16
4.28606e-16
1.13386e-16
2.67649e-17
4.58057e-18
7.97806e-19
1.80958e-19
7.46932e-20
4.76896e-20
2.45758e-20
1.34558e-20
6.52364e-21
3.55097e-21
3.7314e-21
1.11303e-20
3.59941e-20
1.52636e-19
6.54262e-19
2.17005e-18
1.03699e-17
6.90915e-17
5.74471e-16
7.53497e-15
1.42823e-13
2.84749e-12
5.43058e-11
7.45326e-10
2.62291e-09
4.8171e-09
2.7114e-08
5.45165e-08
4.12092e-08
9.49679e-08
5.64741e-08
1.29123e-07
7.14135e-08
1.78641e-07
7.67225e-08
2.15513e-07
6.33622e-08
2.08981e-07
3.52576e-08
1.44633e-07
1.20336e-08
6.2983e-08
1.61189e-08
1.89078e-09
1.84197e-08
1.74923e-08
1.13393e-10
1.33861e-09
1.76205e-12
5.33126e-11
2.44857e-15
5.84744e-15
5.35824e-15
4.15711e-15
1.79832e-15
6.75761e-16
1.48258e-16
2.9015e-17
4.36846e-18
6.61519e-19
1.75184e-19
7.91672e-20
4.67972e-20
1.97942e-20
1.22526e-20
7.9818e-21
1.05087e-20
2.62027e-20
7.97794e-20
3.87018e-19
1.37388e-18
4.40175e-18
1.71669e-17
1.43703e-16
1.61193e-15
1.9026e-14
3.24311e-13
5.68207e-12
9.47767e-11
1.31475e-09
1.30992e-08
4.54293e-08
1.16137e-07
0
1.81103e-07
3.66746e-07
2.76312e-07
6.32033e-07
4.17647e-07
9.3499e-07
5.66075e-07
1.38794e-06
6.29591e-07
1.73822e-06
5.24741e-07
1.69844e-06
2.93411e-07
1.18039e-06
9.84803e-08
5.1355e-07
1.28469e-07
1.37903e-08
1.42601e-07
1.29686e-07
7.91605e-10
9.35831e-09
1.24623e-11
3.62461e-10
1.31032e-14
3.19653e-14
2.83406e-14
1.90992e-14
8.87438e-15
3.21018e-15
8.33032e-16
1.64323e-16
2.54855e-17
3.40361e-18
5.58891e-19
1.46984e-19
7.97564e-20
4.73292e-20
2.41642e-20
1.87459e-20
2.1117e-20
5.41947e-20
1.6629e-19
6.67488e-19
2.94906e-18
6.85797e-18
4.5132e-17
2.88803e-16
3.71633e-15
5.47426e-14
8.38127e-13
1.39127e-11
2.13581e-10
2.55234e-09
2.47547e-08
1.87966e-07
1.15608e-06
6.19348e-07
1.38536e-06
1.13488e-06
2.2242e-06
1.92739e-06
4.14454e-06
3.19944e-06
6.99632e-06
4.4989e-06
1.05799e-05
5.01897e-06
1.32141e-05
4.14952e-06
1.27865e-05
2.32712e-06
8.90884e-06
7.77961e-07
3.93073e-06
9.86579e-07
9.80377e-08
1.06171e-06
9.29611e-07
5.29297e-09
6.27402e-08
8.47586e-11
2.3352e-09
7.55975e-14
1.71666e-13
1.5331e-13
9.45832e-14
4.39688e-14
1.74492e-14
3.76759e-15
8.78287e-16
1.46354e-16
1.48785e-17
2.58357e-18
4.7276e-19
1.52609e-19
9.3284e-20
7.2807e-20
5.57211e-20
5.93987e-20
1.4849e-19
3.10094e-19
1.30956e-18
5.44644e-18
2.06621e-17
9.13057e-17
7.38054e-16
9.3422e-15
1.43201e-13
2.28762e-12
3.6288e-11
5.82051e-10
6.0886e-09
5.72712e-08
3.96129e-07
3.04297e-06
9.60534e-06
1.63555e-05
3.54487e-06
6.30822e-06
6.96136e-06
1.29204e-05
1.33412e-05
2.57763e-05
2.30705e-05
4.57508e-05
3.16206e-05
6.84507e-05
3.44939e-05
8.17023e-05
2.85738e-05
7.74008e-05
1.64824e-05
5.50327e-05
5.70402e-06
2.60785e-05
7.02028e-06
6.7225e-07
7.34383e-06
6.26259e-06
3.34413e-08
4.01241e-07
5.4669e-10
1.40647e-08
4.30235e-13
9.19913e-13
7.58861e-13
5.55497e-13
2.44638e-13
7.48787e-14
2.28974e-14
3.83806e-15
6.65522e-16
1.11349e-16
1.20976e-17
1.69873e-18
3.86738e-19
2.11238e-19
1.92849e-19
1.94039e-19
2.00026e-19
3.25849e-19
8.39871e-19
2.30299e-18
9.96341e-18
3.20175e-17
2.21277e-16
1.83667e-15
2.48896e-14
3.63312e-13
5.57724e-12
9.18426e-11
1.46731e-09
1.57897e-08
1.57028e-07
1.16044e-06
6.1924e-06
2.55223e-05
3.93747e-05
5.45448e-05
8.71194e-05
2.06776e-05
3.57563e-05
4.26901e-05
7.21907e-05
8.18009e-05
0.00013557
0.000131982
0.000223169
0.000172425
0.000311795
0.000180825
0.000363931
0.000150442
0.000344399
9.10534e-05
0.0002518
3.55654e-05
0.000131585
4.20286e-05
4.37407e-06
4.27768e-05
3.62328e-05
1.97929e-07
2.44265e-06
3.2638e-09
7.73202e-08
2.01021e-12
4.6603e-12
3.77974e-12
2.35344e-12
1.03758e-12
3.44526e-13
1.51985e-13
2.47092e-14
4.15022e-15
4.94855e-16
6.60819e-17
7.79561e-18
1.21387e-18
4.94899e-19
6.50969e-19
6.22519e-19
7.53172e-19
9.4292e-19
1.6057e-18
4.30089e-18
1.51123e-17
5.89869e-17
3.63298e-16
4.07155e-15
6.22391e-14
9.39662e-13
1.35605e-11
2.05188e-10
3.2662e-09
3.64262e-08
4.15031e-07
3.5062e-06
2.25353e-05
7.11577e-05
5.77521e-05
0.000125362
0.000189446
0.000236174
0.000319175
0.000113069
0.000168503
0.000204969
0.000293355
0.000336954
0.000464635
0.000485521
0.000671519
0.000603802
0.000868179
0.000646258
0.000994114
0.000570516
0.000995001
0.000369326
0.0008255
0.000167382
0.000486676
0.000188468
2.52614e-05
0.000186688
0.000158464
1.0867e-06
1.36661e-05
1.71302e-08
3.74472e-07
5.43426e-12
1.88496e-11
1.74819e-11
1.10052e-11
4.59966e-12
1.57016e-12
5.54605e-13
1.48841e-13
1.92454e-14
3.43222e-15
3.17297e-16
3.84795e-17
4.64918e-18
1.27243e-18
1.28296e-18
3.00995e-18
2.76271e-18
4.24303e-18
5.50696e-18
1.14377e-17
2.59745e-17
1.24952e-16
7.34315e-16
9.55852e-15
1.53723e-13
2.42911e-12
3.45343e-11
4.72363e-10
6.8351e-09
7.06358e-08
8.59411e-07
8.66132e-06
6.15858e-05
0.000308558
0.00025122
0.000402084
0.000412527
0.000525192
0.000616184
0.000737245
0.000393784
0.000501957
0.000598985
0.000738542
0.0008567
0.00103301
0.00112966
0.00136982
0.00134696
0.00168087
0.00144825
0.00188557
0.00137187
0.0019202
0.00107265
0.00172791
0.000575872
0.00128101
0.000616281
0.000112227
0.000595137
0.000509507
5.43708e-06
6.08757e-05
7.39232e-08
1.52972e-06
4.14196e-11
6.80808e-11
4.70876e-11
1.9812e-11
6.2458e-12
1.64584e-12
6.67457e-13
1.33922e-13
1.25765e-14
1.46201e-15
1.50699e-16
1.95566e-17
5.35971e-18
5.5122e-18
7.04054e-18
1.19647e-17
1.32625e-17
2.16234e-17
2.599e-17
6.19638e-17
2.09195e-16
1.16309e-15
1.83912e-14
3.87243e-13
5.98509e-12
8.80849e-11
1.15363e-09
1.48226e-08
1.35643e-07
1.47928e-06
1.561e-05
0.00011358
0.000491114
0.000903698
0.000938302
0.000643155
0.000762203
0.000861885
0.000999835
0.00114002
0.0012718
0.000875443
0.00100874
0.00119988
0.00135489
0.0015852
0.00177573
0.00198121
0.00223995
0.00229052
0.00265392
0.00244095
0.00291674
0.00236982
0.00296853
0.00203053
0.0027552
0.00141617
0.00225666
0.00145821
0.00037352
0.00138843
0.00120682
2.25883e-05
0.000212928
2.12776e-07
4.57155e-06
1.66294e-10
1.70677e-10
7.8087e-11
2.49942e-11
6.31695e-12
2.09723e-12
4.77844e-13
7.52917e-14
8.44022e-15
7.02259e-16
8.96077e-17
1.56799e-17
1.80129e-17
2.11292e-17
2.49816e-17
4.18217e-17
6.13301e-17
7.14142e-17
1.54025e-16
4.08194e-16
1.76632e-15
2.69487e-14
7.55349e-13
1.5248e-11
2.17162e-10
2.91027e-09
3.45206e-08
2.77758e-07
2.60836e-06
2.44873e-05
0.000170577
0.000646869
0.00148708
0.0013831
0.0016088
0.00113303
0.00127607
0.00140475
0.00154771
0.00175716
0.0018823
0.00149668
0.00162958
0.00194617
0.00209267
0.00245915
0.00264326
0.00296652
0.003223
0.00334508
0.00371582
0.00351471
0.00400531
0.00343367
0.0040495
0.00305516
0.00380363
0.00238393
0.00326006
0.00239987
0.000929691
0.00230485
0.00214192
0.00154621
7.44079e-05
0.000573616
3.71678e-07
8.5615e-06
4.54315e-10
2.7338e-10
9.634e-11
2.46642e-11
5.81367e-12
2.52285e-12
4.48226e-13
5.21476e-14
2.59589e-15
3.4154e-16
6.51525e-17
4.62647e-17
6.82609e-17
6.75684e-17
1.04661e-16
1.62256e-16
1.84026e-16
3.10201e-16
8.26035e-16
3.19496e-15
3.65302e-14
1.09884e-12
3.04163e-11
5.49978e-10
7.11507e-09
8.01871e-08
6.06444e-07
4.93078e-06
3.95526e-05
0.000234277
0.000798168
0.00165856
0.00220114
0.00230512
0.00195282
0.00208554
0.00168658
0.00182529
0.00200859
0.00214337
0.00243802
0.00253845
0.00221895
0.00233243
0.00279534
0.00291221
0.00342671
0.00358412
0.00402808
0.00426337
0.00445316
0.00480067
0.00459537
0.0050993
0.00449785
0.00510288
0.00407445
0.00483995
0.00335034
0.00422841
0.00377464
0.00283057
0.0033491
0.00197865
0.00118785
0.00181978
0.00264086
0.00322447
0.00327809
0.00254304
7.01164e-05
0.000288841
0.00158336
0.00135886
0.000720736
1.32029e-06
0.000149513
1.08482e-05
6.76825e-05
7.84721e-10
3.43339e-10
9.44448e-11
2.25672e-11
7.06989e-12
2.09264e-12
3.14954e-13
1.55641e-14
1.13447e-15
2.19014e-16
1.32319e-16
1.72535e-16
2.38558e-16
3.19412e-16
4.01215e-16
5.57518e-16
7.52772e-16
1.91875e-15
7.23034e-15
5.21702e-14
1.32023e-12
4.46907e-11
1.11327e-09
1.77685e-08
1.83848e-07
1.38459e-06
1.01016e-05
6.43781e-05
0.000318165
0.000944446
0.00184626
0.00238226
0.00239479
0.00269053
0.00269688
0.00250396
0.0026023
0.00227091
0.00239278
0.00263992
0.00274579
0.00313746
0.00319223
0.00300225
0.00307564
0.00369525
0.00375896
0.00442592
0.0045232
0.00498029
0.00504812
0.00532756
0.0053338
0.00557289
0.00564942
0.00510728
0.00543796
0.00567055
0.0058768
0.00460696
0.00504614
0.00556274
0.00576878
0.00538976
0.00424629
0.00378766
0.00429853
0.00469481
0.00377815
0.00238366
0.00218268
0.00308787
0.00362689
0.00372451
0.00294719
0.000492091
0.00195205
0.00167827
0.00105141
1.39858e-06
7.1278e-06
2.3927e-05
0.000275033
0.000125932
1.09294e-09
3.52116e-10
8.38996e-11
1.8224e-11
6.52272e-12
1.05018e-12
9.01068e-14
4.95329e-15
5.31067e-16
4.38062e-16
6.41336e-16
8.72969e-16
1.03771e-15
1.45138e-15
2.28485e-15
2.20451e-15
5.51109e-15
1.76799e-14
8.85695e-14
1.49291e-12
5.22497e-11
1.66345e-09
3.58848e-08
4.21718e-07
3.21859e-06
2.09491e-05
0.000114118
0.000421712
0.00107707
0.00190562
0.00241802
0.0026696
0.0026068
0.00296808
0.00287069
0.00298553
0.00300267
0.00283779
0.0029144
0.00324686
0.00329924
0.00380309
0.00379501
0.00379228
0.00380592
0.00456362
0.00455261
0.00506802
0.00506455
0.00529428
0.00521114
0.00553319
0.00527244
0.00589417
0.00583645
0.00571601
0.00548824
0.00585182
0.00599974
0.00599801
0.00511996
0.00552151
0.00602204
0.00614575
0.00587391
0.00474403
0.0042636
0.0047484
0.00518897
0.0042266
0.00276809
0.00255387
0.00349845
0.00415295
0.00404227
0.00333893
0.000751151
0.00230201
0.00200728
0.00136591
2.54688e-06
1.19792e-05
4.56589e-05
0.000455612
0.000215894
1.28182e-09
3.20108e-10
6.33956e-11
1.40642e-11
4.94631e-12
4.16461e-13
2.67809e-14
2.47613e-15
9.37108e-16
1.49404e-15
2.54359e-15
3.94528e-15
6.1531e-15
9.74262e-15
8.63689e-15
1.68285e-14
4.97771e-14
1.86103e-13
1.75477e-12
5.4483e-11
1.93396e-09
5.4504e-08
7.75485e-07
6.93755e-06
4.25282e-05
0.000186409
0.000545538
0.00119821
0.00190063
0.00225043
0.0024428
0.00230294
0.00274184
0.00259893
0.00305197
0.00285342
0.00330811
0.00321318
0.00333116
0.00333303
0.00378526
0.00376428
0.00440565
0.00432876
0.00452676
0.00447536
0.00505793
0.00504516
0.00514269
0.00510576
0.00490584
0.00461965
0.00518955
0.00480125
0.00446895
0.00411364
0.00591437
0.00570238
0.00535692
0.00492152
0.00612526
0.00609023
0.00595251
0.00560999
0.00598034
0.00623518
0.00633902
0.00625861
0.0052215
0.00472682
0.00522212
0.00566998
0.00467432
0.003144
0.00291241
0.00389959
0.00458474
0.00445792
0.0037221
0.0010244
0.00264097
0.00232347
0.00167021
3.7283e-06
7.48572e-05
1.77569e-05
0.00066149
0.000325953
1.26404e-09
2.51361e-10
4.35262e-11
1.03298e-11
2.37812e-12
1.38219e-13
9.65044e-15
3.11713e-15
4.45239e-15
8.93169e-15
1.58794e-14
2.54958e-14
4.24866e-14
4.29931e-14
5.69003e-14
1.46345e-13
4.60509e-13
2.38211e-12
5.35701e-11
1.95482e-09
6.37941e-08
1.13539e-06
1.18297e-05
7.39785e-05
0.000277475
0.000678338
0.00131247
0.00188299
0.00211318
0.00190278
0.00215859
0.00189163
0.00262133
0.00237592
0.00295596
0.00262475
0.00346393
0.00324314
0.00371954
0.00363423
0.00424064
0.0041315
0.00486826
0.00474701
0.00501604
0.00495939
0.00510309
0.00511695
0.0044895
0.00450578
0.00387534
0.00366308
0.00355807
0.00352741
0.00445522
0.0040071
0.00361803
0.00331354
0.00564058
0.00518984
0.00465945
0.00410735
0.00617485
0.00596818
0.00557035
0.00606258
0.00635391
0.00625703
0.00634519
0.0064397
0.00569772
0.00519128
0.00569253
0.00611932
0.00512598
0.00350889
0.003258
0.00429646
0.00501999
0.00487465
0.00409839
0.00129032
0.00296447
0.00262341
0.00195906
3.6357e-06
0.000107503
2.09115e-05
0.000866685
0.000438551
1.13805e-09
1.75473e-10
2.86998e-11
7.53872e-12
7.08044e-13
4.01349e-14
1.21452e-14
1.47952e-14
3.1394e-14
6.00072e-14
1.03523e-13
1.69943e-13
2.31157e-13
2.10089e-13
4.49404e-13
1.24118e-12
4.23155e-12
4.98226e-11
1.84128e-09
6.36972e-08
1.34392e-06
1.66089e-05
0.000108854
0.000374858
0.000817354
0.00142168
0.00185428
0.0019975
0.00169205
0.00129488
0.00119192
0.00169345
0.00146702
0.00228335
0.00196432
0.0026742
0.00222287
0.00348099
0.00310791
0.00398707
0.00376914
0.0045924
0.00439756
0.00510406
0.00500976
0.00513687
0.00513494
0.00458822
0.00475314
0.00330426
0.00352659
0.00310105
0.00297652
0.00292835
0.00293421
0.00358613
0.00313891
0.00279762
0.00257338
0.00503409
0.00442785
0.00380492
0.00321651
0.0059896
0.00552317
0.00492087
0.00643202
0.00653596
0.00603369
0.00611203
0.00644005
0.00614539
0.00565488
0.00614181
0.00649086
0.00557849
0.00386363
0.00359006
0.00469138
0.00545651
0.0052929
0.00446984
0.0015387
0.00327221
0.00290626
0.00222831
2.07984e-06
0.000134588
1.88842e-05
0.00105423
0.000535265
8.88857e-10
1.13019e-10
2.14359e-11
3.01904e-12
2.10874e-13
4.74071e-14
5.24664e-14
1.08482e-13
2.17734e-13
3.92363e-13
6.88001e-13
1.13964e-12
8.59194e-13
1.44581e-12
3.48888e-12
9.55624e-12
5.19119e-11
1.46004e-09
5.78505e-08
1.39098e-06
1.92261e-05
0.000139103
0.000465971
0.000944799
0.00150255
0.00181725
0.00188967
0.00151228
0.0008017
0.000816095
0.000655951
0.00116026
0.000955046
0.00179909
0.00143927
0.00226593
0.00171851
0.00335494
0.00283088
0.00413835
0.00379532
0.00482606
0.00456083
0.00510013
0.00506855
0.00492752
0.00505954
0.00385999
0.00421702
0.00270078
0.00289753
0.00328495
0.00306335
0.00245472
0.00242408
0.00246309
0.00255716
0.00271443
0.00234327
0.00211277
0.00201754
0.0042538
0.00357324
0.00292817
0.00238196
0.00551944
0.00487065
0.00415786
0.00662612
0.00654372
0.00557036
0.00567903
0.00622236
0.00652837
0.00610337
0.00653711
0.00670576
0.0060212
0.00420984
0.00390968
0.00508589
0.00588964
0.0057094
0.00483737
0.00176447
0.00356613
0.00317097
0.00247666
7.66257e-07
0.000146312
1.22828e-05
0.00121497
0.00059803
6.20667e-10
7.48988e-11
1.0691e-11
1.00691e-12
1.77807e-13
1.7651e-13
3.77401e-13
7.64376e-13
1.40235e-12
2.54268e-12
4.88208e-12
3.92181e-12
4.92568e-12
1.01162e-11
2.42203e-11
7.45734e-11
1.06352e-09
4.30787e-08
1.34372e-06
1.9797e-05
0.000154199
0.00053913
0.0010543
0.00154756
0.00177971
0.00177545
0.00133504
0.00063507
0.000239506
0.000194899
0.00036022
0.000280286
0.00062279
0.000460953
0.00124249
0.000875122
0.00180428
0.00118663
0.00313483
0.00247921
0.00419517
0.00371797
0.00493613
0.0046265
0.004967
0.00497817
0.00454563
0.00481067
0.00347012
0.00369233
0.00390621
0.00248954
0.00267993
0.0030958
0.00288229
0.0020091
0.0020639
0.00217293
0.00231884
0.00198332
0.00176792
0.00170086
0.00170084
0.003434
0.00275092
0.00217663
0.00176905
0.00489172
0.00415244
0.00340249
0.00665613
0.0063605
0.00499103
0.00516814
0.00583971
0.00677224
0.00651193
0.00681741
0.00676724
0.00643776
0.00454831
0.0042189
0.00547849
0.00630646
0.00611654
0.00520058
0.00196441
0.0038473
0.0034188
0.00270388
4.90849e-07
0.000136087
6.93391e-06
0.00134254
0.000620618
4.09625e-10
4.32107e-11
4.31297e-12
4.53385e-13
7.14945e-13
1.33005e-12
2.66029e-12
4.85676e-12
8.65672e-12
1.69231e-11
1.94704e-11
1.78408e-11
3.04903e-11
6.40608e-11
1.48962e-10
9.19842e-10
2.77196e-08
1.08317e-06
1.92437e-05
0.000156226
0.000576697
0.00113815
0.00157215
0.00173651
0.0016471
0.00114073
0.000480955
0.000102015
5.81145e-05
3.23995e-05
0.000105108
7.47293e-05
0.000243871
0.000153255
0.000715656
0.000414209
0.0014332
0.000856732
0.00289079
0.00214483
0.00416896
0.00358179
0.00488358
0.00459133
0.00474955
0.00479705
0.00427439
0.00456538
0.00330577
0.00352085
0.00354546
0.00376414
0.0023105
0.00249374
0.0029011
0.00269213
0.00176457
0.00186612
0.00199386
0.00214311
0.00158363
0.00152368
0.00152033
0.00156168
0.00269836
0.00210745
0.00169587
0.00151253
0.0042419
0.00348499
0.00277113
0.00652568
0.00604058
0.00442605
0.00469762
0.00540783
0.00687321
0.00683326
0.00696255
0.00670629
0.00679912
0.00488085
0.00452012
0.00586424
0.00669454
0.00650328
0.00555886
0.00213836
0.00411674
0.00365272
0.00291073
1.36936e-06
0.000102418
1.10703e-05
0.00143287
0.000595374
2.52243e-10
2.04908e-11
1.73116e-12
1.88282e-12
4.9699e-12
9.40213e-12
1.68424e-11
2.8675e-11
5.29117e-11
8.4248e-11
6.64378e-11
9.60945e-11
1.75134e-10
3.48236e-10
1.05224e-09
1.73243e-08
6.5858e-07
1.63173e-05
0.000152494
0.000581935
0.00118071
0.0015753
0.00169066
0.00151342
0.000955265
0.000367322
8.31735e-05
6.95603e-06
7.51561e-06
1.02049e-05
5.72648e-06
2.87701e-05
1.60504e-05
0.000114425
5.59759e-05
0.00046516
0.000234898
0.00127965
0.000770107
0.00270515
0.00194986
0.0040858
0.0034423
0.00472311
0.00445868
0.00440372
0.00446842
0.00395321
0.00412967
0.00423178
0.0031155
0.00333006
0.00325684
0.00347346
0.00208735
0.00224423
0.0026166
0.00242173
0.00162935
0.0017198
0.00182437
0.00194646
0.00145421
0.00144966
0.00147466
0.00152518
0.00217146
0.00174863
0.00153581
0.00145954
0.00367687
0.00296695
0.00236469
0.00627525
0.00569387
0.003972
0.00435945
0.00503574
0.00686876
0.00702018
0.00701827
0.00652726
0.00704662
0.0052072
0.004815
0.00623749
0.0070103
0.00686053
0.00590868
0.00228655
0.00437828
0.00387588
0.00309983
6.20702e-06
9.50115e-05
3.39572e-05
0.00148526
0.00057189
1.34556e-10
8.41992e-12
4.55383e-12
2.13092e-11
3.40422e-11
5.99199e-11
9.66142e-11
1.63251e-10
3.07041e-10
2.5373e-10
3.13682e-10
4.94974e-10
8.64936e-10
1.73084e-09
1.25031e-08
3.63242e-07
1.08641e-05
0.000137433
0.000573811
0.00118233
0.00157032
0.00164385
0.00138752
0.000798479
0.000284518
6.18583e-05
4.10864e-06
1.14347e-06
2.71147e-07
3.02698e-06
1.52537e-06
1.72396e-05
6.97115e-06
9.79226e-05
4.22068e-05
0.000424822
0.000213
0.00143842
0.000971291
0.00268036
0.00200914
0.00397166
0.00335972
0.00440784
0.00419214
0.00388028
0.00394398