/*--------------------------------*- C++ -*----------------------------------*\
  =========                 |
  \\      /  F ield         | OpenFOAM: The Open Source CFD Toolbox
   \\    /   O peration     | Website:  https://openfoam.org
    \\  /    A nd           | Version:  dev
     \\/     M anipulation  |
\*---------------------------------------------------------------------------*/
FoamFile
{
    version     2.0;
    format      ascii;
    class       volScalarField;
    location    "2500";
    object      k;
}
// * * * * * * * * * * * * * * * * * * * * * * * * * * * * * * * * * * * * * //

dimensions      [0 2 -2 0 0 0 0];

internalField   nonuniform List<scalar> 
9838
(
0.000160331
0.000167329
0.000152825
0.000142813
0.000219011
0.000123741
0.000120862
0.000232577
0.000198729
0.000110033
0.00011108
0.000217165
0.000242259
0.000153318
0.000105957
0.000105656
0.000179324
0.00026435
0.000214724
0.000127547
0.000104161
0.00010292
0.000145852
0.000259575
0.000256264
0.00016506
0.000117289
0.000102903
0.000101468
0.00012654
0.000236702
0.000279886
0.000218184
0.00013672
0.000111906
0.000102083
0.000100696
0.000114781
0.000192694
0.000287261
0.000262643
0.000168914
0.000124134
0.000108241
0.000101497
0.000100261
0.000108281
0.000155339
0.000276332
0.000286428
0.000215002
0.000141026
0.000117017
0.000105771
0.000101044
9.99928e-05
0.000104709
0.000132749
0.000245423
0.000303269
0.000261537
0.000168593
0.000127642
0.000112092
0.000104018
0.000100687
9.97394e-05
0.000102674
0.000119147
0.000196996
0.000302076
0.000293113
0.000207445
0.000142528
0.00011989
0.000108564
0.000102704
0.000100405
9.94727e-05
0.000101491
0.000111425
0.000159079
0.000286586
0.000309803
0.000255069
0.000164945
0.000129316
0.000114458
0.000105968
0.000101699
0.000100182
9.92439e-05
0.000100653
0.000107017
0.00013615
0.000249209
0.000320167
0.000291483
0.000199325
0.000141594
0.000121322
0.000110423
0.00010399
0.000100903
0.000100036
9.90717e-05
9.99989e-05
0.000104331
0.000122241
0.000199129
0.00031508
0.000314556
0.000242202
0.000160661
0.00012934
0.000115654
0.000107331
0.000102432
0.000100314
9.98532e-05
9.89509e-05
9.95063e-05
0.00010251
0.000114024
0.000162106
0.000294907
0.000329166
0.000285649
0.000189892
0.000139657
0.000121682
0.000111383
0.000104891
0.00010112
9.98815e-05
9.96566e-05
9.89618e-05
9.91239e-05
0.000101213
0.000108967
0.000139388
0.000252376
0.000335733
0.000315292
0.000227378
0.000155636
0.000128277
0.000116097
0.000108032
0.000102922
0.000100207
9.94454e-05
9.95316e-05
9.9033e-05
9.86224e-05
0.000100208
0.000105661
0.000125285
0.000201624
0.000327976
0.000333275
0.000271538
0.000179741
0.00013709
0.000120974
0.000111725
0.00010536
0.000101243
9.95388e-05
9.8978e-05
9.94555e-05
9.90322e-05
9.80679e-05
9.92552e-05
0.000103264
0.000116492
0.000165815
0.000304587
0.000347301
0.000309068
0.000213239
0.000150194
0.000126729
0.000115589
0.000108254
0.000103165
0.000100003
9.89407e-05
9.85822e-05
9.93998e-05
9.89197e-05
9.76315e-05
9.84263e-05
0.000101401
0.000110708
0.00014324
0.000258474
0.000351212
0.000335821
0.000253224
0.000170061
0.000134016
0.000119882
0.00011138
0.000105472
0.000101273
9.9124e-05
9.83259e-05
9.82874e-05
9.93449e-05
9.87892e-05
9.75226e-05
9.7725e-05
9.99397e-05
0.000106814
0.000128594
0.000208085
0.000341654
0.000350808
0.000296054
0.000198764
0.00014466
0.000124568
0.000114757
0.00010799
0.000103161
9.97685e-05
9.83864e-05
9.7729e-05
9.80822e-05
9.92871e-05
9.86798e-05
9.74959e-05
9.6909e-05
9.86866e-05
0.000104013
0.00011931
0.000171933
0.00031584
0.000364159
0.000329423
0.000234232
0.000161367
0.000130716
0.000118237
0.000110696
0.000105209
0.000101222
9.86974e-05
9.76889e-05
9.72344e-05
9.79249e-05
9.92325e-05
9.85919e-05
9.74581e-05
9.61975e-05
9.75266e-05
0.000101772
0.000113125
0.000149422
0.00027036
0.000366035
0.000353836
0.000274916
0.000184553
0.000139632
0.000122282
0.000113461
0.000107416
0.000102921
9.95857e-05
9.78186e-05
9.70067e-05
9.68619e-05
9.77878e-05
9.91896e-05
9.85309e-05
9.739e-05
9.55982e-05
9.65548e-05
9.99338e-05
0.00010874
0.000134271
0.000222403
0.000356631
0.000366624
0.000315788
0.000215905
0.000152675
0.000127356
0.000116363
0.000109653
0.000104775
0.000100992
9.82746e-05
9.70518e-05
9.63802e-05
9.66019e-05
9.76559e-05
9.91587e-05
9.84911e-05
9.72597e-05
9.51297e-05
9.57291e-05
9.84255e-05
0.000105499
0.000124189
0.000183821
0.000332245
0.000378715
0.000345956
0.000251427
0.000172057
0.000134587
0.000119693
0.000111888
0.000106604
0.000102551
9.93342e-05
9.7288e-05
9.63508e-05
9.58708e-05
9.64041e-05
9.75577e-05
9.91348e-05
9.84638e-05
9.70973e-05
9.48464e-05
9.49603e-05
9.71668e-05
0.000102977
0.00011731
0.000160076
0.000291534
0.00038118
0.000368063
0.000290963
0.000197095
0.000145135
0.000123945
0.000114348
0.000108409
0.000104101
0.000100635
9.79458e-05
9.64656e-05
9.56831e-05
9.55165e-05
9.62111e-05
9.74993e-05
9.9121e-05
9.84468e-05
9.69257e-05
9.46157e-05
9.41724e-05
9.60771e-05
0.000100961
0.000112397
0.000143959
0.000245638
0.000373845
0.00038061
0.000328557
0.000228723
0.000160108
0.000129791
0.000117056
0.000110342
0.000105638
0.000101983
9.90363e-05
9.68398e-05
9.57314e-05
9.50943e-05
9.52787e-05
9.60594e-05
9.7465e-05
9.91217e-05
9.84323e-05
9.67596e-05
9.44045e-05
9.34742e-05
9.50795e-05
9.93371e-05
0.000108749
0.000132736
0.000204939
0.000353897
0.000391358
0.000357773
0.000262387
0.00018058
0.000138136
0.000120621
0.000112281
0.000107176
0.000103331
0.000100206
9.768e-05
9.59472e-05
9.50794e-05
9.4656e-05
9.50721e-05
9.59806e-05
9.74731e-05
9.91458e-05
9.84218e-05
9.6634e-05
9.41817e-05
9.28542e-05
9.41915e-05
9.80002e-05
0.000106015
0.00012485
0.000177423
0.000320198
0.00039595
0.000378521
0.000299386
0.000205791
0.000149734
0.000125427
0.000114626
0.000108676
0.00010462
0.000101396
9.86869e-05
9.65029e-05
9.51992e-05
9.45078e-05
9.43835e-05
9.49098e-05
9.59694e-05
9.75207e-05
9.92028e-05
9.84172e-05
9.654e-05
9.39529e-05
9.23164e-05
9.33948e-05
9.68258e-05
0.000104009
0.000119153
0.000159084
0.000278225
0.000391633
0.000392457
0.000333758
0.000235365
0.000165609
0.000131881
0.000117627
0.000110368
0.000105865
0.000102531
9.97331e-05
9.73721e-05
9.55531e-05
9.457e-05
9.40358e-05
9.42193e-05
9.48634e-05
9.6039e-05
9.76353e-05
9.93128e-05
9.84216e-05
9.64566e-05
9.37082e-05
9.18402e-05
9.27162e-05
9.57814e-05
0.000102348
0.000115433
0.000146091
0.000237937
0.000377934
0.000401504
0.000364116
0.000266979
0.000185521
0.000140914
0.000121409
0.000112392
0.000107164
0.000103616
0.000100766
9.82957e-05
9.62556e-05
9.4792e-05
9.40438e-05
9.37039e-05
9.41044e-05
9.49375e-05
9.62232e-05
9.78838e-05
9.95136e-05
9.84389e-05
9.63872e-05
9.34401e-05
9.14065e-05
9.21411e-05
9.49194e-05
0.000101013
0.000112957
0.000137075
0.000204278
0.000350424
0.00040773
0.000384596
0.000299765
0.000209715
0.000152764
0.000126588
0.000114781
0.00010857
0.000104646
0.000101732
9.92554e-05
9.70727e-05
9.53086e-05
9.41784e-05
9.36259e-05
9.35362e-05
9.41001e-05
9.5131e-05
9.65414e-05
9.83255e-05
9.98286e-05
9.84649e-05
9.63263e-05
9.31546e-05
9.10284e-05
9.16517e-05
9.4219e-05
0.000100094
0.00011102
0.000131253
0.000181499
0.000316682
0.000406087
0.000399657
0.000332299
0.000236119
0.000168154
0.000133349
0.000117977
0.000110206
0.000105663
0.000102618
0.00010015
9.79534e-05
9.60289e-05
9.45343e-05
9.36998e-05
9.33162e-05
9.35037e-05
9.42654e-05
9.54879e-05
9.70776e-05
9.90595e-05
0.000100329
9.84974e-05
9.6255e-05
9.28361e-05
9.07009e-05
9.12561e-05
9.36477e-05
9.93997e-05
0.000109592
0.00012754
0.000166377
0.000279135
0.000398026
0.00040668
0.000362688
0.000265005
0.000186731
0.000142277
0.000121966
0.000112287
0.000106888
0.000103425
0.000100932
9.88214e-05
9.68124e-05
9.51143e-05
9.3927e-05
9.33476e-05
9.31464e-05
9.36571e-05
9.47084e-05
9.61185e-05
9.7953e-05
0.000100204
0.000100571
0.000101385
9.85358e-05
9.61577e-05
9.25053e-05
9.04271e-05
9.09428e-05
9.32184e-05
9.88681e-05
0.0001087
0.000124863
0.000155835
0.000244426
0.000379856
0.000413478
0.000384144
0.000293361
0.000208359
0.000153699
0.000127209
0.000114937
0.000108249
0.000104361
0.000101639
9.95664e-05
9.76172e-05
9.57759e-05
9.4366e-05
9.3485e-05
9.31381e-05
9.31956e-05
9.40704e-05
9.5436e-05
9.7283e-05
9.9449e-05
0.000101562
0.000101413
0.000100764
0.000101765
9.85718e-05
9.60223e-05
9.21745e-05
9.02112e-05
9.07215e-05
9.29267e-05
9.84417e-05
0.000108063
0.000122806
0.000147994
0.000215785
0.000353082
0.000413998
0.000399228
0.000323566
0.000232058
0.000167696
0.000133872
0.000118236
0.000110098
0.000105321
0.000102363
0.00010019
9.83441e-05
9.6526e-05
9.49226e-05
9.38062e-05
9.32153e-05
9.31339e-05
9.35243e-05
9.47368e-05
9.66523e-05
9.84557e-05
9.82127e-05
0.000100939
9.90701e-05
0.000100467
0.000102025
0.000101957
0.000100868
0.000102093
9.8606e-05
9.5853e-05
9.1859e-05
9.00378e-05
9.05915e-05
9.27602e-05
9.81372e-05
0.000107538
0.000120994
0.00014251
0.00019403
0.000322025
0.000410792
0.000408275
0.000350933
0.000256803
0.000184425
0.000142191
0.000122266
0.000112381
0.000106621
0.00010312
0.000100769
9.89491e-05
9.72661e-05
9.55987e-05
9.42457e-05
9.34303e-05
9.31685e-05
9.33801e-05
9.42552e-05
9.59086e-05
9.80653e-05
9.79072e-05
9.89755e-05
0.000101582
0.00010031
0.00010121
0.000102503
0.000102498
0.000100984
0.000102435
9.86375e-05
9.56568e-05
9.15704e-05
8.99394e-05
9.05402e-05
9.27144e-05
9.79538e-05
0.000107105
0.00011946
0.000138171
0.00017935
0.000290261
0.000401578
0.000412384
0.000375319
0.000282669
0.000203269
0.000152531
0.000127168
0.000115061
0.000108301
0.000104078
0.000101401
9.95099e-05
9.79093e-05
9.63141e-05
9.48311e-05
9.3797e-05
9.3277e-05
9.3371e-05
9.41467e-05
9.56294e-05
9.76789e-05
9.74411e-05
9.89023e-05
9.88269e-05
0.000100217
0.000102248
0.000101085
0.00010203
0.000102991
0.000103045
0.000101131
0.000102797
9.86638e-05
9.54324e-05
9.13054e-05
8.99028e-05
9.05617e-05
9.27733e-05
9.78687e-05
0.000106659
0.000118237
0.000134418
0.000168373
0.000259744
0.000383725
0.000416357
0.000390993
0.000306444
0.000223854
0.000164989
0.00013337
0.000118319
0.000110258
0.000105379
0.000102166
0.000100062
9.84998e-05
9.69832e-05
9.54756e-05
9.42512e-05
9.35787e-05
9.34108e-05
9.41362e-05
9.56321e-05
9.72955e-05
9.72637e-05
9.87244e-05
9.85974e-05
0.000100123
0.000100044
0.000101086
0.000102941
0.000102033
0.000102927
0.000103493
0.00010364
0.000101312
0.000103188
9.86728e-05
9.51804e-05
9.10756e-05
8.9904e-05
9.06385e-05
9.29144e-05
9.79141e-05
0.000106266
0.000117197
0.000131284
0.000159491
0.000233045
0.000360547
0.000415863
0.00040229
0.000331539
0.000244572
0.000179432
0.000140817
0.000122164
0.000112699
0.000106927
0.000103227
0.000100721
9.90476e-05
9.76527e-05
9.61639e-05
9.47605e-05
9.39039e-05
9.36393e-05
9.41908e-05
9.574e-05
9.72709e-05
9.73705e-05
9.85959e-05
9.85996e-05
0.000100012
0.000100032
0.000101122
0.000101212
0.000102128
0.000103678
0.000103017
0.000103778
0.00010401
0.000104251
0.000101525
0.000103617
9.8659e-05
9.48966e-05
9.08678e-05
8.99601e-05
9.07527e-05
9.31541e-05
9.8065e-05
0.000106035
0.000116268
0.000128617
0.000152101
0.000211027
0.000333812
0.000412635
0.000409312
0.00035365
0.000265229
0.000195377
0.000149791
0.000126674
0.00011535
0.000108876
0.00010455
0.000101592
9.96603e-05
9.82688e-05
9.6887e-05
9.54564e-05
9.43252e-05
9.39923e-05
9.44653e-05
9.60593e-05
9.75716e-05
9.8078e-05
9.86752e-05
9.88668e-05
0.00010009
0.000100208
0.000101329
0.000101482
0.000102391
0.000102705
0.00010335
0.000104391
0.00010408
0.000104683
0.000104536
0.000104851
0.000101769
0.000104079
9.86303e-05
9.45892e-05
9.06953e-05
9.00439e-05
9.09256e-05
9.35641e-05
9.83782e-05
0.000105895
0.000115425
0.000126404
0.000146182
0.000193004
0.000305709
0.000404497
0.000412479
0.000374501
0.00028653
0.000211777
0.000160362
0.000132014
0.000118352
0.000110966
0.000106138
0.000102758
0.000100415
9.88699e-05
9.75102e-05
9.62016e-05
9.50195e-05
9.43916e-05
9.49239e-05
9.65663e-05
9.84559e-05
9.91096e-05
9.92951e-05
9.99398e-05
0.000100435
0.000100954
0.00010166
0.000101996
0.000102987
0.000103275
0.000103902
0.000104418
0.000104795
0.000105127
0.000105369
0.000105728
0.00010507
0.000105457
0.000102073
0.000104571
9.85984e-05
9.42881e-05
9.05797e-05
9.01609e-05
9.11209e-05
9.3995e-05
9.87434e-05
0.00010574
0.000114605
0.000124634
0.000141335
0.000179446
0.000277626
0.000389441
0.000415439
0.000389411
0.000305524
0.000229196
0.000172208
0.000138343
0.000121846
0.000113189
0.000107954
0.000104188
0.000101421
9.9581e-05
9.82527e-05
9.69577e-05
9.58035e-05
9.52507e-05
9.56468e-05
9.73875e-05
9.94339e-05
0.000100037
0.000100631
0.000101555
0.000101516
0.000102531
0.000102491
0.000103413
0.000103589
0.000104183
0.000104867
0.000105325
0.0001056
0.000106298
0.000106401
0.00010591
0.00010681
0.000106899
0.000105601
0.000106058
0.00010243
0.000105095
9.85531e-05
9.40254e-05
9.04946e-05
9.03278e-05
9.13318e-05
9.43989e-05
9.90939e-05
0.000105587
0.000113766
0.000123113
0.000137372
0.000168723
0.000250563
0.000369272
0.000415125
0.000400069
0.000327884
0.000246127
0.000185077
0.000145886
0.000125635
0.000115735
0.000109888
0.000105814
0.000102707
0.000100487
9.89974e-05
9.78906e-05
9.67267e-05
9.61609e-05
9.66545e-05
9.83309e-05
0.000100558
0.000101049
0.000102229
0.000103399
0.000103395
0.000104996
0.000104344
0.000106044
0.00010517
0.000106819
0.000105987
0.000107348
0.000106953
0.000108036
0.000107414
0.000108303
0.000108093
0.000106778
0.000108314
0.000108139
0.000106112
0.000106688
0.000102844
0.000105608
9.85883e-05
9.37933e-05
9.03757e-05
9.04563e-05
9.16066e-05
9.47856e-05
9.94679e-05
0.000105438
0.000112943
0.000121628
0.000134074
0.000159945
0.000226542
0.000344742
0.000412767
0.000407006
0.000348624
0.000263124
0.000198661
0.000154475
0.000130106
0.000118494
0.000112002
0.000107721
0.000104402
0.000101672
9.98279e-05
9.86353e-05
9.79617e-05
9.73568e-05
9.78249e-05
9.96073e-05
0.000102289
0.000101232
0.000104238
0.000105929
0.00010647
0.000109714
0.000108206
0.000112664
0.000109665
0.000115406
0.000110416
0.000117562
0.000110594
0.000117492
0.00011017
0.000115325
0.000109317
0.000112212
0.000109833
0.000107785
0.000109816
0.00010935
0.000106578
0.000107432
0.000103318
0.000106058
9.87756e-05
9.36168e-05
9.016e-05
9.04702e-05
9.1908e-05
9.5268e-05
9.98644e-05
0.000105296
0.000112097
0.000120106
0.000131219
0.000152643
0.000206212
0.000317903
0.000406515
0.000410929
0.000369304
0.000281753
0.000212193
0.000163791
0.000135508
0.000121532
0.000114367
0.000109847
0.000106357
0.000103243
0.000101071
9.96502e-05
9.89812e-05
9.88266e-05
9.95131e-05
0.000102645
0.000110793
0.000107729
0.000113399
0.000113042
0.00012012
0.000119208
0.000133941
0.000127307
0.000151998
0.00013471
0.000172637
0.000136627
0.000184972
0.000131315
0.000178602
0.000121829
0.000155445
0.000113924
0.000129519
0.000114801
0.00010868
0.000114598
0.000113229
0.000107131
0.000108051
0.000103783
0.000106587
9.91936e-05
9.36619e-05
8.97971e-05
9.03622e-05
9.21547e-05
9.58517e-05
0.000100233
0.000105206
0.00011112
0.000118565
0.000128704
0.000146595
0.000189549
0.000290979
0.000393464
0.000414204
0.000385337
0.000299338
0.000226951
0.000173777
0.000141473
0.000124949
0.000116915
0.000112188
0.000108511
0.00010518
0.000102534
0.000101036
9.99609e-05
9.99897e-05
0.000101385
0.000105479
0.000123671
0.000164135
0.000206735
0.000127803
0.000144184
0.000151194
0.00018802
0.000192415
0.000274355
0.000253111
0.000398203
0.000298239
0.000526034
0.00030279
0.00057895
0.000258903
0.000525277
0.00019054
0.000384992
0.000136827
0.000230954
0.000141053
0.000111358
0.000140462
0.000134219
0.000107498
0.000109646
0.000104301
0.000106845
0.00010135
9.46947e-05
8.93501e-05
9.00493e-05
9.22557e-05
9.63848e-05
0.000100596
0.000105112
0.000110153
0.000116958
0.000126405
0.000141552
0.000176643
0.000264852
0.000375012
0.000414503
0.000397115
0.000321383
0.000241515
0.000184948
0.000147914
0.000128852
0.000119587
0.000114681
0.000110926
0.00010757
0.000104534
0.000102456
0.000101349
0.000101032
0.000103248
0.000112795
0.000148291
0.000263881
0.000360016
0.000445754
0.00067834
0.000234067
0.000331421
0.00037776
0.00057476
0.000633123
0.000997645
0.000933519
0.00153453
0.00112024
0.00197612
0.00109298
0.00212372
0.000873536
0.00186934
0.000541062
0.0013098
0.000266496
0.000697459
0.000285707
0.000125433
0.000280613
0.000248716
0.000108294
0.000117114
0.000104781
0.000106898
0.000113686
9.87476e-05
8.9425e-05
8.94897e-05
9.21017e-05
9.65972e-05
0.000100761
0.000104953
0.000109309
0.000115333
0.000124195
0.000137278
0.00016616
0.000239883
0.000352763
0.000413097
0.00040546
0.000343257
0.000257197
0.000197
0.000155253
0.00013304
0.000122479
0.000117161
0.000113571
0.000110301
0.000107211
0.000104416
0.000102906
0.000102617
0.000106374
0.000133305
0.000273963
0.000598156
0.000500542
0.000949942
0.00142614
0.00171479
0.00230022
0.00084859
0.00124398
0.00148026
0.00209208
0.00229195
0.0031359
0.00304623
0.00416905
0.00346432
0.00487791
0.00340832
0.00508491
0.00282277
0.00473584
0.00175481
0.0037494
0.000817957
0.00214877
0.000867249
0.000203116
0.000829179
0.000702984
0.000111477
0.000157839
0.000105078
0.000107997
0.000138941
0.000112951
9.19484e-05
8.89882e-05
9.1466e-05
9.64492e-05
0.000100641
0.000104678
0.000108564
0.000113768
0.00012199
0.000133545
0.000157321
0.000217834
0.00032797
0.000408324
0.000410358
0.000366373
0.000276036
0.000208871
0.000164048
0.000137477
0.000125498
0.000119871
0.000116489
0.000113378
0.000110211
0.000107223
0.000104853
0.00010421
0.000111196
0.000178154
0.000587772
0.00238996
0.00190075
0.00307605
0.00294591
0.00370149
0.00417329
0.00483547
0.00277213
0.00347958
0.0039949
0.0048162
0.00521287
0.00611371
0.00615235
0.00717955
0.00659784
0.00782875
0.00653466
0.00801446
0.00588921
0.00771348
0.00449554
0.0067888
0.00239825
0.00503112
0.00244461
0.000523278
0.00228243
0.00193405
0.000126634
0.000331213
0.000105213
0.00011222
0.000151989
0.000101493
8.96532e-05
9.03264e-05
9.5654e-05
0.000100139
0.000104219
0.000107863
0.000112272
0.000119811
0.000130135
0.000149853
0.000198257
0.000301994
0.000397732
0.000414928
0.000384078
0.00029495
0.000222561
0.00017359
0.000142745
0.000128418
0.000122764
0.000119688
0.000117019
0.000113974
0.00011078
0.000107961
0.000106428
0.000117708
0.000245754
0.00102517
0.00387561
0.00574684
0.00654208
0.00445105
0.00528376
0.00545801
0.00605649
0.00656846
0.00691069
0.00552153
0.00610215
0.00684362
0.00738993
0.00795327
0.00851693
0.00875549
0.00939895
0.0091695
0.0100324
0.00919949
0.0103616
0.00871843
0.0102963
0.00748806
0.0096235
0.00532395
0.00804041
0.00533319
0.00143996
0.00500735
0.0043563
0.000189322
0.000877837
0.000105638
0.000123648
0.000127162
9.50325e-05
9.03382e-05
9.38401e-05
9.88372e-05
0.000103452
0.000107162
0.000110959
0.000117597
0.000126971
0.000143454
0.000182678
0.000276324
0.000380999
0.000417011
0.000397906
0.000319165
0.000236931
0.00018378
0.000149007
0.000131369
0.000125733
0.000122978
0.000120922
0.000118838
0.000115503
0.000112135
0.000110506
0.000129546
0.00032757
0.00156162
0.00512247
0.00759656
0.00716314
0.00757497
0.00652993
0.00692618
0.00715885
0.00732982
0.00801179
0.00798933
0.00773849
0.00794326
0.00886346
0.0090174
0.00980604
0.0100226
0.0106234
0.0109715
0.011251
0.0118835
0.0115773
0.0125398
0.0114087
0.0128055
0.0104549
0.0124658
0.00840514
0.0111745
0.0084918
0.00339091
0.00823536
0.00779672
0.00562854
0.00038531
0.00217145
0.000106705
0.00014136
0.000109401
9.46902e-05
9.3075e-05
9.69715e-05
0.000101873
0.000106236
0.000109747
0.000115673
0.000123926
0.000137886
0.000170113
0.00025092
0.000359976
0.00041617
0.000408071
0.000344178
0.000254326
0.000194397
0.000156232
0.000135169
0.000128645
0.000126317
0.000125099
0.000124098
0.000121625
0.00011777
0.000117833
0.000153627
0.000467047
0.00220644
0.00621671
0.00796323
0.00776204
0.00795323
0.00760095
0.00767533
0.00744366
0.00751412
0.00793189
0.00784193
0.00871244
0.00849856
0.0089937
0.00890201
0.010014
0.00993217
0.0111145
0.0110778
0.0122613
0.0124053
0.0132271
0.0136682
0.0138102
0.0144997
0.0139425
0.014842
0.0133626
0.0148043
0.0116404
0.0138968
0.0127917
0.0100795
0.0118139
0.00724404
0.00438926
0.00670834
0.00961678
0.0116454
0.0116802
0.00932583
0.000371274
0.0011694
0.00588327
0.0050966
0.00274063
0.000110245
0.0006745
0.000151915
0.000377691
0.000109848
9.65459e-05
9.64118e-05
0.000100278
0.000104783
0.000108462
0.000113885
0.00012122
0.000133005
0.000159672
0.000226855
0.000335884
0.000412244
0.000413955
0.000369884
0.00027531
0.000206285
0.00016426
0.000139779
0.000131386
0.000129567
0.000129818
0.000130457
0.000129146
0.000126585
0.00013032
0.000205064
0.000720461
0.00307578
0.00699129
0.00838312
0.00817185
0.00836555
0.00821044
0.00860691
0.00779697
0.00793839
0.00777109
0.00775948
0.00831534
0.00820622
0.00923802
0.00901523
0.00974494
0.0094989
0.0109573
0.0107367
0.0123687
0.0122494
0.0138839
0.0138743
0.0150153
0.0154129
0.015412
0.0160572
0.0150271
0.0153333
0.0155794
0.0158398
0.0146171
0.0152295
0.0155266
0.0157991
0.015533
0.014031
0.0131055
0.0143649
0.0149031
0.013215
0.00881627
0.00813421
0.0112854
0.0130518
0.0132148
0.0108933
0.001942
0.00733746
0.00637729
0.00401475
0.000109855
0.000138803
0.000209224
0.00116651
0.000617855
0.000112622
9.92319e-05
9.99413e-05
0.000103611
0.000107112
0.000112142
0.000118821
0.000129108
0.000150727
0.000205729
0.000309927
0.000402884
0.000419704
0.000389285
0.000297664
0.000221219
0.000173234
0.000144867
0.000133997
0.000132467
0.000134247
0.000137636
0.000138872
0.000139286
0.000156592
0.000311092
0.00122699
0.00419554
0.00757411
0.00867042
0.00926281
0.00894508
0.00963468
0.0093893
0.00998094
0.00848048
0.00888729
0.00820342
0.00827048
0.00890355
0.00890863
0.00991889
0.00976039
0.0104418
0.0101803
0.0119906
0.0116725
0.0137731
0.0135325
0.0156683
0.0157783
0.0168448
0.0176775
0.0162141
0.0167034
0.0172615
0.0179812
0.0158073
0.0161139
0.01654
0.0154683
0.0157753
0.0160116
0.0161453
0.0159532
0.0151741
0.0144401
0.0153335
0.0157097
0.0145221
0.0103411
0.00963023
0.0127792
0.0145053
0.0143714
0.0123737
0.00295382
0.00877097
0.00773782
0.00527675
0.000115916
0.000164127
0.00030841
0.00189267
0.00100402
0.000115051
0.000101998
0.000103494
0.000106332
0.000110631
0.000116717
0.000125833
0.000143553
0.000187136
0.000283351
0.000385665
0.000422047
0.000404298
0.000325746
0.000238685
0.000183933
0.000150863
0.000137159
0.000135055
0.000138204
0.000144271
0.000149738
0.000155618
0.000206542
0.000541027
0.00203113
0.00546448
0.00800551
0.00873517
0.00991419
0.0114474
0.0117519
0.0105679
0.0110802
0.0112063
0.011811
0.00978665
0.0104782
0.00899759
0.00925203
0.00976244
0.0098572
0.0106628
0.0105832
0.0112877
0.0109559
0.0131055
0.0125965
0.0157205
0.0154809
0.0183332
0.0187878
0.0185826
0.019174
0.0194215
0.0197671
0.0170938
0.0177886
0.018511
0.0190902
0.0163281
0.0167815
0.0173913
0.0159576
0.0160864
0.0164474
0.0165122
0.0162355
0.0158895
0.0154696
0.0160412
0.0161158
0.0155521
0.0118055
0.0110713
0.0141258
0.0155611
0.015477
0.0137287
0.00406571
0.0101642
0.00907208
0.00655034
0.000123281
0.000447806
0.000197031
0.00275969
0.00150457
0.000116481
0.000105005
0.000106391
0.000109763
0.000115095
0.000123041
0.000137959
0.000172689
0.000257365
0.000363145
0.000420932
0.000414673
0.00035435
0.000260248
0.000196548
0.000157827
0.000140642
0.000138204
0.000141475
0.000150759
0.000159645
0.000174274
0.000280454
0.000925292
0.0032653
0.00677564
0.00835651
0.00885476
0.010323
0.0123446
0.012381
0.0125164
0.0121492
0.0123223
0.0125426
0.0127234
0.0114161
0.0121162
0.010122
0.0106695
0.0106415
0.0108395
0.0112948
0.0112405
0.012076
0.0116406
0.0149095
0.014143
0.0188514
0.0186274
0.0198683
0.0200521
0.0201315
0.0202951
0.0194302
0.0196567
0.0197848
0.0198864
0.0181194
0.0187592
0.0191412
0.0193924
0.0169156
0.0175521
0.0182517
0.0161952
0.0162989
0.0169743
0.0169753
0.0165371
0.0162558
0.0161722
0.0163887
0.0162986
0.0162731
0.0131617
0.012414
0.0152735
0.0163246
0.0163012
0.0149136
0.0052075
0.0114782
0.0103517
0.00780933
0.000125408
0.000616555
0.000220771
0.0036847
0.00206277
0.000117213
0.000107686
0.000109795
0.000114074
0.000120844
0.000133805
0.000161517
0.000232881
0.000337623
0.000415639
0.000420887
0.000381261
0.000285443
0.000211726
0.000166853
0.000145146
0.000140935
0.000145191
0.000156553
0.000168366
0.000191462
0.000365949
0.00140166
0.00462562
0.00782473
0.00867583
0.00902392
0.0107075
0.0124413
0.0118769
0.0119757
0.0123907
0.0121392
0.0127066
0.0125835
0.0129428
0.0127163
0.0125193
0.0129057
0.0112944
0.0119437
0.0113265
0.011579
0.0119665
0.0117289
0.0133123
0.0125567
0.0179693
0.016828
0.0203297
0.0201387
0.0199361
0.0200186
0.020105
0.0202233
0.0194266
0.019273
0.019034
0.0188302
0.0187297
0.0190216
0.0190213
0.0186507
0.0176021
0.0182128
0.0185896
0.0163446
0.0165322
0.0175707
0.0174747
0.016927
0.0163897
0.0165201
0.0165037
0.0163877
0.0166434
0.0143736
0.0136379
0.0161649
0.0167387
0.0167791
0.0158742
0.0063446
0.0126992
0.0115676
0.00903099
0.000120901
0.000790398
0.000223772
0.0046117
0.00261438
0.000117779
0.000110772
0.000113985
0.000119404
0.000130641
0.000153093
0.000211161
0.000311333
0.00040253
0.000425139
0.000401048
0.000313707
0.000231184
0.000178032
0.000151225
0.000144891
0.000147471
0.000161398
0.000176947
0.000206016
0.000432379
0.00187798
0.0059275
0.00863131
0.0088918
0.00922165
0.0111074
0.0127645
0.0102565
0.00934729
0.00847679
0.0105027
0.00983935
0.0120756
0.0112602
0.012216
0.010943
0.012881
0.0127907
0.0120685
0.012593
0.0117641
0.0119564
0.0129912
0.0122586
0.0154877
0.0141358
0.0196871
0.0188095
0.01922
0.019432
0.019657
0.0196185
0.0187344
0.0187605
0.0188961
0.0190249
0.0180645
0.0174381
0.016919
0.0166189
0.018703
0.0183635
0.0176003
0.0165995
0.0180898
0.0183685
0.0182964
0.0165052
0.0168471
0.017942
0.017787
0.0173521
0.0164342
0.0166286
0.016491
0.0164698
0.0167612
0.0153949
0.0147087
0.0167207
0.0168826
0.0169574
0.0165309
0.00745788
0.0138239
0.0127216
0.0102085
0.000110422
0.000912041
0.00019624
0.00551117
0.00310099
0.000118843
0.000114631
0.000119021
0.000128224
0.00014661
0.000193007
0.000284635
0.000381832
0.000424908
0.000414296
0.00034611
0.000255403
0.000192315
0.000158485
0.000149961
0.000150829
0.000163977
0.000185553
0.000219075
0.00047352
0.00220844
0.00700845
0.00925671
0.00906008
0.00946241
0.0115248
0.0130303
0.00975982
0.00368184
0.00337027
0.00496165
0.00424488
0.00665659
0.00566165
0.00944013
0.00794536
0.00973647
0.00747286
0.0122709
0.0114606
0.0123114
0.0124576
0.0119531
0.0118835
0.0141729
0.0128384
0.01751
0.0158377
0.0196534
0.0194576
0.0189358
0.0176592
0.0181076
0.0187997
0.0185037
0.0165349
0.0166261
0.0168953
0.0172481
0.0155858
0.0147729
0.0142962
0.0141311
0.0176837
0.0166265
0.0153155
0.0140216
0.0181283
0.0179215
0.0171608
0.0167548
0.0172201
0.0179253
0.0177803
0.0176534
0.0164467
0.0165697
0.0164266
0.0166338
0.0166789
0.0161665
0.0156058
0.0169485
0.016801
0.0169012
0.0168511
0.00853587
0.0148313
0.0138125
0.0113488
0.000107258
0.000944687
0.000168204
0.0063638
0.00346358
0.000121038
0.000119283
0.000127033
0.000142032
0.000179069
0.000260282
0.000357416
0.000421038
0.000421691
0.000377114
0.000284215
0.000210215
0.000168032
0.000155544
0.000155325
0.000167251
0.000192354
0.00023148
0.000483408
0.0023314
0.00774062
0.00978868
0.00919723
0.00980524
0.0120379
0.0130569
0.00866801
0.00192813
0.00113672
0.000811953
0.0015714
0.00130642
0.00248667
0.00191224
0.00519326
0.00348472
0.00642842
0.00403699
0.0106832
0.00889365
0.0118365
0.0115505
0.0120182
0.0113221
0.0148616
0.0132416
0.0179244
0.0165193
0.0189527
0.0190165
0.0179593
0.0177723
0.0157647
0.0163333
0.0173599
0.016885
0.0141303
0.0143605
0.0147532
0.0152327
0.0129625
0.0123766
0.0121458
0.0120853
0.0159479
0.0145063
0.0131047
0.0120435
0.0176807
0.0168911
0.0156635
0.0170693
0.0175265
0.0175787
0.0175848
0.0176855
0.0165011
0.0164142
0.0163842
0.0168753
0.0164192
0.016633
0.0162693
0.0169455
0.0164588
0.0165359
0.0169305
0.0095847
0.0157008
0.0148541
0.01247
0.000125369
0.000831973
0.000263869
0.00714858
0.00363752
0.000124282
0.000126666
0.000139897
0.000167856
0.000238507
0.000332579
0.000409842
0.000425878
0.000400381
0.00031448
0.000231728
0.000180642
0.000162915
0.000160083
0.000172232
0.00019962
0.000241565
0.000473763
0.00231606
0.00806961
0.0102678
0.00936869
0.010145
0.0123355
0.0129744
0.00752302
0.00180918
0.000414873
0.000429642
0.000439983
0.000391447
0.000550362
0.000478408
0.000908578
0.000671835
0.00234691
0.00138875
0.00420152
0.00252036
0.00848688
0.00641454
0.010774
0.00992854
0.0119285
0.0106692
0.0149093
0.0134695
0.0175582
0.0170438
0.0162048
0.017707
0.0178926
0.0167271
0.0168477
0.0137679
0.0143426
0.0155044
0.0149353
0.0121394
0.0124046
0.0127902
0.0132551
0.0114416
0.0111548
0.0110236
0.0109822
0.0142254
0.0128944
0.0119024
0.0112749
0.016871
0.0157445
0.0144254
0.0173836
0.0176552
0.0170375
0.0173322
0.0176532
0.0166468
0.0162575
0.016381
0.0171496
0.0160904
0.0168403
0.0166943
0.0166643
0.0159124
0.0159336
0.0168136
0.0106149
0.0164169
0.0158268
0.0135744
0.000224613
0.000891162
0.000695774
0.00784132
0.00378297
0.00013013
0.000138753
0.000161375
0.000219446
0.000309074
0.00039006
0.000425938
0.000415027
0.000348033
0.000259594
0.000196642
0.000173649
0.000166835
0.000177313
0.000209038
0.000253
0.000434885
0.0021727
0.0080779
0.010699
0.00958299
0.0104171
0.0125073
0.0127434
0.00649504
0.00160676
0.000375557
0.000314412
0.000299169
0.000333592
0.000319879
0.000390852
0.000353351
0.000623268
0.000466633
0.00150249
0.000929819
0.0033901
0.00223958
0.00672935
0.00496111
0.00952071
0.00828089
0.0119636
0.0104324
0.014781
0.0141712
0.0133047
0.0168448
0.0166756
0.0151411
0.0155177
0.016011
0.0164349
0.0150297
0.01539
0.0119004
0.0123442
0.0134426
0.0128647
0.0109916
0.0110976
0.011281
0.0115406
0.0109398
0.0107686
0.010678
0.0106395
0.0132155
0.0122532
0.0115705
0.011152
0.016127
0.0150102
0.0138978
0.0176231
0.0177335
0.0166688
0.0172636
0.0176548
0.0168293
0.0160578
0.0163696
0.0174061
0.0156637
0.016922
0.016997
0.0161628
0.015307
0.0152587
0.0164911
0.0116268
0.0170244
0.0166995
0.0146585
0.000400083
0.00136614
0.00139392
0.00846044
0.00418757
0.000141405
0.00015741
0.000205564
0.000285296
0.00037088