/*--------------------------------*- C++ -*----------------------------------*\
  =========                 |
  \\      /  F ield         | OpenFOAM: The Open Source CFD Toolbox
   \\    /   O peration     | Website:  https://openfoam.org
    \\  /    A nd           | Version:  dev
     \\/     M anipulation  |
\*---------------------------------------------------------------------------*/
FoamFile
{
    version     2.0;
    format      ascii;
    class       volScalarField;
    location    "2500";
    object      N2;
}
// * * * * * * * * * * * * * * * * * * * * * * * * * * * * * * * * * * * * * //

dimensions      [0 0 0 0 0 0 0];

internalField   nonuniform List<scalar> 
9838
(
0.76699
0.76699
0.76699
0.76699
0.76699
0.76699
0.76699
0.76699
0.76699
0.76699
0.76699
0.76699
0.76699
0.76699
0.76699
0.76699
0.76699
0.76699
0.76699
0.76699
0.76699
0.76699
0.76699
0.76699
0.76699
0.76699
0.76699
0.76699
0.76699
0.76699
0.76699
0.76699
0.76699
0.76699
0.76699
0.76699
0.76699
0.76699
0.76699
0.76699
0.76699
0.76699
0.76699
0.76699
0.76699
0.76699
0.76699
0.76699
0.76699
0.76699
0.76699
0.76699
0.76699
0.76699
0.76699
0.76699
0.76699
0.76699
0.76699
0.76699
0.76699
0.76699
0.76699
0.76699
0.76699
0.76699
0.76699
0.76699
0.76699
0.76699
0.76699
0.76699
0.76699
0.76699
0.76699
0.76699
0.76699
0.76699
0.76699
0.76699
0.76699
0.76699
0.76699
0.76699
0.76699
0.76699
0.76699
0.76699
0.76699
0.76699
0.76699
0.76699
0.76699
0.76699
0.76699
0.76699
0.76699
0.76699
0.76699
0.76699
0.76699
0.76699
0.76699
0.76699
0.76699
0.76699
0.76699
0.76699
0.76699
0.76699
0.76699
0.76699
0.76699
0.76699
0.76699
0.76699
0.76699
0.76699
0.76699
0.76699
0.76699
0.76699
0.76699
0.76699
0.76699
0.76699
0.76699
0.76699
0.76699
0.76699
0.76699
0.76699
0.76699
0.76699
0.76699
0.76699
0.76699
0.76699
0.76699
0.76699
0.76699
0.76699
0.76699
0.76699
0.76699
0.76699
0.76699
0.76699
0.76699
0.76699
0.76699
0.76699
0.76699
0.76699
0.76699
0.76699
0.76699
0.76699
0.76699
0.76699
0.76699
0.76699
0.76699
0.76699
0.76699
0.76699
0.76699
0.76699
0.76699
0.76699
0.76699
0.76699
0.76699
0.76699
0.76699
0.76699
0.76699
0.76699
0.76699
0.76699
0.76699
0.76699
0.76699
0.76699
0.76699
0.76699
0.76699
0.76699
0.76699
0.76699
0.76699
0.76699
0.76699
0.76699
0.76699
0.76699
0.76699
0.76699
0.76699
0.76699
0.76699
0.76699
0.76699
0.76699
0.76699
0.76699
0.76699
0.76699
0.76699
0.76699
0.76699
0.76699
0.76699
0.76699
0.76699
0.76699
0.76699
0.76699
0.76699
0.76699
0.76699
0.76699
0.76699
0.76699
0.76699
0.76699
0.76699
0.76699
0.76699
0.76699
0.76699
0.76699
0.76699
0.76699
0.76699
0.76699
0.76699
0.76699
0.76699
0.76699
0.76699
0.76699
0.76699
0.76699
0.76699
0.76699
0.76699
0.76699
0.76699
0.76699
0.76699
0.76699
0.76699
0.76699
0.76699
0.76699
0.76699
0.76699
0.76699
0.76699
0.76699
0.76699
0.76699
0.76699
0.76699
0.76699
0.76699
0.76699
0.76699
0.76699
0.76699
0.76699
0.76699
0.76699
0.76699
0.76699
0.76699
0.76699
0.76699
0.76699
0.76699
0.76699
0.76699
0.76699
0.76699
0.76699
0.76699
0.76699
0.76699
0.76699
0.76699
0.76699
0.76699
0.76699
0.76699
0.76699
0.76699
0.76699
0.76699
0.76699
0.76699
0.76699
0.76699
0.76699
0.76699
0.76699
0.76699
0.76699
0.76699
0.76699
0.76699
0.76699
0.76699
0.76699
0.76699
0.76699
0.76699
0.76699
0.76699
0.76699
0.76699
0.76699
0.76699
0.76699
0.76699
0.76699
0.76699
0.76699
0.76699
0.76699
0.76699
0.76699
0.76699
0.76699
0.76699
0.76699
0.76699
0.76699
0.76699
0.76699
0.76699
0.76699
0.76699
0.76699
0.76699
0.76699
0.76699
0.76699
0.76699
0.76699
0.76699
0.76699
0.76699
0.76699
0.76699
0.76699
0.76699
0.76699
0.76699
0.76699
0.76699
0.76699
0.76699
0.76699
0.76699
0.76699
0.76699
0.76699
0.76699
0.76699
0.76699
0.76699
0.76699
0.76699
0.76699
0.76699
0.76699
0.76699
0.76699
0.76699
0.76699
0.76699
0.76699
0.76699
0.76699
0.76699
0.76699
0.76699
0.76699
0.76699
0.76699
0.76699
0.76699
0.76699
0.76699
0.76699
0.76699
0.76699
0.76699
0.76699
0.76699
0.76699
0.76699
0.76699
0.76699
0.76699
0.76699
0.76699
0.76699
0.76699
0.76699
0.76699
0.76699
0.76699
0.76699
0.76699
0.76699
0.76699
0.76699
0.76699
0.76699
0.76699
0.76699
0.76699
0.76699
0.76699
0.76699
0.76699
0.76699
0.76699
0.76699
0.76699
0.76699
0.76699
0.76699
0.76699
0.76699
0.76699
0.76699
0.76699
0.76699
0.76699
0.76699
0.76699
0.76699
0.76699
0.76699
0.76699
0.76699
0.76699
0.76699
0.76699
0.76699
0.76699
0.76699
0.76699
0.76699
0.76699
0.76699
0.76699
0.76699
0.76699
0.76699
0.76699
0.76699
0.76699
0.76699
0.76699
0.76699
0.76699
0.76699
0.76699
0.76699
0.76699
0.76699
0.76699
0.76699
0.76699
0.76699
0.76699
0.76699
0.76699
0.76699
0.76699
0.76699
0.76699
0.76699
0.76699
0.76699
0.76699
0.76699
0.76699
0.76699
0.76699
0.76699
0.76699
0.76699
0.76699
0.76699
0.76699
0.76699
0.76699
0.76699
0.76699
0.76699
0.76699
0.76699
0.76699
0.76699
0.76699
0.76699
0.76699
0.76699
0.76699
0.76699
0.76699
0.76699
0.76699
0.76699
0.76699
0.76699
0.76699
0.76699
0.76699
0.76699
0.76699
0.76699
0.76699
0.76699
0.76699
0.76699
0.76699
0.76699
0.76699
0.76699
0.76699
0.76699
0.76699
0.76699
0.76699
0.76699
0.76699
0.76699
0.76699
0.76699
0.76699
0.76699
0.76699
0.76699
0.76699
0.76699
0.76699
0.76699
0.76699
0.76699
0.76699
0.76699
0.76699
0.76699
0.76699
0.76699
0.76699
0.76699
0.76699
0.76699
0.76699
0.76699
0.76699
0.76699
0.76699
0.76699
0.76699
0.76699
0.76699
0.76699
0.76699
0.76699
0.76699
0.76699
0.76699
0.76699
0.76699
0.76699
0.76699
0.76699
0.76699
0.76699
0.76699
0.76699
0.76699
0.76699
0.76699
0.76699
0.76699
0.76699
0.76699
0.76699
0.76699
0.76699
0.76699
0.76699
0.76699
0.76699
0.76699
0.76699
0.76699
0.76699
0.76699
0.76699
0.76699
0.76699
0.76699
0.76699
0.76699
0.76699
0.76699
0.76699
0.76699
0.76699
0.76699
0.76699
0.76699
0.76699
0.76699
0.76699
0.76699
0.76699
0.76699
0.76699
0.76699
0.76699
0.76699
0.76699
0.76699
0.76699
0.76699
0.76699
0.76699
0.76699
0.76699
0.76699
0.76699
0.76699
0.76699
0.76699
0.76699
0.76699
0.76699
0.76699
0.76699
0.76699
0.76699
0.76699
0.76699
0.76699
0.76699
0.76699
0.76699
0.76699
0.76699
0.76699
0.76699
0.76699
0.76699
0.76699
0.76699
0.76699
0.76699
0.76699
0.76699
0.76699
0.76699
0.76699
0.76699
0.76699
0.76699
0.76699
0.76699
0.76699
0.76699
0.76699
0.76699
0.76699
0.76699
0.76699
0.76699
0.76699
0.76699
0.76699
0.76699
0.76699
0.76699
0.76699
0.76699
0.76699
0.76699
0.76699
0.76699
0.76699
0.76699
0.76699
0.76699
0.76699
0.76699
0.76699
0.76699
0.76699
0.76699
0.76699
0.76699
0.76699
0.76699
0.76699
0.76699
0.76699
0.76699
0.76699
0.76699
0.76699
0.76699
0.76699
0.76699
0.76699
0.76699
0.76699
0.76699
0.76699
0.76699
0.76699
0.76699
0.76699
0.76699
0.76699
0.76699
0.76699
0.76699
0.76699
0.76699
0.76699
0.76699
0.76699
0.76699
0.76699
0.76699
0.76699
0.76699
0.76699
0.76699
0.76699
0.76699
0.76699
0.76699
0.76699
0.76699
0.76699
0.76699
0.76699
0.76699
0.76699
0.76699
0.76699
0.76699
0.76699
0.76699
0.76699
0.76699
0.76699
0.76699
0.76699
0.76699
0.76699
0.76699
0.76699
0.76699
0.76699
0.76699
0.76699
0.76699
0.76699
0.76699
0.76699
0.76699
0.76699
0.76699
0.76699
0.76699
0.76699
0.76699
0.76699
0.76699
0.76699
0.76699
0.76699
0.76699
0.76699
0.76699
0.76699
0.76699
0.76699
0.76699
0.76699
0.76699
0.76699
0.76699
0.76699
0.76699
0.76699
0.76699
0.76699
0.76699
0.76699
0.76699
0.76699
0.76699
0.76699
0.76699
0.76699
0.76699
0.76699
0.76699
0.76699
0.76699
0.76699
0.76699
0.76699
0.76699
0.76699
0.76699
0.76699
0.76699
0.76699
0.76699
0.76699
0.76699
0.76699
0.76699
0.76699
0.76699
0.76699
0.76699
0.76699
0.76699
0.76699
0.76699
0.76699
0.76699
0.76699
0.76699
0.76699
0.76699
0.76699
0.76699
0.76699
0.76699
0.76699
0.76699
0.76699
0.76699
0.76699
0.76699
0.76699
0.76699
0.76699
0.76699
0.76699
0.76699
0.76699
0.76699
0.76699
0.76699
0.76699
0.76699
0.76699
0.76699
0.76699
0.76699
0.76699
0.76699
0.76699
0.76699
0.76699
0.76699
0.76699
0.76699
0.76699
0.76699
0.76699
0.76699
0.76699
0.76699
0.76699
0.76699
0.76699
0.76699
0.76699
0.76699
0.76699
0.76699
0.76699
0.76699
0.76699
0.76699
0.76699
0.76699
0.76699
0.76699
0.76699
0.76699
0.76699
0.76699
0.76699
0.76699
0.76699
0.76699
0.76699
0.76699
0.76699
0.76699
0.76699
0.76699
0.76699
0.76699
0.76699
0.76699
0.76699
0.76699
0.76699
0.76699
0.76699
0.76699
0.76699
0.76699
0.76699
0.76699
0.76699
0.76699
0.76699
0.76699
0.76699
0.76699
0.76699
0.76699
0.76699
0.76699
0.76699
0.76699
0.76699
0.76699
0.76699
0.76699
0.76699
0.76699
0.76699
0.76699
0.76699
0.76699
0.76699
0.76699
0.76699
0.76699
0.76699
0.76699
0.76699
0.76699
0.76699
0.76699
0.76699
0.76699
0.76699
0.76699
0.76699
0.76699
0.76699
0.76699
0.76699
0.76699
0.76699
0.76699
0.76699
0.76699
0.76699
0.76699
0.76699
0.76699
0.76699
0.76699
0.76699
0.76699
0.76699
0.76699
0.76699
0.76699
0.76699
0.76699
0.76699
0.76699
0.76699
0.76699
0.76699
0.76699
0.76699
0.76699
0.76699
0.76699
0.76699
0.76699
0.76699
0.76699
0.76699
0.76699
0.76699
0.76699
0.76699
0.76699
0.76699
0.76699
0.76699
0.76699
0.76699
0.76699
0.76699
0.76699
0.76699
0.76699
0.76699
0.76699
0.76699
0.76699
0.76699
0.76699
0.76699
0.76699
0.76699
0.76699
0.76699
0.76699
0.76699
0.76699
0.76699
0.76699
0.76699
0.76699
0.76699
0.76699
0.76699
0.76699
0.76699
0.76699
0.76699
0.76699
0.76699
0.76699
0.76699
0.76699
0.76699
0.76699
0.76699
0.76699
0.76699
0.76699
0.76699
0.76699
0.76699
0.76699
0.76699
0.76699
0.76699
0.76699
0.76699
0.76699
0.76699
0.76699
0.76699
0.76699
0.76699
0.76699
0.76699
0.76699
0.76699
0.76699
0.76699
0.76699
0.76699
0.76699
0.76699
0.76699
0.76699
0.76699
0.76699
0.76699
0.76699
0.76699
0.76699
0.76699
0.76699
0.76699
0.76699
0.76699
0.76699
0.76699
0.76699
0.76699
0.76699
0.76699
0.76699
0.76699
0.76699
0.766989
0.76699
0.766989
0.76699
0.766989
0.76699
0.766989
0.76699
0.76699
0.76699
0.76699
0.76699
0.76699
0.76699
0.76699
0.76699
0.76699
0.76699
0.76699
0.76699
0.76699
0.76699
0.76699
0.76699
0.76699
0.76699
0.76699
0.76699
0.76699
0.76699
0.76699
0.76699
0.76699
0.76699
0.76699
0.76699
0.76699
0.76699
0.76699
0.76699
0.76699
0.76699
0.76699
0.76699
0.76699
0.76699
0.76699
0.76699
0.76699
0.766989
0.76699
0.766989
0.76699
0.766989
0.766989
0.766988
0.766989
0.766987
0.766988
0.766985
0.766988
0.766984
0.766988
0.766985
0.766989
0.766986
0.76699
0.766988
0.76699
0.76699
0.76699
0.76699
0.76699
0.76699
0.76699
0.76699
0.76699
0.76699
0.76699
0.76699
0.76699
0.76699
0.76699
0.76699
0.76699
0.76699
0.76699
0.76699
0.76699
0.76699
0.76699
0.76699
0.76699
0.76699
0.76699
0.76699
0.76699
0.76699
0.76699
0.76699
0.76699
0.76699
0.76699
0.76699
0.76699
0.76699
0.76699
0.76699
0.766989
0.766986
0.766983
0.766988
0.766987
0.766987
0.766984
0.766984
0.766979
0.76698
0.76697
0.766977
0.766961
0.766975
0.766955
0.766978
0.766957
0.766983
0.766967
0.766988
0.766979
0.766987
0.76699
0.766987
0.766987
0.76699
0.76699
0.76699
0.76699
0.76699
0.76699
0.76699
0.76699
0.76699
0.76699
0.76699
0.76699
0.76699
0.76699
0.76699
0.76699
0.76699
0.76699
0.76699
0.76699
0.76699
0.76699
0.76699
0.76699
0.76699
0.76699
0.76699
0.76699
0.76699
0.76699
0.76699
0.76699
0.76699
0.76699
0.76699
0.766989
0.766987
0.766979
0.766973
0.766967
0.766953
0.766981
0.766975
0.766972
0.766959
0.766955
0.766932
0.766934
0.766895
0.766916
0.766857
0.766913
0.766835
0.766926
0.766843
0.766951
0.766883
0.766975
0.766934
0.766972
0.766988
0.766972
0.766975
0.76699
0.766989
0.76699
0.76699
0.76699
0.76699
0.76699
0.76699
0.76699
0.76699
0.76699
0.76699
0.76699
0.76699
0.76699
0.76699
0.76699
0.76699
0.76699
0.76699
0.76699
0.76699
0.76699
0.76699
0.76699
0.76699
0.76699
0.76699
0.76699
0.76699
0.76699
0.76699
0.76699
0.76699
0.76699
0.766988
0.76698
0.76696
0.766965
0.766936
0.766909
0.766889
0.766854
0.766942
0.766918
0.766903
0.766865
0.766846
0.766792
0.766783
0.766703
0.766732
0.766619
0.766714
0.766566
0.766746
0.766565
0.766832
0.766638
0.766919
0.766782
0.76691
0.766979
0.76691
0.766922
0.76699
0.766984
0.76699
0.76699
0.76699
0.76699
0.76699
0.76699
0.76699
0.76699
0.76699
0.76699
0.76699
0.76699
0.76699
0.76699
0.76699
0.76699
0.76699
0.76699
0.76699
0.76699
0.76699
0.76699
0.76699
0.76699
0.76699
0.76699
0.76699
0.76699
0.76699
0.76699
0.76699
0.76699
0.76699
0.766986
0.766964
0.766858
0.766883
0.766818
0.766814
0.766766
0.766727
0.766675
0.766822
0.766776
0.766734
0.766675
0.766624
0.766549
0.766508
0.766405
0.766415
0.766272
0.766372
0.766185
0.766404
0.76617
0.766532
0.766252
0.766744
0.766443
0.766727
0.766942
0.766736
0.766773
0.766988
0.766964
0.76699
0.766989
0.76699
0.76699
0.76699
0.76699
0.76699
0.76699
0.76699
0.76699
0.76699
0.76699
0.76699
0.76699
0.76699
0.76699
0.76699
0.76699
0.76699
0.76699
0.76699
0.76699
0.76699
0.76699
0.76699
0.76699
0.76699
0.76699
0.76699
0.76699
0.76699
0.766989
0.766983
0.766941
0.76678
0.766604
0.766589
0.766715
0.766665
0.766622
0.766563
0.766503
0.766447
0.766616
0.766559
0.766478
0.766412
0.766313
0.766232
0.766144
0.766034
0.766012
0.765857
0.765948
0.765745
0.765978
0.765723
0.766123
0.765814
0.766385
0.766027
0.766368
0.766831
0.766397
0.766475
0.76698
0.766899
0.76699
0.766988
0.76699
0.76699
0.76699
0.76699
0.76699
0.76699
0.76699
0.76699
0.76699
0.76699
0.76699
0.76699
0.76699
0.76699
0.76699
0.76699
0.76699
0.76699
0.76699
0.76699
0.76699
0.76699
0.76699
0.76699
0.76699
0.76699
0.76699
0.76699
0.766989
0.766979
0.766917
0.766714
0.766355
0.7664
0.766303
0.766506
0.766445
0.76639
0.766329
0.76624
0.766186
0.766351
0.766294
0.766159
0.766097
0.76594
0.765862
0.765724
0.765614
0.765562
0.765404
0.76549
0.76528
0.765524
0.765261
0.765686
0.765366
0.765972
0.765598
0.765966
0.766593
0.766006
0.766076
0.76633
0.766958
0.766745
0.76699
0.766986
0.76699
0.76699
0.76699
0.76699
0.76699
0.76699
0.76699
0.76699
0.76699
0.76699
0.76699
0.76699
0.76699
0.76699
0.76699
0.76699
0.76699
0.76699
0.76699
0.76699
0.76699
0.76699
0.76699
0.76699
0.76699
0.76699
0.76699
0.766988
0.766973
0.766889
0.766649
0.766282
0.76605
0.766006
0.766156
0.7661
0.76627
0.766211
0.766133
0.766075
0.765949
0.765906
0.766043
0.765994
0.765797
0.765747
0.765527
0.76546
0.765271
0.76517
0.765089
0.764941
0.765028
0.764813
0.76507
0.764812
0.765251
0.764924
0.76556
0.765185
0.765379
0.765782
0.76556
0.766145
0.766483
0.766213
0.765863
0.765614
0.765591
0.765904
0.76696
0.766867
0.766314
0.76641
0.766682
0.766989
0.766926
0.766985
0.766961
0.76699
0.76699
0.76699
0.76699
0.76699
0.76699
0.76699
0.76699
0.76699
0.76699
0.76699
0.76699
0.76699
0.76699
0.76699
0.76699
0.76699
0.76699
0.76699
0.76699
0.76699
0.76699
0.76699
0.76699
0.76699
0.766989
0.766986
0.766962
0.766854
0.766586
0.766202
0.765973
0.765968
0.765841
0.765839
0.765921
0.765879
0.766021
0.765969
0.765863
0.765818
0.765651
0.765627
0.765708
0.765677
0.765413
0.765385
0.765101
0.765059
0.764864
0.764835
0.764716
0.764713
0.764611
0.764578
0.76481
0.764669
0.764569
0.764481
0.765023
0.764836
0.764615
0.764527
0.764689
0.765177
0.765373
0.765155
0.764986
0.765377
0.765972
0.766058
0.765672
0.765442
0.7654
0.765732
0.76678
0.766157
0.766274
0.766541
0.766989
0.766987
0.76698
0.766873
0.766936
0.76699
0.76699
0.76699
0.76699
0.76699
0.76699
0.76699
0.76699
0.76699
0.76699
0.76699
0.76699
0.76699
0.76699
0.76699
0.76699
0.76699
0.76699
0.76699
0.76699
0.76699
0.76699
0.76699
0.76699
0.766989
0.766981
0.766941
0.766809
0.76653
0.766177
0.765958
0.76585
0.765877
0.765723
0.765765
0.765716
0.765708
0.765779
0.765746
0.765604
0.765582
0.765367
0.76537
0.765371
0.765365
0.765042
0.765047
0.764827
0.764828
0.76473
0.764765
0.764628
0.764739
0.764474
0.764499
0.76455
0.764647
0.764492
0.764429
0.76443
0.764804
0.764633
0.764419
0.764367
0.764483
0.764965
0.76517
0.764963
0.764775
0.765186
0.765808
0.7659
0.765497
0.765217
0.765264
0.765565
0.766669
0.766007
0.766133
0.766407
0.766989
0.766985
0.76697
0.766795
0.766898
0.76699
0.76699
0.76699
0.76699
0.76699
0.76699
0.76699
0.76699
0.76699
0.76699
0.76699
0.76699
0.76699
0.76699
0.76699
0.76699
0.76699
0.76699
0.76699
0.76699
0.76699
0.76699
0.76699
0.766987
0.766972
0.76691
0.766757
0.766478
0.766179
0.766029
0.765947
0.766007
0.76582
0.765881
0.765687
0.765772
0.765578
0.765618
0.765568
0.765567
0.765374
0.765383
0.765109
0.765142
0.765058
0.76508
0.764831
0.764836
0.764795
0.76481
0.764896
0.765018
0.764775
0.76494
0.765082
0.765234
0.764465
0.764556
0.764703
0.764889
0.764375
0.76439
0.764449
0.764595
0.764437
0.764328
0.764284
0.764318
0.764761
0.764972
0.764761
0.76457
0.764995
0.765648
0.765747
0.765325
0.765033
0.765087
0.765401
0.766553
0.765863
0.765998
0.766277
0.766988
0.766958
0.766982
0.766708
0.766851
0.76699
0.76699
0.76699
0.76699
0.76699
0.76699
0.76699
0.76699
0.76699
0.76699
0.76699
0.76699
0.76699
0.76699
0.76699
0.76699
0.76699
0.76699
0.76699
0.76699
0.76699
0.76699
0.766985
0.766958
0.766871
0.7667
0.766429
0.766186
0.766088
0.766178
0.766069
0.766183
0.765871
0.765976
0.765728
0.76587
0.765511
0.765606
0.765402
0.765439
0.76518
0.765226
0.764912
0.764964
0.764849
0.764873
0.764812
0.764806
0.765074
0.765067
0.765336
0.765426
0.765471
0.765484
0.765088
0.765279
0.765446
0.765576
0.764582
0.764775
0.765001
0.765237
0.764354
0.764442
0.764612
0.764402
0.764278
0.764319
0.764281
0.764241
0.764558
0.764774
0.76456
0.764378
0.764802
0.765492
0.765599
0.765156
0.764847
0.764909
0.76524
0.766439
0.765725
0.76587
0.766154
0.766988
0.766944
0.766981
0.76662
0.766803
0.76699
0.76699
0.76699
0.76699
0.76699
0.76699
0.76699
0.76699
0.76699
0.76699
0.76699
0.76699
0.76699
0.76699
0.76699
0.76699
0.76699
0.76699
0.76699
0.76699
0.766989
0.766983
0.766944
0.76683
0.766641
0.766383
0.766198
0.766137
0.766268
0.766437
0.766481
0.766267
0.766364
0.766015
0.766151
0.765848
0.766041
0.765504
0.765663
0.765288
0.765381
0.76503
0.765113
0.764811
0.764851
0.764797
0.764798
0.765031
0.764961
0.765579
0.765485
0.765666
0.765719
0.76574
0.765737
0.765459
0.76565
0.765796
0.765891
0.764841
0.7651
0.765366
0.765617
0.764433
0.764632
0.764889
0.764244
0.7642
0.764414
0.764381
0.764241
0.764367
0.764576
0.764368
0.764219
0.764609
0.765341
0.765457
0.764987
0.764661
0.764731
0.765082
0.766333
0.765593
0.765749
0.766039
0.766989
0.766933
0.766982
0.76654
0.766762
0.76699
0.76699
0.76699
0.76699
0.76699
0.76699
0.76699
0.76699
0.76699
0.76699
0.76699
0.76699
0.76699
0.76699
0.76699
0.76699
0.76699
0.76699
0.76699
0.766989
0.766982
0.766931
0.766791
0.766586
0.766348
0.766214
0.766183
0.766344
0.766648
0.766642
0.76671
0.766495
0.766582
0.766222
0.766376
0.766023
0.766256
0.765558
0.765782
0.765223
0.76537
0.76493
0.765043
0.764813
0.764826
0.764887
0.76483
0.765342
0.76519
0.765837
0.765753
0.765588
0.765682
0.765942
0.765955
0.765939
0.765898
0.765831
0.76599
0.766088
0.766129
0.765174
0.765465
0.76574
0.765973
0.764634
0.764911
0.765215
0.764161
0.764197
0.764612
0.764566
0.764334
0.764203
0.764385
0.764199
0.764127
0.76442
0.765193
0.765321
0.764819
0.764476
0.764553
0.764925
0.766237
0.765468
0.765636
0.765933
0.76699
0.766928
0.766985
0.766471
0.766735
0.76699
0.76699
0.76699
0.76699
0.76699
0.76699
0.76699
0.76699
0.76699
0.76699
0.76699
0.76699
0.76699
0.76699
0.76699
0.76699
0.76699
0.76699
0.766989
0.766982
0.766924
0.76676
0.76654
0.766329
0.76623
0.766232
0.76642
0.766719
0.766888
0.766907
0.766836
0.76687
0.766724
0.766793
0.76646
0.766616
0.76622
0.766483
0.765652
0.765932
0.765199
0.765403
0.764883
0.765015
0.76487
0.764865
0.76505
0.764936
0.765509
0.765414
0.765323
0.765927
0.765846
0.765668
0.76576
0.766132
0.766109
0.766062
0.766
0.766143
0.766235
0.766264
0.766264
0.765524
0.765816
0.766061
0.766235
0.764902
0.765217
0.765538
0.764149
0.764275
0.764859
0.764784
0.764497
0.764099
0.76421
0.76408
0.764101
0.764242
0.765048
0.765189
0.764651
0.764298
0.764379
0.76477
0.766151
0.765348
0.765531
0.765836
0.76699
0.766932
0.766987
0.766417
0.766725
0.76699
0.76699
0.76699
0.76699
0.76699
0.76699
0.76699
0.76699
0.76699
0.76699
0.76699
0.76699
0.76699
0.76699
0.76699
0.76699
0.76699
0.76699
0.766982
0.766923
0.766744
0.766504
0.766319
0.766249
0.766287
0.766503
0.766785
0.766946
0.766965
0.766976
0.766945
0.766958
0.766886
0.766925
0.766685
0.766813
0.766378
0.766624
0.765756
0.766074
0.76521
0.765461
0.764905
0.76503
0.764963
0.764942
0.765165
0.765041
0.765579
0.765487
0.765477
0.765383
0.766004
0.765925
0.765752
0.765841
0.766237
0.766193
0.766139
0.766075
0.766314
0.76634
0.766341
0.766323
0.765838
0.76609
0.766266
0.766344
0.765179
0.765502
0.765807
0.764204
0.764411
0.765101
0.764985
0.764682
0.764056
0.764073
0.764018
0.764127
0.764088
0.764906
0.76506
0.764487
0.764132
0.764214
0.764617
0.766077
0.765233
0.765431
0.765747
0.766989
0.766946
0.766985
0.766378
0.766736
0.76699
0.76699
0.76699
0.76699
0.76699
0.76699
0.76699
0.76699
0.76699
0.76699
0.76699
0.76699
0.76699
0.76699
0.76699
0.76699
0.76699
0.766983
0.766925
0.766742
0.766486
0.766317
0.766268
0.766344
0.766582
0.766833
0.766954
0.766987
0.766987
0.766986
0.766988
0.766978
0.766983
0.766941
0.766966
0.766791
0.76689
0.766444
0.766661
0.765835
0.766158
0.765246
0.765521
0.764974
0.765087
0.76511
0.765083
0.765302
0.765227
0.765184
0.76566
0.765568
0.7656
0.765507
0.766099
0.766032
0.765873
0.765956
0.766294
0.766256
0.766211
0.766159
0.766369
0.766371
0.766361
0.766339
0.766063
0.766244
0.766334
0.766367
0.76542
0.765723
0.765981
0.764311
0.764559
0.765294
0.765129
0.76484
0.764058
0.763993
0.763994
0.764204
0.763982
0.764767
0.764935
0.764327
0.763997
0.764061
0.764468
0.766014
0.765121
0.765335
0.765667
0.766987
0.766949
0.766976
0.766356
0.766746
0.76699
0.76699
0.76699
0.76699
0.76699
0.76699
0.76699
0.76699
0.76699
0.76699
0.76699
0.76699
0.76699
0.76699
0.76699
0.76699
0.766985
0.766931
0.766745
0.766485
0.76632
0.766288
0.766398
0.766649
0.766869
0.766964
0.766988
0.76699
0.76699
0.766989
0.766989
0.766983
0.766987
0.766948
0.766972
0.766809
0.766899
0.766376
0.766575
0.765846
0.766132
0.765295
0.765556
0.765108
0.7652
0.765334
0.765306
0.765346
0.765422
0.765338
0.765383
0.76545
0.765785
0.765693
0.765788
0.765697
0.766208
0.766163
0.766038
0.766107
0.766316
0.766293
0.766268
0.766241
0.766372
0.766364
0.766347
0.766329
0.766168
0.766284
0.766327
0.766331
0.765588
0.765844
0.766044
0.764424
0.764675
0.765406
0.765193
0.764934
0.764097
0.763946
0.763998
0.764283
0.763917
0.76463
0.76481
0.764176
0.763906
0.763937
0.764323
0.76596
0.765011
0.765243
0.765592
0.766983
0.766934
0.766956
0.766337
0.766728
0.76699
0.76699
0.76699
0.76699
0.76699
0.76699
0.76699
0.76699
0.76699
0.76699
0.76699
0.76699
0.76699
0.76699
0.76699
0.766987
0.766946
0.766758
0.766491
0.766324
0.766306
0.766442
0.766699
0.766892
0.76697
0.766988
0.76699
0.76699
0.76699
0.76699
0.766989
0.76699
0.766983
0.766987
0.766937
0.76697
0.766743
0.766866
0.766255
0.766489
0.765801
0.766029
0.765365
0.765572
0.765352
0.765404
0.765548
0.765486
0.765734
0.76571
0.765609
0.765526
0.765614
0.765694
0.765961
0.765877
0.76603
0.765947
0.766254
0.766243
0.766203
0.766227
0.766311
0.766294
0.766279
0.766266
0.766322
0.766299
0.766279
0.766261
0.76618
0.766234
0.76624
0.766227
0.765659
0.765869
0.766015
0.7645
0.764728
0.765433
0.765164
0.764954
0.764144
0.763918
0.764011
0.764327
0.763868
0.764494
0.764684
0.764033
0.763842
0.763848
0.764183
0.76591
0.7649
0.765151
0.765519
0.76697
0.766891
0.766922
0.766305
0.766675
0.76699
0.76699
0.76699
0.76699
0.76699
0.76699
0.76699
0.76699
0.76699
0.76699
0.76699
0.76699
0.76699
0.76699
0.766989
0.766961
0.766789
0.766506
0.76633
0.766316
0.766472
0.766727
0.766905
0.766973
0.766988
0.76699
0.76699
0.76699
0.76699
0.76699
0.766989
0.76699
0.766983
0.766988
0.766934
0.76697
0.766702
0.766853
0.766238
0.766488
0.765816
0.76601
0.765506
0.765647
0.765791
0.765781
0.765853
0.765786
0.76606
0.76598
0.765862
0.765777
0.765926
0.766009
0.766161
0.766103
0.766242
0.76621
0.766248
0.766255
0.766262
0.766258
0.766249
0.766242
0.76624
0.766244
0.766191
0.76616
0.76613
0.766108
0.766082
0.766091
0.766077
0.766031
0.765635
0.765784
0.765867
0.764516
0.7647
0.765349
0.765021
0.764874
0.764161
0.763899
0.764006
0.764313
0.763829
0.764355
0.764554
0.763908
0.763791
0.763783
0.764036
0.765855
0.764788
0.765058
0.765446
0.766961
0.766819
0.766892
0.76625
0.766584
0.76699
0.76699
0.76699
0.76699
0.76699
0.76699
0.76699
0.76699
0.76699
0.76699
0.76699
0.76699
0.76699
0.766989
0.766973
0.76683
0.766539
0.766338
0.766321
0.76648
0.766731
0.766907
0.766973
0.766988
0.76699
0.76699
0.76699
0.76699
0.76699
0.76699
0.766989
0.76699
0.766985
0.766988
0.766942
0.766974
0.766712
0.766865
0.766381
0.766609
0.766012
0.766172
0.765816
0.765898
0.766318
0.766262
0.766205
0.766223
0.766202
0.766135
0.766397
0.766368
0.766155
0.766087
0.76626
0.766297
0.766264
0.766258
0.766308
0.766316
0.766152
0.766184
0.766249
0.766218
0.766098
0.766097
0.766101
0.766123
0.765978
0.765929
0.765884
0.765852
0.76588
0.765865
0.76581
0.765742
0.765492
0.765576
0.765594
0.764456
0.764576
0.765126
0.764737
0.764663
0.764128
0.763882
0.763977
0.764236
0.76379
0.76421
0.764421
0.763814
0.763749
0.763735
0.763898
0.765794
0.764672
0.764966
0.765371
0.766972
0.76675
0.766891
0.766177
0.766493
0.76699
0.76699
0.76699
0.76699
0.76699
0.76699
0.76699
0.76699
0.76699
0.76699
0.76699
0.76699
0.76699
0.766981
0.766873
0.766586
0.766353
0.76632
0.766477
0.766723
0.7669
0.766971
0.766988
0.76699
0.76699
0.76699
0.76699
0.76699
0.76699
0.76699
0.76699
0.76699
0.76699
0.766987
0.766989
0.766964
0.766982
0.766799
0.766913
0.76665
0.766807
0.766389
0.766495
0.766311
0.76633
0.766534
0.766536
0.76647
0.766518
0.766405
0.766409
0.766492
0.766517
0.76632
0.766316
0.766395
0.766382
0.766274
0.766293
0.766276
0.766314
0.765922
0.765977
0.766107
0.766041
0.765839
0.765836
0.765841
0.765875
0.765668
0.765598
0.765537
0.765492
0.765583
0.765525
0.765443
0.765353
0.765201
0.765224
0.765216
0.764303
0.764356
0.764789
0.764428
0.764405
0.764041
0.763853
0.763914
0.764071
0.763771
0.764058
0.764284
0.763747
0.763726
0.763707
0.763796
0.765729
0.764559
0.764875
0.765298
0.766984
0.766712
0.766924
0.7661
0.76642
0.76699
0.76699
0.76699
0.76699
0.76699
0.76699
0.76699
0.76699
0.76699
0.76699
0.76699
0.76699
0.766984
0.766911
0.766641
0.76638
0.766317
0.766464
0.766697
0.766878
0.766965
0.766986
0.76699
0.76699
0.76699
0.76699
0.76699
0.76699
0.76699
0.76699
0.76699
0.76699
0.76699
0.766989
0.76699
0.766982
0.766987
0.766914
0.766964
0.766888
0.766941
0.766781
0.766824
0.766682
0.766686
0.766754
0.766559
0.766607
0.766669
0.766643
0.766421
0.766459
0.766422
0.766499
0.766343
0.766365
0.766383
0.76634
0.766171
0.766228
0.766092
0.766167
0.765569
0.76564
0.765821
0.765727
0.76547
0.765465
0.76547
0.765509
0.76526
0.765175
0.765102
0.76505
0.765163
0.765078
0.764979
0.764877
0.7648
0.764789
0.764732
0.764095
0.764118
0.764432
0.76412
0.764124
0.763955
0.763827
0.763885
0.763987
0.763751
0.763915
0.764148
0.763694
0.763698
0.763647
0.763716
0.765661
0.764446
0.764772
0.765221
0.766989
0.76672
0.766964
0.766024
0.766375
0.76699
0.76699
0.76699
0.76699
0.76699
0.76699
0.76699
0.76699
0.76699
0.76699
0.76699
0.766986
0.766941
0.766705
0.766419
0.766315
0.766436
0.766655
0.766836
0.766949
0.766984
0.766989
0.76699
0.76699
0.76699
0.76699
0.76699
0.76699
0.76699
0.76699
0.76699
0.76699
0.76699
0.76699
0.76699
0.766988
0.766989
0.766971
0.766983
0.766964
0.766979
0.766902
0.766937
0.766738
0.766764
0.766863
0.766817
0.766407
0.766519
0.766686
0.766613
0.76627
0.766343
0.766172
0.766287
0.766233
0.76629
0.766199
0.766128
0.765916
0.766007
0.765783
0.765881
0.765143
0.765226
0.765442
0.765328
0.765025
0.76502
0.765026
0.765073
0.764775
0.764686
0.76461
0.76456
0.764647
0.764553
0.764455
0.764358
0.764422
0.764366
0.764285
0.764013
0.764019
0.764106
0.764013
0.764022
0.763916
0.763795
0.763817
0.763925
0.763713
0.763818
0.763995
0.763656
0.76364
0.7636
0.763676
0.765595
0.76429
0.764682
0.765152
0.76699
0.766768
0.766983
0.765962
0.766378
0.766989
0.766989
0.766989
0.766989
0.76699
0.76699
0.76699
0.76699
0.76699
0.76699
0.766987
0.76696
0.766771
0.76647
0.766318
0.766401
0.766604
0.766786
0.766917
0.766979
0.766989
0.76699
0.76699
0.76699
0.76699
0.76699
0.76699
0.76699
0.76699
0.76699
0.76699
0.76699
0.76699
0.76699
0.76699
0.766989
0.76699
0.766985
0.766988
0.766973
0.766984
0.766834
0.766818
0.766894
0.766935
0.766669
0.766759
0.766741
0.766113
0.766262
0.76655
0.766411
0.765985
0.766073
0.765857
0.765974
0.765972
0.766052
0.7659
0.76582
0.765559
0.765674
0.765427
0.765538
0.764688
0.764783
0.765029
0.7649
0.764542
0.764541
0.764553
0.764609
0.764265
0.76419
0.764128
0.76409
0.764203
0.764134
0.764067
0.764016
0.764073
0.764016
0.763985
0.763923
0.763922
0.763998
0.763954
0.763935
0.763826
0.763742
0.76375
0.763824
0.76365
0.763716
0.763859
0.763585
0.763592
0.763541
0.763608
0.765526
0.764162
0.764536
0.765062
0.76699
0.766866
0.766987
0.765923
0.766416
0.766984
0.766987
0.766988
0.766988
0.766989
0.766989
0.766989
0.766989
0.766989
0.766988
0.766973
0.766833
0.766531
0.766328
0.766366
0.766549
0.766729
0.766871
0.766968
0.766988
0.76699
0.76699
0.76699
0.76699
0.76699
0.76699
0.76699
0.76699
0.76699
0.76699
0.76699
0.76699
0.76699
0.76699
0.76699
0.76699
0.76699
0.76699
0.76699
0.766988
0.766989
0.766952
0.766981
0.766705
0.76669
0.766813
0.766837
0.76646
0.766613
0.766557
0.765803
0.765958
0.766294
0.766124
0.765669
0.765758
0.76556
0.765671
0.765644
0.765734
0.765583
0.765502
0.765166
0.765298
0.765063
0.76519
0.764216
0.764324
0.7646
0.764457
0.764078
0.764081
0.764094
0.764143
0.763964
0.763924
0.763886
0.763862
0.763946
0.7639
0.763863
0.76384
0.763993
0.763984
0.763702
0.763853
0.763704
0.763733
0.763754
0.763735
0.763745
0.763662
0.76367
0.763676
0.763592
0.763655
0.763767
0.763519
0.763537
0.763504
0.763565
0.765466
0.763989
0.764419
0.764981
0.76699
0.766916
0.766989
0.765897
0.7665
0.766968
0.76698
0.766984
0.766986
0.766988
0.766988
0.766989
0.766989
0.766988
0.766979
0.766884
0.766601
0.766357
0.766342
0.766493
0.766668
0.766819
0.766946
0.766985
0.76699
0.76699
0.76699
0.76699
0.76699
0.76699
0.76699
0.76699
0.76699
0.76699
0.76699
0.76699
0.76699
0.76699
0.76699
0.76699
0.76699
0.76699
0.76699
0.766987
0.766989
0.766904
0.76697
0.766533
0.766543
0.7667
0.766584
0.76664
0.766794
0.766211
0.766388
0.766358
0.765539
0.76569
0.766032
0.765857
0.765373
0.765463
0.765296
0.765411
0.765311
0.765409