/*--------------------------------*- C++ -*----------------------------------*\
  =========                 |
  \\      /  F ield         | OpenFOAM: The Open Source CFD Toolbox
   \\    /   O peration     | Website:  https://openfoam.org
    \\  /    A nd           | Version:  dev
     \\/     M anipulation  |
\*---------------------------------------------------------------------------*/
FoamFile
{
    version     2.0;
    format      ascii;
    class       volScalarField;
    location    "2500";
    object      nut;
}
// * * * * * * * * * * * * * * * * * * * * * * * * * * * * * * * * * * * * * //

dimensions      [0 2 -1 0 0 0 0];

internalField   nonuniform List<scalar> 
9838
(
0.000128466
0.000132013
0.000125399
0.000120603
0.000159799
0.000111664
0.000111841
0.000168344
0.000151447
0.000106306
0.000107519
0.000161803
0.000174812
0.000129711
0.000104269
0.000104571
0.000144351
0.000187443
0.000162426
0.000117641
0.00010319
0.000102898
0.000129385
0.000185976
0.000184492
0.000138453
0.000112368
0.000102417
0.000102271
0.000119181
0.000175762
0.000197878
0.000167013
0.000124434
0.000109177
0.000101873
0.000102043
0.000112262
0.000154551
0.000203053
0.000190604
0.000142899
0.000117637
0.000106948
0.000101465
0.000101911
0.000108262
0.00013664
0.000198233
0.000203598
0.000167947
0.000128448
0.00011341
0.00010535
0.000101194
0.000101786
0.000105966
0.000124526
0.000183211
0.000213693
0.000192835
0.000144769
0.000120872
0.000110429
0.000104118
0.000101026
0.00010139
0.000104598
0.000116526
0.000158621
0.000213382
0.000209821
0.000166316
0.000130783
0.000116189
0.000108217
0.000103228
0.000100854
0.000100945
0.000104052
0.000111646
0.000140343
0.000206046
0.000219228
0.000192237
0.000144407
0.000123029
0.00011285
0.000106398
0.000102654
0.00010069
0.000100614
0.000103653
0.000108851
0.000127933
0.000186974
0.000225242
0.000211597
0.000164242
0.00013142
0.000118062
0.00011034
0.00010501
0.000102192
0.000100598
0.000100461
0.000103216
0.000107144
0.00011975
0.00016095
0.000222503
0.000223721
0.000187886
0.000143583
0.000124062
0.000114475
0.000108232
0.000104039
0.000101811
0.000100462
0.00010039
0.00010262
0.000105993
0.000114689
0.000143142
0.000212211
0.000232143
0.000211176
0.000160954
0.000131432
0.00011926
0.000111769
0.000106523
0.000103218
0.000101549
0.000100305
0.000100438
0.000102117
0.000105313
0.00011147
0.000131086
0.000189561
0.000235416
0.000226763
0.0001821
0.00014197
0.000124385
0.000115679
0.000109544
0.000105225
0.000102634
0.000101253
0.000100212
0.000100504
0.000101591
0.000104749
0.000109361
0.00012294
0.000162935
0.000230933
0.000235655
0.000206408
0.000156892
0.000130852
0.000119687
0.000112821
0.000107685
0.000104102
0.000102234
0.000100897
0.000100163
0.000100477
0.000101126
0.000104049
0.000107762
0.000117586
0.000146105
0.000218543
0.000243411
0.000225861
0.000176404
0.000139968
0.000124304
0.000116147
0.000110481
0.0001062
0.000103283
0.000101855
0.000100591
0.00010013
0.000100338
0.000100833
0.000103236
0.000106522
0.000113842
0.000134571
0.000193492
0.000244871
0.000239506
0.000198855
0.000152628
0.000129903
0.000119823
0.000113311
0.000108542
0.000104902
0.000102744
0.000101416
0.000100373
0.000100094
0.000100182
0.000100857
0.000102556
0.000105658
0.000111231
0.000126126
0.000167222
0.000239288
0.000246322
0.000222084
0.000170144
0.000137465
0.000123718
0.000116371
0.000110996
0.000106962
0.00010386
0.000102283
0.000100961
0.000100233
0.000100052
0.000100049
0.000100938
0.000101782
0.000104914
0.000109377
0.000120453
0.000149757
0.000225343
0.000253559
0.000238548
0.000190479
0.000148825
0.000128573
0.000119486
0.000113573
0.000109068
0.000105614
0.00010317
0.000101814
0.000100585
0.000100131
0.00010001
9.99469e-05
0.000100976
0.000101113
0.000104183
0.000107879
0.0001165
0.000139057
0.000200823
0.000253742
0.000250566
0.000213168
0.000163259
0.000135333
0.000122998
0.000116244
0.000111303
0.000107489
0.000104456
0.000102612
0.000101317
0.000100314
0.000100039
9.99783e-05
9.98796e-05
0.00010096
0.000100599
0.000103558
0.000106643
0.000113622
0.000130536
0.000175566
0.00024823
0.000255924
0.000234959
0.000182226
0.0001444
0.000127241
0.000119009
0.000113587
0.000109457
0.000106141
0.000103551
0.000102107
0.000100843
0.000100139
9.99416e-05
9.99569e-05
9.98402e-05
0.000100865
0.000100232
0.000102915
0.000105658
0.000111472
0.000124564
0.000155875
0.000234835
0.000262479
0.000249108
0.000202303
0.00015735
0.000132917
0.000122084
0.000115914
0.00011142
0.000107891
0.000104978
0.000102904
0.000101619
0.000100458
0.00010001
9.98681e-05
9.99393e-05
9.98217e-05
0.00010073
0.000100063
0.000102279
0.000104958
0.000109785
0.000120333
0.000145541
0.000213081
0.000262861
0.000259621
0.000224393
0.000172745
0.000140738
0.000125823
0.000118436
0.000113423
0.000109634
0.000106535
0.000103988
0.000102358
0.000101123
0.000100206
9.98704e-05
9.98249e-05
9.99287e-05
9.98166e-05
0.000100577
9.99504e-05
0.000101593
0.000104379
0.0001085
0.000117205
0.000137254
0.000188231
0.000258409
0.000264674
0.00024403
0.000191874
0.000151001
0.000130661
0.000121094
0.000115605
0.00011141
0.000108119
0.000105397
0.00010321
0.000101857
0.000100673
0.00010005
9.9758e-05
9.97968e-05
9.99277e-05
9.98147e-05
0.000100426
9.98524e-05
0.000100991
0.000103833
0.000107512
0.000114862
0.000130939
0.000167224
0.00024724
0.000270474
0.000257435
0.000210762
0.000164487
0.000137051
0.000124388
0.00011778
0.000113268
0.000109727
0.000106835
0.000104426
0.000102605
0.000101392
0.00010034
9.99047e-05
9.9699e-05
9.97961e-05
9.9941e-05
9.98158e-05
0.000100304
9.97465e-05
0.000100472
0.000103352
0.000106723
0.000113152
0.000126313
0.000154289
0.000229278
0.000272052
0.000266832
0.000231697
0.000180072
0.000145435
0.000128503
0.000120161
0.000115137
0.000111361
0.000108307
0.000105739
0.00010358
0.000102088
0.00010096
0.000100149
9.97791e-05
9.96802e-05
9.98183e-05
9.99735e-05
9.98219e-05
0.000100208
9.96366e-05
0.000100048
0.000102949
0.000106038
0.000111967
0.00012289
0.000146493
0.000207139
0.000269311
0.000272793
0.000249125
0.000197942
0.000156317
0.000133682
0.000123048
0.000117163
0.00011301
0.000109796
0.000107085
0.000104793
0.000102902
0.000101645
0.00010059
0.000100038
9.97369e-05
9.97167e-05
9.98811e-05
0.000100035
9.98335e-05
0.000100127
9.95158e-05
9.97119e-05
0.000102634
0.000105455
0.00011099
0.000120831
0.00014003
0.000185803
0.000261611
0.000276974
0.000263849
0.000215969
0.000169353
0.000140509
0.00012646
0.000119309
0.000114756
0.000111288
0.000108468
0.000106031
0.000103987
0.000102363
0.000101258
0.000100324
9.99417e-05
9.97728e-05
9.98287e-05
0.000100028
0.000100151
9.98529e-05
0.000100066
9.9378e-05
9.94492e-05
0.000102388
0.000105013
0.000110254
0.000119635
0.000135283
0.000168708
0.00024656
0.00028014
0.000272422
0.000234306
0.000184624
0.00014903
0.000130807
0.000121716
0.000116543
0.000112812
0.000109842
0.000107333
0.000105139
0.000103292
0.00010192
0.000100935
0.000100193
9.99123e-05
9.98837e-05
0.000100024
0.000100294
0.000100327
9.98779e-05
0.000100015
9.92168e-05
9.92681e-05
0.000102202
0.00010469
0.000109864
0.000118706
0.000132437
0.000158278
0.000229604
0.000279054
0.000279091
0.000251435
0.000200557
0.000159678
0.00013615
0.000124749
0.000118423
0.000114304
0.000111221
0.000108622
0.000106353
0.000104369
0.000102719
0.000101569
0.000100678
0.000100159
9.99922e-05
0.000100086
0.000100328
0.00010073
0.000100551
9.9905e-05
9.99622e-05
9.90316e-05
9.91832e-05
0.00010208
0.000104473
0.000109642
0.000118027
0.000130952
0.000152164
0.000210346
0.000274581
0.000281669
0.00026677
0.000217584
0.000172014
0.000142912
0.000128223
0.000120579
0.000115958
0.000112532
0.000109872
0.000107585
0.00010549
0.000103688
0.000102263
0.000101292
0.000100515
0.000100239
0.000100256
0.000100466
0.000100836
0.00010142
0.000100554
0.000100583
9.99326e-05
9.99016e-05
9.88506e-05
9.92053e-05
0.00010201
0.000104372
0.000109539
0.000117695
0.000129837
0.000148188
0.000192438
0.000264949
0.000285604
0.000275599
0.0002334
0.000185875
0.000151235
0.000132596
0.000123175
0.000117614
0.000113971
0.000111088
0.000108762
0.000106651
0.000104709
0.000103117
0.000101921
0.000101114
0.000100507
0.000100469
0.000100708
0.000101172
0.000101758
9.73516e-05
9.71697e-05
8.63356e-05
8.53391e-05
9.99569e-05
9.98287e-05
9.86913e-05
9.93086e-05
0.000101964
0.000104364
0.000109498
0.000117571
0.000128944
0.000144693
0.000177898
0.000251748
0.000286024
0.000282188
0.000250415
0.000200618
0.000161039
0.000137886
0.000126192
0.000119571
0.000115353
0.000112343
0.000109889
0.000107776
0.000105806
0.00010405
0.000102675
0.00010169
0.000101053
0.000100661
0.000100825
0.000101423
0.000101664
0.000101868
9.41579e-05
0.000102035
8.78039e-05
8.38459e-05
8.15942e-05
7.31397e-05
7.1571e-05
9.99793e-05
9.9748e-05
9.85717e-05
9.94632e-05
0.000101966
0.000104458
0.000109534
0.000117558
0.000128117
0.000142326
0.000167727
0.000236252
0.000284628
0.000286128
0.000264281
0.000215619
0.000172473
0.000144261
0.000129691
0.000121882
0.000116968
0.000113579
0.000111007
0.000108848
0.000106909
0.000105078
0.000103518
0.00010235
0.000101604
0.000101154
0.000101075
0.00010148
0.000102077
0.000100383
9.81883e-05
7.91894e-05
8.02268e-05
7.48743e-05
7.01723e-05
6.81343e-05
6.21859e-05
6.04823e-05
0.000100002
9.9663e-05
9.84954e-05
9.96584e-05
0.000102022
0.000104644
0.000109682
0.000117616
0.000127443
0.000140445
0.000161909
0.000220317
0.000280298
0.000287871
0.000276298
0.00023104
0.000184912
0.000151957
0.000133815
0.000124439
0.000118782
0.000114954
0.00011214
0.000109918
0.000107962
0.000106137
0.00010446
0.000103139
0.000102187
0.000101706
0.000101609
0.00010193
9.73105e-05
9.43533e-05
9.19103e-05
8.76171e-05
7.86782e-05
6.64311e-05
7.07122e-05
6.34918e-05
5.93484e-05
5.79277e-05
5.3114e-05
5.16305e-05
0.000100025
9.95699e-05
9.84573e-05
9.98776e-05
0.000102149
0.000104898
0.00010991
0.000117679
0.000126989
0.000138728
0.000157909
0.000204734
0.0002717
0.000290863
0.000282618
0.000244166
0.00019835
0.00016096
0.000138856
0.000127426
0.000120812
0.000116524
0.000113364
0.00011098
0.000109014
0.00010718
0.000105454
0.000103991
0.000102937
0.000102249
0.000102185
0.000102536
9.24201e-05
9.04015e-05
8.24087e-05
8.11594e-05
7.66595e-05
7.3292e-05
6.77357e-05
5.6495e-05
6.05549e-05
5.46231e-05
5.08199e-05
4.97538e-05
4.56321e-05
4.45072e-05
0.000100041
9.94681e-05
9.84708e-05
0.000100121
0.000102369
0.000105233
0.000110238
0.000117797
0.0001267
0.000137283
0.000154381
0.000191099
0.000260325
0.000291237
0.00028753
0.000258659
0.000211364
0.000171139
0.000144691
0.000130814
0.00012323
0.000118207
0.00011476
0.000112114
0.000110061
0.000108237
0.000106486
0.000104852
0.000103664
0.000102892
0.000102679
0.000103098
8.95255e-05
8.82812e-05
7.70304e-05
7.77894e-05
7.0362e-05
6.79243e-05
6.52775e-05
6.25508e-05
5.80517e-05
4.8607e-05
5.21124e-05
4.70606e-05
4.39382e-05
4.31198e-05
3.95136e-05
3.87252e-05
0.000100048
9.93575e-05
9.85294e-05
0.000100398
0.000102662
0.000105649
0.00011066
0.000118044
0.000126519
0.00013606
0.000151009
0.000180481
0.000247028
0.000290602
0.000290891
0.000269824
0.000224165
0.000182205
0.0001516
0.000134674
0.000125739
0.000120265
0.000116305
0.000113364
0.000111143
0.000109322
0.000107569
0.000105894
0.000104473
0.000103644
0.000103354
0.000103737
8.96603e-05
9.10754e-05
7.41567e-05
7.60809e-05
6.57886e-05
6.46932e-05
6.00526e-05
5.79121e-05
5.576e-05
5.3725e-05
4.99749e-05
4.22122e-05
4.50612e-05
4.08389e-05
3.83533e-05
3.77342e-05
3.43808e-05
3.40108e-05
0.000100052
9.92467e-05
9.86405e-05
0.000100685
0.000102993
0.000106207
0.000111231
0.000118345
0.0001264
0.000135114
0.000148275
0.000172337
0.000232934
0.00028708
0.00029286
0.000280219
0.000237311
0.00019329
0.000159531
0.000139173
0.000128524
0.000122366
0.000118028
0.000114801
0.000112324
0.000110367
0.000108577
0.000106955
0.000105502
0.000104413
0.000104146
0.000104515
9.56997e-05
9.96853e-05
7.41677e-05
7.80393e-05
6.31692e-05
6.30429e-05
5.61198e-05
5.48714e-05
5.14644e-05
4.96242e-05
4.79683e-05
4.62531e-05
4.32631e-05
3.69437e-05
3.93454e-05
3.57947e-05
3.38162e-05
3.33177e-05
3.02997e-05
3.00993e-05
0.000100059
9.9151e-05
9.88066e-05
0.000100982
0.000103318
0.000106779
0.000111811
0.000118607
0.000126266
0.00013444
0.00014605
0.000166763
0.000218829
0.00027974
0.000295333
0.000286671
0.000247994
0.000205143
0.000168247
0.00014433
0.000131723
0.00012457
0.000119933
0.000116371
0.000113637
0.00011153
0.000109737
0.000108025
0.000106545
0.000105524
0.000105099
0.00010552
0.000105943
0.000106504
7.85704e-05
8.36625e-05
6.29697e-05
6.44496e-05
5.35768e-05
5.31978e-05
4.81441e-05
4.69267e-05
4.43882e-05
4.27914e-05
4.15961e-05
4.01106e-05
3.77772e-05
3.25922e-05
3.46904e-05
3.17192e-05
3.01069e-05
2.96819e-05
2.69782e-05
2.70015e-05
0.000100066
9.90898e-05
9.89966e-05
0.000101293
0.000103642
0.000107326
0.000112374
0.000118848
0.000126097
0.000133887
0.000144206
0.00016285
0.000205133
0.000269858
0.000296012
0.000291438
0.000261257
0.00021619
0.000177703
0.000150357
0.00013511
0.000127047
0.000121894
0.000118094
0.000115056
0.000112766
0.000110928
0.000109333
0.000107716
0.000106635
0.000106228
0.000106574
0.000106939
0.000107191
8.75619e-05
9.44752e-05
6.5663e-05
6.77517e-05
5.32276e-05
5.38289e-05
4.57027e-05
4.53205e-05
4.16778e-05
4.05883e-05
3.8559e-05
3.73233e-05
3.64154e-05
3.50839e-05
3.32791e-05
2.9029e-05
3.08129e-05
2.8396e-05
2.70894e-05
2.67071e-05
2.42896e-05
2.45139e-05
0.000100128
9.90574e-05
9.91642e-05
0.000101564
0.000103995
0.000107864
0.00011296
0.00011906
0.000125903
0.000133307
0.000142654
0.00015892
0.000192972
0.000257829
0.00029578
0.000294831
0.000272003
0.000227147
0.00018759
0.000157129
0.000139043
0.000129678
0.000123992
0.000120033
0.000116855
0.000114083
0.000112035
0.000110425
0.00010921
0.000107974
0.000107435
0.000107446
0.00010773
0.000108615
0.000102627
0.000107314
7.05713e-05
7.58048e-05
5.43584e-05
5.61982e-05
4.48084e-05
4.62952e-05
3.94949e-05
4.01913e-05
3.66894e-05
3.67078e-05
3.40905e-05
3.38692e-05
3.21638e-05
3.15239e-05
2.96023e-05
2.61795e-05
2.75016e-05
2.56233e-05
2.46006e-05
2.43161e-05
2.21139e-05
2.25516e-05
0.000100269
9.90795e-05
9.92681e-05
0.000101749
0.000104356
0.000108475
0.000113547
0.000119234
0.000125647
0.000132629
0.000141296
0.00015532
0.000183376
0.000244356
0.000293402
0.000297162
0.000282329
0.000239123
0.000197113
0.000164454
0.000143694
0.000132547
0.000126276
0.000122096
0.000118808
0.000115754
0.000113403
0.00011162
0.000110432
0.000109554
0.000109016
0.00010899
0.000104171
0.000106513
0.000103742
8.19864e-05
9.65293e-05
6.05732e-05
7.25937e-05
5.02115e-05
6.29121e-05
4.44276e-05
5.93213e-05
4.03145e-05
5.44131e-05
3.62711e-05
4.8016e-05
3.22629e-05
3.94687e-05
2.93101e-05
3.15376e-05
2.73008e-05
2.38939e-05
2.54566e-05
2.3745e-05
2.25951e-05
2.24406e-05
2.04305e-05
2.09109e-05
0.000100442
9.92934e-05
9.92787e-05
0.00010189
0.000104685
0.000109156
0.00011409
0.000119424
0.000125245
0.000131873
0.000140076
0.000152264
0.000175538
0.000230878
0.000287286
0.000299823
0.000289496
0.000249183
0.000207635
0.00017221
0.000148721
0.000135722
0.000128703
0.000124312
0.000120858
0.00011771
0.00011494
0.000113119
0.000111502
0.000110784
0.000110419
0.000108576
9.91657e-05
8.60995e-05
8.21998e-05
9.67458e-05
8.98097e-05
8.9798e-05
8.49614e-05
8.40869e-05
8.64194e-05
8.58969e-05
9.19077e-05
8.88305e-05
9.9537e-05
8.28698e-05
0.00010247
6.45307e-05
0.000100584
4.57377e-05
8.86125e-05
3.09652e-05
5.25584e-05
3.0021e-05
2.23024e-05
2.81661e-05
2.54983e-05
2.10445e-05
2.11221e-05
1.91894e-05
1.96221e-05
0.000101944
0.00010036
9.93073e-05
0.000101978
0.000104937
0.000109804
0.000114617
0.000119598
0.000124788
0.000131036
0.000138923
0.000149642
0.000170247
0.000217693
0.000278262
0.000300877
0.000295035
0.000262275
0.000217563
0.000180834
0.000154125
0.00013932
0.000131238
0.000126637
0.000123088
0.00011993
0.000116942
0.000114577
0.000112982
0.000111781
0.000111017
0.000106454
8.91051e-05
8.47925e-05
8.57386e-05
8.99429e-05
0.000107918
8.08099e-05
8.57416e-05
8.76294e-05
0.000101152
0.000105663
0.000128684
0.000124461
0.00015838
0.000133132
0.000178755
0.000128749
0.000182254
0.000116695
0.000164827
0.000100561
0.000133826
5.77949e-05
0.000105679
6.00775e-05
2.28359e-05
5.60889e-05
4.78476e-05
1.99909e-05
2.07794e-05
1.83411e-05
1.88967e-05
0.000110064
0.000103402
9.99722e-05
0.000102108
0.000105118
0.000110179
0.000114957
0.000119708
0.000124462
0.000130167
0.000137766
0.000147366
0.000165538
0.000204633
0.000267321
0.000301192
0.000299136
0.00027382
0.000228038
0.000189995
0.000160233
0.000143101
0.000134004
0.000128964
0.000125468
0.000122299
0.00011936
0.000116514
0.000114581
0.000113226
0.000111359
0.00010312
9.39372e-05
0.000116693
7.64356e-05
0.000124993
0.000154905
0.000171868
0.000206982
0.000118054
0.000143988
0.00015666
0.000191843
0.000199229
0.000244942
0.000233815
0.000293036
0.000249953
0.000322038
0.000241774
0.000325608
0.000208019
0.000302882
0.000151194
0.00025071
0.000108538
0.000166435
0.000108199
3.70359e-05
0.000104091
9.60028e-05
1.94734e-05
2.69842e-05
1.79785e-05
1.86571e-05
0.000122653
0.000112103
0.000102764
0.000102683
0.000105224
0.000110385
0.000115094
0.000119711
0.000124238
0.000129308
0.000136592
0.000145355
0.000161001
0.000193587
0.00025477
0.000299645
0.000301908
0.000285397
0.000240335
0.000198769
0.000167504
0.00014711
0.00013692
0.000131523
0.00012808
0.000124848
0.0001218
0.000119098
0.000116481
0.00011452
0.000111171
0.000104401
0.000125671
0.000221536
0.000186109
0.00025479
0.000245228
0.000292592
0.000314576
0.000356874
0.00023056
0.000272412
0.000292709
0.000340726
0.000349345
0.000400062
0.00038773
0.000441954
0.000400311
0.000461749
0.000389904
0.000460134
0.000353599
0.000438238
0.00028262
0.00039064
0.00017497
0.000304539
0.00017457
8.46765e-05
0.000164496
0.000147218
2.10315e-05
6.31438e-05
1.85023e-05
1.86384e-05
0.000132862
0.000110555
0.00010438
0.000105449
0.00011039
0.000115044
0.000119593
0.000123954
0.000128442
0.000135344
0.000143479
0.000156956
0.000183758
0.000241459
0.000294818
0.00030538
0.000293474
0.000251163
0.000209005
0.000175211
0.000151804
0.000139743
0.000134263
0.000130932
0.000127769
0.000124734
0.00012182
0.000119289
0.000115981
0.000110203
0.000109385
0.000164712
0.000330677
0.000433455
0.000489933
0.000341333
0.000398227
0.000399577
0.000443947
0.000457105
0.000485909
0.000383604
0.000423031
0.000443753
0.000480188
0.000485816
0.00052117
0.000508897
0.000543138
0.000512839
0.000549292
0.000501282
0.000543263
0.000472498
0.000527304
0.000415161
0.000494912
0.000314725
0.000430002
0.000310776
0.000123797
0.0002907
0.000256237
3.3897e-05
9.50997e-05
2.03512e-05
1.85487e-05
0.000126056
0.000109797
0.000106971
0.000110054
0.000114635
0.000119296
0.000123638
0.000127773
0.000133984
0.00014167
0.000153357
0.000176425
0.000228354
0.000286538
0.000307353
0.000300233
0.000265246
0.00021894
0.000183451
0.000157328
0.000142599
0.000137097
0.000133857
0.0001309
0.000128416
0.000125277
0.000122275
0.000118016
0.000108437
0.00011344
0.000202732
0.000417669
0.000576745
0.000535901
0.000574806
0.000480798
0.000513738
0.000511388
0.000533823
0.000545473
0.000557937
0.000506883
0.000529115
0.000545937
0.000563596
0.000567713
0.000583704
0.000573297
0.000586251
0.000568874
0.000581585
0.000559917
0.000573825
0.000544152
0.000566991
0.000509924
0.000555432
0.000434798
0.000519577
0.000429312
0.000207989
0.000412191
0.000390148
0.000310218
6.39724e-05
0.000148066
2.40631e-05
2.02555e-05
0.000121743
0.000111626
0.000110815
0.000114122
0.000118575
0.000123101
0.000127124
0.000132822
0.000139839
0.000150107
0.00017059
0.000214924
0.000275997
0.000307719
0.000305326
0.000278464
0.00023062
0.000191827
0.000163754
0.000146222
0.000139885
0.000136893
0.000134236
0.000132234
0.000129689
0.000125819
0.000120014
0.000105958
0.000122718
0.000240775
0.00049084
0.000616232
0.000618023
0.000637813
0.000588071
0.000603954
0.000553162
0.000571133
0.000568957
0.000577949
0.000587441
0.000590263
0.000574205
0.000583196
0.000590581
0.000597102
0.000594623
0.000595777
0.000586072
0.000583576
0.000575435
0.000570009
0.000568578
0.000557272
0.000568015
0.000553677
0.000561579
0.000561928
0.000522682
0.000560969
0.000547974
0.00047484
0.000520071
0.000366938
0.000253076
0.000342769
0.000452264
0.000508158
0.000512294
0.000439453
5.86769e-05
9.38969e-05
0.000308412
0.000270695
0.000170242
3.54951e-05
6.98438e-05
2.26179e-05
5.52275e-05
0.000124766
0.000114495
0.000114754
0.000118126
0.000122326
0.000126305
0.000131663
0.000138149
0.000147174
0.000165068
0.000202091
0.000263614
0.000306446
0.000308453
0.000291247
0.000243994
0.000200936
0.00017092
0.000150618
0.000142497
0.000139886
0.000138012
0.000136847
0.000134662
0.000130856
0.000120428
0.000104033
0.000139273
0.000295154
0.000545431
0.000656537
0.00065877
0.000674582
0.000651395
0.000681395
0.000610993
0.000628282
0.000587072
0.000598866
0.000593999
0.000600976
0.000600374
0.000601759
0.000600019
0.000600508
0.000596352
0.00059575
0.000581958
0.000579261
0.000562041
0.000553113
0.000542966
0.000531758
0.000527053
0.000506503
0.000549296
0.000531621
0.000515784
0.000495986
0.000561763
0.000549525
0.00051927
0.000504726
0.000531472
0.000557733
0.000547248
0.000560427
0.000558653
0.000545568
0.000419265
0.000392875
0.000496467
0.000537003
0.000542741
0.00048257
0.000127527
0.000360682
0.000321045
0.000222578
5.18085e-05
3.13264e-05
4.32586e-05
9.01127e-05
6.46676e-05
0.000128611
0.000117727
0.000118767
0.000122057
0.000125504
0.000130437
0.000136566
0.000144862
0.000159967
0.00019125
0.000250022
0.000302348
0.000312663
0.000300404
0.00025679
0.000212011
0.000178549
0.000155438
0.000144975
0.000142562
0.000141585
0.00014197
0.000140947
0.000136755
0.000121459
0.000111613
0.00018117
0.000369925
0.000592754
0.000691172
0.000735298
0.00070416
0.000746123
0.000702774
0.000737021
0.000641286
0.000670156
0.00061217
0.00062438
0.000607898
0.000619119
0.000596386
0.000602334
0.000594384
0.000595292
0.000574724
0.000573173
0.000550196
0.000545596
0.000525636
0.000524301
0.000499204
0.000505415
0.000486104
0.000477013
0.000477841
0.000481819
0.000498321
0.00048035
0.000468423
0.000545396
0.000522091
0.000482076
0.000468174
0.000494227
0.000557841
0.000559528
0.000556567
0.00054157
0.000558645
0.000463451
0.000438566
0.000528404
0.000556767
0.000553409
0.000516477
0.000171622
0.000407329
0.000368026
0.000273405
4.7676e-05
3.86833e-05
5.26778e-05
0.00012125
8.08915e-05
0.000131568
0.000120912
0.000122536
0.000125331
0.000129496
0.000135152
0.000142836
0.000155753
0.000181532
0.000236026
0.000293675
0.000314646
0.000307872
0.000272945
0.000223831
0.000187244
0.000161193
0.00014803
0.000144871
0.000144826
0.000146492
0.000147876
0.000143405
0.000127241
0.000139734
0.000241799
0.00045813
0.000632229
0.000712806
0.000786498
0.000818725
0.00083699
0.000770041
0.000798746
0.000765955
0.000798376
0.000684797
0.000725014
0.000632001
0.000650124
0.000615198
0.000630653
0.000579406
0.000593153
0.000572287
0.000575103
0.00054005
0.000538179
0.000525027
0.000526173
0.000522298
0.000542327
0.000491885
0.000505051
0.000513602
0.000528907
0.000463383
0.000465776
0.000474386
0.000486199
0.000463759
0.000452491
0.000449623
0.00051425
0.000483231
0.000448134
0.000432929
0.000454447
0.000538493
0.000555663
0.000536622
0.000508207
0.000555566
0.000499766
0.000477337
0.000548187
0.000555786
0.000555842
0.000539763
0.000218406
0.00044786
0.000409887
0.00032025
5.64551e-05
5.71241e-05
5.20019e-05
0.00015751
0.00010119
0.000133369
0.000124116
0.000125693
0.000129195
0.000134199
0.00014105
0.00015245
0.000174315
0.000222357
0.000282025
0.000314658
0.000313021
0.000287822
0.000237969
0.000196975
0.000167839
0.000151417
0.00014782
0.000147399
0.00015088
0.000153731
0.000151062
0.000138684
0.000182782
0.000334842
0.000553205
0.000670163
0.000734321
0.000815977
0.000855165
0.000833305
0.000841419
0.000815613
0.000827525
0.000797221
0.000811357
0.000731644
0.000771194
0.000651942
0.000686666
0.000611464
0.000634299
0.000552163
0.000572056
0.000538836
0.000544034
0.000525363
0.000523444
0.000560693
0.000575778
0.000536636
0.000551026
0.000559766
0.000569492
0.00049667
0.000506826
0.000512829
0.000508934
0.000454614
0.000465351
0.00047564
0.000472409
0.000437096
0.000435742
0.000442641
0.000473782
0.000442333
0.000421909
0.000407239
0.000418918
0.000504172
0.000536454
0.000502508
0.000466712
0.000537925
0.00052686
0.000507961
0.000554709
0.000540938
0.000544835
0.000551046
0.000262837
0.000481522
0.000446063
0.000362483
5.50355e-05
6.34519e-05
4.94813e-05
0.000194147
0.000122365
0.000134454
0.000127004
0.000129381
0.000133706
0.000139692
0.000150025
0.000168573
0.000209099
0.000268876
0.000312705
0.000316564
0.00030101
0.000253184
0.000208266
0.000175949
0.000155888
0.00015044
0.000150558
0.000154823
0.000158761
0.000158356
0.000153358
0.00022877
0.000433827
0.000631397
0.000707152
0.000757365
0.000841238
0.000866414
0.000798697
0.000805573
0.000816593
0.000806748
0.000817859
0.000820851
0.000792847
0.000793767
0.000748722
0.000778569
0.000668576
0.000711395
0.000596182
0.000626343
0.000529114
0.000547624
0.000521727
0.000523061
0.000579217
0.000569317
0.00057146
0.000603605
0.000505001
0.000508684
0.000514711
0.000496009
0.000454061
0.000437807
0.000427704
0.000422895
0.000453184
0.000448625
0.000420875
0.00039549
0.000421852
0.000429338
0.000440164
0.000432017
0.000406197
0.000407502
0.000392709
0.000393009
0.00046217
0.000503255
0.000460767
0.000424281
0.000506654
0.00054332
0.0005295
0.000548409
0.000512743
0.000520666
0.00055023
0.000303083
0.000507906
0.000476374
0.000399644
1.42927e-05
6.95529e-05
4.71387e-05
0.000227786
0.000141512
0.000135448
0.000130325
0.000133745
0.000138854
0.000148173
0.000163858
0.000197417
0.000255074
0.000306836
0.000319906
0.000310637
0.000269432
0.000221898
0.000185349
0.000161903
0.000154394
0.000152587
0.0001582
0.000164253
0.000165253
0.000164956
0.000270364
0.00052738
0.000695944
0.00074053
0.000781498
0.000867163
0.000893166
0.000708574
0.000642131
0.000593968
0.000697444
0.000665727
0.0007694
0.000733015
0.000741775
0.000687177
0.000741728
0.000755417
0.000667408
0.000709569
0.000575699
0.000609531
0.000531168
0.000536489
0.000553816
0.000539233
0.000623429
0.000623519
0.00046412
0.000490932
0.000546135
0.000497573
0.00042116
0.000423369
0.000424982
0.000447251
0.00037428
0.000358687
0.0003514
0.000351121
0.000411501
0.000381572
0.00035265
0.00032743
0.000415088
0.000419961
0.000387058
0.000395001
0.000379442
0.000400395
0.00038519
0.000378046
0.000419293
0.000462412
0.00041722
0.000385965
0.000467563
0.000548562
0.000541254
0.000529501
0.000476136
0.000487471
0.000537917
0.000338661
0.000526529
0.000500519
0.000431788
1.5269e-05
7.23178e-05
1.9316e-05
0.000256917
0.000155782
0.000136814
0.000134329
0.000138703
0.000146684
0.000159934
0.00018766
0.000240871
0.000296154
0.000320498
0.000316889
0.000287505
0.000237831
0.000196697
0.000168673
0.000159428
0.000155945
0.000159885
0.000170199
0.000172455
0.000175204
0.000297766
0.00060437
0.000748456
0.000770204
0.000807603
0.000894271
0.00091768
0.000695756
0.000312026
0.00028586
0.00038412
0.000342369
0.000477844
0.000424003
0.000617927
0.00054493
0.000608138
0.000500643
0.000698731
0.000680186
0.000651157
0.000683344
0.000556579
0.000585595
0.000559424
0.000545156
0.00060996
0.000584537
0.000540806
0.000587558
0.000564658
0.000413944
0.000430555
0.000471024
0.000452471
0.000354069
0.000361267
0.00036983
0.000390156
0.000308539
0.000299482
0.000298815
0.000302803
0.000354001
0.000324361
0.000297588
0.000276993
0.000404501
0.000373389
0.000339935
0.000367103
0.000363704
0.000393888
0.00037741
0.000370088
0.000379768
0.000418708
0.000376396
0.000356101
0.000424601
0.000543565
0.000544127
0.000500806
0.000435081
0.000449822
0.000515337
0.000369423
0.000536981
0.000518357
0.00045919
2.7452e-05
7.12253e-05
1.85539e-05
0.000280567
0.000162854
0.000139197
0.000138959
0.000145927
0.000157255
0.00018005
0.000227841
0.000283616
0.000319588
0.000320929
0.000303243
0.000255798
0.000210111
0.000177106
0.000164713
0.000160496
0.00016274
0.000174789
0.000181034
0.000179454
0.000308424
0.00065609
0.000795538
0.000793753
0.000841856
0.000926487
0.000931087
0.000653529
0.000224007
0.000157021
0.000134217
0.000181804
0.000166886
0.000235208
0.000201861
0.000384787
0.000291857
0.000439985
0.000321965
0.000618494
0.000550509
0.00061545
0.000633121
0.000547514
0.000556389
0.000587463
0.000561579
0.000581773
0.000599671
0.000494087
0.000471376
0.000460387
0.000522446
0.000373226
0.000392377
0.000426026
0.000410801
0.000309328
0.000319374
0.000332051
0.000350553
0.000266418
0.000265758
0.000268332
0.000274286
0.00030932
0.00028406
0.000264258
0.000255054
0.000368409
0.000337219
0.00030788
0.000349419
0.000354749
0.000370876
0.000368881
0.000360864
0.000347513
0.000376367
0.000341854
0.000335537
0.000381013
0.000528546
0.000538278
0.000467722
0.000391429
0.000408243
0.000487321
0.000395513
0.00054034
0.000530175
0.000481836
4.41008e-05
6.47227e-05
3.61106e-05
0.000297841
0.000161561
0.000142524
0.000145706
0.000156151
0.000173819
0.00021586
0.000270985
0.000314808
0.000324228
0.000314729
0.000273191
0.000225051
0.000187498
0.000171252
0.000165222
0.000167516
0.000179645
0.000189622
0.000182677
0.000308057
0.000679076
0.000836593
0.00081887
0.000873074
0.00095069
0.000942917
0.000603423
0.000239386
0.000106916
0.000113315
0.000102528
0.000101713
0.000107828
0.000103858
0.00013276
0.000115901
0.000227332
0.000166338
0.000318454
0.000226566
0.000513152
0.000426377
0.000566097
0.000557344
0.000544814
0.000529157
0.000516168
0.000529801
0.000492257
0.000591867
0.000509879
0.000439326
0.000458868
0.000437512
0.000440727
0.000343309
0.000362228
0.000395609
0.000379015
0.000282039
0.00029271
0.000306188
0.000323587
0.000254601
0.00025499
0.000258238
0.000266479
0.000284627
0.00026858
0.000259305
0.000255452
0.000343464
0.000318156
0.000298177
0.000339098
0.000344787
0.000355431
0.000357078
0.000351534
0.000323713
0.000339633
0.000314787
0.000322203
0.000341465
0.000506628
0.000524709
0.000430421
0.000349053
0.000365854
0.000456148
0.000416959
0.000536602