/*--------------------------------*- C++ -*----------------------------------*\
  =========                 |
  \\      /  F ield         | OpenFOAM: The Open Source CFD Toolbox
   \\    /   O peration     | Website:  https://openfoam.org
    \\  /    A nd           | Version:  dev
     \\/     M anipulation  |
\*---------------------------------------------------------------------------*/
FoamFile
{
    version     2.0;
    format      ascii;
    class       volScalarField;
    location    "2500";
    object      O2;
}
// * * * * * * * * * * * * * * * * * * * * * * * * * * * * * * * * * * * * * //

dimensions      [0 0 0 0 0 0 0];

internalField   nonuniform List<scalar> 
9838
(
0.23301
0.23301
0.23301
0.23301
0.23301
0.23301
0.23301
0.23301
0.23301
0.23301
0.23301
0.23301
0.23301
0.23301
0.23301
0.23301
0.23301
0.23301
0.23301
0.23301
0.23301
0.23301
0.23301
0.23301
0.23301
0.23301
0.23301
0.23301
0.23301
0.23301
0.23301
0.23301
0.23301
0.23301
0.23301
0.23301
0.23301
0.23301
0.23301
0.23301
0.23301
0.23301
0.23301
0.23301
0.23301
0.23301
0.23301
0.23301
0.23301
0.23301
0.23301
0.23301
0.23301
0.23301
0.23301
0.23301
0.23301
0.23301
0.23301
0.23301
0.23301
0.23301
0.23301
0.23301
0.23301
0.23301
0.23301
0.23301
0.23301
0.23301
0.23301
0.23301
0.23301
0.23301
0.23301
0.23301
0.23301
0.23301
0.23301
0.23301
0.23301
0.23301
0.23301
0.23301
0.23301
0.23301
0.23301
0.23301
0.23301
0.23301
0.23301
0.23301
0.23301
0.23301
0.23301
0.23301
0.23301
0.23301
0.23301
0.23301
0.23301
0.23301
0.23301
0.23301
0.23301
0.23301
0.23301
0.23301
0.23301
0.23301
0.23301
0.23301
0.23301
0.23301
0.23301
0.23301
0.23301
0.23301
0.23301
0.23301
0.23301
0.23301
0.23301
0.23301
0.23301
0.23301
0.23301
0.23301
0.23301
0.23301
0.23301
0.23301
0.23301
0.23301
0.23301
0.23301
0.23301
0.23301
0.23301
0.23301
0.23301
0.23301
0.23301
0.23301
0.23301
0.23301
0.23301
0.23301
0.23301
0.23301
0.23301
0.23301
0.23301
0.23301
0.23301
0.23301
0.23301
0.23301
0.23301
0.23301
0.23301
0.23301
0.23301
0.23301
0.23301
0.23301
0.23301
0.23301
0.23301
0.23301
0.23301
0.23301
0.23301
0.23301
0.23301
0.23301
0.23301
0.23301
0.23301
0.23301
0.23301
0.23301
0.23301
0.23301
0.23301
0.23301
0.23301
0.23301
0.23301
0.23301
0.23301
0.23301
0.23301
0.23301
0.23301
0.23301
0.23301
0.23301
0.23301
0.23301
0.23301
0.23301
0.23301
0.23301
0.23301
0.23301
0.23301
0.23301
0.23301
0.23301
0.23301
0.23301
0.23301
0.23301
0.23301
0.23301
0.23301
0.23301
0.23301
0.23301
0.23301
0.23301
0.23301
0.23301
0.23301
0.23301
0.23301
0.23301
0.23301
0.23301
0.23301
0.23301
0.23301
0.23301
0.23301
0.23301
0.23301
0.23301
0.23301
0.23301
0.23301
0.23301
0.23301
0.23301
0.23301
0.23301
0.23301
0.23301
0.23301
0.23301
0.23301
0.23301
0.23301
0.23301
0.23301
0.23301
0.23301
0.23301
0.23301
0.23301
0.23301
0.23301
0.23301
0.23301
0.23301
0.23301
0.23301
0.23301
0.23301
0.23301
0.23301
0.23301
0.23301
0.23301
0.23301
0.23301
0.23301
0.23301
0.23301
0.23301
0.23301
0.23301
0.23301
0.23301
0.23301
0.23301
0.23301
0.23301
0.23301
0.23301
0.23301
0.23301
0.23301
0.23301
0.23301
0.23301
0.23301
0.23301
0.23301
0.23301
0.23301
0.23301
0.23301
0.23301
0.23301
0.23301
0.23301
0.23301
0.23301
0.23301
0.23301
0.23301
0.23301
0.23301
0.23301
0.23301
0.23301
0.23301
0.23301
0.23301
0.23301
0.23301
0.23301
0.23301
0.23301
0.23301
0.23301
0.23301
0.23301
0.23301
0.23301
0.23301
0.23301
0.23301
0.23301
0.23301
0.23301
0.23301
0.23301
0.23301
0.23301
0.23301
0.23301
0.23301
0.23301
0.23301
0.23301
0.23301
0.23301
0.23301
0.23301
0.23301
0.23301
0.23301
0.23301
0.23301
0.23301
0.23301
0.23301
0.23301
0.23301
0.23301
0.23301
0.23301
0.23301
0.23301
0.23301
0.23301
0.23301
0.23301
0.23301
0.23301
0.23301
0.23301
0.23301
0.23301
0.23301
0.23301
0.23301
0.23301
0.23301
0.23301
0.23301
0.23301
0.23301
0.23301
0.23301
0.23301
0.23301
0.23301
0.23301
0.23301
0.23301
0.23301
0.23301
0.23301
0.23301
0.23301
0.23301
0.23301
0.23301
0.23301
0.23301
0.23301
0.23301
0.23301
0.23301
0.23301
0.23301
0.23301
0.23301
0.23301
0.23301
0.23301
0.23301
0.23301
0.23301
0.23301
0.23301
0.23301
0.23301
0.23301
0.23301
0.23301
0.23301
0.23301
0.23301
0.23301
0.23301
0.23301
0.23301
0.23301
0.23301
0.23301
0.23301
0.23301
0.23301
0.23301
0.23301
0.23301
0.23301
0.23301
0.23301
0.23301
0.23301
0.23301
0.23301
0.23301
0.23301
0.23301
0.23301
0.23301
0.23301
0.23301
0.23301
0.23301
0.23301
0.23301
0.23301
0.23301
0.23301
0.23301
0.23301
0.23301
0.23301
0.23301
0.23301
0.23301
0.23301
0.23301
0.23301
0.23301
0.23301
0.23301
0.23301
0.23301
0.23301
0.23301
0.23301
0.23301
0.23301
0.23301
0.23301
0.23301
0.23301
0.23301
0.23301
0.23301
0.23301
0.23301
0.23301
0.23301
0.23301
0.23301
0.23301
0.23301
0.23301
0.23301
0.23301
0.23301
0.23301
0.23301
0.23301
0.23301
0.23301
0.23301
0.23301
0.23301
0.23301
0.23301
0.23301
0.23301
0.23301
0.23301
0.23301
0.23301
0.23301
0.23301
0.23301
0.23301
0.23301
0.23301
0.23301
0.23301
0.23301
0.23301
0.23301
0.23301
0.23301
0.23301
0.23301
0.23301
0.23301
0.23301
0.23301
0.23301
0.23301
0.23301
0.23301
0.23301
0.23301
0.23301
0.23301
0.23301
0.23301
0.23301
0.23301
0.23301
0.23301
0.23301
0.23301
0.23301
0.23301
0.23301
0.23301
0.23301
0.23301
0.23301
0.23301
0.23301
0.23301
0.23301
0.23301
0.23301
0.23301
0.23301
0.23301
0.23301
0.23301
0.23301
0.23301
0.23301
0.23301
0.23301
0.23301
0.23301
0.23301
0.23301
0.23301
0.23301
0.23301
0.23301
0.23301
0.23301
0.23301
0.23301
0.23301
0.23301
0.23301
0.23301
0.23301
0.23301
0.23301
0.23301
0.23301
0.23301
0.23301
0.23301
0.23301
0.23301
0.23301
0.23301
0.23301
0.23301
0.23301
0.23301
0.23301
0.23301
0.23301
0.23301
0.23301
0.23301
0.23301
0.23301
0.23301
0.23301
0.23301
0.23301
0.23301
0.23301
0.23301
0.23301
0.23301
0.23301
0.23301
0.23301
0.23301
0.23301
0.23301
0.23301
0.23301
0.23301
0.23301
0.23301
0.23301
0.23301
0.23301
0.23301
0.23301
0.23301
0.23301
0.23301
0.23301
0.23301
0.23301
0.23301
0.23301
0.23301
0.23301
0.23301
0.23301
0.23301
0.23301
0.23301
0.23301
0.23301
0.23301
0.23301
0.23301
0.23301
0.23301
0.23301
0.23301
0.23301
0.23301
0.23301
0.23301
0.23301
0.23301
0.23301
0.23301
0.23301
0.23301
0.23301
0.23301
0.23301
0.23301
0.23301
0.23301
0.23301
0.23301
0.23301
0.23301
0.23301
0.23301
0.23301
0.23301
0.23301
0.23301
0.23301
0.23301
0.23301
0.23301
0.23301
0.23301
0.23301
0.23301
0.23301
0.23301
0.23301
0.23301
0.23301
0.23301
0.23301
0.23301
0.23301
0.23301
0.23301
0.23301
0.23301
0.23301
0.23301
0.23301
0.23301
0.23301
0.23301
0.23301
0.23301
0.23301
0.23301
0.23301
0.23301
0.23301
0.23301
0.23301
0.23301
0.23301
0.23301
0.23301
0.23301
0.23301
0.23301
0.23301
0.23301
0.23301
0.23301
0.23301
0.23301
0.23301
0.23301
0.23301
0.23301
0.23301
0.23301
0.23301
0.23301
0.23301
0.23301
0.23301
0.23301
0.23301
0.23301
0.23301
0.23301
0.23301
0.23301
0.23301
0.23301
0.23301
0.23301
0.23301
0.23301
0.23301
0.23301
0.23301
0.23301
0.23301
0.23301
0.23301
0.23301
0.23301
0.23301
0.23301
0.23301
0.23301
0.23301
0.23301
0.23301
0.23301
0.23301
0.23301
0.23301
0.23301
0.23301
0.23301
0.23301
0.23301
0.23301
0.23301
0.23301
0.23301
0.23301
0.23301
0.23301
0.23301
0.23301
0.23301
0.23301
0.23301
0.23301
0.23301
0.23301
0.23301
0.23301
0.23301
0.23301
0.23301
0.23301
0.23301
0.23301
0.23301
0.23301
0.23301
0.23301
0.23301
0.23301
0.23301
0.23301
0.23301
0.23301
0.23301
0.23301
0.23301
0.23301
0.23301
0.23301
0.23301
0.23301
0.23301
0.23301
0.23301
0.23301
0.23301
0.23301
0.23301
0.23301
0.23301
0.23301
0.23301
0.23301
0.23301
0.23301
0.23301
0.23301
0.23301
0.23301
0.23301
0.23301
0.23301
0.23301
0.23301
0.23301
0.23301
0.23301
0.23301
0.23301
0.23301
0.23301
0.23301
0.23301
0.23301
0.23301
0.23301
0.23301
0.23301
0.23301
0.23301
0.23301
0.23301
0.23301
0.23301
0.23301
0.23301
0.23301
0.23301
0.23301
0.23301
0.23301
0.23301
0.23301
0.23301
0.23301
0.23301
0.23301
0.23301
0.23301
0.23301
0.23301
0.23301
0.23301
0.23301
0.23301
0.23301
0.23301
0.23301
0.23301
0.23301
0.23301
0.23301
0.23301
0.23301
0.23301
0.23301
0.23301
0.23301
0.23301
0.23301
0.23301
0.23301
0.23301
0.23301
0.23301
0.23301
0.23301
0.23301
0.23301
0.23301
0.23301
0.23301
0.23301
0.23301
0.23301
0.23301
0.23301
0.23301
0.23301
0.23301
0.23301
0.23301
0.23301
0.23301
0.23301
0.23301
0.23301
0.23301
0.23301
0.23301
0.23301
0.23301
0.23301
0.23301
0.23301
0.23301
0.23301
0.23301
0.23301
0.23301
0.23301
0.23301
0.23301
0.23301
0.23301
0.23301
0.23301
0.23301
0.23301
0.23301
0.23301
0.23301
0.23301
0.23301
0.23301
0.23301
0.23301
0.23301
0.23301
0.23301
0.23301
0.23301
0.23301
0.23301
0.23301
0.23301
0.23301
0.23301
0.23301
0.23301
0.23301
0.23301
0.23301
0.23301
0.23301
0.23301
0.23301
0.23301
0.23301
0.23301
0.23301
0.23301
0.23301
0.23301
0.23301
0.23301
0.23301
0.23301
0.23301
0.23301
0.23301
0.23301
0.23301
0.23301
0.23301
0.23301
0.23301
0.23301
0.23301
0.23301
0.23301
0.23301
0.23301
0.23301
0.23301
0.23301
0.23301
0.23301
0.23301
0.23301
0.23301
0.23301
0.23301
0.23301
0.23301
0.23301
0.23301
0.23301
0.23301
0.23301
0.23301
0.23301
0.23301
0.23301
0.23301
0.23301
0.23301
0.23301
0.23301
0.23301
0.23301
0.23301
0.23301
0.23301
0.23301
0.23301
0.23301
0.23301
0.23301
0.23301
0.23301
0.23301
0.23301
0.23301
0.23301
0.23301
0.23301
0.23301
0.23301
0.23301
0.23301
0.23301
0.23301
0.23301
0.23301
0.23301
0.23301
0.23301
0.23301
0.23301
0.23301
0.23301
0.23301
0.23301
0.23301
0.23301
0.23301
0.23301
0.23301
0.23301
0.23301
0.23301
0.23301
0.23301
0.23301
0.23301
0.23301
0.23301
0.23301
0.23301
0.23301
0.23301
0.23301
0.23301
0.23301
0.23301
0.23301
0.23301
0.23301
0.23301
0.23301
0.23301
0.23301
0.23301
0.233009
0.23301
0.233009
0.233009
0.233008
0.233009
0.233008
0.233009
0.233007
0.233009
0.233007
0.23301
0.233008
0.23301
0.233009
0.23301
0.23301
0.23301
0.23301
0.23301
0.23301
0.23301
0.23301
0.23301
0.23301
0.23301
0.23301
0.23301
0.23301
0.23301
0.23301
0.23301
0.23301
0.23301
0.23301
0.23301
0.23301
0.23301
0.23301
0.23301
0.23301
0.23301
0.23301
0.23301
0.23301
0.23301
0.23301
0.23301
0.23301
0.23301
0.23301
0.23301
0.23301
0.23301
0.23301
0.233008
0.233009
0.233008
0.233008
0.233006
0.233007
0.233003
0.233005
0.232999
0.233003
0.232993
0.233002
0.232989
0.233003
0.232989
0.233006
0.232996
0.233009
0.233004
0.233008
0.23301
0.233008
0.233008
0.23301
0.23301
0.23301
0.23301
0.23301
0.23301
0.23301
0.23301
0.23301
0.23301
0.23301
0.23301
0.23301
0.23301
0.23301
0.23301
0.23301
0.23301
0.23301
0.23301
0.23301
0.23301
0.23301
0.23301
0.23301
0.23301
0.23301
0.23301
0.23301
0.23301
0.23301
0.23301
0.23301
0.23301
0.23301
0.233009
0.233005
0.232994
0.232983
0.233004
0.233
0.232999
0.232989
0.232988
0.232968
0.232973
0.232936
0.232959
0.232899
0.232954
0.232877
0.232964
0.232884
0.232983
0.232921
0.233001
0.232968
0.232999
0.233009
0.232998
0.233
0.23301
0.233009
0.23301
0.23301
0.23301
0.23301
0.23301
0.23301
0.23301
0.23301
0.23301
0.23301
0.23301
0.23301
0.23301
0.23301
0.23301
0.23301
0.23301
0.23301
0.23301
0.23301
0.23301
0.23301
0.23301
0.23301
0.23301
0.23301
0.23301
0.23301
0.23301
0.23301
0.23301
0.23301
0.23301
0.233008
0.233
0.232969
0.232946
0.232922
0.232869
0.232976
0.232952
0.232941
0.232893
0.232877
0.23279
0.232796
0.232648
0.23273
0.232504
0.232717
0.23242
0.232766
0.232451
0.232862
0.232601
0.232952
0.232797
0.232942
0.233003
0.232941
0.232951
0.23301
0.233006
0.23301
0.23301
0.23301
0.23301
0.23301
0.23301
0.23301
0.23301
0.23301
0.23301
0.23301
0.23301
0.23301
0.23301
0.23301
0.23301
0.23301
0.23301
0.23301
0.23301
0.23301
0.23301
0.23301
0.23301
0.23301
0.23301
0.23301
0.23301
0.23301
0.23301
0.23301
0.23301
0.233009
0.233004
0.232973
0.232895
0.232916
0.232807
0.232703
0.232627
0.232492
0.232827
0.232737
0.232677
0.232534
0.232463
0.232256
0.232222
0.231921
0.23203
0.231602
0.231962
0.231397
0.232084
0.231396
0.232411
0.231671
0.232738
0.23222
0.232704
0.232969
0.232707
0.232753
0.233008
0.232988
0.23301
0.233009
0.23301
0.23301
0.23301
0.23301
0.23301
0.23301
0.23301
0.23301
0.23301
0.23301
0.23301
0.23301
0.23301
0.23301
0.23301
0.23301
0.23301
0.23301
0.23301
0.23301
0.23301
0.23301
0.23301
0.23301
0.23301
0.23301
0.23301
0.23301
0.23301
0.23301
0.233009
0.232996
0.23291
0.232509
0.232602
0.232358
0.232341
0.232158
0.23201
0.231814
0.232371
0.232196
0.232038
0.231812
0.23162
0.231334
0.231177
0.230788
0.230825
0.230283
0.23066
0.229951
0.230784
0.229895
0.23127
0.230207
0.232076
0.230932
0.23201
0.232828
0.232044
0.232183
0.233001
0.232911
0.23301
0.233008
0.23301
0.23301
0.23301
0.23301
0.23301
0.23301
0.23301
0.23301
0.23301
0.23301
0.23301
0.23301
0.23301
0.23301
0.23301
0.23301
0.23301
0.23301
0.23301
0.23301
0.23301
0.23301
0.23301
0.23301
0.23301
0.23301
0.23301
0.23301
0.23301
0.233008
0.232985
0.232826
0.232213
0.231544
0.231488
0.231967
0.231773
0.231612
0.231388
0.23116
0.230947
0.23159
0.231373
0.231063
0.230812
0.230438
0.230129
0.229796
0.229376
0.229294
0.228704
0.22905
0.228278
0.229165
0.228194
0.229716
0.22854
0.230712
0.229349
0.230644
0.232404
0.230757
0.231052
0.232973
0.232665
0.23301
0.233003
0.23301
0.23301
0.23301
0.23301
0.23301
0.23301
0.23301
0.23301
0.23301
0.23301
0.23301
0.23301
0.23301
0.23301
0.23301
0.23301
0.23301
0.23301
0.23301
0.23301
0.23301
0.23301
0.23301
0.23301
0.23301
0.23301
0.23301
0.23301
0.233006
0.23297
0.232734
0.231961
0.230597
0.230766
0.2304
0.231172
0.23094
0.230731
0.230499
0.230159
0.229956
0.230582
0.230366
0.229853
0.229615
0.22902
0.228722
0.228197
0.227781
0.227583
0.226982
0.227308
0.226512
0.227439
0.22644
0.228053
0.226839
0.229142
0.227721
0.229117
0.231502
0.229271
0.229535
0.230502
0.232889
0.232079
0.233009
0.232996
0.23301
0.23301
0.23301
0.23301
0.23301
0.23301
0.23301
0.23301
0.23301
0.23301
0.23301
0.23301
0.23301
0.23301
0.23301
0.23301
0.23301
0.23301
0.23301
0.23301
0.23301
0.23301
0.23301
0.23301
0.23301
0.23301
0.233009
0.233002
0.232946
0.23263
0.231715
0.230319
0.229439
0.22927
0.229842
0.229627
0.230274
0.230049
0.229751
0.229533
0.229055
0.228892
0.22941
0.229226
0.228475
0.228285
0.227451
0.227195
0.226475
0.226093
0.225785
0.225222
0.225555
0.224737
0.225713
0.224731
0.2264
0.225158
0.227575
0.22615
0.226886
0.228418
0.227577
0.2298
0.231083
0.230058
0.228726
0.227779
0.227692
0.228884
0.232896
0.232541
0.230441
0.230805
0.231841
0.233008
0.232767
0.232992
0.2329
0.23301
0.23301
0.23301
0.23301
0.23301
0.23301
0.23301
0.23301
0.23301
0.23301
0.23301
0.23301
0.23301
0.23301
0.23301
0.23301
0.23301
0.23301
0.23301
0.23301
0.23301
0.23301
0.23301
0.23301
0.23301
0.233008
0.232994
0.232906
0.232494
0.231478
0.230015
0.229145
0.229125
0.228645
0.228635
0.228948
0.228788
0.229326
0.229128
0.228727
0.228555
0.22792
0.227831
0.228139
0.22802
0.227015
0.226912
0.22583
0.225672
0.22493
0.22482
0.224367
0.224357
0.223969
0.223845
0.224724
0.224188
0.22381
0.223476
0.225536
0.224823
0.223985
0.223651
0.224266
0.226121
0.226865
0.226036
0.225393
0.22688
0.229143
0.229469
0.228
0.227126
0.226968
0.228229
0.232212
0.229843
0.230287
0.231304
0.233008
0.232998
0.232971
0.232564
0.232806
0.23301
0.23301
0.23301
0.23301
0.23301
0.23301
0.23301
0.23301
0.23301
0.23301
0.23301
0.23301
0.23301
0.23301
0.23301
0.23301
0.23301
0.23301
0.23301
0.23301
0.23301
0.23301
0.23301
0.233009
0.233005
0.232976
0.232825
0.232326
0.231263
0.229918
0.229087
0.228679
0.228781
0.228195
0.228353
0.228166
0.228139
0.228406
0.228282
0.227742
0.227657
0.22684
0.226853
0.226858
0.226835
0.225606
0.225624
0.224788
0.224794
0.224421
0.224556
0.224033
0.224456
0.223448
0.223541
0.223737
0.224106
0.223516
0.223276
0.223279
0.224704
0.224052
0.22324
0.223039
0.22348
0.225313
0.226093
0.225306
0.224592
0.226153
0.228519
0.228867
0.227334
0.226272
0.226452
0.227593
0.231791
0.229275
0.229753
0.230794
0.233006
0.232991
0.232936
0.232271
0.23266
0.23301
0.23301
0.23301
0.23301
0.23301
0.23301
0.23301
0.23301
0.23301
0.23301
0.23301
0.23301
0.23301
0.23301
0.23301
0.23301
0.23301
0.23301
0.23301
0.23301
0.23301
0.23301
0.233009
0.232999
0.232941
0.232708
0.232125
0.231067
0.229927
0.229359
0.229047
0.229274
0.228562
0.228794
0.228059
0.228381
0.227643
0.227797
0.227606
0.227603
0.226869
0.226903
0.225862
0.225987
0.225666
0.225749
0.224804
0.224825
0.224667
0.224727
0.225051
0.225515
0.224591
0.225221
0.22576
0.226336
0.223415
0.223759
0.224319
0.225026
0.223073
0.223129
0.223353
0.223909
0.223308
0.222894
0.222726
0.222856
0.224539
0.225341
0.224538
0.223811
0.225427
0.227909
0.228285
0.226683
0.225572
0.225778
0.226971
0.231348
0.228725
0.229241
0.2303
0.233004
0.232889
0.232981
0.231937
0.232481
0.23301
0.23301
0.23301
0.23301
0.23301
0.23301
0.23301
0.23301
0.23301
0.23301
0.23301
0.23301
0.23301
0.23301
0.23301
0.23301
0.23301
0.23301
0.23301
0.23301
0.23301
0.233008
0.232991
0.23289
0.23256
0.23191
0.230881
0.229955
0.229582
0.229923
0.229508
0.229941
0.228757
0.229155
0.228214
0.228752
0.22739
0.227748
0.226976
0.227114
0.22613
0.226307
0.225112
0.225309
0.224872
0.224964
0.224731
0.224708
0.225726
0.2257
0.226723
0.227067
0.227238
0.227287
0.225782
0.226509
0.22714
0.227634
0.223859
0.22459
0.225451
0.226346
0.222992
0.223327
0.223973
0.223174
0.222702
0.222859
0.222716
0.222563
0.223766
0.224588
0.223775
0.223082
0.224694
0.227317
0.227724
0.22604
0.224866
0.225102
0.226361
0.230917
0.228201
0.228754
0.229832
0.233004
0.232836
0.232976
0.231604
0.232299
0.23301
0.23301
0.23301
0.23301
0.23301
0.23301
0.23301
0.23301
0.23301
0.23301
0.23301
0.23301
0.23301
0.23301
0.23301
0.23301
0.23301
0.23301
0.23301
0.23301
0.233008
0.232983
0.232833
0.232402
0.231684
0.230704
0.230002
0.229769
0.230265
0.230909
0.231076
0.230263
0.23063
0.229306
0.229823
0.228671
0.229404
0.227363
0.227968
0.226542
0.226895
0.225559
0.225876
0.224729
0.224882
0.224676
0.224679
0.225566
0.225299
0.227649
0.227289
0.227979
0.228181
0.228259
0.22825
0.227192
0.227918
0.228471
0.228835
0.224843
0.225826
0.226837
0.227792
0.223293
0.224049
0.225027
0.222575
0.222406
0.223221
0.223094
0.222562
0.22304
0.223836
0.223046
0.22248
0.22396
0.226742
0.227186
0.225399
0.224158
0.224423
0.225758
0.230514
0.227701
0.228295
0.229395
0.233007
0.232792
0.232979
0.2313
0.232142
0.23301
0.23301
0.23301
0.23301
0.23301
0.23301
0.23301
0.23301
0.23301
0.23301
0.23301
0.23301
0.23301
0.23301
0.23301
0.23301
0.23301
0.23301
0.23301
0.233008
0.232979
0.232784
0.232254
0.231478
0.230573
0.230062
0.229944
0.230557
0.231709
0.231686
0.231946
0.231128
0.231461
0.230091
0.230675
0.229334
0.230222
0.227567
0.228417
0.226296
0.226853
0.22518
0.225611
0.224736
0.224787
0.225016
0.224802
0.226748
0.226169
0.228628
0.228309
0.227681
0.22804
0.229028
0.229077
0.229014
0.228861
0.228606
0.229208
0.229582
0.229737
0.226109
0.227213
0.228259
0.229146
0.224056
0.225108
0.226264
0.22226
0.222394
0.223973
0.223797
0.222915
0.222419
0.223108
0.222404
0.222131
0.223241
0.22618
0.226667
0.224759
0.223455
0.223747
0.225162
0.230147
0.227224
0.227866
0.228992
0.233009
0.232773
0.23299
0.231039
0.23204
0.23301
0.23301
0.23301
0.23301
0.23301
0.23301
0.23301
0.23301
0.23301
0.23301
0.23301
0.23301
0.23301
0.23301
0.23301
0.23301
0.23301
0.23301
0.233008
0.232978
0.23276
0.232135
0.2313
0.2305
0.230123
0.23013
0.230844
0.23198
0.232621
0.232694
0.232426
0.232555
0.232
0.232262
0.230994
0.23159
0.230083
0.231085
0.227924
0.228988
0.226204
0.226978
0.225002
0.225504
0.224952
0.224934
0.225635
0.225205
0.22738
0.22702
0.226673
0.228971
0.228662
0.227988
0.228334
0.229751
0.229662
0.229485
0.229248
0.229792
0.230142
0.230251
0.230251
0.227439
0.228547
0.229479
0.23014
0.225074
0.226273
0.22749
0.222211
0.222691
0.224913
0.224625
0.223536
0.222023
0.222445
0.22195
0.222031
0.222566
0.225631
0.226165
0.224122
0.222779
0.223087
0.224573
0.229823
0.226768
0.227463
0.228623
0.233009
0.232789
0.232999
0.230832
0.232003
0.23301
0.23301
0.23301
0.23301
0.23301
0.23301
0.23301
0.23301
0.23301
0.23301
0.23301
0.23301
0.23301
0.23301
0.23301
0.23301
0.23301
0.233008
0.232979
0.232757
0.232074
0.231164
0.23046
0.230193
0.230338
0.231159
0.23223
0.232844
0.232916
0.232957
0.232839
0.232889
0.232614
0.232761
0.231849
0.232338
0.230685
0.23162
0.22832
0.22953
0.226246
0.227199
0.225087
0.225561
0.225305
0.225227
0.226075
0.225603
0.227647
0.227298
0.227258
0.226903
0.229262
0.228964
0.228303
0.228642
0.230147
0.229982
0.229775
0.229533
0.230441
0.230538
0.230543
0.230476
0.228632
0.229591
0.230259
0.230556
0.226128
0.227356
0.228514
0.222423
0.22321
0.225829
0.225389
0.224237
0.221859
0.221924
0.221714
0.22213
0.221979
0.225092
0.225677
0.223496
0.222149
0.222459
0.223992
0.229541
0.226331
0.227084
0.228288
0.233008
0.232844
0.232992
0.230685
0.232044
0.23301
0.23301
0.23301
0.23301
0.23301
0.23301
0.23301
0.23301
0.23301
0.23301
0.23301
0.23301
0.23301
0.23301
0.23301
0.23301
0.233009
0.232984
0.232763
0.232066
0.231095
0.230454
0.230267
0.230555
0.23146
0.232414
0.232875
0.232999
0.232998
0.232993
0.233001
0.232963
0.232984
0.232824
0.232919
0.232255
0.232629
0.230934
0.231761
0.228621
0.229847
0.226381
0.227425
0.225347
0.225776
0.225866
0.225761
0.226596
0.22631
0.226145
0.227956
0.227607
0.227726
0.227375
0.229624
0.229369
0.228765
0.229081
0.230367
0.23022
0.23005
0.229852
0.230651
0.230658
0.230618
0.230536
0.229487
0.230173
0.230518
0.230642
0.227045
0.228197
0.229174
0.222829
0.223773
0.226566
0.225937
0.22484
0.221866
0.221621
0.221624
0.22242
0.221578
0.224562
0.225198
0.222891
0.221637
0.22188
0.223424
0.2293
0.225907
0.226722
0.227981
0.233
0.232856
0.232955
0.2306
0.232082
0.23301
0.23301
0.23301
0.23301
0.23301
0.23301
0.23301
0.23301
0.23301
0.23301
0.23301
0.23301
0.23301
0.23301
0.23301
0.233009
0.232992
0.232787
0.232079
0.231092
0.230463
0.230343
0.230759
0.231715
0.232548
0.23291
0.233003
0.233008
0.23301
0.233005
0.233008
0.232982
0.232999
0.232851
0.232942
0.232321
0.232664
0.230676
0.231434
0.228662
0.22975
0.226567
0.227559
0.225859
0.226209
0.226715
0.226611
0.226763
0.22705
0.226732
0.226904
0.227158
0.22843
0.22808
0.228441
0.228097
0.230037
0.229866
0.229393
0.229653
0.230449
0.23036
0.230266
0.230163
0.230662
0.230629
0.230565
0.230499
0.229885
0.230328
0.230489
0.230507
0.227683
0.228653
0.229416
0.223259
0.224214
0.22699
0.226179
0.225197
0.222016
0.221443
0.221639
0.222721
0.22133
0.224042
0.224724
0.222314
0.22129
0.221405
0.222876
0.229096
0.225487
0.22637
0.227695
0.232984
0.232796
0.232879
0.23053
0.232015
0.23301
0.23301
0.23301
0.23301
0.23301
0.23301
0.23301
0.23301
0.23301
0.23301
0.23301
0.23301
0.23301
0.23301
0.23301
0.233
0.232842
0.232128
0.231113
0.23048
0.230409
0.230928
0.231903
0.232638
0.232934
0.233003
0.23301
0.23301
0.233009
0.23301
0.233007
0.233008
0.232983
0.233
0.23281
0.232934
0.232071
0.232539
0.230216
0.231105
0.228493
0.229359
0.226835
0.227621
0.226784
0.226983
0.22753
0.227293
0.228235
0.228147
0.227761
0.227446
0.22778
0.228084
0.229101
0.228781
0.229363
0.229045
0.230213
0.230172
0.230019
0.230111
0.230428
0.230365
0.230307
0.230257
0.230472
0.230385
0.230309
0.230241
0.22993
0.230136
0.23016
0.230112
0.227952
0.22875
0.229306
0.223547
0.224413
0.227094
0.22607
0.225272
0.222193
0.221336
0.221688
0.22289
0.221143
0.223525
0.224245
0.221771
0.221046
0.221067
0.222343
0.228906
0.225066
0.226021
0.22742
0.232935
0.232632
0.232752
0.230406
0.231811
0.23301
0.23301
0.23301
0.23301
0.23301
0.23301
0.23301
0.23301
0.23301
0.23301
0.23301
0.23301
0.23301
0.23301
0.233005
0.232898
0.232246
0.231171
0.230503
0.230451
0.231041
0.232009
0.232685
0.232946
0.233004
0.23301
0.23301
0.23301
0.233009
0.23301
0.233007
0.233009
0.232983
0.233001
0.232798
0.232933
0.231917
0.232489
0.230151
0.231102
0.228547
0.229284
0.22737
0.227904
0.228452
0.228414
0.228688
0.228435
0.229475
0.229171
0.228724
0.228399
0.228967
0.22928
0.22986
0.229638
0.230169
0.230044
0.230191
0.230215
0.230244
0.230229
0.230194
0.230168
0.230161
0.230174
0.229975
0.229856
0.229742
0.229658
0.229559
0.229595
0.229539
0.229366
0.227859
0.228426
0.228743
0.223609
0.224306
0.226773
0.225525
0.224967
0.222259
0.221263
0.221667
0.222837
0.220997
0.222994
0.223754
0.221298
0.220852
0.220823
0.221783
0.228696
0.22464
0.225666
0.227141
0.2329
0.232359
0.232636
0.230197
0.231468
0.23301
0.23301
0.23301
0.23301
0.23301
0.23301
0.23301
0.23301
0.23301
0.23301
0.23301
0.23301
0.23301
0.233007
0.232945
0.232402
0.231298
0.230532
0.230467
0.231072
0.232025
0.232693
0.232947
0.233003
0.23301
0.23301
0.23301
0.23301
0.233009
0.23301
0.233008
0.233009
0.23299
0.233004
0.232828
0.232948
0.231955
0.232533
0.230694
0.231563
0.229292
0.229901
0.228549
0.228859
0.230456
0.230243
0.230026
0.230094
0.230016
0.22976
0.230757
0.230645
0.229836
0.229578
0.230236
0.230375
0.230251
0.23023
0.230417
0.230447
0.229825
0.229946
0.230194
0.230074
0.229621
0.229616
0.229633
0.229716
0.229163
0.228976
0.228808
0.228686
0.228791
0.228733
0.228527
0.228268
0.227318
0.227634
0.227706
0.22338
0.223836
0.225925
0.224449
0.224165
0.222132
0.221197
0.221558
0.222544
0.22085
0.222445
0.223248
0.220939
0.220693
0.220641
0.221258
0.228464
0.224199
0.225316
0.226859
0.232942
0.232099
0.232635
0.229921
0.231123
0.23301
0.23301
0.23301
0.23301
0.23301
0.23301
0.23301
0.23301
0.23301
0.23301
0.23301
0.23301
0.233008
0.232974
0.232566
0.231474
0.230589
0.230465
0.231059
0.231994
0.232669
0.23294
0.233001
0.233009
0.23301
0.23301
0.23301
0.23301
0.23301
0.23301
0.23301
0.233009
0.233009
0.233
0.233007
0.23291
0.232979
0.232284
0.232719
0.231717
0.232314
0.230726
0.231131
0.230429
0.230501
0.231279
0.231286
0.231035
0.231216
0.230787
0.2308
0.231116
0.231213
0.230465
0.230448
0.23075
0.230698
0.230289
0.230362
0.230297
0.230442
0.228951
0.229161
0.229655
0.229404
0.228634
0.228623
0.228645
0.228772
0.227987
0.227719
0.227488
0.227315
0.227663
0.227444
0.227131
0.226789
0.22621
0.2263
0.226267
0.222798
0.223001
0.224644
0.223273
0.223186
0.221803
0.221089
0.221319
0.221915
0.220776
0.221866
0.222725
0.220684
0.220605
0.220533
0.220871
0.228216
0.22377
0.224971
0.226578
0.232989
0.231955
0.232759
0.229626
0.230844
0.23301
0.23301
0.23301
0.23301
0.23301
0.23301
0.23301
0.23301
0.23301
0.23301
0.23301
0.233009
0.232989
0.232711
0.231685
0.23069
0.230452
0.23101
0.231897
0.232586
0.232915
0.232997
0.233009
0.23301
0.23301
0.23301
0.23301
0.23301
0.23301
0.23301
0.23301
0.233009
0.23301
0.233006
0.233009
0.232978
0.233
0.232722
0.23291
0.232621
0.232824
0.232215
0.23238
0.231838
0.231855
0.232113
0.231371
0.231553
0.231789
0.231691
0.230849
0.23099
0.230852
0.231143
0.23055
0.230634
0.230702
0.230538
0.229897
0.230114
0.229598
0.229882
0.227611
0.22788
0.228566
0.228209
0.227233
0.227212
0.227232
0.22738
0.226437
0.226112
0.225836
0.225637
0.226065
0.225744
0.225366
0.224978
0.224687
0.224644
0.22443
0.222009
0.222094
0.22329
0.222103
0.222119
0.221474
0.22099
0.22121
0.221598
0.2207
0.221324
0.222209
0.220482
0.220499
0.220303
0.220568
0.22796
0.223341
0.224579
0.226289
0.233007
0.231983
0.232911
0.229339
0.230673
0.233009
0.233009
0.233009
0.233009
0.233009
0.233009
0.233009
0.23301
0.23301
0.233009
0.233009
0.232995
0.232823
0.231926
0.230839
0.230445
0.230903
0.231736
0.232426
0.232855
0.232987
0.233008
0.23301
0.23301
0.23301
0.23301
0.23301
0.23301
0.23301
0.23301
0.23301
0.23301
0.23301
0.233009
0.233009
0.233001
0.233007
0.232936
0.232984
0.232913
0.232966
0.232676
0.23281
0.232052
0.232152
0.232526
0.232351
0.230793
0.231218
0.231854
0.231577
0.230275
0.230553
0.229902
0.230339
0.230133
0.230348
0.230003
0.229734
0.228927
0.229276
0.228423
0.228795
0.225992
0.226306
0.227125
0.226695
0.225543
0.225522
0.225548
0.225725
0.224593
0.224254
0.223965
0.223776
0.224107
0.223749
0.223375
0.223006
0.223251
0.223036
0.22273
0.221694
0.22172
0.22205
0.221696
0.221731
0.221326
0.220866
0.220949
0.221362
0.220557
0.220955
0.221626
0.220339
0.22028
0.220126
0.220416
0.227707
0.222749
0.224237
0.226025
0.23301
0.232168
0.232984
0.229104
0.230682
0.233005
0.233006
0.233007
0.233008
0.233008
0.233009
0.233009
0.233009
0.233009
0.233009
0.233
0.232898
0.232179
0.231032
0.230455
0.230771
0.231544
0.232235
0.232732
0.232967
0.233005
0.23301
0.23301
0.23301
0.23301
0.23301
0.23301
0.23301
0.23301
0.23301
0.23301
0.23301
0.23301
0.233009
0.23301
0.233007
0.233009
0.232992
0.233003
0.232944
0.232986
0.232416
0.232358
0.232645
0.232802
0.23179
0.232131
0.232064
0.229677
0.230244
0.231339
0.23081
0.22919
0.229525
0.228704
0.229148
0.22914
0.229445
0.228869
0.228564
0.22757
0.228007
0.227069
0.227493
0.22426
0.224621
0.225556
0.225066
0.223705
0.223701
0.223747
0.22396
0.222655
0.222367
0.222133
0.221988
0.222419
0.222156
0.221901
0.221706
0.221925
0.221705
0.221589
0.221353
0.221351
0.22164
0.221472
0.221399
0.220984
0.220666
0.220695
0.220979
0.220315
0.220569
0.221112
0.220068
0.220095
0.219902
0.220158
0.227445
0.222264
0.223682
0.225682
0.23301
0.23254
0.233
0.228954
0.23083
0.232986
0.232997
0.233002
0.233004
0.233006
0.233006
0.233007
0.233008
0.233008
0.233003
0.232945
0.232414
0.231266
0.230496
0.230639
0.231335
0.232019
0.23256
0.232926
0.233001
0.233009
0.23301
0.23301
0.23301
0.23301
0.23301
0.23301
0.23301
0.23301
0.23301
0.23301
0.23301
0.23301
0.23301
0.23301
0.23301
0.23301
0.233009
0.233009
0.233001
0.233007
0.232866
0.232975
0.231928
0.23187
0.232337
0.23243
0.230997
0.231577
0.231366
0.2285
0.229088
0.230367
0.22972
0.22799
0.228328
0.227576
0.227998
0.227894
0.228235
0.227663
0.227355
0.226078
0.226581
0.225688
0.22617
0.222466
0.222878
0.223927
0.223385
0.221942
0.221955
0.222004
0.222188
0.221511
0.221356
0.221215
0.221123
0.221443
0.221266
0.221126
0.221038
0.221618
0.221585
0.220516
0.22109
0.22052
0.220632
0.220711
0.220641
0.220678
0.220361
0.220393
0.220414
0.220097
0.220337
0.220761
0.21982
0.219887
0.219762
0.219994
0.227217
0.221604
0.223239
0.225373
0.23301
0.232729
0.233005
0.228855
0.231146
0.232928
0.232973
0.232989
0.232997
0.233001
0.233003
0.233005
0.233006
0.233003
0.23297
0.232608
0.231532
0.230604
0.230546
0.231119
0.231787
0.232359
0.232842
0.232991
0.233008
0.23301
0.23301
0.23301
0.23301
0.23301
0.23301
0.23301
0.23301
0.23301
0.23301
0.23301
0.23301
0.23301
0.23301
0.23301
0.23301
0.233009
0.233009
0.233
0.233007
0.232682
0.232933
0.231273
0.231312
0.231906
0.231468
0.231679
0.232264
0.230049
0.230724
0.230607
0.227496
0.22807
0.22937
0.228704
0.226865