/*--------------------------------*- C++ -*----------------------------------*\
  =========                 |
  \\      /  F ield         | OpenFOAM: The Open Source CFD Toolbox
   \\    /   O peration     | Website:  https://openfoam.org
    \\  /    A nd           | Version:  dev
     \\/     M anipulation  |
\*---------------------------------------------------------------------------*/
FoamFile
{
    version     2.0;
    format      ascii;
    class       volScalarField;
    location    "2500";
    object      omega;
}
// * * * * * * * * * * * * * * * * * * * * * * * * * * * * * * * * * * * * * //

dimensions      [0 0 -1 0 0 0 0];

internalField   nonuniform List<scalar> 
9838
(
1.24805
1.26752
1.21871
1.18416
1.37054
1.10815
1.08067
1.38155
1.3122
1.03506
1.03313
1.34215
1.38582
1.182
1.01619
1.01038
1.24228
1.4103
1.32198
1.0842
1.00941
1.00022
1.12727
1.39574
1.38903
1.19217
1.04379
1.00474
0.99215
1.06175
1.34671
1.41444
1.30639
1.09874
1.02499
1.00206
0.986799
1.02243
1.2468
1.41471
1.37795
1.18204
1.05522
1.01209
1.00032
0.98381
1.00018
1.13685
1.39397
1.40683
1.28018
1.09793
1.0318
1.00399
0.998517
0.98238
0.988135
1.06604
1.33956
1.41918
1.35627
1.16457
1.05601
1.01506
0.999039
0.996644
0.983717
0.981605
1.0225
1.24193
1.41566
1.39697
1.2473
1.0898
1.03185
1.00321
0.994922
0.995545
0.985414
0.975382
0.998015
1.1335
1.39088
1.41316
1.32685
1.14223
1.05111
1.01425
0.995961
0.990699
0.994954
0.986386
0.971053
0.983154
1.06422
1.33285
1.42143
1.37754
1.21361
1.07742
1.02761
1.00075
0.990283
0.987385
0.994413
0.986173
0.96883
0.973749
1.0208
1.23721
1.41607
1.40602
1.28909
1.11894
1.04255
1.0103
0.991673
0.984553
0.985302
0.993936
0.98566
0.969654
0.967137
0.994203
1.13248
1.38969
1.41794
1.35266
1.17979
1.06258
1.02031
0.996539
0.984681
0.979676
0.983584
0.993537
0.985302
0.970689
0.961075
0.977549
1.06333
1.33137
1.42613
1.39041
1.24864
1.09625
1.03129
1.00361
0.986196
0.978108
0.976351
0.982151
0.993212
0.985362
0.970775
0.956656
0.966166
1.01908
1.23745
1.42022
1.41425
1.31554
1.14564
1.04767
1.01075
0.990281
0.978405
0.972535
0.973638
0.980978
0.992938
0.985619
0.969755
0.95393
0.958262
0.990698
1.1349
1.39372
1.42681
1.3684
1.20881
1.07306
1.0195
0.995188
0.979845
0.971419
0.968242
0.971386
0.98003
0.992709
0.985861
0.968251
0.953411
0.95193
0.972469
1.06442
1.33584
1.43428
1.40214
1.27341
1.11422
1.03166
1.00049
0.982957
0.971713
0.965402
0.964769
0.969533
0.979218
0.99252
0.9861
0.966935
0.952897
0.945877
0.960288
1.01957
1.24436
1.4278
1.42419
1.33307
1.16821
1.05234
1.00688
0.986129
0.972919
0.964464
0.960602
0.961908
0.967984
0.978541
0.992358
0.98631
0.965902
0.952127
0.940646
0.950958
0.990514
1.14808
1.4016
1.43619
1.38095
1.2297
1.08427
1.01667
0.98954
0.974666
0.964615
0.958408
0.956646
0.959484
0.966689
0.97797
0.992225
0.986443
0.965161
0.951391
0.93611
0.943387
0.971028
1.07454
1.34626
1.44255
1.41215
1.28967
1.13043
1.03177
0.994177
0.976054
0.96508
0.957502
0.953379
0.953283
0.957453
0.965591
0.977494
0.992111
0.986497
0.964639
0.950294
0.932376
0.937085
0.957031
1.02861
1.26678
1.4367
1.43255
1.34401
1.18482
1.05731
1.0009
0.977764
0.965363
0.957229
0.951485
0.949042
0.950488
0.955742
0.964682
0.977129
0.992014
0.986487
0.964255
0.949099
0.930172
0.931547
0.94642
0.996988
1.17928
1.4148
1.44284
1.38878
1.24283
1.09347
1.01257
0.980421
0.965267
0.956784
0.950503
0.946237
0.945428
0.948156
0.954342
0.963945
0.976865
0.991951
0.986397
0.963939
0.947864
0.928445
0.925768
0.937986
0.974882
1.09987
1.36818
1.45012
1.41769
1.29667
1.14096
1.03124
0.985072
0.965482
0.955788
0.949536
0.944621
0.941891
0.942437
0.946203
0.953201
0.963359
0.976703
0.991917
0.986277
0.963698
0.946626
0.926956
0.920462
0.930514
0.958979
1.04886
1.30498
1.44672
1.43803
1.34638
1.19204
1.06031
0.993341
0.966652
0.954473
0.948192
0.943249
0.939651
0.938275
0.93986
0.944587
0.952306
0.962924
0.976635
0.991935
0.986151
0.963497
0.94544
0.925566
0.915695
0.92396
0.946782
1.01372
1.22553
1.43139
1.44694
1.38976
1.24494
1.09784
1.00792
0.969713
0.953317
0.946215
0.941709
0.937949
0.935403
0.935114
0.937745
0.943348
0.951628
0.962704
0.976722
0.992043
0.986034
0.963412
0.94421
0.924177
0.911362
0.91827
0.936927
0.988419
1.14994
1.39655
1.45542
1.41858
1.29214
1.14283
1.02956
0.976064
0.953938
0.943883
0.939465
0.936189
0.93331
0.931677
0.932518
0.936091
0.942433
0.951199
0.962773
0.976982
0.992291
0.985927
0.963397
0.942956
0.922719
0.907198
0.913124
0.928927
0.969597
1.08595
1.34318
1.45421
1.43866
1.33972
1.18906
1.05944
0.986531
0.955948
0.942003
0.936772
0.933832
0.931345
0.929186
0.928583
0.930392
0.934843
0.941839
0.951136
0.963119
0.977516
0.992781
0.985857
0.963344
0.941641
0.921056
0.90337
0.90827
0.922132
0.955323
1.04329
1.28059
1.44464
1.44961
1.38002
1.23619
1.09546
1.00289
0.960065
0.942025
0.93384
0.931068
0.928989
0.927048
0.925647
0.92604
0.92875
0.934013
0.941593
0.951536
0.963883
0.97856
0.993635
0.985839
0.963239
0.94025
0.919127
0.899918
0.903882
0.916177
0.944186
1.01325
1.21084
1.42125
1.45545
1.41176
1.27938
1.13591
1.02505
0.967743
0.94303
0.931589
0.92761
0.926174
0.924739
0.923281
0.922707
0.924042
0.927583
0.933555
0.941827
0.952417
0.965186
0.980369
0.995037
0.985853
0.963117
0.938899
0.916996
0.896769
0.899977
0.911072
0.935258
0.991061
1.14671
1.37925
1.45523
1.432
1.32161
1.17732
1.05308
0.979429
0.945717
0.93061
0.924409
0.922648
0.922001
0.921022
0.920087
0.920321
0.922527
0.926881
0.933553
0.942727
0.954054
0.967604
0.983418
0.99779
0.98591
0.962913
0.937439
0.914479
0.893964
0.896383
0.906588
0.928536
0.973945
1.0934
1.32703
1.44957
1.44382
1.35956
1.21794
1.08555
0.995554
0.951208
0.931234
0.921779
0.919073
0.918629
0.918543
0.91774
0.917315
0.918484
0.92157
0.926694
0.934342
0.944663
0.956732
0.971407
0.988005
1.00018
0.99978
0.986022
0.962524
0.935808
0.911515
0.89151
0.89314
0.902585
0.923572
0.961691
1.0516
1.27015
1.43369
1.44773
1.39385
1.2569
1.12097
1.01629
0.959371
0.933121
0.920374
0.915681
0.914934
0.915452
0.915297
0.914685
0.915132
0.917233
0.921118
0.927253
0.936316
0.947647
0.961565
0.977312
0.997594
0.991607
1.00182
1.00238
0.986143
0.961871
0.933967
0.908392
0.889745
0.890408
0.899025
0.919131
0.952398
1.02281
1.21297
1.40252
1.44743
1.41476
1.29212
1.15671
1.04134
0.970892
0.93695
0.920773
0.913031
0.911163
0.91174
0.912485
0.91229
0.912278
0.913623
0.916664
0.921632
0.929101
0.939614
0.952962
0.96844
0.964115
0.986057
0.970939
0.980902
1.00109
0.996519
1.0036
1.00636
0.986264
0.960952
0.9319
0.905237
0.888451
0.888014
0.89595
0.914766
0.944398
1.00129
1.15682
1.36306
1.44326
1.4269
1.32788
1.191
1.0693
0.985654
0.94275
0.922049
0.911537
0.90792
0.907774
0.90906
0.909806
0.909791
0.910427
0.912849
0.916978
0.923148
0.932525
0.945094
0.960694
0.957125
0.967733
0.990916
0.978296
0.986667
1.00603
1.00299
1.00581
1.01177
0.986356
0.959802
0.929693
0.902477
0.88746
0.886002
0.89307
0.910636
0.937358
0.983808
1.10772
1.31747
1.43268
1.43253
1.35839
1.22347
1.09927
1.00378
0.950327
0.924639
0.911766
0.905392
0.904237
0.905312
0.90689
0.907449
0.907824
0.909428
0.912811
0.918045
0.926558
0.938185
0.953762
0.95026
0.964764
0.962268
0.975708
0.997695
0.984253
0.994245
1.01246
1.01063
1.00876
1.01857
0.98639
0.958446
0.92736
0.90013
0.886563
0.88441
0.890444
0.906361
0.931086
0.96893
1.06626
1.26869
1.41231
1.43145
1.38347
1.25506
1.12858
1.02503
0.960491
0.928527
0.912646
0.904354
0.901222
0.901625
0.903551
0.90486
0.905375
0.90634
0.909084
0.913564
0.921235
0.932665
0.947107
0.944367
0.959682
0.956857
0.972867
0.97057
0.982601
1.00604
0.992859
1.00372
1.02061
1.0196
1.01268
1.02696
0.986319
0.956893
0.9249
0.89795
0.885412
0.882943
0.888204
0.902116
0.924997
0.956306
1.0331
1.2195
1.38499
1.42792
1.39913
1.28176
1.15711
1.04846
0.973226
0.933873
0.914543
0.90457
0.899503
0.898373
0.899937
0.902213
0.903065
0.903758
0.905851
0.910074
0.91733
0.928633
0.942088
0.940668
0.954729
0.952266
0.968268
0.966461
0.981016
0.979644
0.992411
1.01623
1.00395
1.01629
1.03065
1.03016
1.01777
1.03716
0.986115
0.955103
0.92224
0.896038
0.883998
0.881734
0.886179
0.898264
0.918975
0.945294
1.00723
1.16925
1.35131
1.41993
1.4071
1.31067
1.18319
1.07229
0.988067
0.940594
0.917375
0.905306
0.898928
0.896158
0.896686
0.898893
0.900698
0.901435
0.902869
0.906878
0.913995
0.925991
0.939534
0.93913
0.951466
0.950579
0.965144
0.964698
0.97838
0.978404
0.992449
0.99272
1.00509
1.02977
1.01769
1.03113
1.04275
1.04375
1.02432
1.04941
0.98579
0.953072
0.919453
0.89431
0.882832
0.880956
0.88445
0.894799
0.913178
0.935538
0.985889
1.11992
1.31243
1.40901
1.40845
1.33646
1.2074
1.09565
1.00521
0.948567
0.920855
0.906842
0.899257
0.895096
0.893974
0.895832
0.898074
0.89946
0.900641
0.904022
0.911454
0.923946
0.938591
0.938587
0.950661
0.950781
0.96487
0.965374
0.97891
0.980025
0.993547
0.995239
1.00759
1.01064
1.02164
1.04516
1.03506
1.0489
1.05702
1.0596
1.03257
1.06388
0.985404
0.950955
0.916738
0.892839
0.881944
0.880277
0.883128
0.891517
0.907645
0.927055
0.967716
1.07606
1.26869
1.39215
1.40668
1.35839
1.23198
1.11725
1.02354
0.95852
0.925017
0.908638
0.900117
0.895313
0.892501
0.892861
0.895347
0.897551
0.899183
0.902642
0.910061
0.92293
0.938564
0.939285
0.951546
0.953397
0.966598
0.96939
0.981991
0.985767
0.997745
1.0017
1.01422
1.01874
1.02824
1.03485
1.04426
1.06324
1.05764
1.07082
1.07343
1.0776
1.04293
1.08031
0.98488
0.948891
0.914118
0.89175
0.88122
0.879551
0.881826
0.888417
0.902212
0.919531
0.952609
1.03606
1.22147
1.36839
1.40239
1.37274
1.25503
1.13847
1.0415
0.970266
0.929874
0.910967
0.901505
0.896015
0.892664
0.891107
0.892448
0.895345
0.897975
0.901779
0.909882
0.922651
0.940321
0.942702
0.95589
0.961826
0.973739
0.982573
0.992106
1.00443
1.00932
1.02511
1.02624
1.0426
1.04245
1.05735
1.0552
1.06756
1.07329
1.0843
1.08712
1.09802
1.09111
1.09736
1.05557
1.09792
0.984623
0.946858
0.911374
0.890629
0.880873
0.878751
0.880557
0.885584
0.897058
0.912386
0.939855
1.00645
1.17396
1.33709
1.39552
1.38047
1.28169
1.15839
1.05902
0.983111
0.935725
0.913757
0.9033
0.897429
0.893437
0.891207
0.891042
0.893233
0.897003
0.901667
0.910553
0.92705
0.949494
0.932027
0.969557
0.987093
0.997148
1.03163
1.02948
1.08178
1.0606
1.14056
1.08231
1.1821
1.09284
1.19114
1.09463
1.16907
1.09195
1.13587
1.11208
1.10857
1.12636
1.13428
1.10946
1.11864
1.07071
1.11568
0.985106
0.944866
0.908248
0.889148
0.880719
0.878249
0.879498
0.883104
0.892156
0.905578
0.928687
0.982765
1.12453
1.30098
1.38552
1.38285
1.30806
1.17827
1.07651
0.995968
0.943027
0.9169
0.905691
0.899674
0.895202
0.891916
0.891259
0.892761
0.896307
0.902078
0.912832
0.941785
1.06357
1.01142
1.09309
1.07982
1.18665
1.18223
1.39713
1.31772
1.67392
1.42894
1.95204
1.45773
2.08447
1.39294
2.00063
1.2767
1.72423
1.17683
1.4072
1.20854
1.13904
1.22413
1.21999
1.1284
1.1429
1.08718
1.13506
0.987573
0.943284
0.904494
0.886861
0.880301
0.87812
0.878544
0.880946
0.887221
0.899085
0.918815
0.962763
1.07982
1.26031
1.36959
1.38149
1.33106
1.20128
1.09303
1.0091
0.951262
0.920625
0.908408
0.902474
0.897841
0.893557
0.892061
0.893186
0.896491
0.902566
0.918185
0.971475
1.24711
1.90634
2.51503
1.32101
1.60544
1.68371
2.21301
2.28829
3.1747
2.94668
4.33264
3.35739
5.28482
3.32197
5.64994
2.87539
5.22228
2.1764
4.06533
1.53993
2.677
1.63678
1.20331
1.67032
1.61817
1.14797
1.18669
1.10493
1.15158
0.99418
0.943554
0.899734
0.883024
0.879154
0.877789
0.877673
0.878876
0.882726
0.892566
0.909891
0.945937
1.03757
1.21663
1.3477
1.37765
1.34599
1.22537
1.11009
1.02275
0.959704
0.924866
0.911219
0.905591
0.901199
0.896945
0.893898
0.89421
0.897039
0.903838
0.93002
1.05956
1.66423
3.11208
4.19899
4.95597
6.28572
2.89651
3.86535
4.31088
5.68216
5.9919
7.75269
7.50047
9.6889
8.41445
11.0549
8.48925
11.6526
7.48561
11.3413
5.38044
9.78731
3.1248
6.59979
3.41787
1.50194
3.48132
3.25895
1.17437
1.36213
1.12269
1.16175
1.03291
0.954988
0.894499
0.876426
0.876172
0.876733
0.876508
0.876742
0.878255
0.886041
0.901494
0.931546
1.00376
1.17226
1.31962
1.37154
1.35544
1.25359
1.12787
1.03687
0.968918
0.929697
0.913999
0.908476
0.905177
0.901897
0.898215
0.896164
0.898114
0.906298
0.955238
1.29273
2.91645
5.1259
6.54854
7.59998
9.2066
9.97738
11.1131
7.18817
8.63951
9.44885
10.9052
11.5041
12.8026
13.0284
14.2271
13.8599
15.147
14.0971
15.6167
13.5698
15.6359
11.6063
14.9551
7.53613
12.9106
8.01534
2.80669
7.96589
7.32253
1.24967
2.21598
1.13672
1.19163
1.1328
1.00756
0.89475
0.866628
0.869247
0.873751
0.874427
0.874418
0.87384
0.879824
0.893104
0.918747
0.977144
1.12525
1.28732
1.36269
1.35921
1.28373
1.14855
1.05082
0.979364
0.934519
0.916578
0.911411
0.909499
0.908124
0.904846
0.900296
0.900176
0.90997
1.00023
1.70645
4.67707
10.7881
10.2131
12.0729
12.0129
12.6507
13.2664
13.5495
12.0235
12.7732
13.6481
14.1351
14.9218
15.2819
15.8676
16.245
16.4818
16.9546
16.7597
17.4176
16.655
17.6011
15.9067
17.3787
13.7066
16.5204
14.0036
6.17973
13.8753
13.1373
1.65641
4.6986
1.14509
1.30371
1.14396
0.918027
0.858909
0.856588
0.866512
0.870438
0.87145
0.870183
0.874111
0.885232
0.906997
0.954744
1.0789
1.2507
1.34908
1.35873
1.30873
1.17434
1.06486
0.990748
0.940325
0.918963
0.914356
0.914122
0.915865
0.913734
0.909376
0.905041
0.917641
1.06811
2.24669
6.224
11.7202
13.2582
13.353
13.0402
13.2682
13.6595
13.6424
14.3697
14.2222
14.3938
14.4248
15.4221
15.3896
16.371
16.342
17.2048
17.3049
17.8799
18.2642
18.3519
19.073
18.4518
19.5264
18.0365
19.4449
16.9162
18.6985
17.1609
11.6316
17.2252
17.0011
3.04856
9.23071
1.15029
1.71727
1.00877
0.865533
0.844508
0.852676
0.862194
0.867191
0.866737
0.868406
0.877692
0.896247
0.935426
1.03544
1.21007
1.32967
1.35678
1.32532
1.20328
1.08217
1.00179
0.947106
0.921246
0.91711
0.918731
0.92377
0.925418
0.921976
0.917065
0.936363
1.19467
2.88759
7.7029
12.2644
13.1714
13.3665
13.1783
13.5814
13.482
13.9988
13.7308
14.6878
14.3194
15.2668
15.0124
16.2353
15.9998
17.2729
17.1708
18.5304
18.7147
19.7777
20.433
20.6768
21.853
20.9661
22.5851
20.5029
22.4434
19.3311
21.5068
19.78
16.3034
19.9794
19.984
18.1438
6.02307
14.6654
1.18711
2.41225
0.898629
0.848279
0.839915
0.849716
0.859145
0.863
0.863306
0.870892
0.886207
0.918583
0.997205
1.16748
1.30427
1.35243
1.33651
1.23599
1.10279
1.0134
0.954064
0.924412
0.919644
0.922738
0.931932
0.938472
0.937822
0.936023
0.981834
1.44989
3.80585
9.16391
12.6655
12.9225
12.5595
12.4695
12.9252
12.7085
13.4566
13.1565
13.9411
13.5685
14.8312
14.3979
15.6629
15.2642
16.9561
16.634
18.6916
18.5938
20.9211
21.2573
22.9862
23.9789
24.289
26.0191
24.546
26.8062
23.7946
26.3456
22.2705
24.7728
23.3437
21.2272
22.7159
19.7418
17.3436
19.571
21.2637
22.9169
22.7998
21.2214
6.32744
12.4541
19.076
18.8278
16.0985
1.29891
9.65727
2.61558
6.83882
0.880432
0.843235
0.840164
0.848909
0.85659
0.858729
0.864973
0.87746
0.903725
0.967307
1.12254
1.27415
1.34524
1.34203
1.27
1.12835
1.02662
0.961034
0.928042
0.92202
0.92623
0.940628
0.95331
0.959042
0.967355
1.08214
1.97114
5.17303
10.4209
12.8179
12.7687
12.4047
12.4011
12.6044
12.6313
12.7611
12.6351
13.237
12.9569
13.9989
13.6548
15.3871
14.9815
16.241
15.8181
18.3738
18.0222
21.2536
21.1466
24.7026
25.0839
27.6542
28.9848
29.2419
31.7021
27.357
28.8425
30.2052
31.9359
26.02
27.714
29.9009
31.3024
29.2264
25.1571
23.948
25.6321
26.6768
24.2225
21.0279
20.7043
22.7315
24.305
24.3482
22.5734
15.2282
20.3433
19.8642
18.0374
1.30483
2.24959
3.99696
12.945
9.55432
0.875675
0.842899
0.841489
0.848872
0.853455
0.85974
0.870057
0.891248
0.942238
1.07571
1.2396
1.33251
1.34235
1.29587
1.15917
1.04343
0.970233
0.931992
0.924273
0.92919
0.948171
0.969466
0.98528
1.01851
1.28925
2.78724
6.77257
11.3416
12.7778
12.5445
12.5974
12.7032
12.913
13.3604
13.5423
13.2242
13.2615
13.4006
13.2459
14.6465
14.3892
16.6317
16.2043
17.5674
17.1013
20.8632
20.3647
25.033
24.8032
29.8083
30.094
33.7434
34.9762
33.3551
35.0167
36.124
37.3193
31.7211
33.5463
35.3099
28.3616
30.2156
33.2139
34.4858
32.2791
27.2014
25.8076
27.5502
29.0077
25.9953
22.3134
21.9585
24.1845
26.0526
25.9688
23.958
17.2112
21.5329
21.0252
19.3001
1.52625
2.97168
5.85465
15.6097
12.412
0.874461
0.843572
0.844599
0.848408
0.854317
0.863595
0.880958
0.921672
1.03087
1.20051
1.31323
1.34134
1.3132
1.19345
1.06636
0.982319
0.935913
0.926566
0.932239
0.954276
0.984837
1.01259
1.08516
1.62324
3.87184
8.40011
11.9278
12.6623
12.2546
12.6055
13.9819
14.0406
13.7238
13.872
14.6305
14.7938
14.2913
14.4525
14.2367
14.2312
15.8688
15.6301
18.403
17.8422
19.7239
19.0504
24.2671
23.4058
29.9422
29.4218
35.101
34.6429
37.7783
37.9644
37.8144
37.3735
36.8892
38.1913
39.0209
39.2642
35.2083
37.087
38.6798
31.0308
33.2894
36.7018
38.1406
35.7258
29.5073
27.8399
29.893
31.7112
27.9933
23.6221
23.1939
25.7682
27.9984
27.8442
25.4347
18.6153
22.695
22.1331
20.4538
1.78792
7.83917
3.78891
17.5208
14.8688
0.873373
0.846018
0.846438
0.849588
0.85764
0.872322
0.904948
0.990671
1.15744
1.28763
1.33775
1.32474
1.23114
1.09362
0.997835
0.940347
0.928837
0.934947
0.959809
0.999202
1.03847
1.15366
2.02225
5.06228
9.75176
12.248
12.4694
12.0584
12.6511
14.4353
14.8577
14.8753
14.8957
14.8905
15.7329
15.6817
15.6034
15.711
15.526
15.5382
17.4033
17.089
20.4555
19.6493
22.4112
21.3969
28.3795
27.0192
33.6216
32.3517
37.0238
36.3904
35.964
35.3504
39.121
38.784
38.27
37.6913
39.8566
40.3119
40.243
39.9092
38.7
40.2811
41.2337
34.1828
36.8476
40.2322
41.6838
39.4757
32.2426
30.1465
32.6138
34.9222
30.2517
24.9815
24.4389
27.5343
30.1783
29.9196
27.0642
19.8127
23.8373
23.2069
21.544
1.90796
9.71688
4.46171
18.979
16.8575
0.871771
0.847898
0.848615
0.853168
0.865076
0.891885
0.958142
1.11373
1.25568
1.32917
1.32955
1.26661
1.12741
1.01661
0.948304
0.931091
0.936817
0.964354
1.01117
1.0605
1.20906
2.38624
6.12695
10.6624
12.3927
12.2687
11.9149
12.7282
14.3595
14.8704
14.8661
15.1736
15.0471
15.5365
15.3298
16.3244
16.0202
16.7209
16.5762
16.8932
16.7891
18.9983
18.4866
22.6162
21.4179
25.5159
24.0062
31.0235
29.5582
34.2889
32.8946
37.1056
36.4802
35.8901
35.2921
39.4281
38.8284
38.0856
37.2778
41.3292
40.9878
40.4934
39.8282
41.7258
42.4206
42.2334
37.8332
40.6999
43.118
44.4979
43.0702
35.4624
32.8266
35.8178
38.6247
32.8495
26.4552
25.7561
29.4761
32.6455
32.2261
28.8501
20.9335
25.0031
24.2827
22.5976
1.87396
11.364
4.7471
20.2457
18.4746
0.869554
0.849965
0.852258
0.859923
0.881682
0.934302
1.06962
1.22056
1.31187
1.32895
1.29105
1.16433
1.04185
0.960523
0.934041
0.938448
0.966466
1.02022
1.07729
1.24667
2.62117
6.94612
11.2395
12.4023
12.0073
11.8
12.8089
14.2913
14.4748
14.5567
14.2714
15.0588
14.7799
15.6949
15.3615
16.4686
15.9245
17.3661
16.9319
18.0826
17.7474
20.4344
19.6157
24.4578
22.8498
27.9654
26.2147
31.5788
30.1667
33.7038
33.0313
31.923
32.5964
36.4885
35.7819
35.1176
34.3364
38.9333
37.8893
36.7795
35.7406
41.663
40.8808
39.8044
38.5486
43.5806
43.1478
42.2957
41.7853
44.3996
44.8108
46.1773
45.8993
39.195
35.9605
39.526
42.6717
35.848
28.0641
27.1753
31.5783
35.4575
34.7865
30.7313
22.0216
26.2548
25.4168
23.6424
1.5683
12.6116
4.55567
21.4512
19.906
0.868647
0.853361
0.858098
0.874154
0.916692
1.02849
1.18169
1.2893
1.32578
1.30739
1.20384
1.07389
0.977723
0.939601
0.940622
0.967197
1.02559
1.09021
1.27033
2.70268
7.41668
11.5963
12.3677
11.7632
11.7167
12.8873
14.1992
14.0277
11.7998
11.7899
12.9169
12.3986
13.9305
13.3529
15.2771
14.5805
16.0103
14.9265
17.5617
16.8492
18.9069
18.2303
21.4761
20.2931
25.3348
23.55
28.7067
27.0945
31.4781
30.8037
29.7237
32.4899
32.1472
31.4351
31.799
34.859
34.1429
33.5399
32.9635
37.1896
35.7991
34.4953
33.4716
41.1091
39.6412
38.0315
36.366
44.2052
43.0464
41.4848
45.6406
47.3465
45.5086
47.1114
47.7005
43.3072
39.5734
43.6419
46.7109
39.2812
29.7417
28.6804
33.8424
38.6157
37.573
32.6991
23.106
27.6197
26.6467
24.7147
1.44081
13.2634
4.0713
22.682
21.268
0.869546
0.858403
0.870528
0.903194
0.994551
1.14238
1.26021
1.31744
1.31397
1.2436
1.11109
1.00049
0.948763
0.944338
0.967776
1.02772
1.1005
1.27866
2.69377
7.55908
11.7981
12.3045
11.587
11.6472
12.9931
14.0233
13.2634
8.60743
7.23931
6.04954
8.64337
7.82817
10.5722
9.47305
13.4964
11.9398
14.6106
12.5386
17.2729
16.1553
19.2322
18.2437
21.9505
20.3492
25.298
23.5792
28.3536
26.8768
31.0337
30.6668
29.6201
28.9109
31.139
30.9709
30.6368
30.8216
32.6993
32.1356
31.7115
31.3805
34.8057
33.5289
32.5993
31.8537
39.67
37.7673
36.0022
34.6066
44.0999
42.2477
40.1934
48.8505
49.4054
45.6406
47.6707
49.0088
47.4835
43.6122
47.9275
50.2934
43.0936
31.4693
30.2247
36.2299
42.0481
40.505
34.7419
24.2336
29.0574
28.0173
25.8802
2.84279
12.8544
7.30724
24.0014
22.5149
0.872004
0.869327
0.895912
0.965694
1.10492
1.2273
1.30188
1.31351
1.27215
1.15114
1.02967
0.96343
0.951318
0.968899
1.02815
1.11119
1.27393
2.59344
7.51829
11.8832
12.2734
11.441
11.6198
12.9753
13.7598
12.4673
7.55758
3.88037
3.79158
4.29135
3.84855
5.10407
4.60636
6.84379
5.79664
10.3237
8.34893
13.1935
11.1241
16.5387
15.0443
19.0321
17.814
21.8947
20.1626
25.0896
23.5235
28.4412
27.5772
26.6013
30.374
30.0165
29.2407
28.9103
29.8976
29.8068
29.7159
29.7622
31.2553
30.7924
30.4088
30.0995
33.5392
32.7232
32.0049
31.3604
38.2058
36.5116
35.1725
34.1587
43.7291
41.5855
39.475
51.2643
51.2062
45.7399
48.5389
50.2177
51.4245
47.8679
52.0384
53.2261
47.1217
33.2399
31.8163
38.7163
45.5874
43.5519
36.86
25.4578
30.5941
29.5445
27.1992
8.42276
13.5273
14.4186
25.4605
23.3855
0.879709
0.892082
0.947297
1.06854
1.19534
1.27844
1.31014
1.28952
1.19007
1.06816
0.985519
0.963977
0.972308
1.02874
1.12343
1.2724
2.30351
7.26094
11.8885
12.2781
11.3239
11.5723
12.8932
13.4466
11.6864
6.5632
3.38599
3.30425
3.10799
3.66352
3.44576
4.33622
3.926
5.94874
4.96991
9.11813
7.34808
12.9026
11.5132
15.8022
14.3545
18.5842
17.1746
21.8867
20.171
25.9029
24.8481
23.9923
28.4763
27.9305
26.5376
27.4676
29.6129
29.4446
28.8574
28.703
29.3447
29.1388
28.9309
28.9963
30.8215
30.3759
29.9767
29.6266
33.4201
32.8099
32.2142
31.6327
37.6718
36.3973
35.6398
35.2314
43.5769
41.4756
39.7879
53.5669
53.1472
46.5396
50.3901
51.9775
54.8973
52.0319
55.8139
56.0905
51.0158
35.0455
33.5402
41.3675
49.0964
46.9233
39.0277
26.8198
32.3533
31.2527
28.6906
13.8019
17.3274
19.5801
26.9657
24.1909
0.899476
0.934703
1.04138
1.16018
1.255
1.29964
1.29962
1.22989
1.11536
1.02083
0.983412
0.981853
1.03174
1.13489
1.27807
1.99336
6.54117
11.8332
12.3198
11.2257
11.4737
12.7294
13.1078
11.0314
5.82616
3.19561
2.99636
2.81817
3.23963
3.0779
3.62188
3.41325
4.35835
3.90741
6.36009
5.12226
9.92427
8.0741
13.6321
12.5616
15.7567
14.5838
18.5476
17.063
22.4131
20.7366
26.4562
25.6691
25.2218
23.9693
28.429
28.0224
27.0915
27.6266
28.9081
28.9103
28.4059
28.3631
29.3052
29.0049
28.6099
28.7713
31.099
30.5989
30.1203
29.6717
34.924
34.5308
34.0446
33.5067
38.7333
38.2859
38.1996
38.2429
44.5878
43.0139
42.1098
56.2647
55.873
48.7324
53.9421
55.0031
58.177
55.7854
59.3046
59.4467
54.6129
37.0555
35.6806
44.1067
53.1582
50.4022
41.5502
28.2973
34.435
33.0699
30.2841
20.3043
21.7683
23.3005
28.2228
25.4418
0.938275
1.01621
1.13372
1.22328
1.2863
1.3006
1.26801
1.16903
1.06847
1.01551
1.00168
1.04232
1.14667
1.28711
1.75755
5.49993
11.6428
12.4161
11.1717
11.3287
12.52
12.8035
10.5693
5.42315
2.9797
2.64116
2.9234
2.78975
3.22663
3.07403
3.66768
3.42149
4.54552
4.01375
6.84467
5.42294
10.9408
8.83111
14.1861
12.9094
16.423
15.2848
19.1535
17.7179
22.9749
21.1934
26.7941
26.1272
25.6883
24.7489
28.2441
28.0029
27.3452
27.7325
28.5005
28.4353
28.2665
28.2158
30.3651
29.765
28.8189
29.2365
32.9337
32.326
31.6821
31.0155
38.2079
38.0101
37.6647
37.1963
41.9794
42.1537
42.6977
43.0976
47.3814
46.7085
46.729
60.0195
60.1753
53.0999
60.3589
60.2041
61.7832
59.2739
63.1517
63.7117
59.2349
39.9208
38.4865
47.4746
57.3896
54.9687
45.7674
29.7178
36.6788
35.0026
31.9003
23.3443
24.6662
26.4514
29.0066
26.6362
1.01386
1.10963
1.19817
1.26212
1.30302
1.29354
1.22619
1.12809
1.06025
1.03324
1.06748
1.16238
1.29497
1.62043
4.39572
11.1593
12.5184
11.1788
11.1588
12.302
12.5445
10.38
5.33559
2.82756
2.442
2.56569
2.89632
2.76752
3.22018
3.04412
3.67554
3.42035
4.56567
4.02954
6.87295
5.44334
11.1353
8.90905
14.2444
12.76
16.7618
15.4967
19.5288
18.0771
24.0193
22.5655
20.3126
21.6627
27.065
26.4554
26.17
25.1626
28.1348
27.9953
27.5885
27.93
28.5257
28.3616
28.849
28.5939
33.3011
32.3334
30.5355
31.3907
36.6319
35.9506
35.1553
34.2595
43.3628
43.4181
43.2756
42.8966
47.3562
48.3507
49.3486
50.1727
52.9062
53.179
54.3319
65.3758
66.988
61.0065
70.7323
68.8112
66.7039
64.779
70.187
70.1737
64.4284
44.0427
41.5005
53.7451
63.5888
63.2578
51.742
30.8486
39.1449
36.8464
33.3937
23.0735
27.0609
29.5686
29.4815
27.8998
1.10733
1.17911
1.24475
1.29982
1.31466
1.2789
1.1988
1.12134
1.07657
1.10097
1.1875
1.3055
1.54711
3.43965
10.1999
12.578
11.2622
10.9852
12.091
12.3394
10.4186
5.5064
2.77072
2.27631
2.34614
2.59827
2.72047
2.45699
2.87605
3.20133
3.02433
3.67012
3.41143
4.51933
4.01573
6.57468
5.308
10.7332
8.45959
13.2345
11.5166
15.8475
14.6027
18.8642
17.1718
25.1271
23.5596
20.7614
22.066
27.9193
27.1154
28.2728
26.6983
28.3763
28.2144
28.6859
29.1758
29.8064
29.2625
31.2123
30.6181
38.3079
36.9704
34.3002
35.6115
42.3539
41.6033
40.6666
39.5585
50.6922
50.9493
51.0022
50.6409
55.7212
57.4035
58.8564
60.0887
62.0676
63.7677
66.0377
73.7982
77.3754
73.1029
84.4735
80.8025
75.7834
71.5415
78.7557
81.5272
72.3285
48.2102
44.8033
61.2447
72.4293
70.7304
57.0382
31.8237
41.601
39.4502
35.0058
17.061
29.6628
32.0638
30.1707
29.671
1.17912
1.24137
1.30207
1.33534
1.3293
1.27307
1.1974
1.13845
1.14437
1.22264
1.32618
1.51483
2.74497
8.86033
12.5776
11.516
10.8062
11.8785
12.2003
10.6318
6.23503
2.81878
2.15233
2.16661
2.29164
2.69689
2.54532
2.42899
2.84276
3.18044
2.99996
3.64329
3.38953
4.40199
3.96502
5.99299
5.03347
9.41614
7.44516
11.0197
9.32704
14.2071
12.4987
19.8833
17.9731
16.2945
28.8431
26.4405
21.8117
24.0351
30.8763
29.7282
33.0796
31.0946
30.0537
29.683
31.8213
32.4178
33.0744
32.0926
35.397
34.5726
44.9547
43.228
39.7514
41.4566
50.027
49.1036
47.922
46.52
60.8147
61.1397
61.2021
60.6272
68.4828
70.8245
72.7489
74.157
75.9644
79.6376
83.7342
87.145
92.7943
88.563
107.353
99.1059
86.4821
80.6067
90.6199
95.1928
81.4101
52.8025
48.8972
67.415
80.9317
80.5524
64.0187
33.2137
46.5753
44.3625
37.6045
7.04356
32.8855
31.2044
31.2259
32.3725
1.27626
1.33466
1.38453
1.39461
1.35606
1.28519
1.22012
1.20809
1.27264
1.36093
1.51119
2.30589
7.27108
12.4764
11.776
10.6548
11.6425
12.0954
10.9619
7.45429
3.07237
2.08374
2.01853
2.1159
2.23125
2.67889
2.52126
2.40302
2.81723
3.15481
2.97628
3.6009
3.36026
4.26292
3.89399
5.4131
4.74806
7.65982
6.35316
9.15533
7.51558
14.5243
11.3576
22.6403
19.7539
16.9711
20.4939
34.5998
32.0074
25.8216
29.0188
35.587
34.5745
38.3553
36.7331
33.6636
33.1327
36.4246
36.9339
38.042
36.7278
40.3835
39.4379
52.9503
50.7259
46.2432
48.3621
59.7577
58.4586
56.8572
54.9502
74.849
75.1619
75.05
73.8642
87.6274
90.7233
93.0051
94.279
93.771
100.1
108.559
105.627
119.838
118.509
161.374
136.642
104.467
93.8109
112.74
125.921
95.8977
60.2841
59.6121
79.9905
98.4113
104.471
77.7292
34.6166
55.6733
48.5996
39.9747
2.51081
36.3492
19.671
33.2882
34.6191
1.52603
1.52933
1.5351
1.49283
1.41416
1.33442
1.29986
1.34069
1.41677
1.52886
2.05714
5.72053
12.0877
11.9531
10.5788
11.3461
12.0007
11.2709
8.57566
3.71598
2.08991
1.90257
1.96455
2.05983
2.1742
2.3681
2.64419
2.49071
2.79056
3.12524
2.94689
3.5553
3.32582
4.13853
3.82218
4.99596
4.52257
6.35063
5.58442
9.02804
7.04667
21.0674
21.9774
16.8881
13.1499
28.0642
24.1997
25.683
39.5223
37.3848
31.6479
34.7626
40.1759
39.3787
42.504
41.251
38.2609
37.6987
40.8334
41.2616
43.8667
42.2512
45.8249
44.5344
62.8211
60.0663
54.1375
56.678
72.4469
70.394
68.2627
65.5325
94.9445
95.2232
94.5382
92.4489
114.651
119.336
122.143
123.238
132.738
154.494
184.091
158.861
192.671
191.587
205.309
205.557
148.839
118.005
157.605
187.328
125.943
82.7241
73.4227
104.637
148.656
152.82
115.29
37.244
62.8545
58.2867
44.8276
2.42513
41.5105
16.6085
35.1452
39.5105
2.1364
1.90585
1.78945
1.65915
1.52817
1.44887
1.4421
1.49736
1.58832
1.95232
4.44976
11.0859
11.9883
10.5797
10.997
11.9059
11.5264
9.5469
5.06008
2.21111
1.82507
1.83911
1.91653
1.99523
2.18919
2.34187
2.30138
2.07227
2.61711
2.45842
2.75718
3.09044
2.91514
3.50825
3.28724
4.03744
3.75748
4.72177
4.35544
5.87345
5.16334
11.04
7.31274
26.5526
26.1506
21.4113
19.3528
33.3563
29.862
30.4924
43.2925
41.2421
36.2915
38.893
44.212
43.37
46.267
44.9952
42.8874
42.1334
44.8342
45.466
50.6392
48.592
52.5605
50.6444
75.2963
72.3193
64.3995
67.2549
89.7072
85.8599
83.0435
79.469
124.135
124.321
123.543
119.914
181.396
187.574
187.531
184.408
195.701
194.826
415.306
188.129
476.083
449.803
440.261
486.682
204.854
164.775
215.503
485.425
197.47
96.6837
84.5464
163.524
208.592
205.587
127.176
39.5919
81.3956
65.3194
48.822
19.0319
42.2131
33.3583
38.6889
43.9211
3.27548
2.5713
2.18658
1.91191
1.72004
1.62513
1.63553
1.69939
1.94641
3.56465
9.60786
11.9597
10.6328
10.6826
11.7725
11.7145
10.3288
6.71042
2.54986
1.79713
1.74142
1.79677
1.85198
1.93292
2.27019
2.12659
2.42568
2.04158
2.58417
2.72539
3.05346
2.88019
3.46043
3.24634
3.95303
3.69663
4.53747
4.23002
5.80086
4.99544
14.8357
8.55042
29.9673
28.7759
24.9477
27.1407
25.6289
20.4873
36.5063
33.7011
33.0311
46.9262
44.6392
39.2279
41.989
48.3559
47.2705
50.2324
48.8164
48.0086
46.8175
49.1499
50.3829
59.2749
56.7097
61.4258
58.6839
91.0494
87.761
77.3932
80.7709
115.381
106.586
100.873
98.0411
184.093
176.359
174.398
165.804
418.097
407.315
411.881
406.013
453.644
397.822
833.706
488.077
906.034
874.903
853.454
916.035
494.057
209.252
493.715
915.231
502.289
114.583
117.691
155.498
498.236
485.361
169.617
44.4793
92.2815
82.5873
57.9112
12.6283
45.7636
44.3276
42.2877
48.2362
4.50831
3.51366
2.82362
2.31284
1.99559
1.9032
1.92136
2.01892
3.04475
7.95041
11.821
10.795
10.4491
11.5399
11.8266
10.9189
8.16743
3.26528
1.82842
1.67222
1.69886
1.7366
1.79284
1.8677
2.38481
2.23743
2.09679
2.54989
2.01026
2.68931
3.01562
2.8441
3.41399
3.20598
3.8795
3.63942
4.44481
4.13573
5.99958
4.97398
18.0806
22.5362
10.2762
31.7585
30.0851
28.1965
25.8147
38.7106
35.8335
34.5559
50.6549
48.1555
41.8326
45.1115
53.0145
51.572
54.4307
52.7849
54.5753
52.7143
54.227
56.8514