/*--------------------------------*- C++ -*----------------------------------*\
  =========                 |
  \\      /  F ield         | OpenFOAM: The Open Source CFD Toolbox
   \\    /   O peration     | Website:  https://openfoam.org
    \\  /    A nd           | Version:  dev
     \\/     M anipulation  |
\*---------------------------------------------------------------------------*/
FoamFile
{
    version     2.0;
    format      ascii;
    class       volScalarField;
    location    "2500";
    object      p_rgh;
}
// * * * * * * * * * * * * * * * * * * * * * * * * * * * * * * * * * * * * * //

dimensions      [1 -1 -2 0 0 0 0];

internalField   nonuniform List<scalar> 
9838
(
0.00460622
0.00610608
0.00507283
0.00603529
0.00906063
0.00475905
0.00581415
0.0104581
0.0090061
0.00382859
0.00538681
0.0104211
0.0117948
0.00790106
0.00291897
0.00436254
0.0104028
0.0132879
0.011514
0.00692266
0.00237647
0.0040991
0.0100252
0.0135223
0.0138679
0.0101528
0.00557598
0.00192946
0.00373978
0.00901694
0.0134275
0.0153238
0.0131312
0.00890705
0.0047938
0.00142839
0.0034547
0.00809112
0.0123239
0.0159021
0.0153657
0.0118548
0.00751641
0.00399287
0.000986718
0.00330523
0.00727379
0.0115228
0.0160194
0.0168044
0.0144401
0.010489
0.00659125
0.00339484
0.000612964
0.00297267
0.00656293
0.0109398
0.014869
0.0174991
0.0164683
0.0132205
0.00910862
0.00566477
0.00282386
0.000226127
0.00255685
0.00601121
0.0100069
0.0141985
0.0177884
0.0177411
0.0155019
0.0116871
0.00810353
0.00502669
0.00233104
-0.000106129
0.00247638
0.00568959
0.00897404
0.0133243
0.0171614
0.0186698
0.017302
0.0138317
0.0103519
0.0070337
0.00430513
0.001871
-0.000455132
0.00230041
0.00490455
0.00806421
0.0125068
0.0164087
0.0187819
0.0185236
0.0163322
0.0125517
0.00919173
0.00632839
0.00379103
0.0014406
-0.000805006
0.00199282
0.00470866
0.00768156
0.0115529
0.0155984
0.0185771
0.0194149
0.0178687
0.0147597
0.0112784
0.00822274
0.00563643
0.00329949
0.0010837
-0.00118092
0.00176278
0.00429388
0.00686427
0.0103287
0.0146871
0.018054
0.0198108
0.0193036
0.0167192
0.0133133
0.0101626
0.00743991
0.00507266
0.00285283
0.000751722
-0.00149753
0.00165531
0.00392013
0.00651834
0.00962462
0.0132695
0.0169518
0.019749
0.0200841
0.0185205
0.0152977
0.0120767
0.0092245
0.00671765
0.004549
0.00240258
0.000426426
-0.00168409
0.00147435
0.00375545
0.00619917
0.00875216
0.0123474
0.0163879
0.0196316
0.0205806
0.0196785
0.0169602
0.0138094
0.0109077
0.00844417
0.00613247
0.00408683
0.00203079
-6.63135e-05
-0.00197486
0.00129343
0.00332245
0.00580632
0.00793078
0.0110632
0.0154878
0.0188659
0.0207179
0.0206797
0.0187998
0.0157546
0.0125462
0.0100831
0.00770593
0.00559623
0.00361933
0.00157451
-0.000300148
-0.00225418
0.00100589
0.00308532
0.00547414
0.00773011
0.0108801
0.0144644
0.017966
0.0204373
0.0211627
0.0200451
0.0175186
0.0145166
0.0115939
0.00917223
0.0070465
0.00508208
0.00309426
0.00121993
-0.000562349
-0.00241534
0.000953861
0.00303769
0.00500763
0.0073828
0.00990413
0.0133895
0.0172998
0.0198605
0.0212701
0.0209156
0.0189511
0.0162709
0.0132524
0.0106706
0.0083933
0.00645308
0.00459803
0.00268879
0.00100373
-0.000831293
-0.00255583
0.000766094
0.00270544
0.00476532
0.0070503
0.00949253
0.0124282
0.0164808
0.0190682
0.0211419
0.0214208
0.0202038
0.0177189
0.0148006
0.0121362
0.00994447
0.00788149
0.0060587
0.00426063
0.00244027
0.000756922
-0.00101391
-0.00271545
0.000614001
0.00246639
0.00423522
0.0066195
0.00879108
0.0118352
0.0156447
0.018491
0.0209777
0.0217508
0.021102
0.0193042
0.0162777
0.0136852
0.0113464
0.00910466
0.00732096
0.00558307
0.00372156
0.00206539
0.000432139
-0.00119689
-0.00285469
0.000444053
0.00223383
0.00404454
0.00606788
0.00849265
0.0112265
0.014402
0.017772
0.0202809
0.0218387
0.0217796
0.020348
0.0179308
0.0152282
0.0127316
0.010629
0.00846475
0.00683966
0.00507259
0.00343226
0.0017102
0.000151197
-0.00136946
-0.00302734
0.000253126
0.00190814
0.00363672
0.00572506
0.00821635
0.0102729
0.0129269
0.0169131
0.0196507
0.0216229
0.0221456
0.0212087
0.0192855
0.0165621
0.0140252
0.011737
0.00991955
0.00805426
0.00630923
0.00463106
0.00312482
0.00150229
-1.7567e-05
-0.00149055
-0.0030529
0.000215046
0.00184893
0.00352769
0.00545299
0.00772178
0.00982456
0.0128005
0.0162395
0.0189313
0.0211087
0.0222492
0.0219308
0.0203115
0.0179676
0.0154104
0.0131384
0.0112198
0.00924695
0.00749361
0.00577297
0.00419879
0.00269979
0.00117995
-0.000260246
-0.00172113
-0.00309774
2.73976e-05
0.0016455
0.00333463
0.00527228
0.00725954
0.00949131
0.0121748
0.0152471
0.0182819
0.0206157
0.0222124
0.0224427
0.0212923
0.0192201
0.0168757
0.0144197
0.0122784
0.0104325
0.00862406
0.00698489
0.0054151
0.00383805
0.00233406
0.00101062
-0.000378072
-0.00179223
-0.00317453
-6.55287e-05
0.00151909
0.00300785
0.00480174
0.00689226
0.00894101
0.0110398
0.0144379
0.0175073
0.0199247
0.0218753
0.0226489
0.0220408
0.020236
0.0180712
0.0156484
0.0134948
0.0116084
0.00974055
0.00808002
0.00649708
0.00483682
0.00341995
0.00194668
0.000698919
-0.000526982
-0.00180988
-0.0031106
-0.000177343
0.00134339
0.0028945
0.00452254
0.00652709
0.00857207
0.0107305
0.013971
0.0167295
0.0193801
0.0215606
0.0226011
0.0225729
0.0212809
0.0190809
0.0169743
0.0147478
0.0126568
0.0110444
0.00901626
0.007537
0.00605066
0.00452401
0.00305541
0.00180676
0.000539729
-0.00069159
-0.0018019
-0.00306357
-0.000272385
0.00112329
0.00256089
0.00435305
0.00619484
0.00802646
0.0100357
0.0131873
0.0161105
0.0187517
0.0209621
0.0223678
0.0227803
0.0219431
0.0202836
0.0180199
0.0159727
0.0138755
0.0121254
0.0103553
0.00853736
0.00709991
0.00545165
0.00413341
0.00270559
0.00145724
0.000343846
-0.000715287
-0.00179878
-0.00283742
-0.000265394
0.000960324
0.0024977
0.00412778
0.00570503
0.00764939
0.00990139
0.0122173
0.015453
0.0179995
0.0204248
0.0220866
0.0229116
0.0225073
0.0211307
0.0191759
0.0171041
0.01508
0.0132216
0.0114408
0.00965024
0.00810583
0.00657859
0.00507922
0.00363698
0.00236658
0.00126483
0.000202951
-0.000696096
-0.00164395
-0.00261152
-0.000330529
0.000909143
0.00236085
0.00373998
0.00552373
0.00756833
0.0095437
0.0118804
0.0148982
0.0174637
0.0199128
0.021676
0.0227931
0.0229138
0.021896
0.0201728
0.0181612
0.0163028
0.0141775
0.0125497
0.0107133
0.00907371
0.00753172
0.00603112
0.00454164
0.00320488
0.00200906
0.00101561
0.000125516
-0.000661849
-0.00141552
-0.00225381
-0.000451459
0.000767716
0.00203917
0.00368401
0.00542391
0.00726671
0.00890212
0.011091
0.0140392
0.0168478
0.0191854
0.0212009
0.0225793
0.0231049
0.0226794
0.0210489
0.0191433
0.0172917
0.0153608
0.0136063
0.0119306
0.00997736
0.00831395
0.00694367
0.00546623
0.00400042
0.00280895
0.00171127
0.000777574
4.66828e-05
-0.000481039
-0.00110127
-0.00183383
-0.000470082
0.000663761
0.00194511
0.00345675
0.00512133
0.00697944
0.00866109
0.0107407
0.0135458
0.0161119
0.0185708
0.0207343
0.0222577
0.0230655
0.0230687
0.0218301
0.020293
0.0182903
0.0165139
0.0147208
0.0130181
0.0112472
0.00944907
0.00781151
0.00629764
0.00476292
0.0035157
0.00228584
0.00141135
0.000674685
0.000147112
-0.000239731
-0.000669395
-0.0022526
-0.00143232
-0.000566985
0.000602452
0.00182459
0.00319636
0.00487981
0.00666041
0.00857616
0.0106643
0.0130389
0.0155179
0.0179595
0.0201835
0.0218607
0.0229463
0.0232418
0.0224893
0.0211089
0.0193182
0.0175818
0.0153976
0.0140837
0.0123712
0.0106508
0.00877637
0.00721952
0.00562953
0.00422046
0.00290214
0.0018384
0.00104337
0.000544609
0.000243277
9.25036e-05
-0.000748343
-0.000183907
-0.00190641
-0.0011348
-0.000506833
0.000419883
0.00164028
0.00286678
0.00459304
0.00635265
0.00823806
0.0101232
0.0124073
0.0149448
0.0174104
0.0196358
0.0214442
0.0228114
0.0232596
0.0228747
0.0218287
0.0202521
0.0184672
0.0167163
0.0150425
0.0133961
0.011653
0.00980313
0.00814996
0.00655048
0.00492789
0.0034979
0.00233815
0.00138985
0.000771226
0.000522554
6.26758e-05
0.000188272
0.000158478
0.000155968
0.000492
-0.000440443
0.000103327
-0.00158157
-0.000683038
-0.00054564
0.000407917
0.00157358
0.00282371
0.0043737
0.00594667
0.00791804
0.00958595
0.0119804
0.0142778
0.0168457
0.0190881
0.020986
0.0224046
0.0232234
0.023196
0.0223848
0.0210152
0.0193287
0.0179022
0.0160456
0.0145091
0.0126947
0.0110565
0.00910681
0.00734943
0.00575883
0.00413089
0.00270956
0.00162597
0.000855547
0.00051174
0.000335084
0.000366991
0.000315663
0.000522286
0.000648509
0.00079652
-2.90369e-05
0.000546654
-0.00112554
-0.000290401
-0.000580433
0.000219533
0.00129785
0.00247998
0.00408487
0.00555855
0.0076292
0.00935998
0.0116023
0.0135188
0.0162097
0.018447
0.0204814
0.0220474
0.0230945
0.0233535
0.0228853
0.0217752
0.0203451
0.018746
0.0170631
0.0153846
0.0139232
0.0120661
0.0101743
0.00850712
0.00660745
0.00479778
0.00319796
0.00184542
0.000886634
0.000337321
0.00031839
0.000183286
0.000399468
0.000390364
0.000743355
0.000927197
0.000979945
0.00122073
0.000455201
0.00102756
-0.000731938
0.000239484
-0.000613113
0.000245913
0.00118237
0.00232991
0.00393772
0.00537365
0.00728525
0.00908167
0.0110727
0.0128093
0.0156486
0.0178552
0.0199679
0.0216171
0.0228281
0.0234423
0.0231712
0.0224379
0.0211535
0.019615
0.0181605
0.0165899
0.0149328
0.0131965
0.0115119
0.00956355
0.0076232
0.00547799
0.00379008
0.00216641
0.000846796
5.3213e-05
1.01482e-05
-0.000232092
0.000289732
0.000105392
0.000742994
0.000643713
0.00104949
0.00145133
0.0013985
0.0017513
0.00101377
0.00161275
-0.000237873
0.000798454
-0.000651783
0.000173395
0.00111816
0.00225763
0.00350118
0.00510169
0.00671242
0.0086582
0.0106178
0.0123312
0.0151691
0.0173016
0.0193328
0.0211491
0.0224772
0.0233191
0.0234696
0.0229433
0.0216963
0.0205646
0.0188895
0.0175542
0.0160675
0.0144177
0.0126671
0.0107499
0.00865566
0.00665426
0.00440218
0.00261337
0.000920343
-0.000265289
-0.000479122
-0.000788207
-0.000147564
-0.000468237
0.000450203
0.000169461
0.00100778
0.000854014
0.00144194
0.00206073
0.0019137
0.00236277
0.00163986
0.00227842
0.000309159
0.00142431
-0.000576491
0.000111137
0.000983252
0.00208632
0.00312697
0.0048345
0.00633238
0.00827046
0.0101465
0.0118712
0.0143602
0.0167229
0.018718
0.0206559
0.0220915
0.0231157
0.0234867
0.0232723
0.0225246
0.0213207
0.0200017
0.0185215
0.0169058
0.0154761
0.0138625
0.0116655
0.00958488
0.00775196
0.00554565
0.00301104
0.00126769
-0.000516623
-0.00106218
-0.00138359
-0.000827421
-0.00123319
-0.000190245
-0.000622933
0.000589987
0.000225281
0.00135342
0.00113899
0.00192734
0.00274871
0.00251448
0.00306146
0.00233253
0.00302244
0.000888252
0.00211927
-0.000581929
-6.14298e-06
0.000866786
0.00192706
0.0028855
0.00443729
0.00616163
0.00788641
0.00972524
0.0116109
0.0137455
0.0161573
0.0181634
0.0200429
0.0216663
0.0227735
0.0234595
0.0233905
0.023068
0.0218785
0.0206658
0.0194851
0.0181668
0.0166588
0.0149784
0.0132126
0.0108969
0.00869069
0.00665714
0.00429059
0.00139676
-0.000473202
-0.00161576
-0.00188303
-0.00163436
-0.00206081
-0.00110624
-0.00164016
-0.000232672
-0.000775486
0.000797795
0.000342083
0.00179258
0.00151646
0.00250375
0.00352918
0.00320967
0.00386336
0.00310153
0.00385118
0.00151112
0.00287073
-0.000590173
-1.14942e-05
0.000769733
0.00176189
0.0028739
0.0041728
0.00597481
0.00742968
0.00917222
0.0111063
0.0130609
0.0154217
0.0174835
0.0195133
0.0212121
0.0224575
0.0233114
0.0236272
0.0232797
0.0225633
0.0214579
0.0202456
0.0190635
0.0177103
0.0160608
0.0144737
0.0124269
0.0101401
0.00765373
0.00539925
0.00270945
-0.000524165
-0.00195897
-0.00212415
-0.00241644
-0.00279046
-0.00217509
-0.00274232
-0.0013838
-0.00205057
-0.000221739
-0.000881435
0.001095
0.000545179
0.00232723
0.00199136
0.00318118
0.00440781
0.00401706
0.00477656
0.00394464
0.00476992
0.00217056
0.00367708
-0.000591573
-0.000130288
0.000518677
0.00151353
0.00264965
0.00387389
0.00545524
0.00694738
0.00861139
0.0104943
0.0124594
0.0146944
0.0167442
0.0189796
0.0206935
0.0221306
0.0230938
0.0236573
0.0236419
0.022948
0.0221679
0.0210572
0.0199908
0.0187117
0.0172452
0.0156396
0.0139036
0.0117643
0.00923255
0.00645946
0.00385242
0.000710065
-0.00200533
-0.00196742
-0.0029732
-0.00323367
-0.00321785
-0.00373158
-0.00272443
-0.00342991
-0.00162153
-0.00241418
-0.000126267
-0.000892194
0.0014938
0.000864768
0.00296974
0.00258497
0.00398091
0.00539296
0.00495121
0.00581491
0.00486052
0.00578006
0.00285808
0.00453456
-0.000579445
-0.000192937
0.000389434
0.00124054
0.00227192
0.0035275
0.00484586
0.00650496
0.00817804
0.00987119
0.0119036
0.0137796
0.0161612
0.0183539
0.0201062
0.0216487
0.0228238
0.0235528
0.0237716
0.0235399
0.0228351
0.0218492
0.020694
0.019558
0.0183745
0.016859
0.015226
0.0132916
0.0110822
0.00832473
0.00505909
0.00175743
-0.00140891
-0.00117126
-0.00316751
-0.00315204
-0.00400873
-0.00431016
-0.00401732
-0.00461202
-0.00320438
-0.00394035
-0.00171834
-0.00249415
0.000137131
-0.00057564
0.00205074
0.00147792
0.00375432
0.00339134
0.0049361
0.0064909
0.00604644
0.00700619
0.00584826
0.0068876
0.00356399
0.00543633
-0.00054327
-0.000244608
0.000238054
0.000905685
0.00184647
0.00296746
0.00444043
0.00600827
0.00760955
0.00932243
0.0113293
0.0131667
0.0155692
0.0176036
0.0194848
0.0211004
0.0224257
0.0233431
0.0238105
0.0237642
0.0233489
0.0224507
0.0215693
0.0203617
0.0192823
0.0180011
0.0165379
0.0147762
0.0127249
0.0103294
0.00724522
0.00318446
-0.000546941
-0.00274793
-0.0022074
-0.00430688
-0.00417712
-0.00489546
-0.00496465
-0.00445308
-0.00458834
-0.00304924
-0.00300974
-0.00102582
-0.00067983
0.00112876
0.00167918
0.00310148
0.00355043
0.00480767
0.00495966
0.00620189
0.0077263
0.00746706
0.0084993
0.0069051
0.00810408
0.0042784
0.00637246
-0.000477783
-0.000279731
0.000142708
0.00072648
0.00159178
0.00256635
0.00407765
0.00544373
0.0070073
0.00872313
0.0105078
0.0124735
0.0147313
0.0168758
0.0188097
0.0205055
0.0219639
0.0230498
0.0236534
0.0238636
0.0237007
0.0231517
0.0222227
0.0212303
0.020192
0.0190712
0.0177618
0.0162329
0.0144038
0.0122028
0.00943026
0.00585027
0.00121235
-0.00185857
-0.000106092
-0.0037573
-0.00295812
-0.0047311
-0.00386907
-0.00417255
-0.00260487
-0.00184738
0.00113872
0.00140805
0.00672133
0.00448539
0.0117617
0.00628793
0.0142434
0.00673706
0.0133005
0.00690851
0.0104977
0.00872929
0.00920532
0.0102091
0.0111469
0.0080323
0.00948887
0.00499157
0.00733
-0.00037108
-0.000286319
7.89494e-06
0.000496723
0.00127839
0.00221263
0.00357497
0.00487457
0.00636012
0.00804892
0.00978722
0.0117859
0.0139443
0.0161011
0.018068
0.019847
0.0214061
0.0226218
0.0235651
0.0239444
0.0239069
0.0234818
0.0229537
0.0220316
0.0210487
0.02006
0.0189296
0.0175833
0.0160185
0.0141001
0.0116627
0.00851516
0.00475488
0.00232483
0.00548956
0.00382816
0.0096813
-0.00250259
0.00025666
-0.000169392
0.00449793
0.00646266
0.0148193
0.0166301
0.0311265
0.0266394
0.0496252
0.031908
0.0633574
0.0302737
0.0648622
0.022493
0.0522693
0.0143032
0.0328472
0.0174564
0.0115232
0.0192723
0.019233
0.00924718
0.0113638
0.00568652
0.0082957
-0.000214793
-0.000252958
-8.73019e-05
0.000313984
0.00100418
0.00187029
0.00313316
0.00444233
0.00579835
0.00730615
0.00909125
0.010973
0.0131291
0.0152684
0.0172928
0.0191349
0.0207975
0.022179
0.0232139
0.023861
0.0240236
0.0237899
0.0232756
0.0226615
0.0217985
0.0208981
0.0199931
0.0188588
0.0174775
0.0159167
0.0139177
0.0115325
0.0101295
0.0119271
0.0111076
0.0165381
0.027418
0.031418
0.0449616
0.0111636
0.0202794
0.0257569
0.0397665
0.0491723
0.0691627
0.0777934
0.107075
0.103515
0.146089
0.117481
0.175523
0.110278
0.184367
0.0779234
0.161754
0.0424285
0.103989
0.0490712
0.0177323
0.0508949
0.0468045
0.0106664
0.0153753
0.00633471
0.00927126
-6.70887e-05
-0.000174595
-0.000134608
0.000152474
0.000726484
0.00148326
0.00258236
0.00383952
0.00506258
0.00654134
0.00833581
0.0101197
0.0122702
0.0143949
0.0164504
0.0183864
0.0201088
0.0216507
0.0228383
0.0237163
0.0240098
0.0241618
0.0238234
0.0232135
0.0225017
0.021706
0.0208653
0.0199916
0.0188634
0.0175598
0.0161518
0.0149966
0.0190981
0.050251
0.0380795
0.0622204
0.0600053
0.0778556
0.0903052
0.108965
0.0556108
0.0725477
0.0898242
0.11096
0.135269
0.161221
0.186269
0.221276
0.231246
0.280776
0.259092
0.326481
0.256817
0.345945
0.212363
0.325959
0.124922
0.256209
0.136422
0.0381388
0.135528
0.120987
0.0128816
0.0272606
0.00687816
0.0103514
-0.00011464
-0.00014187
3.14004e-05
0.000468551
0.0011126
0.0021305
0.00327705
0.00437833
0.00580515
0.00742737
0.00930555
0.0113471
0.0134837
0.01557
0.0175527
0.0193869
0.0210088
0.0223834
0.0234021
0.024055
0.0242599
0.02411
0.0237426
0.0231448
0.022475
0.021711
0.0208918
0.0200271
0.0190102
0.018036
0.0184048
0.0294288
0.0790496
0.135861
0.140751
0.0963473
0.114637
0.127946
0.148712
0.170197
0.189374
0.131366
0.150997
0.185026
0.206595
0.251043
0.276127
0.322341
0.35557
0.384254
0.431872
0.424241
0.48969
0.429116
0.517343
0.38605
0.501618
0.286806
0.433021
0.300195
0.0947758
0.292123
0.261387
0.0178936
0.0613884
0.00707711
0.0115907
-0.00017147
-5.55186e-05
0.000253535
0.000785973
0.00168096
0.00259738
0.00375159
0.00506708
0.00660672
0.00851284
0.0103579
0.0125433
0.0146254
0.0166613
0.0185647
0.0203011
0.0218025
0.022998
0.0238603
0.0242778
0.0243262
0.0241621
0.0237679
0.0231782
0.0225285
0.0217573
0.0210136
0.0202286
0.0196946
0.0215258
0.0393734
0.102259
0.217493
0.20442
0.236054
0.168453
0.189232
0.208561
0.229053
0.261436
0.278589
0.225982
0.244044
0.297677
0.315637
0.381589
0.401957
0.468986
0.496234
0.54293
0.583854
0.590223
0.648509
0.600358
0.680933
0.560227
0.668264
0.462987
0.603283
0.473413
0.209647
0.463768
0.438591
0.328143
0.030211
0.138153
0.0060813
0.0125011
-0.000130622
9.12654e-05
0.000489803
0.00120687
0.00205821
0.00317441
0.00436635
0.00578286
0.00755973
0.00943573
0.0115398
0.0136262
0.0157052
0.0176778
0.0195013
0.0211283
0.0224999
0.0235495
0.0241908
0.0244647
0.024509
0.0242831
0.0238589
0.0232812
0.0226241
0.0218234
0.0212056
0.0211081
0.0249012
0.0491543
0.122613
0.238531
0.316448
0.328394
0.284963
0.302284
0.248645
0.267763
0.295877
0.314414
0.358048
0.371074
0.330886
0.344754
0.417742
0.429333
0.515172
0.527851
0.61386
0.632108
0.695362
0.72468
0.743836
0.793932
0.758151
0.826935
0.720985
0.819953
0.628198
0.752379
0.687683
0.550711
0.63494
0.41076
0.261612
0.383429
0.525798
0.623767
0.627804
0.511988
0.0287209
0.0774706
0.339518
0.297128
0.168518
0.00644754
0.0461924
0.0120412
0.026885
-2.82981e-05
0.000234053
0.000776519
0.00149381
0.00249385
0.00361004
0.00491482
0.00661263
0.00845586
0.0104697
0.0125759
0.0146821
0.0167273
0.0186362
0.0203668
0.0218941
0.0230972
0.0239738
0.0244984
0.0247367
0.0247016
0.0244391
0.0239391
0.0233203
0.022635
0.0221004
0.0224323
0.0287299
0.0602057
0.140051
0.258881
0.335816
0.334239
0.383346
0.381526
0.361834
0.373328
0.331703
0.347688
0.384389
0.398474
0.452371
0.459048
0.437945
0.445468
0.535137
0.537784
0.640568
0.641564
0.730471
0.722246
0.803932
0.78423
0.870314
0.859587
0.844955
0.881341
0.903207
0.919442
0.802128
0.857962
0.905154
0.939319
0.897635
0.761125
0.701152
0.775363
0.821305
0.705207
0.486337
0.451907
0.604592
0.691335
0.702074
0.584229
0.120499
0.410669
0.359566
0.236028
0.00534851
0.00908946
0.0150468
0.0734646
0.0396741
3.63471e-05
0.000412329
0.000988511
0.00184895
0.00287138
0.00409879
0.00565961
0.00741905
0.00944661
0.0114763
0.0135951
0.0156988
0.0176853
0.0195185
0.0211732
0.0225705
0.0236532
0.0243816
0.0248297
0.0250126
0.0249197
0.0246333
0.0241044
0.0235165
0.0230689
0.0243232
0.0347667
0.0720451
0.153663
0.260333
0.332793
0.374691
0.363226
0.421876
0.406708
0.428227
0.42882
0.410469
0.419766
0.465866
0.472672
0.536233
0.53514
0.537661
0.537737
0.637894
0.629542
0.709429
0.695813
0.759228
0.729576
0.823169
0.767266
0.912175
0.894541
0.868865
0.827745
0.933567
0.942884
0.932777
0.874951
0.922413
0.962855
0.986131
0.960641
0.835236
0.775944
0.842525
0.891616
0.776355
0.556133
0.520521
0.674877
0.770888
0.759141
0.652389
0.17452
0.476515
0.422702
0.298966
0.00569796
0.010316
0.0201697
0.11195
0.0593606
9.34842e-05
0.000542914
0.00124682
0.00217038
0.00328515
0.00471742
0.00636786
0.00838382
0.0103403
0.0124514
0.0145963
0.0166675
0.0185996
0.0203502
0.0219384
0.0231973
0.0241506
0.0247946
0.0251901
0.025366
0.0253864
0.0249885
0.0243932
0.0242757
0.0273171
0.0427058
0.0846931
0.164029
0.252712
0.303958
0.341881
0.321082
0.387132
0.365538
0.436385
0.408495
0.472625
0.458964
0.477346
0.476996
0.53425
0.532393
0.605296
0.597383
0.62176
0.613626
0.684617
0.675972
0.703849
0.685405
0.697662
0.641145
0.777826
0.715436
0.660781
0.603237
0.912477
0.874216
0.818294
0.750237
0.966308
0.952543
0.925024
0.941632
0.982109
0.987762
1.00857
1.00827
0.903392
0.84605
0.910817
0.957269
0.844933
0.622725
0.585223
0.74153
0.838025
0.824882
0.717241
0.230454
0.53891
0.482183
0.358705
0.00608337
0.0268141
0.0118563
0.155181
0.0831392
0.000143671
0.000696457
0.00149282
0.00250153
0.00377731
0.00531597
0.00725967
0.00917509
0.0112652
0.0134292
0.015564
0.0175882
0.0194566
0.0211612
0.0226194
0.0237771
0.0246251
0.0252
0.0255573
0.0256737
0.0256265
0.0252029
0.0255114
0.0310662
0.0520259
0.0969999
0.17205
0.243188
0.279087
0.265901
0.309653
0.27111
0.375851
0.34113
0.428489
0.383763
0.495575
0.46669
0.52764
0.517254
0.588735
0.577622
0.653086
0.642012
0.669186
0.662062
0.674692
0.669753
0.607919
0.596967
0.561521
0.524063
0.501465
0.490772
0.67787
0.607556
0.545106
0.494242
0.873807
0.804259
0.723784
0.639805
0.970749
0.933857
0.871713
1.00064
1.02839
0.988542
1.00724
1.02917
0.968843
0.91379
0.976111
1.01616
0.91171
0.685687
0.646085
0.805492
0.903429
0.888665
0.779111
0.283957
0.597137
0.537459
0.414365
0.00631877
0.0342091
0.0130499
0.197644
0.107251
0.000195387
0.000849866
0.00173649
0.00287639
0.00428041
0.00610089
0.007967
0.0100203
0.0121955
0.0143777
0.0164846
0.018459
0.0202745
0.0219043
0.023259
0.0243126
0.0250781
0.0256478
0.0258205
0.0258909
0.0259019
0.0267119
0.0347975
0.0612913
0.108814
0.178171
0.232513
0.257553
0.232535
0.195398
0.179911
0.253752
0.220753
0.336949
0.292413
0.396379
0.335952
0.500611
0.453096
0.561772
0.53612
0.627582
0.608117
0.672054
0.666325
0.671202
0.672155
0.597702
0.613592
0.448298
0.466081
0.456125
0.430547
0.415898
0.408053
0.559384
0.488572
0.432196
0.392175
0.791137
0.700626
0.606862
0.516815
0.943356
0.872359
0.783128
1.0466
1.04945
0.956056
0.973461
1.02706
1.028
0.978913
1.03609
1.06276
0.976236
0.745248
0.7031
0.867147
0.966762
0.950508
0.838349
0.33312
0.651243
0.588481
0.465294
0.00643609
0.0405172
0.0132688
0.235956
0.127874
0.000250565
0.000998153
0.00199743
0.00325937
0.00487158
0.00671895
0.00872373
0.0108926
0.0131104
0.01529
0.0173581
0.0192812
0.0210662
0.0225973
0.0238532
0.0248216
0.0255093
0.0260152
0.026126
0.0263272
0.0275794
0.0378825
0.0691525
0.118327
0.180245
0.220621
0.23759
0.204356
0.126791
0.135787
0.11175
0.187368
0.157016
0.277936
0.227501
0.346396
0.272746
0.486647
0.420269
0.58002
0.540301
0.650763
0.624903
0.665312
0.667971
0.634913
0.654516
0.501959
0.543905
0.371042
0.391562
0.433458
0.408725
0.367101
0.354733
0.352639
0.358069
0.437902
0.37681
0.335481
0.313544
0.684376
0.582502
0.484022
0.398143
0.878661
0.783183
0.678053
1.06936
1.0484
0.892242
0.91379
0.995412
1.07652
1.03957
1.08683
1.08832
1.03705
0.801728
0.75652
0.926703
1.0273
1.00986
0.895089
0.377101
0.701645
0.635148
0.511377
0.00729467
0.0436578
0.0126292
0.268426
0.141363
0.000305548
0.00115366
0.00226575
0.00368349
0.00547095
0.00738494
0.00952443
0.0117613
0.0140027
0.01616
0.0181848
0.0200982
0.0217948
0.0232472
0.0244204
0.025295
0.0260402
0.0263955
0.0265469
0.0280489
0.03944
0.0746394
0.125023
0.17774
0.208708
0.217428
0.177801
0.102497
0.0572986
0.050519
0.0770714
0.064189
0.117814
0.0931442
0.206969
0.154807
0.286966
0.202874
0.459316
0.375927
0.585539
0.530402
0.659407
0.629699
0.647291
0.655628
0.585518
0.621928
0.454958
0.48207
0.508016
0.342637
0.362874
0.409827
0.385287
0.304047
0.304187
0.312347
0.325649
0.332389
0.292795
0.274706
0.266283
0.56983
0.465454
0.374893
0.307201
0.79257
0.683652
0.571481
1.0714
1.02138
0.812679
0.843716
0.942637
1.10615
1.09276
1.12151
1.09465
1.09212
0.855271
0.806711
0.983864
1.08332
1.06559
0.949227
0.415433
0.748557
0.677744
0.552683
0.00742239
0.042093
0.0116945
0.293938
0.146451
0.000360667
0.00130923
0.00254795
0.00419813
0.00601793
0.00809254
0.0103324
0.0126201
0.0148625
0.0169891
0.0190024
0.0208564
0.0224911
0.0238663
0.0249453
0.0258152
0.0264711
0.0267899
0.0282436
0.0395663
0.0764027
0.128486
0.172976
0.196125
0.196361
0.150769
0.0811507
0.0371096
0.0336189
0.0291067
0.0429485
0.0371923
0.0664537
0.0515796
0.136624
0.0926008
0.236593
0.1569
0.427248
0.331541
0.580239
0.512035
0.651592
0.62363
0.624505
0.636874
0.555975
0.595962
0.434449
0.459567
0.464714
0.493199
0.316896
0.336724
0.384115
0.359327
0.267871
0.275009
0.285878
0.299899
0.271694
0.254627
0.245752
0.243812
0.463675
0.370247
0.301681
0.266424
0.702218
0.58889
0.479452
1.05175
0.977141
0.734127
0.778494
0.883521
1.11778
1.13309
1.13902
1.08497
1.13799
0.906115
0.854039
1.03783
1.13323
1.11623
1.00056
0.448209
0.792144
0.716791
0.589422
0.00762877
0.0351888
0.0125866
0.311808
0.141461
0.000407459
0.00146669
0.00292374
0.00462862
0.00661613
0.00882334
0.0111432
0.01346
0.0156921
0.0177876
0.0197908
0.021592
0.0231548
0.0244374
0.0254022
0.026324
0.0268904
0.0282309
0.0389764
0.0748987
0.127672
0.166308
0.183351
0.175216
0.125836
0.0657073
0.0338024
0.0245905
0.0242554
0.0267056
0.0251561
0.0317942
0.0286706
0.0474528
0.0372868
0.100853
0.0665281
0.213246
0.142277
0.401289
0.303475
0.568259
0.492639
0.634344
0.608389
0.589155
0.603215
0.519263
0.543979
0.561506
0.410284
0.436825
0.427524
0.457142
0.282791
0.299564
0.343921
0.320102
0.245655
0.251037
0.258631
0.269045
0.249838
0.241202
0.236818
0.236033
0.384528
0.314349
0.274861
0.255674
0.621797
0.512944
0.417709
1.01683
0.929893
0.669624
0.730645
0.832236
1.11557
1.15588
1.14487
1.05926
1.16824
0.954118
0.898664
1.08771
1.17185
1.16055
1.04845
0.475558
0.832956
0.752776
0.622093
0.00905957
0.0337497
0.0178597
0.321901
0.136443
0.000450494
0.00168049
0.00323286
0.00509926
0.00725104
0.00956714
0.0119503
0.0142789
0.0164688
0.0185898
0.0205489
0.0222871
0.0237663
0.0249284
0.0260003
0.0267434
0.0279455
0.0374878
0.0720302
0.122854
0.158361
0.170604
0.155261
0.104591
0.054359
0.0302066
0.0228417
0.0230297
0.02245
0.024874
0.0238068
0.029038
0.0264325
0.0434922
0.0340228
0.0927554
0.0613947
0.231286
0.166442
0.395744
0.308278
0.553833
0.480824
0.601379
0.579461
0.526803
0.538586
0.533111
0.484897
0.511801
0.507773
0.483889
0.370184
0.398346
0.367477
0.398113
0.242403
0.252263
0.286918
0.266911
0.23558
0.235394
0.235931
0.237729
0.24612
0.241272
0.23882
0.236627
0.345371
0.29712
0.274523
0.265201
0.564064
0.469754
0.392988
0.980689
0.892794
0.631152
0.708503
0.801368
1.10138
1.16874
1.14127
1.03353
1.18575
0.999134
0.941004
1.13271
1.19656
1.1943
1.0921
0.498157
0.871617
0.786339
0.651515
0.0102247
0.0416507
0.0272494
0.32975
0.144617
0.000505285
0.00185938
0.00357133
0.00561375
0.00790976
0.0103217
0.0127446
0.0150597
0.0172622
0.0193502
0.0212697
0.0229425
0.0243185
0.0253795
0.0263699
0.0274455
0.034723
0.0674688
0.116799
0.149824
0.158256
0.137693
0.0879406
0.0460761
0.0272502
0.0217894
0.0209375
0.0205716
0.02194
0.0214386
0.0236277
0.0226617
0.027572
0.0250412
0.0447407
0.0328119
0.110902
0.0693322
0.266597
0.191535
0.407543
0.337596
0.534895
0.47579
0.536472
0.524253
0.463356
0.486216
0.415426
0.426504
0.428412
0.457009
0.438766
0.409257
0.31074
0.337866
0.286224
0.316334
0.224068
0.222079
0.228467
0.223173
0.234679
0.232184
0.229541
0.226745
0.260639
0.260844
0.259343
0.25717
0.338363
0.311782
0.301777
0.298606
0.537984
0.458368
0.400229
0.956713
0.875714
0.619998
0.715887
0.79382
1.08493
1.17463
1.13335
1.01883
1.19795
1.0415
0.98145
1.17177
1.21173
1.21503
1.13157
0.518375
0.908437
0.818028
0.678685
0.0116208
0.0626776
0.0422254
0.34358
0.169629
0.000549994
0.00206231
0.00394123
0.00616189
0.00859258
0.0110733
0.0135281
0.0158272
0.0180254
0.0200866
0.02196
0.0235259
0.024689
0.0258369
0.0268429
0.0318776
0.0600795
0.109065
0.141322
0.147141
0.123125
0.0762631
0.0401478
0.0247483
0.0205247
0.0192703
0.019846
0.0194505
0.0206624
0.020197
0.0221404
0.0212752
0.0260762
0.0235024
0.0441242
0.0314447
0.121801
0.071791
0.269807
0.189605
0.402365
0.341941
0.495763
0.45406
0.406375
0.412556
0.368301
0.394382
0.310924
0.341366
0.347143
0.378558
0.339445
0.30713
0.241101
0.2607
0.21287
0.226517
0.224022
0.216534
0.206841
0.211095
0.253107
0.247209
0.240145
0.231946
0.303746
0.30639
0.308569
0.30786
0.369383
0.358115
0.355464
0.363872
0.543625
0.484599
0.447875
0.950719
0.883156
0.645293
0.758959
0.817285
1.07644
1.17534
1.12992
1.02093
1.20459
1.08197
1.02033
1.20228
1.22005
1.22639
1.16909
0.540107
0.943402
0.848513
0.705164
0.0152091
0.0974007
0.0576762
0.367064
0.211843
0.000588631
0.00228317
0.00435176
0.00674462
0.0092848
0.0118305
0.0142648
0.0165738
0.0187688
0.0208042
0.0225594
0.0239245
0.0250946
0.0261402
0.0293958
0.0516235
0.0986417
0.132814
0.137743
0.11287
0.0689914
0.0358586
0.0223649
0.018874
0.018018
0.0172312
0.0185698
0.0183818
0.0194161
0.0189868
0.0207632
0.0200138
0.0237592
0.0218154
0.0396021
0.0282994
0.116427
0.0659569
0.222394
0.148195
0.340681
0.289381
0.402708
0.37708
0.233123
0.254853
0.277493
0.270275
0.252923
0.281052
0.197849
0.212494
0.248737
0.276086
0.22762
0.209581
0.204577
0.206192
0.190131
0.189884
0.25608
0.239771
0.210614
0.224173
0.302772
0.294947
0.285642
0.271941
0.374365
0.382991
0.389789
0.392407
0.434922
0.431757
0.442664
0.457487
0.588022
0.550674
0.534522
0.967293
0.918484
0.713534
0.841686
0.878449
1.08173
1.17272
1.12858
1.03944
1.20663
1.12049
1.05682
1.22032
1.2236
1.22888
1.19961
0.563603
0.977
0.876747
0.73091
0.0166158
0.131184
0.0613106
0.398004
0.254285
0.000622369
0.00252875
0.00479687
0.0073591
0.00998178
0.0125372
0.0149877
0.0173132
0.0194879
0.0214016
0.0229753
0.0241537
0.0253496
0.0274786
0.043509
0.086818
0.123515
0.129546
0.105055
0.0636903
0.0323945
0.0199022
0.0169918
0.0164261
0.0159843
0.0156851
0.0171493
0.0153788
0.0175081
0.0183136
0.0179452
0.0192738
0.0187191
0.0210533
0.0199435
0.030177
0.0235664
0.0857463
0.047518
0.131762
0.0799176
0.217482
0.182417
0.243553
0.237278
0.159493
0.161868
0.188499
0.170517
0.184064