/*--------------------------------*- C++ -*----------------------------------*\
  =========                 |
  \\      /  F ield         | OpenFOAM: The Open Source CFD Toolbox
   \\    /   O peration     | Website:  https://openfoam.org
    \\  /    A nd           | Version:  dev
     \\/     M anipulation  |
\*---------------------------------------------------------------------------*/
FoamFile
{
    version     2.0;
    format      ascii;
    class       surfaceScalarField;
    location    "2500";
    object      phi;
}
// * * * * * * * * * * * * * * * * * * * * * * * * * * * * * * * * * * * * * //

dimensions      [1 0 -1 0 0 0 0];

internalField   nonuniform List<scalar> 
19505
(
1.5908e-07
1.09412e-07
1.37694e-07
2.71239e-07
4.38695e-07
9.97925e-08
1.12603e-07
3.72223e-07
4.32958e-07
2.77011e-07
6.37496e-07
8.48608e-08
9.23672e-08
4.46293e-07
3.99187e-07
4.06008e-07
6.56159e-07
2.58381e-07
7.94609e-07
7.30227e-08
7.63364e-08
5.04516e-07
3.48133e-07
4.97373e-07
6.55304e-07
4.06888e-07
8.24351e-07
2.2869e-07
9.35249e-07
6.5011e-08
6.39511e-08
5.55512e-07
2.92649e-07
5.60038e-07
6.27754e-07
5.24978e-07
8.51347e-07
3.79894e-07
9.61726e-07
2.02245e-07
1.0649e-06
5.95251e-08
5.52341e-08
6.05184e-07
2.43625e-07
6.04595e-07
5.76569e-07
6.11253e-07
8.58994e-07
5.17361e-07
9.98427e-07
3.432e-07
1.08441e-06
1.82743e-07
1.18663e-06
5.50035e-08
4.88876e-08
6.55615e-07
2.07309e-07
6.41631e-07
5.10007e-07
6.71228e-07
8.39247e-07
6.31038e-07
1.03257e-06
4.83284e-07
1.11839e-06
3.09255e-07
1.20201e-06
1.67444e-07
1.29996e-06
5.10069e-08
4.45476e-08
7.04772e-07
1.82189e-07
6.80807e-07
4.40791e-07
7.10918e-07
7.93802e-07
7.16706e-07
1.04994e-06
6.13713e-07
1.16149e-06
4.40234e-07
1.22928e-06
2.81998e-07
1.31288e-06
1.54594e-07
1.40594e-06
4.73739e-08
4.12831e-08
7.52865e-07
1.64378e-07
7.22635e-07
3.81715e-07
7.39969e-07
7.27152e-07
7.77618e-07
1.04105e-06
7.25648e-07
1.20337e-06
5.71881e-07
1.26905e-06
4.0049e-07
1.33562e-06
2.59297e-07
1.41746e-06
1.43146e-07
1.50538e-06
4.40482e-08
3.84462e-08
8.00051e-07
1.51955e-07
7.65362e-07
3.3661e-07
7.67789e-07
6.49267e-07
8.17889e-07
1.00482e-06
8.13884e-07
1.23091e-06
6.98155e-07
1.31781e-06
5.23213e-07
1.36887e-06
3.67268e-07
1.43713e-06
2.39647e-07
1.51578e-06
1.32768e-07
1.59847e-06
4.10227e-08
3.66602e-08
8.45337e-07
1.43447e-07
8.08628e-07
3.04192e-07
7.97842e-07
5.73861e-07
8.43153e-07
9.44917e-07
8.77841e-07
1.23474e-06
8.10087e-07
1.36688e-06
6.49105e-07
1.41308e-06
4.79049e-07
1.46566e-06
3.38789e-07
1.53315e-06
2.22324e-07
1.60787e-06
1.23372e-07
1.68579e-06
3.81731e-08
3.54725e-08
8.90501e-07
1.36238e-07
8.52601e-07
2.80509e-07
8.3225e-07
5.0913e-07
8.6264e-07
8.69363e-07
9.18886e-07
1.21051e-06
9.02118e-07
1.40473e-06
7.72283e-07
1.46729e-06
5.94942e-07
1.50383e-06
4.40947e-07
1.55827e-06
3.13682e-07
1.62413e-06
2.06119e-07
1.69465e-06
1.14531e-07
1.76751e-06
3.53736e-08
3.43441e-08
9.35106e-07
1.30279e-07
8.96484e-07
2.62394e-07
8.70737e-07
4.58998e-07
8.82571e-07
7.89128e-07
9.42927e-07
1.16112e-06
9.68331e-07
1.42157e-06
8.85319e-07
1.52405e-06
7.15563e-07
1.55245e-06
5.4637e-07
1.59228e-06
4.07027e-07
1.6472e-06
2.90616e-07
1.70987e-06
1.90968e-07
1.77602e-06
1.06069e-07
1.84403e-06
3.26477e-08
3.33006e-08
9.78215e-07
1.24665e-07
9.40774e-07
2.47106e-07
9.11884e-07
4.21714e-07
9.08161e-07
7.12003e-07
9.59747e-07
1.09274e-06
1.01134e-06
1.41221e-06
9.77726e-07
1.57266e-06
8.36737e-07
1.61116e-06
6.569e-07
1.63524e-06
5.03453e-07
1.67756e-06
3.76776e-07
1.73169e-06
2.68846e-07
1.79058e-06
1.76447e-07
1.8522e-06
9.79247e-08
1.91513e-06
3.00972e-08
3.2215e-08
1.02046e-06
1.17824e-07
9.85213e-07
2.34537e-07
9.53413e-07
3.93677e-07
9.40023e-07
6.44286e-07
9.75841e-07
1.01289e-06
1.03963e-06
1.37674e-06
1.04684e-06
1.60389e-06
9.46531e-07
1.675e-06
7.72936e-07
1.68851e-06
6.03688e-07
1.71611e-06
4.6495e-07
1.76013e-06
3.4837e-07
1.81112e-06
2.48348e-07
1.866e-06
1.62694e-07
1.9232e-06
8.9887e-08
1.98157e-06
2.7474e-08
3.10078e-08
1.06046e-06
1.11562e-07
1.02675e-06
2.25533e-07
9.94284e-07
3.70894e-07
9.76278e-07
5.89741e-07
9.94604e-07
9.30669e-07
1.05816e-06
1.32025e-06
1.09616e-06
1.61101e-06
1.03972e-06
1.7346e-06
8.86979e-07
1.75125e-06
7.10286e-07
1.76341e-06
5.56456e-07
1.79549e-06
4.29632e-07
1.83798e-06
3.21574e-07
1.88585e-06
2.28541e-07
1.93674e-06
1.49194e-07
1.98949e-06
8.19956e-08
2.0429e-06
2.5144e-08
2.96435e-08
1.09836e-06
1.06108e-07
1.06596e-06
2.16642e-07
1.03572e-06
3.49771e-07
1.01549e-06
5.47427e-07
1.01846e-06
8.53308e-07
1.07199e-06
1.2489e-06
1.12956e-06
1.59231e-06
1.11492e-06
1.7804e-06
9.93925e-07
1.82112e-06
8.17119e-07
1.82085e-06
6.52887e-07
1.83801e-06
5.1398e-07
1.87129e-06
3.96359e-07
1.91138e-06
2.961e-07
1.95564e-06
2.09703e-07
2.00245e-06
1.36254e-07
2.05014e-06
7.47505e-08
2.09992e-06
2.27401e-08
2.78142e-08
1.13484e-06
1.01358e-07
1.10316e-06
2.06851e-07
1.07581e-06
3.32229e-07
1.05332e-06
5.16194e-07
1.04688e-06
7.85606e-07
1.08634e-06
1.1696e-06
1.15133e-06
1.55046e-06
1.17144e-06
1.80562e-06
1.08975e-06
1.89103e-06
9.24045e-07
1.88826e-06
7.49717e-07
1.88945e-06
6.01508e-07
1.9116e-06
4.73719e-07
1.94298e-06
3.64822e-07
1.98014e-06
2.71657e-07
2.02077e-06
1.91465e-07
2.06295e-06
1.23506e-07
2.10715e-06
6.75013e-08
2.15202e-06
2.02908e-08
2.60313e-08
1.16849e-06
9.78566e-08
1.13835e-06
1.96497e-07
1.11357e-06
3.19208e-07
1.08889e-06
4.91982e-07
1.07755e-06
7.29935e-07
1.10249e-06
1.08979e-06
1.1662e-06
1.49083e-06
1.21099e-06
1.8064e-06
1.17069e-06
1.95127e-06
1.02954e-06
1.96346e-06
8.48871e-07
1.95092e-06
6.88302e-07
1.9588e-06
5.54303e-07
1.98084e-06
4.35919e-07
2.01045e-06
3.34579e-07
2.04453e-06
2.4796e-07
2.08091e-06
1.73557e-07
2.11942e-06
1.11297e-07
2.15962e-06
5.99458e-08
2.19978e-06
1.79442e-08
2.4485e-08
1.19956e-06
9.43452e-08
1.17205e-06
1.867e-07
1.14826e-06
3.08481e-07
1.12436e-06
4.68922e-07
1.11204e-06
6.85668e-07
1.12189e-06
1.01391e-06
1.17833e-06
1.41997e-06
1.23711e-06
1.78326e-06
1.23415e-06
1.9948e-06
1.1272e-06
2.04161e-06
9.51462e-07
2.02252e-06
7.77336e-07
2.01403e-06
6.33151e-07
2.0253e-06
5.09895e-07
2.04696e-06
3.99493e-07
2.07402e-06
3.05092e-07
2.10452e-06
2.24448e-07
2.13741e-06
1.55626e-07
2.1721e-06
9.88078e-08
2.20726e-06
5.25126e-08
2.24309e-06
1.5521e-08
2.29649e-08
1.22847e-06
9.00901e-08
1.20386e-06
1.78339e-07
1.18047e-06
2.96233e-07
1.16052e-06
4.45945e-07
1.14736e-06
6.52078e-07
1.14545e-06
9.4607e-07
1.18963e-06
1.34456e-06
1.25374e-06
1.74021e-06
1.28018e-06
2.01698e-06
1.21199e-06
2.11526e-06
1.05357e-06
2.10324e-06
8.70775e-07
2.0786e-06
7.12785e-07
2.07743e-06
5.81089e-07
2.08962e-06
4.67257e-07
2.10903e-06
3.646e-07
2.13317e-06
2.76473e-07
2.16065e-06
2.01273e-07
2.18956e-06
1.38269e-07
2.21969e-06
8.63995e-08
2.25059e-06
4.50586e-08
2.28172e-06
1.30852e-08
2.14929e-08
1.25481e-06
8.55041e-08
1.23309e-06
1.70445e-07
1.21185e-06
2.81653e-07
1.19508e-06
4.25997e-07
1.18041e-06
6.27086e-07
1.17236e-06
8.88735e-07
1.20289e-06
1.26904e-06
1.26519e-06
1.68304e-06
1.31097e-06
2.01641e-06
1.28076e-06
2.17721e-06
1.15004e-06
2.18923e-06
9.67646e-07
2.1534e-06
7.96039e-07
2.13712e-06
6.5306e-07
2.13865e-06
5.32107e-07
2.14997e-06
4.26366e-07
2.16728e-06
3.30567e-07
2.18884e-06
2.48351e-07
2.21205e-06
1.78828e-07
2.23712e-06
1.20914e-07
2.26311e-06
7.3923e-08
2.28904e-06
3.77731e-08
2.31554e-06
1.05325e-08
2.00188e-08
1.27862e-06
8.00068e-08
1.26033e-06
1.62123e-07
1.24147e-06
2.68207e-07
1.22527e-06
4.09843e-07
1.21126e-06
6.04178e-07
1.20342e-06
8.40616e-07
1.22051e-06
1.1969e-06
1.27509e-06
1.61766e-06
1.33064e-06
1.99463e-06
1.33277e-06
2.22142e-06
1.23658e-06
2.27478e-06
1.06453e-06
2.238e-06
8.83015e-07
2.20508e-06
7.28136e-07
2.19471e-06
5.97039e-07
2.1971e-06
4.85034e-07
2.20685e-06
3.86855e-07
2.22223e-06
2.97247e-07
2.23982e-06
2.20583e-07
2.25954e-06
1.56459e-07
2.28093e-06
1.03114e-07
2.30208e-06
6.0949e-08
2.32344e-06
2.99061e-08
2.34461e-06
7.77647e-09
1.86747e-08
1.29957e-06
7.42995e-08
1.28434e-06
1.54473e-07
1.26802e-06
2.56422e-07
1.2532e-06
3.93676e-07
1.24145e-06
5.80193e-07
1.2352e-06
8.0396e-07
1.24005e-06
1.13261e-06
1.28476e-06
1.54966e-06
1.34311e-06
1.95589e-06
1.36936e-06
2.24513e-06
1.30904e-06
2.35348e-06
1.15787e-06
2.33008e-06
9.72455e-07
2.28267e-06
8.0537e-07
2.25816e-06
6.64694e-07
2.2499e-06
5.4433e-07
2.25227e-06
4.39586e-07
2.26069e-06
3.48457e-07
2.2726e-06
2.64624e-07
2.28683e-06
1.9337e-07
2.30339e-06
1.34077e-07
2.3202e-06
8.50412e-08
2.33682e-06
4.76165e-08
2.35291e-06
2.16615e-08
2.37688e-06
4.83771e-09
1.72818e-08
1.31737e-06
7.0163e-08
1.30374e-06
1.47385e-07
1.29148e-06
2.45504e-07
1.27899e-06
3.77907e-07
1.26904e-06
5.59104e-07
1.26241e-06
7.77679e-07
1.26149e-06
1.07746e-06
1.29524e-06
1.48248e-06
1.35197e-06
1.90576e-06
1.39329e-06
2.24791e-06
1.36659e-06
2.41878e-06
1.24372e-06
2.42527e-06
1.06268e-06
2.37042e-06
8.84879e-07
2.32953e-06
7.3403e-07
2.30926e-06
6.05343e-07
2.30309e-06
4.93616e-07
2.3045e-06
3.95841e-07
2.31007e-06
3.10968e-07
2.31882e-06
2.32715e-07
2.33069e-06
1.66177e-07
2.34329e-06
1.11059e-07
2.35549e-06
6.64456e-08
2.36696e-06
3.35991e-08
2.38635e-06
1.22245e-08
2.39628e-06
2.99082e-09
1.58111e-08
1.33166e-06
6.57883e-08
1.32178e-06
1.38367e-07
1.31279e-06
2.34092e-07
1.30287e-06
3.62537e-07
1.29435e-06
5.39458e-07
1.28868e-06
7.52794e-07
1.28742e-06
1.0317e-06
1.30726e-06
1.41871e-06
1.35902e-06
1.84972e-06
1.40799e-06
2.23243e-06
1.40873e-06
2.46682e-06
1.31857e-06
2.51836e-06
1.1507e-06
2.46664e-06
9.66487e-07
2.40977e-06
8.04704e-07
2.37577e-06
6.67546e-07
2.35975e-06
5.48679e-07
2.35357e-06
4.44606e-07
2.35298e-06
3.53101e-07
2.35596e-06
2.7389e-07
2.36268e-06
2.00776e-07
2.37058e-06
1.38958e-07
2.37867e-06
8.78492e-08
2.38627e-06
4.72234e-08
2.40022e-06
1.97809e-08
2.40538e-06
3.1458e-09
2.40891e-06
7.00535e-10
1.43584e-08
1.34233e-06
6.08263e-08
1.33664e-06
1.29161e-07
1.33104e-06
2.2269e-07
1.32416e-06
3.48858e-07
1.31657e-06
5.21534e-07
1.3123e-06
7.30554e-07
1.31092e-06
9.97727e-07
1.32135e-06
1.3605e-06
1.3654e-06
1.79188e-06
1.41676e-06
2.20235e-06
1.43807e-06
2.49541e-06
1.38013e-06
2.60296e-06
1.23392e-06
2.56831e-06
1.04902e-06
2.49951e-06
8.76787e-07
2.45019e-06
7.30241e-07
2.42279e-06
6.0456e-07
2.40775e-06
4.94549e-07
2.40096e-06
3.96629e-07
2.39784e-06
3.11295e-07
2.39905e-06
2.376e-07
2.40247e-06
1.68948e-07
2.40683e-06
1.10977e-07
2.41094e-06
6.32729e-08
2.4203e-06
2.72339e-08
2.42192e-06
3.31224e-09
2.42019e-06
-8.08659e-09
2.41402e-06
-1.96767e-09
1.26483e-08
1.34999e-06
5.52927e-08
1.34787e-06
1.20108e-07
1.34571e-06
2.13287e-07
1.34045e-06
3.37045e-07
1.33602e-06
5.03671e-07
1.33436e-06
7.12378e-07
1.33045e-06
9.71009e-07
1.33755e-06
1.30971e-06
1.37209e-06
1.73478e-06
1.42245e-06
2.16288e-06
1.45628e-06
2.50532e-06
1.4282e-06
2.67411e-06
1.30902e-06
2.67173e-06
1.13055e-06
2.59827e-06
9.50275e-07
2.53274e-06
7.9434e-07
2.49234e-06
6.60805e-07
2.46761e-06
5.44752e-07
2.45387e-06
4.41699e-07
2.44453e-06
3.49994e-07
2.44043e-06
2.70002e-07
2.43907e-06
2.0109e-07
2.43898e-06
1.36861e-07
2.43999e-06
8.19644e-08
2.44534e-06
3.82808e-08
2.4444e-06
4.8246e-09
2.43897e-06
-1.54345e-08
2.42757e-06
-2.16077e-08
2.4124e-06
-6.72051e-09
1.11305e-08
1.35385e-06
4.94036e-08
1.35593e-06
1.12068e-07
1.35592e-06
2.04041e-07
1.35495e-06
3.22346e-07
1.3551e-06
4.85313e-07
1.35441e-06
6.96831e-07
1.34988e-06
9.45644e-07
1.3555e-06
1.26755e-06
1.37964e-06
1.68044e-06
1.42637e-06
2.11846e-06
1.46687e-06
2.49909e-06
1.46249e-06
2.72885e-06
1.37349e-06
2.77189e-06
1.20893e-06
2.70417e-06
1.02469e-06
2.6246e-06
8.5848e-07
2.56934e-06
7.17355e-07
2.53435e-06
5.94125e-07
2.51188e-06
4.86785e-07
2.49631e-06
3.89971e-07
2.48586e-06
3.045e-07
2.47994e-06
2.29192e-07
2.47529e-06
1.64861e-07
2.47296e-06
1.03992e-07
2.47489e-06
5.25196e-08
2.47266e-06
1.01074e-08
2.46364e-06
-1.97791e-08
2.44978e-06
-3.7587e-08
2.42763e-06
-3.67982e-08
2.40236e-06
-1.323e-08
1.05851e-08
1.35436e-06
4.49796e-08
1.35828e-06
1.05512e-07
1.36246e-06
1.9255e-07
1.36725e-06
3.08725e-07
1.36854e-06
4.72034e-07
1.36841e-06
6.83187e-07
1.36774e-06
9.2505e-07
1.37031e-06
1.23497e-06
1.38819e-06
1.63105e-06
1.42903e-06
2.0729e-06
1.47188e-06
2.48034e-06
1.48556e-06
2.76594e-06
1.4254e-06
2.86339e-06
1.28184e-06
2.81513e-06
1.09801e-06
2.72557e-06
9.23734e-07
2.65397e-06
7.73865e-07
2.60744e-06
6.4428e-07
2.57462e-06
5.31424e-07
2.55263e-06
4.3052e-07
2.5356e-06
3.40433e-07
2.52449e-06
2.60023e-07
2.51573e-06
1.8883e-07
2.50955e-06
1.28356e-07
2.50804e-06
7.09248e-08
2.50512e-06
2.01367e-08
2.49456e-06
-2.07088e-08
2.47915e-06
-4.90707e-08
2.45446e-06
-6.43514e-08
2.42095e-06
-5.53455e-08
2.37844e-06
-2.20721e-08
9.43243e-09
1.35179e-06
4.09721e-08
1.35838e-06
9.76634e-08
1.36613e-06
1.81953e-07
1.37302e-06
3.00569e-07
1.37554e-06
4.60674e-07
1.37983e-06
6.70208e-07
1.38124e-06
9.10271e-07
1.38259e-06
1.20837e-06
1.39691e-06
1.58736e-06
1.43177e-06
2.02724e-06
1.47457e-06
2.45271e-06
1.49951e-06
2.78622e-06
1.46528e-06
2.94251e-06
1.34631e-06
2.92685e-06
1.17e-06
2.83386e-06
9.8974e-07
2.74696e-06
8.30776e-07
2.68651e-06
6.9476e-07
2.64333e-06
5.75581e-07
2.6138e-06
4.70285e-07
2.5903e-06
3.75875e-07
2.57282e-06
2.92181e-07
2.55938e-06
2.16455e-07
2.54961e-06
1.48857e-07
2.54414e-06
9.22804e-08
2.54085e-06
3.52402e-08
2.53002e-06
-1.52153e-08
2.51391e-06
-5.53907e-08
2.48922e-06
-8.37474e-08
2.45214e-06
-9.54828e-08
2.40322e-06
-8.00813e-08
2.34002e-06
-3.19147e-08
8.15162e-09
1.34577e-06
3.66954e-08
1.35609e-06
9.0738e-08
1.36529e-06
1.74354e-07
1.37371e-06
2.9337e-07
1.38018e-06
4.50102e-07
1.38602e-06
6.60225e-07
1.38967e-06
9.00172e-07
1.39122e-06
1.18809e-06
1.40279e-06
1.55053e-06
1.43365e-06
1.9841e-06
1.47491e-06
2.41972e-06
1.50754e-06
2.79124e-06
1.49445e-06
3.00603e-06
1.40181e-06
3.0346e-06
1.23855e-06
2.94832e-06
1.05557e-06
2.84849e-06
8.88267e-07
2.77289e-06
7.44443e-07
2.71931e-06
6.18871e-07
2.67978e-06
5.09629e-07
2.64939e-06
4.11198e-07
2.62534e-06
3.23349e-07
2.60706e-06
2.44559e-07
2.59295e-06
1.73198e-07
2.58304e-06
1.10095e-07
2.57947e-06
5.37632e-08
2.56893e-06
-3.58902e-09
2.55321e-06
-5.44119e-08
2.53002e-06
-9.60909e-08
2.49445e-06
-1.25954e-07
2.44243e-06
-1.34625e-07
2.37288e-06
-1.12889e-07
2.28189e-06
-1.09978e-08
-2.85317e-08
7.26522e-09
1.33631e-06
3.28903e-08
1.34949e-06
8.54012e-08
1.36141e-06
1.65655e-07
1.37398e-06
2.84831e-07
1.3822e-06
4.42255e-07
1.38795e-06
6.53461e-07
1.3926e-06
8.94933e-07
1.39478e-06
1.1771e-06
1.40215e-06
1.52324e-06
1.42998e-06
1.94593e-06
1.47177e-06
2.38643e-06
1.50806e-06
2.78451e-06
1.51424e-06
3.05325e-06
1.44714e-06
3.13337e-06
1.30302e-06
3.06618e-06
1.12072e-06
2.95777e-06
9.46197e-07
2.86668e-06
7.94301e-07
2.80084e-06
6.62757e-07
2.75045e-06
5.48199e-07
2.71359e-06
4.45447e-07
2.68267e-06
3.53967e-07
2.6585e-06
2.7189e-07
2.6391e-06
1.985e-07
2.62404e-06
1.32298e-07
2.62024e-06
6.94869e-08
2.60945e-06
1.33405e-08
2.59507e-06
-4.53701e-08
2.57514e-06
-9.94532e-08
2.54364e-06
-1.45203e-07
2.49405e-06
-1.77487e-07
2.42414e-06
-1.85807e-07
2.32439e-06
-7.04897e-08
-8.48361e-08
1.10454e-06
-9.8028e-09
1.11283e-06
-3.6809e-08
6.6356e-09
1.32213e-06
3.02499e-08
1.33893e-06
8.10909e-08
1.35388e-06
1.57873e-07
1.36916e-06
2.78846e-07
1.37989e-06
4.37024e-07
1.38734e-06
6.48924e-07
1.39235e-06
8.91584e-07
1.39585e-06
1.1715e-06
1.40037e-06
1.50168e-06
1.42357e-06
1.9125e-06
1.46332e-06
2.35561e-06
1.50248e-06
2.77218e-06
1.52032e-06
3.08637e-06
1.48108e-06
3.22028e-06
1.36021e-06
3.18421e-06
1.18497e-06
3.07346e-06
1.00505e-06
2.96827e-06
8.44796e-07
2.8886e-06
7.06664e-07
2.82767e-06
5.85531e-07
2.78279e-06
4.79028e-07
2.74445e-06
3.8369e-07
2.71382e-06
2.9877e-07
2.68852e-06
2.22552e-07
2.66897e-06
1.53539e-07
2.66221e-06
9.04005e-08
2.65106e-06
2.79674e-08
2.6386e-06
-3.00563e-08
2.62272e-06
-9.2858e-08
2.59768e-06
-1.53397e-07
2.55434e-06
-2.05378e-07
2.48569e-06
-1.15368e-07
-1.23567e-07
1.19114e-06
-1.15088e-07
1.18748e-06
-1.24875e-07
1.11496e-06
-7.26138e-08
1.13174e-06
-1.01598e-07
1.08045e-06
-1.09699e-08
1.08639e-06
-4.27362e-08
6.20666e-09
1.30432e-06
2.85494e-08
1.32381e-06
7.81319e-08
1.3419e-06
1.5224e-07
1.35944e-06
2.75135e-07
1.37279e-06
4.3406e-07
1.38276e-06
6.47536e-07
1.3886e-06
8.88525e-07
1.39537e-06
1.16977e-06
1.3975e-06
1.48523e-06
1.41668e-06
1.88258e-06
1.45335e-06
2.32492e-06
1.49392e-06
2.75434e-06
1.52025e-06
3.10622e-06
1.50053e-06
3.29617e-06
1.40519e-06
3.29996e-06
1.24451e-06
3.19489e-06
1.06354e-06
3.07759e-06
8.95717e-07
2.98339e-06
7.5006e-07
2.91224e-06
6.22151e-07
2.85682e-06
5.11525e-07
2.81118e-06
4.12354e-07
2.77325e-06
3.24325e-07
2.74183e-06
2.45462e-07
2.71664e-06
1.74977e-07
2.70378e-06
1.12037e-07
2.69246e-06
4.90344e-08
2.68162e-06
-1.49458e-08
2.6702e-06
-7.7433e-08
2.65296e-06
-1.48036e-07
2.62015e-06
-2.1911e-07
2.56087e-06
-1.37237e-07
-1.43245e-07
1.20866e-06
-1.32862e-07
1.23213e-06
-1.47019e-07
1.14436e-06
-1.2769e-07
1.20602e-06
-1.51376e-07
1.16885e-06
-1.49333e-07
1.09536e-06
-8.15867e-08
1.10978e-06
-1.15993e-07
1.05247e-06
-1.29739e-08
1.05997e-06
-5.02354e-08
5.30926e-09
1.28444e-06
2.6124e-08
1.30673e-06
7.39903e-08
1.32795e-06
1.46301e-07
1.34777e-06
2.72649e-07
1.36188e-06
4.3452e-07
1.37227e-06
6.50285e-07
1.37988e-06
8.9016e-07
1.38697e-06
1.1738e-06
1.39115e-06
1.47552e-06
1.40709e-06
1.85708e-06
1.442e-06
2.29439e-06
1.48375e-06
2.73289e-06
1.51526e-06
3.11289e-06
1.51352e-06
3.35566e-06
1.44089e-06
3.40821e-06
1.29692e-06
3.3211e-06
1.11816e-06
3.19489e-06
9.46051e-07
3.08573e-06
7.93265e-07
3.00271e-06
6.59581e-07
2.9364e-06
5.42603e-07
2.88273e-06
4.39968e-07
2.83747e-06
3.48074e-07
2.79927e-06
2.66927e-07
2.76742e-06
1.94853e-07
2.74715e-06
1.31729e-07
2.73418e-06
7.04586e-08
2.72274e-06
8.00391e-09
2.71511e-06
-5.97488e-08
2.70615e-06
-1.30516e-07
2.68632e-06
-2.14099e-07
2.64388e-06
-1.5e-07
-1.51999e-07
1.25279e-06
-1.57875e-07
1.27809e-06
-1.68515e-07
1.2271e-06
-1.68078e-07
1.1279e-06
-1.45783e-07
1.19062e-06
-1.73128e-07
1.15082e-06
-1.72231e-07
1.07043e-06
-9.20365e-08
1.08594e-06
-1.31478e-07
1.02139e-06
-1.58313e-08
1.03039e-06
-5.92288e-08
4.36127e-09
1.26138e-06
2.38394e-08
1.28672e-06
6.94311e-08
1.31132e-06
1.43672e-07
1.33051e-06
2.73662e-07
1.34667e-06
4.39806e-07
1.35658e-06
6.55749e-07
1.3666e-06
8.95944e-07
1.37398e-06
1.17889e-06
1.38159e-06
1.472e-06
1.39468e-06
1.83784e-06
1.42618e-06
2.26713e-06
1.46909e-06
2.70935e-06
1.5072e-06
3.1112e-06
1.51688e-06
3.40029e-06
1.469e-06
3.50528e-06
1.34378e-06
3.44607e-06
1.17209e-06
3.31832e-06
9.94815e-07
3.19674e-06
8.3514e-07
3.09998e-06
6.95831e-07
3.02254e-06
5.73262e-07
2.96032e-06
4.65027e-07
2.90759e-06
3.69934e-07
2.86119e-06
2.86068e-07
2.82253e-06
2.11811e-07
2.79328e-06
1.48728e-07
2.77658e-06
8.9359e-08
2.76193e-06
3.13432e-08
2.75564e-06
-3.24058e-08
2.75376e-06
-1.07247e-07
2.74795e-06
-1.92022e-07
2.72508e-06
-1.48841e-07
-1.46335e-07
1.30227e-06
-1.74155e-07
1.32721e-06
-1.76903e-07
1.2509e-06
-1.81642e-07
1.27694e-06
-1.94523e-07
1.21624e-06
-1.9367e-07
1.10654e-06
-1.66356e-07
1.17629e-06
-1.9857e-07
1.13191e-06
-1.97576e-07
1.04125e-06
-1.0287e-07
1.05794e-06
-1.48147e-07
9.84332e-07
-1.828e-08
9.93168e-07
-6.80465e-08
3.44443e-09
1.23492e-06
2.22627e-08
1.26295e-06
6.6645e-08
1.28953e-06
1.45704e-07
1.30924e-06
2.75449e-07
1.32863e-06
4.47522e-07
1.33884e-06
6.60688e-07
1.3514e-06
9.01775e-07
1.36063e-06
1.18252e-06
1.37017e-06
1.47307e-06
1.38036e-06
1.82321e-06
1.40901e-06
2.24195e-06
1.45122e-06
2.68611e-06
1.49225e-06
3.10553e-06
1.5128e-06
3.43367e-06
1.48344e-06
3.59078e-06
1.38342e-06
3.56771e-06
1.22199e-06
3.44645e-06
1.04403e-06
3.31315e-06
8.7838e-07
3.20358e-06
7.31755e-07
3.11591e-06
6.02625e-07
3.04443e-06
4.89174e-07
2.98278e-06
3.89705e-07
2.92933e-06
3.01998e-07
2.88302e-06
2.25615e-07
2.84325e-06
1.61826e-07
2.82061e-06
1.04812e-07
2.80029e-06
5.10841e-08
2.79226e-06
-5.18338e-09
2.79363e-06
-7.21592e-08
2.80029e-06
-1.59467e-07
2.79935e-06
-1.34824e-07
-1.31348e-07
1.35299e-06
-1.74587e-07
1.3762e-06
-1.69515e-07
1.30458e-06
-2.01764e-07
1.3326e-06
-2.04893e-07
1.24428e-06
-2.09647e-07
1.2739e-06
-2.24116e-07
1.2048e-06
-2.22146e-07
1.08015e-06
-1.88534e-07
1.15964e-06
-2.26271e-07
1.1074e-06
-2.24796e-07
1.00665e-06
-1.16332e-07
1.02536e-06
-1.66836e-07
9.43079e-07
-2.08e-08
9.52446e-07
-7.73982e-08
2.95706e-09
1.20534e-06
2.09424e-08
1.23622e-06
6.49434e-08
1.26461e-06
1.48622e-07
1.28641e-06
2.77294e-07
1.30709e-06
4.55968e-07
1.3201e-06
6.67336e-07
1.33213e-06
9.09673e-07
1.34339e-06
1.1874e-06
1.3556e-06
1.4779e-06
1.36506e-06
1.81111e-06
1.39235e-06
2.21732e-06
1.43348e-06
2.66153e-06
1.47564e-06
3.09381e-06
1.50388e-06
3.45375e-06
1.49268e-06
3.66291e-06
1.4113e-06
3.68673e-06
1.26448e-06
3.57833e-06
1.09006e-06
3.43712e-06
9.1995e-07
3.31355e-06
7.6834e-07
3.21393e-06
6.33772e-07
3.13312e-06
5.13962e-07
3.06419e-06
4.07939e-07
3.00312e-06
3.15903e-07
2.94907e-06
2.35976e-07
2.9002e-06
1.68771e-07
2.86795e-06
1.1455e-07
2.83972e-06
6.54522e-08
2.82519e-06
1.82195e-08
2.82568e-06
-3.71281e-08
2.8404e-06
-1.12154e-07
2.86082e-06
-1.13808e-07
-1.07002e-07
1.40147e-06
-1.60062e-07
1.42096e-06
-1.50804e-07
1.36141e-06
-2.03368e-07
1.38929e-06
-1.97361e-07
1.30552e-06
-2.33351e-07
1.33816e-06
-2.375e-07
1.23653e-06
-2.41347e-07
1.27061e-06
-2.58158e-07
1.19172e-06
-2.54191e-07
1.04968e-06
-2.12818e-07
1.13903e-06
-2.57868e-07
1.07956e-06
-2.5464e-07
9.67938e-07
-1.31799e-07
9.88261e-07
-1.87128e-07
8.97032e-07
-2.36248e-08
9.07267e-07
-8.76144e-08
2.88234e-09
1.17305e-06
2.00044e-08
1.20628e-06
6.44763e-08
1.23666e-06
1.51662e-07
1.26149e-06
2.82649e-07
1.28094e-06
4.65951e-07
1.29715e-06
6.78482e-07
1.30872e-06
9.19879e-07
1.32173e-06
1.19353e-06
1.33711e-06
1.48385e-06
1.34938e-06
1.80208e-06
1.37417e-06
2.19554e-06
1.414e-06
2.63647e-06
1.45841e-06
3.07578e-06
1.49362e-06
3.46042e-06
1.49714e-06
3.71772e-06
1.4378e-06
3.79154e-06
1.30651e-06
3.71036e-06
1.13245e-06
3.5703e-06
9.56686e-07
3.43087e-06
8.02575e-07
3.31879e-06
6.63436e-07
3.22771e-06
5.39167e-07
3.14975e-06
4.28424e-07
3.0808e-06
3.3019e-07
3.01994e-06
2.45059e-07
2.96373e-06
1.72423e-07
2.91915e-06
1.17637e-07
2.88279e-06
7.15541e-08
2.85748e-06
3.32557e-08
2.8515e-06
-7.53859e-09
2.86694e-06
-6.35748e-08
2.90174e-06
-8.22727e-08
-7.06876e-08
1.44335e-06
-1.36163e-07
1.45726e-06
-1.2088e-07
1.41663e-06
-1.87368e-07
1.4413e-06
-1.75438e-07
1.37122e-06
-2.36388e-07
1.40372e-06
-2.29828e-07
1.30668e-06
-2.69387e-07
1.34398e-06
-2.74766e-07
1.22805e-06
-2.77646e-07
1.2661e-06
-2.9617e-07
1.17511e-06
-2.9024e-07
1.01448e-06
-2.39005e-07
1.1148e-06
-2.93069e-07
1.04698e-06
-2.87095e-07
9.24581e-07
-1.49083e-07
9.45811e-07
-2.08322e-07
8.45006e-07
-2.6435e-08
8.55426e-07
-9.80104e-08
2.16675e-09
1.13869e-06
2.01412e-08
1.1729e-06
6.58291e-08
1.2049e-06
1.55497e-07
1.23272e-06
2.9242e-07
1.25151e-06
4.76311e-07
1.27038e-06
6.92217e-07
1.28322e-06
9.30425e-07
1.29808e-06
1.19948e-06
1.3156e-06
1.48926e-06
1.33146e-06
1.79752e-06
1.35395e-06
2.17626e-06
1.3932e-06
2.61122e-06
1.43917e-06
3.05375e-06
1.48034e-06
3.45884e-06
1.49511e-06
3.75705e-06
1.45778e-06
3.88231e-06
1.34698e-06
3.8358e-06
1.18115e-06
3.70222e-06
1.0007e-06
3.55626e-06
8.31262e-07
3.43193e-06
6.89517e-07
3.33017e-06
5.60949e-07
3.24228e-06
4.46616e-07
3.16491e-06
3.44405e-07
3.09466e-06
2.55383e-07
3.03197e-06
1.7684e-07
2.97525e-06
1.16336e-07
2.9317e-06
6.87893e-08
2.89351e-06
3.56065e-08
2.87514e-06
9.69684e-09
2.88221e-06
-2.27096e-08
2.91955e-06
-4.57564e-08
-3.55107e-08
1.47346e-06
-9.84405e-08
1.47962e-06
-7.68143e-08
1.46396e-06
-1.58784e-07
1.48231e-06
-1.39201e-07
1.43527e-06
-2.18879e-07
1.46425e-06
-2.04381e-07
1.38207e-06
-2.7444e-07
1.41992e-06
-2.67644e-07
1.30735e-06
-3.10596e-07
1.3504e-06
-3.17783e-07
1.2155e-06
-3.18e-07
1.25957e-06
-3.40191e-07
1.15492e-06
-3.30323e-07
9.73764e-07
-2.66918e-07
1.08584e-06
-3.31891e-07
1.00912e-06
-3.22404e-07
8.73159e-07
-1.66783e-07
8.96958e-07
-2.3208e-07
7.87369e-07
-2.93994e-08
7.98176e-07
-1.08789e-07
5.64239e-10
1.10252e-06
2.02463e-08
1.13866e-06
6.70252e-08
1.17167e-06
1.60964e-07
1.19932e-06
3.0401e-07
1.22101e-06
4.88541e-07
1.23926e-06
7.06226e-07
1.25628e-06
9.40813e-07
1.2727e-06
1.20636e-06
1.29112e-06
1.49377e-06
1.31095e-06
1.7968e-06
1.33212e-06
2.15871e-06
1.37135e-06
2.58545e-06
1.41877e-06
3.03038e-06
1.46244e-06
3.45116e-06
1.48788e-06
3.78409e-06
1.46793e-06
3.96026e-06
1.37976e-06
3.95483e-06
1.2278e-06
3.83364e-06
1.04978e-06
3.6837e-06
8.73287e-07
3.54957e-06
7.13488e-07
3.44194e-06
5.77781e-07
3.34349e-06
4.59769e-07
3.25691e-06
3.54631e-07
3.17662e-06
2.6262e-07
3.106e-06
1.81403e-07
3.0379e-06
1.14209e-07
2.98614e-06
6.19196e-08
2.93447e-06
2.7895e-08
2.90068e-06
1.01684e-08
2.89307e-06
-1.10311e-09
2.92065e-06
-1.51735e-08
-8.54006e-09
1.4877e-06
-5.38035e-08
1.48674e-06
-3.45208e-08
1.49721e-06
-1.13309e-07
1.50656e-06
-8.61323e-08
1.49018e-06
-1.84682e-07
1.51148e-06
-1.60471e-07
1.45676e-06
-2.55684e-07
1.49093e-06
-2.38514e-07
1.39445e-06
-3.18444e-07
1.43868e-06
-3.11839e-07
1.3069e-06
-3.57894e-07
1.35662e-06
-3.6746e-07
1.20019e-06
-3.63234e-07
1.25054e-06
-3.9049e-07
1.13031e-06
-3.74751e-07
9.27024e-07
-2.96937e-07
1.05118e-06
-3.73913e-07
9.64806e-07
-3.60136e-07
8.1646e-07
-1.85026e-07
8.41873e-07
-2.57445e-07
7.23803e-07
-3.22229e-08
7.34635e-07
-1.19585e-07
-2.41155e-09
1.06337e-06
1.88295e-08
1.10395e-06
6.78468e-08
1.13781e-06
1.66801e-07
1.16566e-06
3.13837e-07
1.18938e-06
5.01441e-07
1.20799e-06
7.16834e-07
1.22851e-06
9.52145e-07
1.24474e-06
1.21471e-06
1.26422e-06
1.49748e-06
1.28732e-06
1.79804e-06
1.30961e-06
2.14242e-06
1.34825e-06
2.55906e-06
1.39754e-06
3.00531e-06
1.44378e-06
3.43708e-06
1.47638e-06
3.79928e-06
1.47263e-06
4.02344e-06
1.40455e-06
4.06565e-06
1.26885e-06
3.96623e-06
1.09508e-06
3.81477e-06
9.18539e-07
3.67066e-06
7.52213e-07
3.55161e-06
6.03788e-07
3.44928e-06
4.71947e-07
3.35943e-06
3.5726e-07
3.26689e-06
2.64412e-07
3.18743e-06
1.8125e-07
3.11186e-06
1.07488e-07
3.04836e-06
5.20372e-08
2.98276e-06
1.36649e-08
2.92997e-06
-1.32097e-09
2.90234e-06
9.76927e-10
2.91432e-06
-1.33669e-10
5.44192e-09
1.48691e-06
-1.53233e-08
1.48132e-06
-2.91554e-09
1.51139e-06
-5.86019e-08
1.51152e-06
-3.4621e-08
1.52797e-06
-1.2977e-07
1.53856e-06
-9.66874e-08
1.52145e-06
-2.15171e-07
1.54687e-06
-1.85854e-07
1.4821e-06
-2.99066e-07
1.52261e-06
-2.78984e-07
1.40768e-06
-3.69463e-07
1.45984e-06
-3.63961e-07
1.30469e-06
-4.12005e-07
1.36206e-06
-4.2479e-07
1.18109e-06
-4.13969e-07
1.23774e-06
-4.47096e-07
1.10048e-06
-4.23996e-07
8.73311e-07
-3.28322e-07
1.01051e-06
-4.19564e-07
9.12888e-07
-3.99657e-07
7.52831e-07
-2.03175e-07
7.78314e-07
-2.82871e-07
6.54365e-07
-3.44971e-08
6.64833e-07
-1.3001e-07
-7.44407e-09
1.0187e-06
1.57693e-08
1.06641e-06
6.83141e-08
1.10344e-06
1.70447e-07
1.13406e-06
3.23037e-07
1.15651e-06
5.12398e-07
1.17833e-06
7.27504e-07
1.1973e-06
9.65519e-07
1.21505e-06
1.22328e-06
1.23618e-06
1.50012e-06
1.26145e-06
1.79831e-06
1.28686e-06
2.12812e-06
1.32377e-06
2.53295e-06
1.37421e-06
2.97788e-06
1.42489e-06
3.41594e-06
1.46478e-06
3.80308e-06
1.47249e-06
4.07193e-06
1.424e-06
4.16479e-06
1.30533e-06
4.09624e-06
1.1388e-06
3.9501e-06
9.59745e-07
3.79767e-06
7.91377e-07
3.66531e-06
6.38426e-07
3.55381e-06
4.9921e-07
3.45758e-06
3.73853e-07
3.36549e-06
2.5864e-07
3.27651e-06
1.75357e-07
3.19474e-06
9.84206e-08
3.11884e-06
3.70647e-08
3.04416e-06
-9.29631e-09
2.97169e-06
-2.80262e-08
2.91346e-06
-1.23629e-08
2.89552e-06
1.9853e-08
1.47368e-06
7.52752e-09
1.46041e-06
1.87352e-08
1.508e-06
-1.1782e-08
1.50169e-06
3.41945e-09
1.54325e-06
-6.32638e-08
1.54217e-06
-3.35197e-08
1.56683e-06
-1.49697e-07
1.58027e-06
-1.10108e-07
1.56039e-06
-2.52917e-07
1.59323e-06
-2.18669e-07
1.51262e-06
-3.51798e-07
1.56445e-06
-3.30775e-07
1.42256e-06
-4.29906e-07
1.48707e-06
-4.28422e-07
1.29981e-06
-4.7402e-07
1.36743e-06
-4.92351e-07
1.15667e-06
-4.70108e-07
1.22066e-06
-5.11033e-07
1.06385e-06
-4.77276e-07
8.11947e-07
-3.61894e-07
9.61494e-07
-4.68109e-07
8.53072e-07
-4.40715e-07
6.82942e-07
-2.21226e-07
7.08207e-07
-3.0807e-07
5.79363e-07
-3.67129e-08
5.89214e-07
-1.39807e-07
-1.57048e-08
9.65182e-07
1.02624e-08
1.02419e-06
6.7525e-08
1.06716e-06
1.74036e-07
1.09977e-06
3.34462e-07
1.12257e-06
5.22625e-07
1.14635e-06
7.41377e-07
1.16437e-06
9.77755e-07
1.18489e-06
1.23005e-06
1.2081e-06
1.50192e-06
1.23428e-06
1.79653e-06
1.26311e-06
2.11601e-06
1.29888e-06
2.5064e-06
1.35019e-06
2.94698e-06
1.40501e-06
3.38956e-06
1.45118e-06
3.79823e-06
1.46949e-06
4.10555e-06
1.43886e-06
4.25e-06
1.33873e-06
4.22076e-06
1.18074e-06
4.08724e-06
1.00164e-06
3.92966e-06
8.27672e-07
3.78689e-06
6.69703e-07
3.66485e-06
5.27201e-07
3.55872e-06
3.97972e-07
3.46275e-06
2.76569e-07
3.37043e-06
1.64747e-07
3.28618e-06
8.39563e-08
3.20011e-06
1.71978e-08
3.11997e-06
-3.86736e-08
3.03207e-06
-6.96119e-08
2.94522e-06
-5.97485e-08
2.88738e-06
-4.14305e-09
-1.46969e-06
2.88556e-06
3.46597e-08
2.98423e-08
1.48737e-06
2.18722e-08
3.64381e-08
1.53621e-06
-5.80262e-09
1.52595e-06
1.36879e-08
1.58721e-06
-7.01806e-08
1.58877e-06
-3.50774e-08
1.62155e-06
-1.77989e-07
1.64553e-06
-1.34076e-07
1.6162e-06
-3.04619e-07
1.67021e-06
-2.72629e-07
1.55715e-06
-4.21804e-07
1.6369e-06
-4.10408e-07
1.44463e-06
-5.07019e-07
1.53786e-06
-5.21489e-07
1.29434e-06
-5.47613e-07
1.38315e-06
-5.81e-07
1.12634e-06
-5.32538e-07
1.20251e-06
-5.87086e-07
1.02064e-06
-5.36342e-07
7.42147e-07
-3.95762e-07
9.05262e-07
-5.20213e-07
7.84998e-07
-4.83474e-07
6.06299e-07
-2.38243e-07
6.30641e-07
-3.32334e-07
4.97541e-07
-3.97879e-08
5.07186e-07
-1.49385e-07
-2.86056e-08
8.95519e-07
1.12681e-09
9.743e-07
6.46123e-08
1.02706e-06
1.78126e-07
1.06298e-06
3.4551e-07
1.08862e-06
5.33263e-07
1.11181e-06
7.55309e-07
1.13212e-06
9.88165e-07
1.15385e-06
1.23617e-06
1.17871e-06
1.50329e-06
1.20672e-06
1.79199e-06
1.23867e-06
2.10444e-06
1.27465e-06
2.47908e-06
1.32604e-06
2.91288e-06
1.38418e-06
3.35929e-06
1.4352e-06
3.78392e-06
1.46545e-06
4.12517e-06
1.44985e-06
4.31941e-06
1.36937e-06
4.33651e-06
1.22287e-06
4.22328e-06
1.04469e-06
4.06617e-06
8.6506e-07
3.91482e-06
6.99679e-07
3.78316e-06
5.51372e-07
3.66842e-06
4.17431e-07
3.56402e-06
2.96663e-07
3.46633e-06
1.80681e-07
3.37829e-06
7.26622e-08
3.29004e-06
-5.93216e-09
3.20885e-06
-7.1641e-08
3.11043e-06
-1.16937e-07