/*--------------------------------*- C++ -*----------------------------------*\
  =========                 |
  \\      /  F ield         | OpenFOAM: The Open Source CFD Toolbox
   \\    /   O peration     | Website:  https://openfoam.org
    \\  /    A nd           | Version:  dev
     \\/     M anipulation  |
\*---------------------------------------------------------------------------*/
FoamFile
{
    version     2.0;
    format      ascii;
    class       volScalarField;
    location    "2500";
    object      qr;
}
// * * * * * * * * * * * * * * * * * * * * * * * * * * * * * * * * * * * * * //

dimensions      [1 0 -3 0 0 0 0];

internalField   uniform 0;

boundaryField
{
    lowerOutlet
    {
        type            calculated;
        value           nonuniform List<scalar> 
146
(
1169.81
1173.72
1178.07
1182.84
1188.06
1193.72
1199.85
1206.45
1213.54
1221.14
1229.28
1237.97
1247.25
1257.14
1267.7
1278.96
1290.97
1303.79
1317.49
1332.13
1347.8
1364.61
1382.66
1402.1
1423.12
1445.92
1470.7
1497.71
1527.28
1559.81
1595.8
1635.82
1680.66
1719.17
1775.02
1839.1
1913.44
2000.82
2105.1
2231.95
2388.94
2587.07
2841.54
3132.71
3551.78
4053.1
4702.59
5421.2
-10061.1
3382.76
2792.12
2446.61
2210.9
2020.63
1894.07
1794.9
1714.71
1648.38
1592.59
1544.85
1503.36
1466.86
1434.42
1397.98
1372.33
1348.96
1327.55
1307.85
1289.63
1272.71
1256.96
1242.24
1228.48
1215.58
1203.45
1192.01
1181.21
1171.02
1161.37
1152.24
1143.59
1135.4
1127.64
1120.28
1113.32
1106.73
1100.49
1094.6
1089.04
1083.8
1078.88
1074.26
1069.94
1065.92
1062.18
1058.74
2165.28
2306.08
2482.02
2706.4
2997.99
3437.8
3920.03
4518.28
5245.81
4330.16
3623.51
2906.4
2519.82
2262.69
2078.18
1953.26
1841.67
1752.81
1680.06
1619.34
1955.3
2050.55
3227.76
3670.98
4195.81
4885.96
5591.35
4205.69
3193.48
2691.21
2379.96
2163.12
1567.85
1523.41
3329.53
3793.32
4348.78
5067.49
5746.56
3907.07
3038.18
2600.93
2318.88
2118.99
1746.18
1805.91
1874.83
1484.55
1450.18
1419.47
)
;
    }
    top
    {
        type            calculated;
        value           nonuniform List<scalar> 
100
(
1058.81
1061.89
1064.97
1060.55
1062.36
1064.54
1066.76
1069.12
1071.54
1073.75
1075.86
1077.84
1079.73
1081.48
1082.68
1083.9
1085.12
1086.28
1087.42
1088.52
1089.43
1089.57
1087.62
1082.08
1074.78
1068.26
1064.55
1064.07
1065.75
1069.43
1074.13
1077.94
1074.64
1056.91
1024.37
1001.96
995.718
1008.43
1035.73
1069.57
1092.97
1101.65
1103.99
1104.86
1105.24
1105.3
1105.15
1104.82
1104.32
1103.66
1102.86
1101.94
1100.89
1099.74
1098.49
1097.14
1095.71
1094.2
1092.63
1091.01
1089.35
1087.67
1085.95
1084.19
1082.34
1080.41
1078.4
1076.25
1074
1071.61
1069.11
1066.46
1063.69
1060.85
1058.11
1055.59
1053.22
1051.48
1061.17
1058.1
1055
1051.88
1048.75
1045.61
1042.46
1039.3
1036.14
1032.98
1029.82
1026.67
1023.53
1020.4
1013.96
1009.75
1005.61
1001.75
998.576
996.089
994.51
994.046
)
;
    }
    sides
    {
        type            calculated;
        value           nonuniform List<scalar> 
100
(
1169.81
1172.91
1175.58
1177.85
1179.71
1181.17
1182.24
1182.93
1183.25
1183.21
1182.82
1182.11
1181.08
1179.76
1178.15
1176.28
1174.17
1171.83
1169.27
1166.53
1163.61
1160.53
1157.31
1153.96
1150.51
1146.95
1143.32
1139.61
1135.85
1132.05
1128.21
1124.34
1120.46
1116.57
1112.69
1108.82
1104.97
1101.14
1097.35
1093.6
1089.88
1086.21
1082.59
1079.02
1075.5
1072.04
1068.64
1065.3
1062.01
1058.83
1058.74
1061.64
1064.26
1066.61
1068.68
1070.48
1072.02
1073.3
1074.33
1075.11
1075.64
1075.94
1076.02
1075.88
1075.54
1074.99
1074.26
1073.34
1072.26
1071.02
1069.62
1068.08
1066.42
1064.62
1062.71
1060.7
1058.59
1056.38
1054.09
1051.73
1049.29
1046.79
1044.23
1041.62
1038.96
1036.25
1033.51
1030.74
1027.94
1025.11
1022.26
1019.39
1016.5
1013.59
1010.67
1007.74
1004.8
1001.85
998.896
995.968
)
;
    }
    front
    {
        type            empty;
    }
    back
    {
        type            empty;
    }
    roller
    {
        type            calculated;
        value           nonuniform List<scalar> 
144
(
5474.61
3970.33
2602.16
3076.35
1626.79
1370.41
1372.26
1297.34
1246.65
1233.82
7280.85
6090.15
3787.57
3215.63
2780.78
2150.73
2060.39
1658.86
1581.83
1391.03
1313.22
1266.82
4961.9
5231.74
4942.41
1960.65
2516.45
2412.64
1605.98
1404.84
1530.15
1457.76
1350.38
1244.42
6851.9
6560.72
4236.58
4702.27
5532.68
4042.15
2624.51
2343.82
1722.46
1693.66
1603.95
1504.84
1480.04
1346.92
1336.83
1256.99
1240.1
1237.3
6236.85
5858.58
7554.58
2258.02
2175.47
1539.87
1477.17
1421.44
1559.17
1240.83
1237.47
1233.86
7715.63
8428.57
8495.34
8019.68
2053.85
1990.7
1556.72
1946.17
1826.46
1492.31
1790.96
1696.57
1434.51
1668.63
1633.66
1380.58
1357.67
1301.52
1293.91
1258.68
1248.67
1252.28
1233.26
1235.14
1241.7
1238.39
1234.63
6541.19
7004.41
4454.32
2435.76
2905.19
1767.5
2121.08
1523.77
1462.41
1327.89
1319.23
1309
1275.42
1286.68
1262.59
1248
1243.66
1240.04
1236.5
1233.32
8013.77
8259.41
8445.56
8283.73
4468.22
3665.47
3354.99
3071.84
3599.54
3374.74
2260.21
2742.06
1874.56
1817.56
1580.38
1904.4
1864.35
1507.89
1757.53
1726.12
1448.18
1390.78
1435.11
1409.1
1330.81
1284.45
1277.43
1269.43
1232.93
1252.95
1242.72
1239.23
1235.54
)
;
    }
    burner
    {
        type            calculated;
        value           nonuniform List<scalar> 
16
(
-126336
-120465
-117449
-118052
-121733
-117913
-117434
-123850
-124898
-119417
-117192
-119149
-123246
-118569
-117171
-120939
)
;
    }
}


// ************************************************************************* //
