/*--------------------------------*- C++ -*----------------------------------*\
  =========                 |
  \\      /  F ield         | OpenFOAM: The Open Source CFD Toolbox
   \\    /   O peration     | Website:  https://openfoam.org
    \\  /    A nd           | Version:  dev
     \\/     M anipulation  |
\*---------------------------------------------------------------------------*/
FoamFile
{
    version     2.0;
    format      ascii;
    class       volScalarField;
    location    "2500";
    object      rAU;
}
// * * * * * * * * * * * * * * * * * * * * * * * * * * * * * * * * * * * * * //

dimensions      [-1 3 1 0 0 0 0];

internalField   nonuniform List<scalar> 
9838
(
0.00822116
0.00828759
0.00824158
0.00827442
0.00839656
0.00817963
0.00824883
0.00839016
0.00840019
0.00812748
0.00822661
0.00839
0.00838317
0.00841249
0.00807789
0.00820857
0.00839577
0.00837544
0.00839258
0.00842245
0.00803191
0.00819295
0.00840507
0.00837664
0.00837646
0.00840747
0.00842696
0.00798928
0.00817702
0.00841517
0.00838438
0.00836723
0.00838928
0.00841879
0.00842941
0.00794983
0.00816069
0.00842331
0.00839698
0.00836467
0.00837326
0.00840556
0.0084245
0.00843088
0.00791316
0.00814455
0.00842863
0.00840977
0.00836923
0.00836276
0.00838878
0.00841711
0.0084278
0.00843196
0.00787896
0.0081278
0.00843205
0.00842025
0.00837978
0.00835697
0.00837246
0.00840563
0.00842328
0.00842988
0.00843271
0.00784704
0.00811131
0.00843349
0.00842685
0.00839516
0.00835816
0.00835962
0.00839036
0.0084167
0.00842692
0.00843151
0.00843325
0.0078173
0.00809623
0.00843422
0.00843073
0.00840876
0.00836493
0.00835282
0.00837342
0.00840671
0.00842288
0.00842919
0.00843266
0.00843358
0.00778961
0.00808058
0.00843514
0.00843286
0.00841932
0.00837789
0.00834978
0.00835981
0.00839297
0.00841724
0.00842652
0.00843104
0.00843364
0.00843379
0.0077638
0.00806526
0.00843561
0.00843442
0.0084261
0.00839424
0.00835239
0.00835033
0.00837689
0.00840867
0.00842309
0.00842902
0.00843245
0.00843435
0.00843398
0.00773981
0.00805036
0.00843582
0.00843497
0.00842996
0.00840822
0.00836122
0.00834445
0.00836172
0.00839674
0.0084183
0.00842663
0.00843095
0.00843363
0.0084349
0.0084341
0.00771764
0.00803636
0.00843606
0.00843562
0.00843263
0.0084182
0.00837589
0.00834289
0.00834948
0.00838197
0.00841139
0.00842379
0.00842913
0.00843247
0.00843457
0.00843529
0.00843421
0.00769713
0.00802306
0.00843649
0.00843615
0.00843405
0.00842494
0.0083933
0.00834737
0.00834162
0.00836531
0.00840108
0.00842008
0.00842711
0.00843111
0.00843377
0.00843533
0.0084356
0.0084342
0.00767818
0.00801048
0.00843659
0.00843661
0.00843497
0.00842885
0.00840717
0.00835772
0.00833687
0.0083511
0.00838703
0.00841457
0.00842509
0.00842962
0.00843268
0.00843483
0.00843588
0.00843578
0.00843435
0.00766081
0.00799867
0.00843679
0.00843714
0.00843618
0.00843246
0.00841726
0.00837382
0.00833677
0.00834038
0.00837061
0.00840536
0.0084226
0.00842842
0.00843144
0.00843397
0.0084357
0.00843619
0.00843606
0.00843442
0.00764496
0.00798798
0.00843708
0.00843745
0.00843695
0.00843417
0.00842405
0.00839144
0.00834201
0.00833415
0.00835462
0.00839233
0.00841744
0.00842723
0.00843079
0.00843294
0.00843505
0.00843638
0.00843651
0.00843644
0.00843442
0.00763063
0.007978
0.00843696
0.00843799
0.00843761
0.00843579
0.0084285
0.00840553
0.00835312
0.00833017
0.00834213
0.00837727
0.00840902
0.0084243
0.00843023
0.00843273
0.00843431
0.00843606
0.00843697
0.00843692
0.00843674
0.00843445
0.00761785
0.00796894
0.00843695
0.0084381
0.0084381
0.0084367
0.00843187
0.00841543
0.00836942
0.00833109
0.00833281
0.00836117
0.00839843
0.00841945
0.00842855
0.00843262
0.00843415
0.00843539
0.00843682
0.00843727
0.00843723
0.0084369
0.00843445
0.0076066
0.00796076
0.00843696
0.00843855
0.00843836
0.0084378
0.00843421
0.00842229
0.00838658
0.00833629
0.00832784
0.00834627
0.00838466
0.00841317
0.00842583
0.00843143
0.00843454
0.00843541
0.00843633
0.00843739
0.00843771
0.00843754
0.00843702
0.00843443
0.00759701
0.00795348
0.00843685
0.00843862
0.00843881
0.00843872
0.00843549
0.0084263
0.00840114
0.00834693
0.00832438
0.00833523
0.00836958
0.00840402
0.00842214
0.0084295
0.00843347
0.00843607
0.00843663
0.00843706
0.00843784
0.0084381
0.00843789
0.00843719
0.00843448
0.00758144
0.0079459
0.00843713
0.00843898
0.00843932
0.00843918
0.0084369
0.00843044
0.0084113
0.00836196
0.00832484
0.00832694
0.00835419
0.00839255
0.00841688
0.00842747
0.00843212
0.00843543
0.00843731
0.00843755
0.00843765
0.0084382
0.00843839
0.00843806
0.00843731
0.00842476
0.00746376
0.00793774
0.00843535
0.00843919
0.00843996
0.00843954
0.00843808
0.00843302
0.00841849
0.00837861
0.00832941
0.00832235
0.00834055
0.0083788
0.00840967
0.00842482
0.00843087
0.00843401
0.00843679
0.0084384
0.00843835
0.00843825
0.00843859
0.00843871
0.00843832
0.00843772
0.00828996
0.00751316
0.0079324
0.00843186
0.00843918
0.00844014
0.00844
0.00843873
0.00843424
0.00842376
0.00839358
0.00833842
0.00831903
0.00833022
0.00836455
0.00839993
0.00842069
0.00842935
0.00843314
0.00843565
0.00843794
0.00843938
0.00843904
0.00843854
0.00843888
0.00843891
0.00843864
0.00843793
0.00835656
0.00757372
0.00793014
0.00842996
0.00843948
0.0084405
0.00844038
0.00843942
0.00843592
0.00842779
0.00840459
0.00835156
0.00831887
0.00832259
0.00835011
0.00838865
0.00841478
0.00842726
0.00843235
0.00843484
0.00843705
0.00843887
0.00844022
0.00843966
0.008439
0.00843925
0.00843946
0.00843886
0.00843817
0.00843451
0.00757269
0.00792774
0.00843016
0.00843944
0.008441
0.00844078
0.00843975
0.00843663
0.00843039
0.00841243
0.00836666
0.00832196
0.0083175
0.00833734
0.00837547
0.00840728
0.00842401
0.00843124
0.00843437
0.00843644
0.00843807
0.00843988
0.00844107
0.00844007
0.00843935
0.00843974
0.00843962
0.00843897
0.00843847
0.00843427
0.00757276
0.00792422
0.00842898
0.00843984
0.0084414
0.00844089
0.00844031
0.00843795
0.0084317
0.00841836
0.00838153
0.00832885
0.00831463
0.00832694
0.00836213
0.00839771
0.00841962
0.00842957
0.00843382
0.00843605
0.00843756
0.0084389
0.00844081
0.00844174
0.00844059
0.00843976
0.00844007
0.0084398
0.00843905
0.00843871
0.00843376
0.00757626
0.00792106
0.00842639
0.00844008
0.0084414
0.00844136
0.00844123
0.00843872
0.00843322
0.00842271
0.00839439
0.00833986
0.00831331
0.00831956
0.00834881
0.00838672
0.00841372
0.00842714
0.0084331
0.00843556
0.00843735
0.00843844
0.00843974
0.00844152
0.00844233
0.00844108
0.00844013
0.00844023
0.00843986
0.00843913
0.00843897
0.00843297
0.00758563
0.00791729
0.00842262
0.00844003
0.00844188
0.00844193
0.00844163
0.00843887
0.00843376
0.00842515
0.00840384
0.00835247
0.00831549
0.00831434
0.00833651
0.00837494
0.0084061
0.00842374
0.00843168
0.00843522
0.00843717
0.00843846
0.00843918
0.00844031
0.00844218
0.00844295
0.00844147
0.0084404
0.00844035
0.00843984
0.00843926
0.00843897
0.00843211
0.00759383
0.00791412
0.0084167
0.0084405
0.00844206
0.00844207
0.00844191
0.00843933
0.00843452
0.00842683
0.00841013
0.00836642
0.00832033
0.00821168
0.00832623
0.00836245
0.00839705
0.00841935
0.00842983
0.00843464
0.00843697
0.00843841
0.0084393
0.00844
0.00844107
0.00844282
0.00844343
0.0084418
0.00844049
0.00844039
0.00843985
0.00843944
0.00843821
0.00841925
0.00668326
0.008169
0.00790964
0.00841055
0.00844089
0.00844224
0.0084424
0.00844215
0.00844001
0.00843545
0.00842786
0.00841432
0.00837934
0.0083284
0.00819273
0.00831988
0.00835086
0.00838716
0.00841342
0.00842709
0.00843347
0.00843616
0.00843826
0.00843936
0.0084401
0.00844063
0.0084418
0.00844352
0.00844388
0.00844195
0.00844056
0.00844025
0.00843984
0.00842384
0.00848617
0.00819153
0.00819206
0.00671611
0.00818122
0.00790803
0.00839712
0.00844107
0.00844217
0.00844263
0.00844251
0.00843001
0.00839625
0.00832682
0.0084175
0.00839001
0.00833815
0.00829322
0.00831489
0.00833994
0.00837723
0.008407
0.00842395
0.00843179
0.00843566
0.00843785
0.00843919
0.00844004
0.0084406
0.0084413
0.00844259
0.00844398
0.0084441
0.00844208
0.00844052
0.00844007
0.00842353
0.00833801
0.00817324
0.00819671
0.00832854
0.00821396
0.00820938
0.00821371
0.00677643
0.00822369
0.0079056
0.00838835
0.00843695
0.00844254
0.00844284
0.00844249
0.00843041
0.00839651
0.00830631
0.00841998
0.00839849
0.00834919
0.00831328
0.00804987
0.00832943
0.00836628
0.00839963
0.00842065
0.00843046
0.00843514
0.00843733
0.00843897
0.00843987
0.00844074
0.00844118
0.00844204
0.00844305
0.00844428
0.00844423
0.00844201
0.00844019
0.00842364
0.00817657
0.00818029
0.00817163
0.00822156
0.00821454
0.00823702
0.00825173
0.00825647
0.00683768
0.00825868
0.00789534
0.00837694
0.00843496
0.00844219
0.00844284
0.0084423
0.00844101
0.00843656
0.00840853
0.00842186
0.00840492
0.00836142
0.0083177
0.00791526
0.00832079
0.0083543
0.00839015
0.00841572
0.00842913
0.00843497
0.00843747
0.0084387
0.00843983
0.00844044
0.00844104
0.00844205
0.00844269
0.00844334
0.00844444
0.00844422
0.00844172
0.00842426
0.0081852
0.00819085
0.0081883
0.00820204
0.00822194
0.00826174
0.00825174
0.00827231
0.00828638
0.00829079
0.00689999
0.00828696
0.00787011
0.00835146
0.00843294
0.00844229
0.00844315
0.00844257
0.00844105
0.00843687
0.00843144
0.00842307
0.00840957
0.00837341
0.00832565
0.00816407
0.00831629
0.00834418
0.00837954
0.00840851
0.00842571
0.00843394
0.00843791
0.00843965
0.00844037
0.00844057
0.00844101
0.0084417
0.00844257
0.00844287
0.00844355
0.00844448
0.00844394
0.00842717
0.00819708
0.00820228
0.00821202
0.00821846
0.00823373
0.00824525
0.00825957
0.0082942
0.00828372
0.00830092
0.00831347
0.00831803
0.00696696
0.00831076
0.00788127
0.00830913
0.00842605
0.0084426
0.00844273
0.00844264
0.00844055
0.00843696
0.00843187
0.00842436
0.00841303
0.00838347
0.00833453
0.00830729
0.00831344
0.00833606
0.00837094
0.00840103
0.00842066
0.00843137
0.00843653
0.00843971
0.00844124
0.00844182
0.00844177
0.00844146
0.00844219
0.0084429
0.00844306
0.00844356
0.00844421
0.00843059
0.00820993
0.00821342
0.00822598
0.00822968
0.00825281
0.00825859
0.00826995
0.00828045
0.00829131
0.00832055
0.00831093
0.00832525
0.00833542
0.00834003
0.00703839
0.00833079
0.00789414
0.00830985
0.00841792
0.00844264
0.00844236
0.00844266
0.00844049
0.00843716
0.00843235
0.0084257
0.00841561
0.00839165
0.00834374
0.00831186
0.00831061
0.00832835
0.00836265
0.00839467
0.00841705
0.00842844
0.00843454
0.00843813
0.00844049
0.00844222
0.00844298
0.00844248
0.00844198
0.00844264
0.00844302
0.00844284
0.00844325
0.00843123
0.00821456
0.00820927
0.00823759
0.00823935
0.00826492
0.00826875
0.00828675
0.0082919
0.00829953
0.00830915
0.00831813
0.00834224
0.00833395
0.00834579
0.00835302
0.00835765
0.00711504
0.0083477
0.00790809
0.00831117
0.00841353
0.0084407
0.00844235
0.00844232
0.0084409
0.00843739
0.00843294
0.00842737
0.0084182
0.00839865
0.00835398
0.00831458
0.00830821
0.00832048
0.00835299
0.0083871
0.00841323
0.00842718
0.00843289
0.00843651
0.00843908
0.00844109
0.00844267
0.00844371
0.00844347
0.00844301
0.00844309
0.00844297
0.00844219
0.00843073
0.00820055
0.00818703
0.0082404
0.00823381
0.00827576
0.00827799
0.0082966
0.00830106
0.00831578
0.00831968
0.0083239
0.00833282
0.00834052
0.00836044
0.00835294
0.00836306
0.00836728
0.00837152
0.00719821
0.00836206
0.00792307
0.00831522
0.00841021
0.00843831
0.008443
0.00844227
0.0084413
0.0084375
0.00843325
0.00842841
0.00842022
0.00840397
0.00836453
0.00832038
0.00830675
0.00831462
0.00834341
0.0083778
0.00840664
0.00842521
0.00843336
0.00843647
0.00843824
0.00843962
0.00844104
0.00844273
0.00844402
0.00844427
0.00844396
0.00844339
0.0084426
0.00843104
0.00817971
0.0081746
0.00822564
0.00820937
0.00827929
0.00827513
0.00830695
0.00831033
0.0083231
0.00832732
0.00833991
0.00834268
0.00834459
0.00835281
0.00835889
0.0083754
0.00836849
0.00837747
0.00837946
0.00838274
0.00728853
0.00837406
0.00793962
0.00831853
0.00841002
0.00843609
0.00844309
0.00844226
0.00844086
0.00843758
0.0084336
0.00842915
0.00842219
0.00840822
0.00837479
0.00832827
0.008307
0.0083108
0.00833429
0.00836886
0.00839898
0.00842009
0.00843215
0.00843721
0.00843936
0.0084401
0.0084401
0.0084412
0.00844273
0.00844406
0.00844455
0.00844415
0.00838376
0.00843328
0.00817201
0.00817395
0.00819258
0.00817153
0.00827041
0.00825927
0.00831153
0.00830995
0.00833281
0.00833616
0.00834469
0.00834842
0.00835949
0.00836075
0.00836201
0.00836923
0.00837404
0.00838727
0.00838111
0.0083896
0.00838976
0.0083919
0.00738618
0.00838412
0.00795894
0.00832086
0.00841121
0.0084353
0.00844261
0.00844209
0.00844013
0.00843782
0.00843433
0.00842989
0.00842407
0.00841157
0.0083845
0.0083376
0.00830846
0.00830811
0.00832649
0.0083603
0.00839148
0.00841488
0.00842874
0.00843587
0.00843933
0.00844116
0.0084416
0.00844071
0.00844146
0.00844271
0.00844354
0.00844412
0.00838178
0.00819187
0.00817961
0.00805147
0.00815289
0.0081487
0.00824512
0.00822222
0.00830565
0.00829195
0.00833622
0.00832744
0.00835112
0.0083454
0.00836001
0.00835646
0.00837399
0.00836923
0.00837632
0.00838028
0.00838588
0.00839642
0.00839137
0.00839916
0.00839849
0.00839991
0.00749111
0.00839248
0.0079827
0.00832314
0.00841046
0.00843555
0.00844198
0.00844106
0.00844007
0.008438
0.00843484
0.0084309
0.00842579
0.00841519
0.00839287
0.00834782
0.00831147
0.00830636
0.00831973
0.00835182
0.00838439
0.00840955
0.00842529
0.00843321
0.00843756
0.00844006
0.00844219
0.00844252
0.00844157
0.00844191
0.00844229
0.00844272
0.00843938
0.00811121
0.00834367
0.00815734
0.00803217
0.00819446
0.00817865
0.00826753
0.00823541
0.00830503
0.00827014
0.00832109
0.00828344
0.00833383
0.008291
0.00835008
0.00830688
0.00837413
0.00833479
0.00838501
0.00837099
0.0083914
0.0084038
0.00839621
0.00840364
0.00840592
0.00840654
0.00760455
0.00839931
0.00801413
0.00832095
0.00840892
0.00843625
0.0084421
0.0084407
0.00844031
0.008438
0.00843534
0.00843186
0.00842679
0.0084181
0.00839945
0.0083583
0.00831683
0.00829646
0.00831429
0.00834382
0.00837669
0.00840399
0.00842193
0.00843126
0.00843547
0.00843799
0.00844014
0.0084427
0.00844328
0.00844245
0.0084424
0.00844202
0.00844053
0.00836128
0.00835508
0.00808792
0.00803339
0.0081865
0.00819028
0.00820658
0.00820614
0.00822413
0.00819822
0.00822507
0.00818292
0.00821954
0.00816518
0.00823325
0.00815942
0.00826758
0.00817937
0.0083163
0.00822207
0.00836836
0.00829852
0.00836927
0.00840751
0.00837391
0.00838505
0.00841185
0.00841102
0.00772767
0.00840487
0.00805883
0.00832026
0.00839998
0.00843607
0.00844207
0.0084406
0.00844
0.00843802
0.00843574
0.00843274
0.00842802
0.00842074
0.00840484
0.00836865
0.00832394
0.00829645
0.00796706
0.00833509
0.00836947
0.00839809
0.00841824
0.008429
0.00843428
0.0084365
0.00843811
0.00844021
0.00844285
0.0084436
0.00844322
0.00844284
0.00844302
0.00844447
0.00811113
0.00810888
0.00800014
0.00737415
0.00774232
0.00797016
0.00747421
0.00817541
0.00814707
0.00812955
0.00806607
0.00808868
0.00799913
0.00806727
0.00796167
0.00807813
0.00795458
0.0081186
0.00799433
0.00819223
0.00806665
0.00828988
0.00817113
0.00828827
0.00839528
0.00829784
0.00831714
0.00841585
0.00840654
0.00786139
0.00840892
0.00812819
0.00833946
0.00839127
0.00843435
0.00844239
0.00844079
0.00844017
0.00843868
0.00843648
0.00843344
0.00842935
0.00842286
0.00840944
0.00837856
0.00833245
0.00830618
0.007727
0.0083268
0.00836132
0.00839149
0.00841406
0.00842676
0.0084326
0.00843536
0.00843674
0.0084382
0.00844028
0.00844263
0.00844364
0.00844376
0.00844455
0.00844603
0.00794286
0.00802623
0.00791048
0.00801649
0.00800703
0.00795553
0.00787145
0.00809695
0.00802561
0.00799489
0.00791947
0.00789763
0.00779087
0.00783669
0.00770585
0.00781563
0.00767451
0.00784044
0.00768104
0.00790953
0.00774116
0.00802798
0.00784784
0.00816274
0.00799779
0.00816412
0.00833953
0.00817894
0.00820514
0.0084152
0.00836782
0.0080025
0.00841101
0.00819619
0.00834249
0.00840601
0.00843247
0.00844285
0.00844096
0.00844001
0.00843879
0.00843652
0.00843408
0.0084306
0.0084247
0.00841365
0.00838751
0.00834216
0.00830851
0.00797326
0.00831933
0.00835264
0.00838504
0.00840905
0.00842452
0.00843145
0.00843412
0.00843548
0.00843679
0.00843825
0.00844008
0.00844237
0.00844394
0.00844574
0.0084444
0.00795485
0.00818093
0.00777457
0.00754653
0.00778231
0.00768917
0.00763389
0.00754352
0.00783041
0.00772867
0.00769054
0.00760278
0.00758513
0.00748394
0.00754514
0.00743497
0.00754822
0.00744316
0.00758419
0.00746794
0.00766247
0.00752719
0.00780842
0.00762321
0.0079892
0.00778178
0.00799411
0.00823688
0.00801677
0.00806092
0.00839577
0.00829185
0.00814368
0.00840838
0.00828903
0.00840096
0.00843576
0.00844343
0.00844148
0.00844061
0.00843921
0.00843677
0.00843484
0.00843132
0.00842662
0.0084172
0.00839545
0.00835247
0.00831296
0.00822423
0.00831313
0.00834418
0.00837754
0.00840398
0.00842152
0.00842983
0.00843288
0.00843407
0.0084352
0.00843643
0.00843787
0.00843977
0.00844309
0.00844637
0.00844062
0.00808209
0.00834301
0.00741807
0.00713904
0.00758619
0.00746098
0.0074598
0.00739146
0.00735693
0.00730254
0.00751303
0.00742592
0.00741058
0.00735267
0.00734975
0.0072947
0.00736177
0.00730104
0.00739475
0.00735124
0.00743407
0.00738851
0.00749224
0.00743268
0.00760096
0.00748896
0.0077803
0.00758784
0.00779374
0.00811787
0.00782946
0.00770667
0.00835382
0.00819571
0.00824349
0.00839755
0.00831705
0.00843769
0.00844352
0.00844247
0.00844156
0.00843912
0.0084374
0.00843553
0.00843245
0.00842863
0.00842012
0.00840204
0.00836285
0.00831957
0.00830215
0.00822283
0.00833465
0.00837014
0.00839816
0.00841788
0.00842833
0.00843152
0.00843265
0.00843342
0.00843424
0.00843563
0.00843757
0.00844157
0.00844666
0.00840788
0.00827752
0.00828626
0.00794055
0.00718935
0.00695034
0.00731923
0.00724708
0.00726194
0.00723985
0.00722286
0.00719104
0.00729735
0.00725096
0.00726996
0.00723676
0.00723031
0.00716075
0.00727714
0.00720363
0.00737998
0.00739097
0.00741274
0.00743272
0.00743881
0.00745513
0.00748375
0.00746136
0.00759892
0.00719936
0.00736391
0.00777838
0.00739015
0.00551447
0.00603885
0.00822724
0.00791733
0.00839702
0.00832633
0.00844932
0.00844143
0.00844292
0.0084423
0.00844008
0.00843854
0.00843643
0.00843348
0.00843005
0.00842308
0.00840756
0.00837316
0.00832773
0.00830301
0.00821917
0.00832529
0.00836145
0.00839207
0.00841362
0.0084262
0.00843026
0.00843109
0.00843152
0.00843181
0.00843284
0.00843538
0.00844064
0.00844656
0.0083302
0.00836029
0.00819344
0.00811217
0.00678581
0.00673151
0.00697119
0.00694419
0.0071775
0.00710517
0.00715724
0.00708506
0.00715396
0.00710126
0.00719912
0.00717268
0.00713232
0.00708555
0.00706953
0.006968
0.00735848
0.00731394
0.00747935
0.00752892
0.00750486
0.00758217
0.00718009
0.00726611
0.00717248
0.00728313
0.00721565
0.00481029
0.00513559
0.00534144
0.00495425
0.00574612
0.00632713
0.00575761
0.0052129
0.00504462
0.0051647
0.00521884
0.00769825
0.00731369
0.00601038
0.00617251
0.00673132
0.00823408
0.00757767
0.00798144
0.00773875
0.00843401
0.00844112
0.00844241
0.00844049
0.0084391
0.00843712
0.00843425
0.00843134
0.00842565
0.00841238
0.00838316
0.00833735
0.00830509
0.0083017
0.00831678
0.00835177
0.00838516
0.0084087
0.00842363
0.00842904
0.00842964
0.00842937
0.00842879
0.00842933
0.00843239
0.00843966
0.00835594
0.00831844
0.0083344
0.00810558
0.00802398
0.00664108
0.0064414
0.00680568
0.00674865
0.00675486
0.00670065
0.00697861
0.00689807
0.00701347
0.00694511
0.00713491
0.00718469
0.00708967
0.00711453
0.00699934
0.00701413
0.00722587
0.00718949
0.00756139
0.00757566
0.00764574
0.00767641
0.00736545
0.00742626
0.00524387
0.00495621
0.00505358
0.00470145
0.00481736
0.00489508
0.00535503
0.00510323
0.00499144
0.00507548
0.00485908
0.00485252
0.00479813
0.00480388
0.00530549
0.00542278
0.00499449
0.00485923
0.004831
0.00504441
0.00703157
0.00557865
0.00579952
0.0063792
0.00773201
0.00790537
0.00784655
0.00733375
0.00757964
0.00841509
0.00844052
0.00844047
0.0084394
0.00843777
0.00843528
0.00843255
0.00842765
0.00841708
0.00839206
0.00834804
0.00830925
0.00829939
0.00830975
0.0083417
0.00837698
0.00840336
0.00842052
0.00842776
0.00842843
0.00842738
0.00842565
0.00842522
0.0084285
0.00843595
0.00810111
0.008361
0.00829417
0.00809207
0.0079221
0.00771904
0.00667504
0.0064016
0.00699366
0.00692224
0.00690249
0.00682617
0.00702036
0.00696295
0.00711847
0.00708686
0.00726694
0.00732779
0.00707476
0.00723769
0.00726047
0.00730506
0.0075865
0.00761178
0.00768011
0.00766457
0.00743937
0.00740979
0.00446705
0.00464422
0.00496471
0.0051953
0.00511619
0.00522667
0.00530328
0.00486497
0.00499474
0.00521096
0.00528421
0.00514249
0.004826
0.00477682
0.00481845
0.00489598
0.00477362
0.00511854
0.00521565
0.00487936
0.00479972
0.00480572
0.00491599
0.00672098
0.00536176
0.00555787
0.00606621
0.00754328
0.00772902
0.00772765
0.00709023
0.0074187
0.00839493
0.00842724
0.00843925
0.00843822
0.00843613
0.00843366
0.00842929
0.00842098
0.00839991
0.00835895
0.00831606
0.00829859
0.00830402
0.0083306
0.00836804
0.00839707
0.00841683
0.0084261
0.00842741
0.00842579
0.00842315
0.00842099
0.00842347
0.00842867
0.0079311
0.00834765
0.00823175
0.00807175
0.00791041
0.00798713
0.00556202
0.0057297
0.00684177
0.00633428
0.00689839
0.00680797
0.00708787
0.00700099
0.00721374
0.00715578
0.00731472
0.00727403
0.0074434
0.00741894
0.00733764
0.00746043
0.0076274
0.00762024
0.00765619
0.00766284
0.00734959
0.00728771
0.00515129
0.00511359
0.00504762
0.00497332
0.00532836
0.0053296
0.00528909
0.00521555
0.005309
0.00538533
0.00541219
0.00501866
0.0051891
0.00540218
0.00548127
0.00535382
0.00492372
0.00480771
0.00491687
0.00506055
0.00480625
0.00497571
0.00505667
0.00481437
0.00482108
0.00480731
0.0048365
0.00640786
0.00519274
0.00535497
0.00579835
0.00745669
0.00751827
0.00756482
0.00682276
0.00721538
0.00836343
0.00841951
0.00843821
0.00843666
0.00843437
0.00843059
0.00842386
0.00840637
0.00836979
0.00832488
0.00829955
0.00829993
0.00832003
0.00835737
0.00838978
0.00841225
0.00842406
0.00842601
0.00842437
0.00842021
0.00841705
0.0084176
0.00841823
0.00798957
0.00829923
0.00815964
0.00803164
0.00791217
0.00795604
0.00779345
0.00640691
0.00624623
0.00674116
0.00668746
0.00682175
0.00674894
0.0070206
0.00691744
0.0072028
0.00711715
0.00737643
0.00730003
0.0075647
0.00752346
0.00760706
0.00758755
0.00766899
0.00766808
0.00754189
0.00752063
0.00492194
0.00487321
0.00482655
0.00490346
0.00514503
0.00507746
0.00501112
0.004957
0.00537798
0.00531877
0.00525918
0.00520494
0.00546653
0.0054871
0.00544524
0.00522633
0.00541042
0.00555843
0.00564107
0.00555657
0.00508695
0.00489964
0.00507296
0.00527882
0.00490214
0.00487778
0.00494765
0.00480111
0.00489619
0.00486397
0.00480561
0.00612804
0.00505739
0.0051904
0.00557517
0.00761387
0.007368
0.0075654
0.00656468
0.00702555
0.00833741
0.00841504
0.00843672
0.00843482
0.00843158
0.00842597
0.00841153
0.00838002
0.00833501
0.00830219
0.00829723
0.00831078
0.00834582
0.0083811
0.00840651
0.00842111
0.00842461
0.0084229
0.00841763
0.008413
0.00841207
0.00840683
0.00815754
0.00824761
0.00807881
0.00798304
0.00806166
0.00800916
0.00813917
0.00669293
0.00662986
0.00664773
0.0066422
0.00670033
0.00666579
0.00680262
0.00676283
0.00699053
0.00688326
0.00720207
0.00709697
0.00744802
0.00734483
0.00766086
0.00761544
0.00766859
0.00766673
0.00752104
0.00754999
0.00696635
0.00712309
0.00494084
0.00491703
0.004899
0.00504234
0.00520605
0.00522613
0.00523271
0.00522828
0.00536554
0.00532302
0.00535849
0.00541792
0.00555912
0.00551089
0.00544438
0.00546254
0.00562274
0.00564848
0.00573241
0.00571698
0.00529276
0.00505709
0.00528222
0.00551587
0.00505714
0.00482467
0.00488205
0.00483668
0.00502117
0.00497301
0.00482051
0.00589163
0.00494969
0.00506275
0.00539392
0.00785359
0.00738183
0.00781793
0.0063372
0.00693189
0.00831533
0.00841481
0.00843483
0.00843214
0.00842703
0.00841569
0.00838923
0.00834597
0.00830751
0.00829562
0.00830343
0.00833353
0.00837071
0.0083996
0.00841705
0.0084223
0.00842166
0.0084158
0.00840905
0.00840656
0.00839741
0.00828598
0.00819954
0.0080188
0.00792187
0.00803346
0.0074153
0.00809894
0.00787767
0.00690224
0.00687271
0.00683228
0.00687481
0.00676438
0.00679193
0.0068885
0.00693555
0.00699622
0.00691046
0.00723159
0.007112
0.00752121
0.00740776
0.00767616
0.00765449
0.00759468
0.00764364
0.00714237
0.00739682
0.00510939
0.00505519
0.00492512
0.00501395
0.00523476
0.00522569
0.00520059
0.0051554
0.00548625
0.00553986
0.00556205
0.00551266
0.00542592
0.00549903
0.00561044
0.00571305
0.0055798
0.00551834
0.00552782
0.00568827
0.00579273
0.00567246
0.0057645
0.00581445
0.00552952
0.00526885
0.00552389
0.00574616
0.00525465
0.00482185
0.00484544
0.00492417
0.00519708
0.00513079
0.00488296
0.00569391
0.00487679
0.00497157
0.00524859
0.00745196
0.00750987
0.00798792
0.00615278
0.00683556
0.00829826
0.0084329
0.00843225
0.00842771
0.00841912
0.00839704
0.00835705
0.00831548
0.00829581
0.00829832
0.00832089
0.00835858
0.00839105
0.00841206
0.00841911
0.00841974
0.0084146
0.0084056
0.0084017
0.00839087
0.0083062
0.0081616
0.00799585
0.00787674
0.0080054
0.00705187
0.00806241
0.00800535
0.00745005
0.00735795
0.00731288
0.00739373
0.00718813
0.00725788
0.00702562
0.00711039
0.00712857
0.00725238
0.00707036
0.00705021
0.00728776
0.00716548
0.00758181
0.00748561
0.00760795
0.0076296
0.00745803
0.00753536
0.00489037
0.00505522
0.00719723
0.00531394
0.00523254
0.00507092
0.0051648
0.00528794
0.00530587
0.00548913
0.00541374
0.00579766
0.00584681
0.00585331
0.00577905
0.00561304
0.00574472
0.00587024
0.00597421
0.00558708
0.00559598
0.00568942
0.00587123
0.00589707
0.0056751
0.00577159
0.00585463
0.00576856
0.005515
0.0057714
0.00594332
0.00548785
0.00485966
0.00483646
0.00505765
0.00541368
0.00532691
0.00498554
0.00552999
0.0048456
0.00490359
0.00512709
0.00690547
0.00754349
0.00791077
0.00602028
0.00678698
0.00829991
0.00843357
0.00842793
0.00842146
0.00840344
0.00836734
0.00832504
0.0082978
0.00829512
0.00830991
0.00834518
0.00838087
0.00840573
0.00841532
0.00841714
0.00841278
0.00840257
0.00839725
0.00838841
0.00829873
0.00813439
0.00798003
0.00767474
0.0079784
0.00768016
0.00801797
0.00803265
0.00799525
0.00745953
0.00730744
0.00762917
0.00769899
0.00754486
0.00760172
0.00739627
0.00748881
0.0074321
0.00752937
0.00723268
0.00729777
0.00737447
0.00727183
0.00733097
0.00701918
0.00753977
0.00758583
0.00728228
0.00748691
0.00502005
0.00525699
0.0052333
0.00512762
0.00551405
0.00542361
0.0052801
0.0053496
0.00550882
0.00489967
0.0050471
0.00562749
0.0060461
0.00607135
0.00605447
0.00602384
0.00581283
0.00594416
0.00605657
0.00613631
0.00563582
0.0057158
0.0058297
0.00600015
0.005952
0.00568726
0.00578392
0.00587492
0.00597773
0.00577967
0.0060061
0.00608649
0.00574038
0.00492878
0.00486832
0.00522584
0.00566306
0.00555921
0.00512259
0.00540392
0.00484233
0.00486334
0.00503402
0.00659531
0.00757598
0.00768381
0.00593382
0.00678422
0.00828446
0.00842968
0.00842244
0.00840845
0.00837668
0.0083351
0.0083024
0.00829326
0.00830136
0.00833155
0.00836908
0.00839798
0.00841063
0.00841405
0.00841045
0.00839964
0.00839191
0.00838693
0.00829946
0.00811959
0.00796955
0.00748859
0.0079537
0.00794001
0.0079753
0.00805059
0.00814564
0.00783739
0.00754993
0.00803053
0.00799806
0.00789101
0.00796344
0.00764198
0.00785207
0.00758319
0.00762186
0.00766865
0.00780437
0.0074502
0.00756484
0.0072009
0.00742943
0.00761189
0.0076172
0.00747052
0.0076246
0.00499378
0.00515354
0.00746623
0.00520737
0.00517746
0.00528454
0.00522335
0.0056652
0.00556706
0.00541701
0.00549203
0.00599276
0.00574618
0.00567859
0.00577867
0.00617179
0.00617174
0.00614579
0.00610707
0.00593662
0.00604392
0.00612409
0.00617368
0.00570791
0.00579802
0.00588059
0.00607345
0.00599068
0.00571676
0.00581652
0.0059051
0.00615048
0.0060309
0.00621322
0.0061861
0.00600125
0.00503122
0.00493136
0.00542273
0.00593551
0.00581493
0.00529527
0.00531352
0.00486504
0.0048489
0.00496644
0.00713312
0.00752134
0.0076525
0.00588612
0.00676725
0.00826527
0.00842459
0.00841149
0.0083849
0.00834497
0.00830937
0.00829316
0.0082955
0.00831752
0.00835506
0.00838826
0.00840479
0.00841013
0.00840754
0.00839611
0.00838562
0.00838418
0.00830534
0.00811557
0.00796422
0.00761418
0.00789125
0.00770267
0.0074218
0.00806048
0.00822193
0.00813324
0.00818504
0.00799255
0.00817744
0.00819275
0.00812703
0.00815674
0.00790259
0.00810015
0.00784294
0.00788208
0.00784017
0.00792439
0.00763764
0.00777308
0.00730402
0.00728826
0.00761792
0.00762685
0.00537258
0.00553914
0.00765755
0.0052332
0.00554334
0.00544578
0.00556698
0.00534626
0.00529367
0.0054409
0.00541832
0.00562479
0.00558401
0.0055284
0.00559141
0.00606416
0.00591083
0.00577551
0.00571002
0.00619483
0.00619289
0.0060847
0.00583209
0.00595724
0.00604577
0.00611309
0.00615316
0.00574679
0.00580048
0.00584668
0.00613015
0.00604308
0.00575682
0.00589377
0.00596377
0.00628758
0.00626192
0.00639752
0.00627431
0.0062548
0.00515167
0.00501895
0.00565935
0.00620511
0.00609111
0.00548824
0.00525536
0.00491794
0.00486497
0.00493127
0.00692742
0.00738535
0.00747007
0.00585121
0.00666418
0.008244
0.00841516
0.00839121
0.00835459
0.00831727
0.00829479
0.00829163
0.00830502
0.0083386
0.00837477
0.00839674
0.00840467
0.00840367
0.00839122
0.00837828
0.00837898
0.00831969
0.0081213
0.00796799
0.00781818
0.00788253
0.00764964
0.00715293
0.00806834
0.00823823
0.0083875
0.00805027
0.00795477
0.00819507
0.00818813
0.0082072
0.00820187
0.0082141
0.00821135
0.00819925
0.00821194
0.00800825
0.00816987
0.00793838
0.00793874
0.00777284
0.00784404
0.00764665
0.00769695
0.00774336
0.00768017
0.00559631
0.00589689
0.00592295
0.00609936
0.00542129
0.00546617
0.00557515
0.00562079
0.00547823
0.00545589
0.00556606
0.00557201
0.00521015
0.00517037
0.00523197
0.00517266
0.00566929
0.00550502
0.00536028
0.00528699
0.00617105
0.00601851
0.00574164
0.00548758
0.00590906
0.00599483
0.00605254
0.00607701
0.00575527
0.00576671
0.00579107
0.00620762
0.00612939
0.00585095
0.00601577
0.00606208
0.00641359
0.00647584
0.00657211
0.00638218
0.00649454
0.0052962
0.00513542
0.00591888
0.00646667
0.00635551
0.00570209
0.00521403
0.00500302
0.00491436
0.00492225
0.00749517
0.00708232
0.00721467
0.00578244
0.00643893
0.00821823
0.00839799
0.00836244
0.00832597
0.00829858
0.00828861
0.00829503
0.00832132
0.00835757
0.00838421
0.00839655
0.00839821
0.00838667
0.00837094
0.00837187
0.00833829
0.00814397