/*--------------------------------*- C++ -*----------------------------------*\
  =========                 |
  \\      /  F ield         | OpenFOAM: The Open Source CFD Toolbox
   \\    /   O peration     | Website:  https://openfoam.org
    \\  /    A nd           | Version:  dev
     \\/     M anipulation  |
\*---------------------------------------------------------------------------*/
FoamFile
{
    version     2.0;
    format      ascii;
    class       volScalarField;
    location    "2500";
    object      T;
}
// * * * * * * * * * * * * * * * * * * * * * * * * * * * * * * * * * * * * * //

dimensions      [0 0 0 1 0 0 0];

internalField   nonuniform List<scalar> 
9838
(
300.1
300.143
300.116
300.145
300.226
300.113
300.143
300.269
300.229
300.095
300.134
300.273
300.31
300.205
300.077
300.108
300.279
300.357
300.307
300.185
300.07
300.104
300.274
300.371
300.379
300.276
300.156
300.066
300.097
300.251
300.376
300.427
300.364
300.248
300.142
300.06
300.093
300.23
300.351
300.453
300.434
300.334
300.217
300.128
300.056
300.092
300.21
300.335
300.465
300.484
300.413
300.302
300.199
300.119
300.054
300.086
300.194
300.325
300.439
300.514
300.48
300.385
300.271
300.181
300.112
300.052
300.076
300.182
300.303
300.428
300.533
300.526
300.457
300.348
300.25
300.171
300.106
300.05
300.078
300.178
300.277
300.41
300.524
300.565
300.519
300.415
300.317
300.228
300.159
300.101
300.049
300.077
300.157
300.255
300.393
300.511
300.579
300.565
300.496
300.385
300.291
300.216
300.153
300.097
300.047
300.071
300.157
300.249
300.371
300.495
300.584
300.604
300.551
300.456
300.355
300.271
300.204
300.147
300.095
300.044
300.067
300.148
300.229
300.338
300.476
300.579
300.629
300.606
300.523
300.42
300.33
300.256
300.196
300.142
300.093
300.042
300.069
300.141
300.224
300.323
300.439
300.555
300.639
300.643
300.588
300.486
300.39
300.31
300.244
300.189
300.137
300.092
300.043
300.067
300.142
300.221
300.301
300.418
300.548
300.649
300.671
300.635
300.545
300.448
300.363
300.295
300.235
300.184
300.135
300.085
300.042
300.065
300.132
300.215
300.281
300.383
300.529
300.636
300.69
300.68
300.613
300.514
300.417
300.346
300.281
300.227
300.179
300.129
300.086
300.04
300.059
300.13
300.21
300.283
300.388
300.506
300.619
300.695
300.71
300.665
300.578
300.483
300.395
300.327
300.27
300.221
300.172
300.127
300.085
300.041
300.063
300.136
300.201
300.28
300.362
300.479
300.61
300.69
300.728
300.706
300.635
300.546
300.451
300.375
300.312
300.261
300.215
300.168
300.128
300.083
300.042
300.06
300.129
300.2
300.277
300.358
300.456
300.595
300.677
300.739
300.738
300.688
300.601
300.506
300.424
300.361
300.305
300.258
300.213
300.169
300.128
300.084
300.042
300.059
300.126
300.186
300.27
300.342
300.447
300.579
300.671
300.75
300.765
300.732
300.664
300.56
300.478
300.408
300.344
300.297
300.253
300.206
300.166
300.125
300.084
300.042
300.057
300.124
300.188
300.258
300.342
300.436
300.546
300.661
300.741
300.785
300.77
300.711
300.624
300.534
300.456
300.394
300.334
300.292
300.247
300.206
300.163
300.124
300.085
300.04
300.054
300.116
300.179
300.254
300.344
300.411
300.502
300.645
300.735
300.795
300.799
300.754
300.68
300.585
300.502
300.432
300.381
300.33
300.285
300.243
300.206
300.165
300.125
300.086
300.042
300.057
300.122
300.184
300.254
300.336
300.407
300.513
300.636
300.726
300.794
300.821
300.795
300.727
300.641
300.554
300.482
300.425
300.369
300.323
300.279
300.239
300.202
300.163
300.124
300.083
300.043
300.053
300.12
300.185
300.258
300.329
300.408
300.504
300.613
300.719
300.794
300.839
300.831
300.776
300.694
300.61
300.529
300.462
300.41
300.36
300.318
300.278
300.238
300.2
300.165
300.126
300.085
300.041
300.053
300.121
300.179
300.248
300.327
300.399
300.471
300.598
300.707
300.787
300.846
300.857
300.819
300.742
300.66
300.576
300.506
300.45
300.398
300.354
300.314
300.271
300.236
300.198
300.163
300.127
300.087
300.043
300.052
300.12
300.184
300.247
300.324
300.399
300.475
300.599
300.696
300.786
300.855
300.876
300.856
300.794
300.705
300.628
300.553
300.488
300.442
300.386
300.349
300.312
300.273
300.236
300.203
300.166
300.127
300.088
300.042
300.051
300.116
300.177
300.252
300.324
300.39
300.462
300.584
300.691
300.782
300.853
300.888
300.883
300.834
300.761
300.673
300.6
300.532
300.48
300.431
300.382
300.347
300.306
300.274
300.236
300.202
300.167
300.13
300.089
300.045
300.057
300.114
300.185
300.254
300.314
300.39
300.476
300.56
300.685
300.773
300.854
300.9
300.909
300.873
300.805
300.724
300.646
300.577
300.52
300.469
300.42
300.382
300.345
300.308
300.271
300.238
300.205
300.169
300.133
300.092
300.046
300.057
300.119
300.189
300.247
300.322
300.406
300.479
300.567
300.684
300.775
300.858
300.907
300.927
300.908
300.85
300.772
300.692
300.625
300.555
300.507
300.457
300.415
300.378
300.342
300.306
300.272
300.239
300.207
300.172
300.135
300.094
300.048
300.052
300.118
300.18
300.259
300.335
300.41
300.468
300.551
300.669
300.773
300.852
300.913
300.943
300.938
300.898
300.818
300.736
300.666
300.6
300.545
300.499
300.446
300.405
300.375
300.341
300.305
300.275
300.242
300.209
300.174
300.139
300.097
300.049
300.055
300.12
300.187
300.261
300.336
300.416
300.479
300.558
300.672
300.766
300.851
300.92
300.955
300.96
300.933
300.863
300.79
300.709
300.645
300.586
300.536
300.489
300.444
300.406
300.373
300.337
300.308
300.275
300.246
300.214
300.18
300.142
300.099
300.024
300.054
300.05
300.124
300.191
300.26
300.342
300.421
300.5
300.582
300.674
300.767
300.852
300.924
300.966
300.98
300.962
300.906
300.834
300.755
300.688
300.611
300.574
300.527
300.484
300.439
300.406
300.372
300.341
300.309
300.278
300.248
300.217
300.183
300.144
300.082
300.109
300.025
300.054
300.059
300.118
300.191
300.254
300.344
300.426
300.507
300.58
300.671
300.769
300.857
300.93
300.977
301.002
300.987
300.941
300.877
300.8
300.726
300.662
300.608
300.561
300.517
300.472
300.438
300.406
300.372
300.341
300.313
300.282
300.252
300.221
300.168
300.187
300.131
300.167
300.155
300.082
300.109
300.025
300.057
300.058
300.126
300.2
300.27
300.352
300.425
300.517
300.579
300.679
300.766
300.863
300.936
300.988
301.014
301.012
300.976
300.915
300.841
300.765
300.709
300.644
300.599
300.55
300.513
300.469
300.434
300.405
300.373
300.343
300.314
300.285
300.256
300.209
300.228
300.188
300.134
300.176
300.157
300.085
300.112
300.028
300.058
300.057
300.117
300.191
300.262
300.355
300.425
300.529
300.598
300.692
300.758
300.864
300.939
300.998
301.029
301.035
301.007
300.955
300.885
300.813
300.745
300.682
300.629
300.591
300.544
300.502
300.472
300.436
300.403
300.374
300.345
300.317
300.289
300.247
300.264
300.21
300.23
300.197
300.137
300.18
300.161
300.087
300.115
300.027
300.061
300.055
300.13
300.197
300.27
300.37
300.441
300.538
300.615
300.696
300.752
300.871
300.945
301.009
301.043
301.054
301.039
300.988
300.928
300.855
300.783
300.725
300.671
300.622
300.578
300.543
300.503
300.469
300.429
300.405
300.376
300.347
300.32
300.281
300.297
300.249
300.267
300.218
300.237
300.201
300.141
300.184
300.166
300.091
300.119
300.029
300.063
300.052
300.132
300.207
300.286
300.36
300.452
300.53
300.623
300.705
300.761
300.885
300.955
301.014
301.057
301.071
301.063
301.026
300.968
300.889
300.828
300.754
300.706
300.659
300.615
300.575
300.537
300.498
300.468
300.431
300.406
300.377
300.35
300.314
300.329
300.284
300.301
300.256
300.273
300.222
300.242
300.206
300.146
300.19
300.172
300.095
300.124
300.031
300.066
300.063
300.135
300.211
300.295
300.355
300.464
300.538
300.635
300.715
300.774
300.877
300.964
301.022
301.071
301.089
301.086
301.054
301.003
300.94
300.868
300.803
300.742
300.685
300.646
300.609
300.558
300.52
300.499
300.469
300.428
300.41
300.379
300.345
300.36
300.317
300.333
300.29
300.307
300.261
300.279
300.227
300.247
300.212
300.152
300.196
300.178
300.099
300.13
300.033
300.071
300.064
300.131
300.217
300.304
300.363
300.465
300.565
300.649
300.729
300.802
300.884
300.976
301.035
301.08
301.107
301.104
301.083
301.032
300.981
300.901
300.834
300.78
300.73
300.683
300.638
300.6
300.552
300.518
300.499
300.472
300.428
300.411
300.375
300.389
300.348
300.363
300.323
300.338
300.296
300.312
300.267
300.285
300.234
300.254
300.219
300.158
300.203
300.185
300.105
300.136
300.036
300.075
300.063
300.142
300.226
300.315
300.397
300.479
300.594
300.658
300.734
300.815
300.886
300.977
301.04
301.096
301.125
301.127
301.109
301.071
301.01
300.945
300.875
300.812
300.762
300.715
300.666
300.632
300.59
300.551
300.517
300.501
300.475
300.428
300.405
300.416
300.378
300.392
300.354
300.368
300.328
300.344
300.302
300.319
300.274
300.292
300.241
300.262
300.227
300.166
300.211
300.194
300.11
300.143
300.038
300.08
300.063
300.135
300.213
300.316
300.41
300.492
300.593
300.666
300.74
300.82
300.895
300.98
301.044
301.113
301.142
301.152
301.135
301.103
301.051
300.978
300.915
300.849
300.798
300.748
300.7
300.659
300.624
300.587
300.549
300.518
300.504
300.476
300.433
300.444
300.408
300.419
300.384
300.397
300.36
300.374
300.335
300.352
300.31
300.328
300.282
300.301
300.25
300.271
300.236
300.174
300.221
300.204
300.117
300.151
300.042
300.086
300.063
300.138
300.218
300.313
300.404
300.501
300.581
300.679
300.759
300.825
300.91
300.969
301.06
301.127
301.157
301.17
301.161
301.132
301.084
301.026
300.958
300.89
300.826
300.776
300.734
300.69
300.652
300.617
300.587
300.554
300.521
300.501
300.467
300.476
300.438
300.45
300.414
300.428
300.392
300.407
300.369
300.389
300.346
300.369
300.322
300.346
300.293
300.318
300.26
300.285
300.247
300.184
300.233
300.216
300.125
300.161
300.046
300.093
300.065
300.142
300.22
300.299
300.392
300.481
300.593
300.688
300.766
300.839
300.925
300.983
301.078
301.134
301.172
301.187
301.184
301.159
301.117
301.06
300.997
300.924
300.866
300.805
300.761
300.719
300.681
300.645
300.613
300.589
300.561
300.521
300.51
300.47
300.489
300.447
300.466
300.429
300.455
300.414
300.45
300.4
300.451
300.382
300.445
300.354
300.421
300.317
300.375
300.276
300.318
300.265
300.196
300.252
300.234
300.134
300.172
300.05
300.101
300.069
300.149
300.235
300.312
300.406
300.484
300.614
300.691
300.772
300.85
300.919
300.992
301.078
301.144
301.186
301.204
301.206
301.185
301.144
301.091
301.033
300.969
300.899
300.84
300.791
300.749
300.71
300.673
300.641
300.614
300.59
300.567
300.538
300.553
300.604
300.49
300.519
300.486
300.534
300.501
300.587
300.537
300.681
300.566
300.792
300.563
300.848
300.508
300.805
300.413
300.656
300.319
300.462
300.316
300.213
300.305
300.282
300.144
300.187
300.056
300.11
300.077
300.16
300.241
300.316
300.411
300.496
300.617
300.695
300.773
300.855
300.924
301.004
301.085
301.153
301.198
301.22
301.224
301.207
301.179
301.128
301.065
300.998
300.941
300.876
300.822
300.779
300.739
300.701
300.668
300.639
300.615
300.599
300.607
300.673
300.761
300.815
301.013
300.593
300.693
300.698
300.88
300.901
301.222
301.169
301.701
301.38
302.184
301.409
302.46
301.218
302.332
300.857
301.79
300.51
301.084
300.537
300.25
300.53
300.476
300.157
300.214
300.062
300.12
300.09
300.183
300.259
300.334
300.427
300.512
300.632
300.721
300.788
300.854
300.934
301.006
301.091
301.16
301.209
301.236
301.244
301.232
301.203
301.158
301.099
301.031
300.965
300.908
300.852
300.805
300.769
300.731
300.694
300.664
300.64
300.635
300.72
300.964
300.896
301.246
301.621
301.854
302.338
301.127
301.456
301.63
302.146
302.359
303.095
303.179
304.238
303.824
305.316
304.044
305.997
303.602
305.984
302.451
305.024
301.282
303.107
301.394
300.391
301.373
301.196
300.174
300.296
300.069
300.132
300.09
300.222
300.298
300.364
300.447
300.522
300.63
300.724
300.78
300.851
300.94
301.006
301.095
301.165
301.218
301.251
301.262
301.257
301.23
301.192
301.129
301.074
301.007
300.94
300.883
300.835
300.794
300.761
300.724
300.69
300.67
300.69
300.967
302.34
301.988
302.855
302.881
303.531
304.012
304.708
302.728
303.353
303.866
304.665
305.288
306.287
306.783
308.126
307.96
309.804
308.497
310.893
308.06
311.062
306.394
310.003
303.603
307.539
303.822
300.91
303.693
303.196
300.214
300.587
300.078
300.151
300.207
300.37
300.419
300.477
300.538
300.648
300.736
300.78
300.852
300.927
301.013
301.095
301.17
301.226
301.263
301.28
301.277
301.258
301.22
301.171
301.107
301.038
300.976
300.916
300.866
300.822
300.785
300.752
300.718
300.697
300.755
301.287
303.402
305.71
305.916
304.212
304.897
305.424
306.215
306.961
307.714
305.448
306.21
307.231
308.109
309.326
310.388
311.45
312.862
313.085
315.03
313.865
316.383
313.469
316.633
311.636
315.501
308.274
312.841
308.494
302.409
308.095
307.076
300.329
301.47
300.088
300.181
300.403
300.51
300.529
300.571
300.671
300.721
300.79
300.855
300.927
301.026
301.09
301.175
301.232
301.273
301.294
301.297
301.281
301.248
301.202
301.141
301.073
301.01
300.952
300.897
300.853
300.812
300.779
300.747
300.729
300.827
301.632
304.306
309.043
308.417
309.705
306.98
307.799
308.474
309.292
310.395
311.11
308.913
309.668
311.338
312.16
314.056
315.061
316.686
318.04
318.608
320.503
319.45
321.915
319.018
322.111
317.055
320.869
313.508
318.099
313.575
305.52
313.049
312.151
308.92
300.64
303.505
300.102
300.212
300.607
300.61
300.618
300.687
300.737
300.814
300.866
300.928
301.02
301.095
301.176
301.236
301.282
301.308
301.315
301.304
301.276
301.233
301.175
301.109
301.047
300.987
300.932
300.884
300.843
300.802
300.774
300.769
300.936
302.013
305.186
310.039
313.058
313.673
311.618
312.383
310.087
310.881
311.831
312.603
314.123
314.704
312.872
313.517
315.894
316.549
319.112
319.949
322.077
323.263
324.107
325.774
324.764
327.121
324.273
327.117
322.192
325.867
318.542
322.908
320.674
315.823
318.504
311.255
306.93
310.389
314.805
317.842
318.121
314.276
300.604
301.873
309.087
307.85
304.312
300.12
301.058
300.217
300.572
300.705
300.681
300.714
300.742
300.814
300.866
300.921
301.015
301.097
301.173
301.239
301.289
301.32
301.331
301.324
301.302
301.261
301.208
301.146
301.083
301.022
300.966
300.913
300.868
300.83
300.803
300.82
301.1
302.508
306.038
311.142
314.132
314.231
315.816
315.884
314.696
315.273
313.338
314.04
315.289
315.905
317.868
318.21
317.059
317.492
320.553
320.928
324.084
324.592
326.635
326.972
328.157
328.163
329.229
329.516
327.095
328.592
329.612
330.486
324.721
326.778
329.119
330.02
328.34
322.971
320.714
323.221
325.121
320.653
313.419
312.333
317.125
319.872
320.374
316.384
303.013
311.081
309.583
306.14
300.103
300.169
300.294
301.772
300.905
300.765
300.765
300.761
300.817
300.867
300.924
301.01
301.091
301.18
301.24
301.293
301.33
301.346
301.343
301.325
301.291
301.242
301.181
301.119
301.058
300.999
300.949
300.901
300.864
300.839
300.906
301.403
303.114
306.812
311.513
314.418
315.757
315.449
317.35
316.859
317.361
317.505
316.454
316.913
318.543
318.875
321.325
321.34
321.132
321.286
324.856
324.845
327.098
327.127
327.99
327.618
328.938
327.688
330.525
330.232
329.638
328.522
330.377
330.983
330.92
327.099
328.915
331.093
331.596
330.459
325.342
323.037
325.347
327.401
322.845
315.436
314.295
319.211
322.473
321.918
318.387
304.458
312.944
311.349
307.862
300.111
300.197
300.423
302.787
301.415
300.819
300.798
300.827
300.875
300.925
301.006
301.083
301.187
301.241
301.296
301.338
301.36
301.363
301.347
301.321
301.275
301.218
301.155
301.094
301.038
300.994
300.943
300.9
300.893
301.056
301.833
303.833
307.517
311.52
313.517
314.601
313.846
316.19
315.441
317.828
316.797
319.101
318.644
319.128
319.187
321.339
321.294
324.297
323.99
324.758
324.568
327.143
327.128
327.329
327.225
325.932
324.609
327.084
325.228
323.655
321.987
330.501
329.454
327.783
325.701
331.485
331.275
330.587
329.293
330.904
331.915
332.322
332.054
327.533
325.231
327.519
329.542
324.968
317.374
316.16
321.201
324.529
323.91
320.305
305.965
314.724
313.025
309.509
300.117
300.589
300.228
303.932
302.031
300.856
300.848
300.885
300.932
300.999
301.076
301.187
301.244
301.3
301.345
301.373
301.38
301.37
301.346
301.307
301.254
301.191
301.128
301.069
301.015
300.975
300.933
300.952
301.262
302.367
304.601
308.183
311.437
312.771
311.646
313.053
311.578
315.564
314.239
317.331
315.566
319.94
318.827
321.138
320.767
323.628
323.161
326.503
326.002
327.059
326.862
327.28
327.392
324.083
324.273
320.884
319.92
319.47
319.394
323.487
321.371
319.545
318.132
329.06
326.899
324.377
321.76
331.584
330.552
328.632
331.241
332.437
331.88
332.208
332.717
329.646
327.361
329.604
331.466
327.045
319.219
317.926
323.12
326.541
325.851
322.143
307.417
316.395
314.593
311.055
300.111
300.77
300.244
305.062
302.654
300.883
300.9
300.94
301
301.07
301.183
301.245
301.302
301.351
301.383
301.396
301.391
301.37
301.337
301.288
301.228
301.163
301.103
301.037
300.989
300.962
301.007
301.482
302.934
305.402
308.817
311.292
312.138
310.474
308.231
307.65
310.464
309.199
313.716
311.965
315.8
313.357
320.031
318.102
322.51
321.468
325.338
324.469
327.593
327.234
327.603
327.666
324.747
325.627
318.449
319.643
317.167
316.631
316.47
316.575
319.295
317.187
315.594
314.57
326.081
323.209
320.258
317.468
330.552
328.323
325.475
332.747
333.095
330.673
330.958
332.571
331.558
329.419
331.523
332.975
329.06
320.973
319.591
324.978
328.496
327.741
323.913
308.758
317.959
316.049
312.478
300.089
300.916
300.224
306.082
303.181
300.923
300.949
301.001
301.065
301.159
301.242
301.303
301.356
301.393
301.411
301.41
301.392
301.365
301.321
301.264
301.199
301.132
301.073
301.01
300.979
301.043
301.675
303.466
306.135
309.29
311.092
311.541
309.465
305.431
305.507
304.592
307.458
306.297
311.027
309.025
313.555
310.552
319.347
316.596
323.26
321.586
326.454
325.258
327.619
327.537
326.569
327.318
321.371
323.189
315.576
316.616
318.637
317.493
314.061
313.983
314.256
314.799
315.087
313.339
312.275
311.869
322.326
319.103
316.035
313.429
328.229
325.177
321.823
333.45
332.978
328.395
328.832
331.395
333.115
331.338
333.135
333.76
330.963
322.646
321.158
326.781
330.371
329.561
325.616
309.962
319.423
317.387
313.771
300.059
300.973
300.173
306.945
303.514
300.964
301.004
301.061
301.139
301.245
301.303
301.359
301.401
301.424
301.427
301.414
301.39
301.352
301.299
301.237
301.167
301.11
301.046
300.992
301.059
301.78
303.898
306.763
309.556
310.891
310.911
308.466
304.482
302.19
301.936
302.883
302.423
304.392
303.463
307.9
305.829
310.994
307.563
318.154
314.67
323.526
321.16
326.99
325.583
327.08
327.193
324.864
326.231
319.598
320.732
321.888
314.577
315.59
317.771
316.657
311.889
312.236
312.858
313.658
311.528
310.518
310.229
310.272
318.398
315.143
312.388
310.426
325.218
321.753
318.214
333.43
331.958
325.627
326.397
329.509
334.022
333.012
334.198
333.875
332.681
324.24
322.64
328.52
332.106
331.278
327.251
311.013
320.793
318.613
314.934
300.047
300.903
300.129
307.618
303.62
301.011
301.058
301.124
301.243
301.303
301.361
301.407
301.435
301.444
301.435
301.413
301.381
301.333
301.274
301.206
301.141
301.082
301.021
301.068
301.801
304.129
307.251
309.702
310.656
310.196
307.368
303.606
301.4
301.124
300.978
301.39
301.216
302.198
301.671
304.906
303.183
308.916
305.686
316.831
312.827
323.382
320.432
326.802
325.446
326.181
326.452
323.758
325.231
318.86
319.965
320.164
321.293
313.66
314.643
316.805
315.7
310.658
311.234
311.94
312.755
309.542
309.271
309.279
309.533
314.86
312.02
310.028
309.142
322.135
318.579
315.19
332.657
330.362
322.959
324.182
327.446
334.305
334.25
334.669
333.434
334.094
325.764
324.046
330.172
333.648
332.842
328.813
311.911
322.073
319.743
315.971
300.048
300.699
300.149
308.079
303.459
301.058
301.115
301.234
301.303
301.362
301.412
301.445
301.459
301.455
301.435
301.408
301.366
301.311
301.245
301.17
301.115
301.055
301.075
301.787
304.169
307.513
309.736
310.406
309.451
306.322
302.965
301.303
300.815
300.827
300.824
300.804
300.922
300.853
301.426
301.082
303.458
302.13
308.038
305.172
315.82
311.74
322.972
319.697
326.125
324.86
324.624
324.964
322.265
323.174
323.734
317.931
319.05
318.699
319.834
312.454
313.305
315.307
314.262
309.921
310.428
311.009
311.683
308.871
308.867
309.023
309.315
312.311
310.264
309.231
308.867
319.463
316.113
313.238
331.367
328.694
320.825
322.602
325.696
334.108
334.888
334.737
332.445
334.982
327.213
325.381
331.71
334.822
334.213
330.282
312.659
323.279
320.789
316.896
300.091
300.655
300.299
308.328
303.312
301.11
301.22
301.298
301.362
301.416
301.453
301.473
301.475
301.456
301.433
301.397
301.346
301.284
301.21
301.151
301.087
301.08
301.718
304.129
307.53
309.715
310.151
308.749
305.44
302.503
301.194
300.815
300.761
300.767
300.762
300.759
300.832
300.778
301.307
300.979
303.201
301.979
308.896
306.268
315.689
312.051
322.433
319.285
324.68
323.615
322.013
322.352
321.903
320.878
321.893
321.396
320.569
316.408
317.55
316.372
317.504
311.051
311.632
313.218
312.347
309.62
309.931
310.259
310.618
308.82
308.945
309.172
309.414
311.123
309.801
309.323
309.282
317.607
314.779
312.533
330.062
327.407
319.605
321.912
324.669
333.501
335.189
334.482
331.474
335.445
328.585
326.658
333.106
335.543
335.248
331.635
313.275
324.431
321.773
317.733
300.155
300.873
300.575
308.526
303.534
301.201
301.287
301.362
301.419
301.46
301.484
301.492
301.481
301.455
301.424
301.381
301.322
301.253
301.177
301.119
301.086
301.559
303.97
307.466
309.661
309.932
308.17
304.79
302.203
301.126
300.832
300.755
300.77
300.737
300.747
300.734
300.733
300.807
300.75
301.414
300.973
304.034
302.376
310.472
307.403
316.277
313.385
321.657
319.135
321.847
321.227
319.394
320.176
317.095
317.397
318.606
319.634
318.568
317.563
314.19
315.251
313.308
314.368
310.444
310.588
311.112
310.798
309.663
309.89
310.1
310.285
309.408
309.713
309.977
310.221
311.01
310.407
310.35
310.52
316.835
314.519
312.901
329.196
326.819
319.321
322.228
324.445
332.829
335.263
334.094
330.902
335.749
329.889
327.891
334.33
335.957
335.873
332.87
313.834
325.538
322.714
318.515
300.348
301.445
301.025
308.904
304.214
301.279
301.357
301.42
301.466
301.495
301.507
301.504
301.481
301.451
301.412
301.36
301.294
301.212
301.155
301.102
301.398
303.578
307.27
309.588
309.794
307.788
304.433
302.053
301.101
300.85
300.778
300.737
300.752
300.71
300.721
300.703
300.702
300.787
300.721
301.447
300.966
304.566
302.546
310.702
307.412
316.137
313.662
319.994
318.258
316.405
316.546
315.569
316.423
312.928
313.963
315.437
316.517
314.631
313.578
311.644
312.387
310.594
311.011
310.501
310.435
310.348
310.394
310.4
310.508
310.558
310.543
310.986
311.391
311.79
312.094
312.174
312.089
312.288
312.87
317.139
315.523
314.635
328.961
327.078
320.267
323.767
325.283
332.455
335.187
333.898
330.928
335.882
331.15
329.088
335.29
336.175
336.203
334.061
314.449
326.605
323.63
319.289
300.47
302.379
301.42
309.56
305.358
301.351
301.42
301.472
301.504
301.521
301.523
301.508
301.478
301.44
301.395
301.334
301.257
301.187
301.126
301.273
303.064
306.841
309.493
309.745
307.688
304.389
302.04
301.113
300.867
300.799
300.751
300.711
300.735
300.688
300.7
300.683
300.683
300.739
300.693
301.323
300.891
304.424
302.377
308.829
305.796
313.634
311.562
316.114
315.085
309.58
310.314
311.072
310.834
311.086
311.958
308.545
308.928
311.71
312.578
310.342
309.873
310.324
310.391
309.754
309.646
311.712
311.325
310.519
310.912
312.241
312.284
312.256
312.042
313.549
314.179
314.759
315.196
314.527
314.736
315.423
316.273
318.753
317.897
317.737
329.516
328.315
322.696
326.725
327.449
332.589
335.016
333.799
331.553
335.904
332.362
330.233
335.853
336.251
336.267
335.037
315.126
327.641
324.491
320.052
300.297
303.258
301.41
310.429
306.503
301.42
301.476
301.513
301.533
301.539
301.532
301.506
301.471
301.428
301.372
301.301
301.214
301.158
301.204
302.525
306.246
309.303
309.755
307.738
304.505
302.137
301.159
300.897
300.818
300.771
300.711
300.713
300.731
300.698
300.676
300.688
300.663
300.667
300.682
300.664
301.007
300.759
303.25
301.699
305.242
303.129
308.687
307.291
309.699
309.455
306.732
306.704
307.582
306.948
308.451
308.399
307.305
306.964
309.577
309.629
308.584
308.771
310.198
309.945
310.176
309.673
314.598
313.936
312.345
313.165
315.402
315.472
315.447
315.134
317.2
318.093
318.88
319.491
317.909
318.634
319.644
320.744
321.959
321.767
321.912
330.899
330.393
326.261
329.856
330.003
332.94
334.872
333.824
332.359
335.708
333.497
331.313
336.065
336.107
336.147
335.517
315.842
328.578
325.286
320.78
300.117
303.737
300.964
311.355
307.419
301.48
301.522
301.546
301.555
301.551
301.534
301.503
301.458
301.408
301.343
301.255
301.196
301.185
302.056
305.53
308.957
309.804
307.913
304.852
302.447
301.274
300.942
300.845
300.791
300.747
300.695
300.693
300.713
300.688
300.667
300.677
300.647
300.655
300.646
300.645
300.742
300.665
301.67
300.99
302.009
301.28
303.444
302.863
304.765
304.709
303.805
306.407
305.767
304.937
305.282
308.24
307.745
308.218
307.203
309.296
308.996
308.754
309.33
311.54
310.806
312.585
311.608
318.962
318.136
316.001
317.129
319.812
319.925
319.931
319.611
321.882
322.945
323.869
324.572
322.583
323.601
324.782
325.994
326.193
326.361
327.043
331.907
331.529
329.884
331.307
331.359
333.063
334.627
333.57
332.48
335.211
334.371
332.269
336.01
335.787
335.848
335.603
316.564
329.417
326.113
321.495
300.038
303.63
300.412
312.253
307.969
301.533
301.56
301.572
301.571
301.559
301.534
301.495
301.446
301.385
301.305
301.226
301.19
301.708
304.716
308.45
309.83
308.286
305.424
303.025
301.51
301.005
300.879
300.817
300.769
300.725
300.685
300.682
300.697
300.672
300.651
300.662
300.629
300.641
300.62
300.622
300.636
300.62
300.872
300.698
300.928
300.734
301.779
301.298
304.006
303.654
302.318
302.939
308.412
306.93
304.703
305.675
310.228
309.261
311.504
309.989
310.745
309.992
311.173
312.115
314.827
313.671
316.586
315.329
324.062
323.153
320.723
322.021
324.944
325.077
325.093
324.758
327.209
328.288
329.237
329.905
328.03
329.116
330.238
331.349
330.052
330.682
331.417
331.94
331.534
331.306
330.997
331.282
332.664
333.791
332.826
331.975
334.676
334.793
333.152
335.702
335.294
334.806
335.48
317.282
330.469
326.859
322.148
300.021
302.987
300.141
312.975
307.922
301.588
301.596
301.595
301.584
301.564
301.533
301.485
301.429
301.357
301.262
301.219
301.489
303.868
307.79
309.798
308.746
306.099
303.709
301.966
301.106
300.919
300.849
300.795
300.751
300.698
300.686
300.671
300.673
300.658
300.636
300.647
300.613
300.625
300.592
300.601
300.591
300.59
300.641
300.603
300.792
300.639
302.699
302.893
301.871
301.302
304.921
303.716
303.947
312.276
310.317
306.506
308.351
313.967
312.809
315.618
314.098
314.164
313.107
315.07
316.124
319.342
317.94
321.089
319.701
329.227
328.263
325.652
327.046
330.219
330.325
330.313
329.947
332.406
333.294
334.047
334.571
332.216
332.956
333.688
334.303
331.451
331.799
331.994
331.229
330.234
330.731
330.29
330.283
331.387
333.069
331.765
330.819
333.654
334.804
333.73
335.149
333.575
334.068
334.965
317.998
331.372
327.91
322.931
300.015
301.696
300.075
313.428
307.417
301.681
301.646
301.623
301.6
301.571
301.531
301.477
301.411
301.319
301.259
301.376
303.092
306.995
309.658
309.199
306.827
304.472
302.587
301.28
300.969
300.884
300.827
300.777
300.738
300.671
300.677
300.665
300.691
300.659
300.664
300.646
300.621
300.634
300.598
300.609
300.576
300.587
300.568
300.569
300.587
300.571
301.046
300.659
304.423
304.631
302.963
302.62
307.705
305.667
306.416
316.306
314.304
309.903
312.138
318.051
316.904
319.435
318.008
318.399
317.233
319.158
320.206
324.137
322.593
325.5
323.992
334.135
333.182
330.437
331.883
334.793
334.969
334.965
334.711
334.894
335.426
335.894
336.293
332.383
333.114
333.722
334.301
330.819
331.041
326.266
330.629
323.897
325.069
325.529
324.489
331.136
331.86
331.281
323.742
332.328
334.744
334.02
334.193
333.148
333.449
334.738
318.631
332.271
328.865
323.694
300.01
301.037
300.048
313.68
306.33
301.894
301.737
301.67
301.626
301.583
301.53
301.465
301.382
301.289
301.334
302.464
306.092
309.287
309.52
307.576
305.285
303.3
301.598
301.036
300.922
300.861
300.807
300.764
300.715
300.66
300.667
300.654
300.681
300.649
300.636
300.609
300.623
300.583
300.595
300.566
300.574
300.557
300.56
300.574
300.558
301.697
300.787
306.75
306.617
304.501
306.069
305.321
303.215
311.018
308.669
309.088
319.684
317.762
313.354
315.62
321.813
320.669
322.758
321.314
322.589
321.353
322.943
324.025
328.8
327.141
329.843
328.16
337.144
336.855
335.009
336.19
336.657
336.881
337.134
337.177
334.745
335.461
335.817
336.264
326.69
327.105
327.421
327.878
325.948
326.389
319.935
324.259
317.623
318.74
319.011
317.908
323.596
330.898
323.842
317.395
324.271
334.574
333.869
334.026
324.513
325.038
334.126
319.312
332.703
329.986
324.729
299.931
300.827
300.038
313.776
306.27
302.335
301.907
301.757
301.673
301.6
301.534
301.448
301.341
301.333
302.015
305.124
308.696
309.655
308.306
306.117
304.089
302.14
301.141
300.962
300.896
300.841
300.792
300.755
300.694
300.644
300.65
300.658
300.64
300.676
300.626
300.598
300.612
300.574
300.584
300.558
300.566
300.54
300.548
300.58
300.541
302.542
304.172
300.988
308.952
308.34
307.389
306.142
313.83
311.478
311.322
322.403
320.482
316.118
318.353
325.285
324.051
325.732
324.154
326.642
325.272
326.497
327.697
333.377
331.601
334.186
332.303
337.967
338.082
337.73
338.105
336.571
337.177
337.691
337.818
328.009
328.271
328.394
328.554
320.137
320.444
320.607
320.792
319.044
320.22
311.411
317.558
310.151
310.874
311.002
310.373
317.086
324.401
317.13
309.977
317.334
333.893
333.786
332.712
324.807
317.449
317.784
333.068
319.867
332.659
330.557
325.444
385.952
300.959
301.161
314.125
306.896
302.899
302.161
301.905
301.741
301.628
301.526
301.411
301.361
301.736
304.181
307.982
309.648
308.911
306.935
304.908
302.853
301.32
301.008
300.933
300.876
300.825
300.782
300.736
300.685
300.669
300.63
300.635
300.643
300.652
300.615
300.587
300.602
300.566
300.575
300.541
300.554
300.523
300.528
300.607
300.531
304.794
305.158
303.713
302.169
301.134
310.663
309.605
308.252
306.725
315.888
313.641
312.902
324.657
322.538
318.086
320.326
328.574
327.173
328.41
326.628
330.666
329.122
329.916
331.341
337.11
335.92
337.603
336.371
338.017
338.145
338.492
338.534
328.761
335.606
337.684
337.43
320.804
320.869