/*--------------------------------*- C++ -*----------------------------------*\
  =========                 |
  \\      /  F ield         | OpenFOAM: The Open Source CFD Toolbox
   \\    /   O peration     | Website:  https://openfoam.org
    \\  /    A nd           | Version:  dev
     \\/     M anipulation  |
\*---------------------------------------------------------------------------*/
FoamFile
{
    version     2.0;
    format      ascii;
    class       volVectorField;
    location    "2500";
    object      U;
}
// * * * * * * * * * * * * * * * * * * * * * * * * * * * * * * * * * * * * * //

dimensions      [0 1 -1 0 0 0 0];

internalField   nonuniform List<vector> 
9838
(
(0.00448849 0.00703117 -5.49981e-28)
(0.0106824 0.00632617 -1.69066e-27)
(0.00449967 0.0184001 0)
(0.0148261 0.00525849 -1.84868e-27)
(0.0118815 0.0186632 -5.04598e-29)
(0.00390226 0.0266877 -3.15355e-28)
(0.0181899 0.00431733 -9.10843e-28)
(0.0167241 0.0179901 0)
(0.011561 0.0276156 -9.04915e-28)
(0.00329072 0.0335412 -1.71827e-28)
(0.0208514 0.0035704 0)
(0.019974 0.0160978 0)
(0.0176117 0.0282421 -1.31682e-27)
(0.0103371 0.0344706 -7.02588e-28)
(0.0029104 0.0397248 0)
(0.0231798 0.00295869 0)
(0.0223418 0.013632 0)
(0.022067 0.0276854 -1.4579e-27)
(0.0169742 0.0358951 -7.15397e-29)
(0.00901583 0.0404269 0)
(0.00264459 0.0453818 -5.38089e-29)
(0.0254552 0.00250772 4.10179e-28)
(0.024364 0.0113167 0)
(0.0251205 0.0259382 0)
(0.0225723 0.0368227 -6.50198e-29)
(0.0153828 0.041847 -9.21355e-28)
(0.00809222 0.0458782 -6.65389e-28)
(0.00243529 0.0506347 -9.45509e-29)
(0.0277037 0.00220053 4.11226e-28)
(0.0262998 0.00948009 0)
(0.0271473 0.0233373 0)
(0.0268887 0.0366472 -5.72936e-29)
(0.0215393 0.0435541 -1.35412e-27)
(0.013769 0.047037 -7.03378e-28)
(0.0073997 0.0510289 -9.63739e-29)
(0.00225464 0.0555118 0)
(0.0298838 0.00199386 0)
(0.0283017 0.00821783 2.46205e-29)
(0.0286094 0.0203315 -8.1062e-28)
(0.0299189 0.0351951 0)
(0.0269019 0.0448234 -1.35683e-28)
(0.0196616 0.0487574 -8.25266e-29)
(0.012502 0.0519638 0)
(0.00681799 0.0558405 -9.86018e-29)
(0.00209405 0.0600649 0)
(0.0319818 0.00184356 0)
(0.0303182 0.00738447 -6.40699e-28)
(0.0300138 0.0174804 -8.00297e-28)
(0.0318757 0.0327239 8.69661e-28)
(0.031194 0.0450826 0)
(0.0254673 0.050722 -1.52407e-28)
(0.0178078 0.0534173 7.58947e-28)
(0.0114772 0.0566347 0)
(0.00630823 0.0603503 0)
(0.00194698 0.0643353 0)
(0.0340129 0.00172098 0)
(0.032319 0.00678841 -6.00163e-28)
(0.0315572 0.0152025 -4.00145e-30)
(0.0330956 0.0295508 9.10709e-28)
(0.0343353 0.0441104 0)
(0.0307249 0.0523551 0)
(0.0233131 0.055363 1.08615e-27)
(0.0162825 0.0578599 0)
(0.0105939 0.0610563 -2.69524e-28)
(0.00584579 0.0645848 -4.00445e-28)
(0.0018105 0.0683309 3.75958e-28)
(0.0359896 0.00162843 0)
(0.034272 0.00632939 0)
(0.0332238 0.0136052 1.50356e-29)
(0.034076 0.0261759 3.07969e-29)
(0.0363862 0.0419678 3.03084e-28)
(0.0350574 0.0531211 -1.05204e-27)
(0.0288768 0.0575715 0)
(0.021269 0.0595228 0)
(0.0149971 0.0621258 -5.10796e-28)
(0.00981033 0.0652268 0)
(0.00542591 0.0685492 -3.99313e-28)
(0.00168163 0.0720781 7.09245e-28)
(0.0379413 0.00156242 0)
(0.0361656 0.00598803 0)
(0.0349662 0.012484 2.51973e-29)
(0.0351542 0.0230864 -8.90897e-28)
(0.0376256 0.0390093 -8.14215e-28)
(0.0383437 0.0527127 -7.75679e-28)
(0.0340554 0.0595732 -4.28066e-28)
(0.0264794 0.0616642 0)
(0.0195439 0.0635525 0)
(0.0138716 0.0661819 1.92815e-28)
(0.00909856 0.0691449 0)
(0.00503881 0.0722731 -2.69047e-28)
(0.00155931 0.0755835 -7.73907e-30)
(0.0398473 0.00151543 0)
(0.0380607 0.00572823 5.01033e-29)
(0.0367542 0.0116295 0)
(0.0363926 0.020593 -8.76273e-28)
(0.0383869 0.0356077 -2.0169e-27)
(0.0405789 0.0510967 0)
(0.0384649 0.0608589 -2.59826e-28)
(0.0317971 0.0641335 7.58033e-28)
(0.0242456 0.0654197 -1.75911e-28)
(0.0180377 0.0674475 0)
(0.0128523 0.0700388 1.94037e-28)
(0.00843525 0.0728358 3.93655e-28)
(0.00467098 0.0757605 1.44417e-28)
(0.00144104 0.0788591 -3.47047e-28)
(0.0416925 0.00147087 0)
(0.0399465 0.00548778 0)
(0.038582 0.0109267 8.08787e-29)
(0.0378455 0.0187601 0)
(0.039058 0.0321547 -1.00112e-27)
(0.0419296 0.0485035 8.10368e-29)
(0.0419146 0.0610819 0)
(0.0368994 0.0665382 7.1014e-28)
(0.0291689 0.0677525 -3.08921e-28)
(0.0223152 0.0690967 -3.63828e-28)
(0.0166823 0.0711934 9.5585e-29)
(0.0118993 0.0736885 -3.89945e-28)
(0.00780452 0.0763044 3.90616e-28)
(0.00431502 0.0790224 1.85579e-33)
(0.00132583 0.0819117 0)
(0.0434903 0.0014296 7.2804e-29)
(0.041791 0.00522175 0)
(0.0404113 0.0103404 0)
(0.039471 0.0174193 5.64568e-29)
(0.0399494 0.0289677 0)
(0.0427289 0.0452767 2.15223e-27)
(0.0443621 0.0601136 -9.01534e-28)
(0.0413892 0.0683773 1.24281e-28)
(0.0342576 0.0704622 -7.78691e-28)
(0.0267575 0.0711625 0)
(0.0206088 0.0726683 -1.86362e-28)
(0.0154337 0.0747777 9.68062e-29)
(0.0109989 0.0771286 3.43007e-38)
(0.00720019 0.0795457 0)
(0.00396906 0.0820616 -5.02792e-28)
(0.00121259 0.0847537 0)
(0.0451922 0.00138357 0)
(0.043582 0.00492646 6.35932e-28)
(0.0422209 0.00988047 5.28783e-29)
(0.0411744 0.016372 0)
(0.0410802 0.0263157 2.20038e-29)
(0.0432735 0.0417311 2.14603e-27)
(0.045959 0.0580699 -1.14712e-27)
(0.0450002 0.0692701 1.19735e-27)
(0.0392445 0.0732365 -1.19134e-27)
(0.0314248 0.0736828 8.21046e-29)
(0.0246456 0.0745132 4.44866e-28)
(0.0190464 0.0761412 -9.49561e-29)
(0.0142612 0.0781582 1.9495e-28)
(0.0101423 0.0803461 2.29405e-28)
(0.00661928 0.0825701 4.10735e-28)
(0.00362819 0.084896 0)
(0.00110431 0.0873918 2.23788e-28)
(0.0468032 0.00132862 4.19432e-28)
(0.0452772 0.00465966 1.19824e-27)
(0.0439861 0.00948951 0)
(0.0429134 0.0154578 8.88957e-28)
(0.0424294 0.0242702 0)
(0.0438679 0.0382257 -1.91672e-29)
(0.046931 0.0552508 0)
(0.0477087 0.0690269 1.14902e-27)
(0.0437752 0.0756241 -1.27372e-27)
(0.0362561 0.0766093 5.67009e-28)
(0.0288433 0.0767758 -1.46494e-28)
(0.0227436 0.0778298 3.74077e-28)
(0.0175865 0.079435 -9.63583e-29)
(0.0131483 0.0813336 -7.7139e-29)
(0.00932001 0.0833588 0)
(0.00605359 0.0853914 3.74282e-28)
(0.0033038 0.0875116 4.35932e-29)
(0.000997225 0.0898252 0)
(0.0483402 0.00125681 4.97816e-28)
(0.0468816 0.00445734 5.56848e-28)
(0.0456718 0.00909146 1.27739e-28)
(0.0446138 0.0146396 6.85879e-28)
(0.0439475 0.0227312 6.2862e-29)
(0.0446923 0.035024 0)
(0.0475182 0.051973 8.15988e-43)
(0.0495935 0.0676862 0)
(0.0475774 0.0772253 2.32872e-27)
(0.0410733 0.0797102 9.05181e-28)
(0.0332313 0.0794854 6.62827e-28)
(0.0265491 0.0798648 -1.90685e-27)
(0.0209803 0.0810261 1.07327e-27)
(0.0162078 0.0825448 0)
(0.0120823 0.0843107 0)
(0.00852556 0.086167 0)
(0.00550539 0.0879795 -3.66046e-28)
(0.00299095 0.0899453 7.04076e-28)
(0.00088997 0.0920593 5.63455e-28)
(0.0497784 0.00117789 0)
(0.0484231 0.00430266 1.26538e-27)
(0.0472746 0.00865438 7.49205e-28)
(0.0462246 0.0139759 8.99989e-28)
(0.0454755 0.021578 -4.01953e-29)
(0.045691 0.0323496 1.45645e-29)
(0.0479702 0.0484976 1.15487e-27)
(0.050795 0.0654273 8.52465e-43)
(0.0505463 0.0778114 2.31712e-27)
(0.0455953 0.0826174 1.89896e-28)
(0.0377855 0.0826042 -1.16957e-35)
(0.0304928 0.0822964 8.27073e-28)
(0.0244609 0.0829263 -1.09636e-27)
(0.0193231 0.0840464 0)
(0.0148926 0.0854657 0)
(0.0110553 0.0870914 -3.97493e-28)
(0.00775306 0.0887498 3.83825e-28)
(0.00497597 0.0904009 -5.47517e-28)
(0.00267171 0.0921753 6.3561e-28)
(0.000784711 0.0941034 -2.18149e-33)
(0.0511133 0.00110773 3.96499e-28)
(0.0498646 0.00414686 8.31442e-29)
(0.0487827 0.00821175 8.20179e-28)
(0.0477732 0.0134592 9.15963e-28)
(0.046994 0.0206094 -4.80555e-29)
(0.0468021 0.0302597 2.56207e-29)
(0.0484734 0.0450986 1.20127e-27)
(0.0515344 0.0625684 -5.56271e-29)
(0.0527302 0.0773076 -1.27304e-28)
(0.0495521 0.0849267 -1.69192e-28)
(0.0423982 0.085978 9.77833e-28)
(0.0345982 0.0851698 -1.32841e-27)
(0.0280371 0.0851514 1.44328e-27)
(0.0225101 0.0858322 -1.48847e-27)
(0.0177425 0.0869086 0)
(0.0136197 0.0882081 0)
(0.0100516 0.0896704 -3.99099e-28)
(0.00699078 0.091169 3.7982e-28)
(0.00444533 0.0926347 -7.61421e-29)
(0.00235133 0.0942176 2.75326e-28)
(0.00067643 0.0959547 -4.3113e-28)
(0.0523479 0.00104238 4.80095e-28)
(0.0511954 0.00397134 -1.09046e-27)
(0.0501926 0.00783258 7.73675e-29)
(0.049257 0.0129739 -6.75735e-29)
(0.0484988 0.0196627 9.61637e-28)
(0.0480891 0.0286513 9.05866e-28)
(0.0491182 0.0419536 0)
(0.0519861 0.0593911 0)
(0.0542155 0.0758337 6.90372e-29)
(0.0527902 0.0863797 1.66295e-42)
(0.0468543 0.0893209 8.97181e-28)
(0.0388631 0.0884686 0)
(0.031717 0.0877348 -6.923e-28)
(0.0257649 0.0879301 4.89692e-29)
(0.0206533 0.088633 -7.49867e-28)
(0.0162188 0.0895994 0)
(0.0123812 0.0907654 4.09315e-28)
(0.00905728 0.0920884 -8.65835e-29)
(0.0062405 0.0934108 -3.5275e-28)
(0.00390734 0.0946671 -2.79726e-28)
(0.0020295 0.0960706 0)
(0.000565514 0.097603 4.28215e-28)
(0.0534734 0.000979774 0)
(0.0524271 0.00378472 1.75921e-28)
(0.0515268 0.00750385 6.55611e-28)
(0.0506734 0.0124122 1.42802e-28)
(0.0499602 0.0187287 7.86736e-28)
(0.0494911 0.0274012 1.13605e-27)
(0.0499526 0.0392279 -3.78916e-29)
(0.0523303 0.056114 0)
(0.0551266 0.0736085 0)
(0.0552517 0.0868466 1.35691e-27)
(0.050892 0.092321 1.33351e-27)
(0.0432175 0.0921127 6.91358e-29)
(0.0355171 0.0907313 0)
(0.0290821 0.0903479 -3.61512e-28)
(0.023619 0.0906306 -2.9499e-28)
(0.0188724 0.0912548 0)
(0.0147487 0.0921157 -6.38927e-28)
(0.0111679 0.0931624 7.79117e-28)
(0.0080835 0.0943163 -7.84363e-28)
(0.00549452 0.0954522 0)
(0.0033711 0.0965125 1.35204e-32)
(0.00170644 0.0977192 6.20815e-28)
(0.000454251 0.0990502 0)
(0.0544892 0.000918558 -3.60394e-28)
(0.0535546 0.00357062 8.95346e-29)
(0.0527759 0.00716813 8.12687e-28)
(0.0520001 0.0118107 -1.49977e-28)
(0.0513441 0.017913 1.29637e-28)
(0.0509149 0.0263807 1.24766e-27)
(0.0509511 0.0369796 1.12945e-27)
(0.0527338 0.0528973 0)
(0.0556702 0.0709342 0)
(0.0569935 0.0863375 1.46284e-27)
(0.0543178 0.0946523 1.13303e-27)
(0.0474943 0.0958871 2.12975e-27)
(0.03946 0.0941793 7.53953e-29)
(0.0324837 0.0930964 -5.48692e-28)
(0.0266266 0.0929021 -1.14392e-27)
(0.0215818 0.0931661 8.09587e-28)
(0.0171621 0.0937251 2.61992e-28)
(0.0133135 0.0944802 -6.57508e-28)
(0.00997494 0.0953619 0)
(0.00712716 0.0963645 0)
(0.00474275 0.0973087 0)
(0.0028272 0.0981605 1.35507e-27)
(0.00137221 0.0991771 0)
(0.000330401 0.100276 0)
(0.0553894 0.000857102 -3.42963e-28)
(0.0545704 0.00333241 9.05209e-29)
(0.0539273 0.00681893 2.5205e-28)
(0.0532384 0.0112507 -7.0293e-28)
(0.0526308 0.0172167 -1.37611e-28)
(0.0522588 0.0254083 8.10996e-28)
(0.0520736 0.0352283 -1.17316e-27)
(0.0532936 0.049912 -4.62078e-29)
(0.0560123 0.0680274 0)
(0.0581334 0.084989 0)
(0.0570269 0.096145 1.35558e-28)
(0.0515025 0.0994871 3.04449e-27)
(0.0435101 0.0980102 8.57894e-28)
(0.0359896 0.0962307 1.58987e-28)
(0.0297013 0.0954677 3.62165e-28)
(0.0243193 0.0953325 -4.7107e-28)
(0.0196235 0.0955753 3.25399e-29)
(0.0155038 0.0960488 -1.53858e-27)
(0.0119038 0.0966494 0)
(0.00880922 0.0973916 4.91072e-28)
(0.00617017 0.0982415 4.11052e-28)
(0.00398129 0.0989813 1.53614e-27)
(0.00226337 0.0996216 0)
(0.00103615 0.10045 4.26593e-28)
(0.000189482 0.101271 -3.74781e-28)
(0.0561468 0.000798927 -2.30017e-28)
(0.0554551 0.00312241 -5.01841e-28)
(0.0549426 0.00647856 1.70098e-28)
(0.0543674 0.0107613 -6.25577e-28)
(0.0538247 0.0165512 -1.45218e-28)
(0.0534726 0.024451 2.48338e-28)
(0.0532701 0.0338988 -1.36141e-27)
(0.0539648 0.0473058 -1.88418e-28)
(0.0562836 0.0650963 2.56337e-30)
(0.0588182 0.0830154 5.56014e-29)
(0.059022 0.0967088 0)
(0.0550327 0.10265 1.21941e-27)
(0.0475452 0.102097 9.71138e-28)
(0.0396101 0.0997868 7.052e-28)
(0.0328298 0.0983753 3.39359e-28)
(0.0270951 0.0977528 7.46734e-28)
(0.0221178 0.0976579 8.41427e-28)
(0.0177326 0.0978446 -2.40181e-28)
(0.013884 0.0981874 -1.82155e-27)
(0.0105295 0.0986449 7.57053e-28)
(0.00765209 0.0992782 0)
(0.00519973 0.0999425 8.36896e-28)
(0.00319672 0.100473 1.44166e-27)
(0.00167151 0.100877 1.21116e-27)
(0.000655243 0.101529 -3.65473e-28)
(5.17782e-05 0.102093 2.15436e-28)
(0.056753 0.000740405 -2.08619e-28)
(0.0562175 0.00293966 -7.96266e-28)
(0.055803 0.00614453 -6.37568e-28)
(0.0553806 0.0103062 8.19117e-29)
(0.0549062 0.0158886 0)
(0.0545967 0.0235746 -3.97306e-28)
(0.0544522 0.0328047 1.17893e-27)
(0.0547252 0.0451525 0)
(0.0565701 0.0622512 -3.77717e-29)
(0.059212 0.0806853 2.03556e-29)
(0.0603959 0.0964076 5.93616e-29)
(0.0579494 0.105119 0)
(0.0514109 0.106217 1.08963e-27)
(0.0433154 0.103771 1.07172e-27)
(0.0360295 0.101638 0)
(0.0299047 0.100471 5.48063e-28)
(0.0246273 0.0999703 1.11447e-28)
(0.0199959 0.099856 6.48744e-28)
(0.0159008 0.0999494 9.74711e-28)
(0.012298 0.100154 2.19931e-27)
(0.00917133 0.100527 -3.06155e-28)
(0.00648431 0.10099 0)
(0.00421258 0.101465 -4.23536e-28)
(0.00237991 0.101766 2.00702e-27)
(0.00106146 0.101964 -1.05173e-27)
(0.000219511 0.102329 -1.16653e-27)
(-0.000114126 0.102554 1.02409e-28)
(0.0572083 0.000679346 0)
(0.0568332 0.00274436 -3.82908e-28)
(0.0565741 0.00577232 -3.68483e-28)
(0.0562678 0.00982271 -9.41658e-28)
(0.0558824 0.015265 -9.29377e-28)
(0.0556425 0.0227663 0)
(0.0555359 0.0318029 -1.40992e-27)
(0.0556125 0.0434606 -1.71374e-28)
(0.0569273 0.0595949 0)
(0.0594385 0.0782123 0)
(0.0612687 0.095375 0)
(0.0602033 0.106782 1.39932e-27)
(0.054941 0.110105 -1.20162e-27)
(0.0470429 0.108069 9.29415e-28)
(0.0393153 0.105303 0)
(0.0327508 0.103492 4.59161e-28)
(0.0271556 0.102555 3.91628e-28)
(0.0222674 0.102083 9.14425e-28)
(0.0179358 0.101912 0)
(0.0141114 0.101889 1.0073e-27)
(0.0107385 0.102018 3.8451e-27)
(0.0078139 0.102233 -1.0212e-27)
(0.00530785 0.102527 0)
(0.00319753 0.102816 -2.13816e-27)
(0.0015203 0.102869 -9.80444e-28)
(0.000406509 0.102824 1.16987e-28)
(-0.000249135 0.10288 -1.24689e-27)
(-0.000296151 0.102774 4.93699e-27)
(0.0575247 0.000617474 5.11496e-28)
(0.0572984 0.00252765 7.29743e-28)
(0.0571975 0.00536754 0)
(0.0570145 0.00936946 -6.0476e-28)
(0.0567699 0.0147019 -1.08998e-27)
(0.0565803 0.021986 -2.89674e-28)
(0.0564779 0.0309458 -1.17749e-27)
(0.0565077 0.0421698 0)
(0.0573817 0.0572311 -1.26191e-28)
(0.0595867 0.0757222 2.96977e-27)
(0.0617672 0.0938312 3.08512e-27)
(0.0618319 0.107597 4.41668e-27)
(0.0579932 0.113506 -5.19238e-27)
(0.0506815 0.112536 0)
(0.0426638 0.109362 7.5818e-28)
(0.0356592 0.106876 8.3064e-28)
(0.0296942 0.10541 3.53786e-28)
(0.0245423 0.104549 4.8945e-28)
(0.0199855 0.10408 4.72614e-28)
(0.0159298 0.103811 0)
(0.0123527 0.103727 2.16816e-27)
(0.00919477 0.103721 -3.39546e-32)
(0.00645337 0.103785 -1.08307e-27)
(0.00409828 0.103931 -1.22926e-27)
(0.00211985 0.103999 8.0768e-28)
(0.000608097 0.103792 -1.20944e-27)
(-0.000351837 0.103472 1.09035e-27)
(-0.000839144 0.103135 4.61051e-27)
(-0.000507838 0.102644 3.52179e-27)
(0.0576974 0.000560415 1.01929e-27)
(0.0576218 0.00229551 1.71394e-27)
(0.0576461 0.00501117 -1.65925e-28)
(0.0576293 0.00898385 6.61336e-28)
(0.0574985 0.0141457 0)
(0.0573999 0.021235 -2.12776e-27)
(0.0573498 0.0302526 -2.72722e-28)
(0.0573268 0.0410835 -2.73266e-27)
(0.057918 0.0552392 -1.66221e-28)
(0.0597292 0.0733076 3.09129e-27)
(0.0620209 0.091984 3.12566e-27)
(0.0629096 0.10765 3.08567e-27)
(0.0604777 0.116234 -1.43415e-27)
(0.0541066 0.116969 9.54932e-28)
(0.046053 0.113795 1.71624e-27)
(0.0385955 0.110629 0)
(0.032271 0.108567 3.37625e-28)
(0.0268082 0.107269 -1.42684e-28)
(0.0220349 0.106471 0)
(0.0177608 0.105925 -1.64489e-28)
(0.0139765 0.105606 -1.11153e-27)
(0.0106213 0.105423 4.39126e-27)
(0.00765617 0.105281 -2.37738e-27)
(0.00506921 0.105222 5.85874e-28)
(0.00283646 0.105177 -3.88396e-28)
(0.000960099 0.105014 0)
(-0.00040344 0.104557 3.04043e-28)
(-0.00124713 0.103843 0)
(-0.00150204 0.103057 2.93156e-27)
(-0.000759765 0.102097 3.07055e-27)
(0.0576999 0.0005112 4.25919e-28)
(0.0577724 0.00208876 1.22887e-27)
(0.0579577 0.00471842 0)
(0.058069 0.0085683 -3.04614e-27)
(0.0580647 0.0136136 1.28528e-27)
(0.0580665 0.0205733 2.159e-27)
(0.0581217 0.029644 0)
(0.0580574 0.0401369 -3.23643e-27)
(0.0584946 0.0536268 0)
(0.0598996 0.0710464 -1.26214e-28)
(0.0621194 0.0900222 8.87146e-29)
(0.0635634 0.10707 0)
(0.062349 0.118209 1.48253e-27)
(0.0571793 0.121147 1.17733e-27)
(0.0493876 0.1185 7.12038e-28)
(0.0415798 0.114779 -4.41041e-28)
(0.0348546 0.112047 -1.49896e-28)
(0.0290812 0.110268 2.84407e-28)
(0.024057 0.109089 -4.36535e-28)
(0.0195946 0.108253 -1.29246e-28)
(0.0156068 0.107655 3.57308e-33)
(0.012065 0.107281 -1.65298e-27)
(0.00890831 0.106975 2.89899e-27)
(0.00611451 0.106737 5.965e-28)
(0.00364732 0.106514 -7.36704e-28)
(0.00149368 0.106294 0)
(-0.000295943 0.105893 2.0572e-27)
(-0.00156162 0.105102 0)
(-0.00231462 0.103923 3.21867e-27)
(-0.00229065 0.102606 -1.35541e-26)
(-0.00107573 0.101028 0)
(0.0575472 0.000460819 0)
(0.0577677 0.00191735 -1.55581e-27)
(0.0580909 0.00442166 3.18753e-28)
(0.0583256 0.00811697 -2.97732e-27)
(0.0584992 0.0131717 6.44011e-28)
(0.0585585 0.020031 1.00086e-26)
(0.0586923 0.0290962 4.88763e-27)
(0.0586944 0.0394185 0)
(0.0589731 0.0523744 -6.67676e-27)
(0.0600996 0.06905 0)
(0.062126 0.0880534 0)
(0.0638898 0.106044 2.3934e-28)
(0.063662 0.119442 0)
(0.0597885 0.12486 5.76055e-29)
(0.052589 0.123334 2.16168e-27)
(0.0445927 0.1193 1.53537e-27)
(0.0374533 0.115865 7.52016e-30)
(0.0313645 0.113559 -1.30267e-27)
(0.026068 0.111927 -6.43739e-28)
(0.0214088 0.110794 0)
(0.017231 0.109904 -5.56327e-28)
(0.0135209 0.109286 1.10531e-27)
(0.0101961 0.108799 1.59499e-27)
(0.00721612 0.108433 5.4669e-29)
(0.00455337 0.108069 0)
(0.00216553 0.107707 0)
(4.52612e-05 0.107291 -2.8446e-33)
(-0.00169189 0.106628 1.70934e-27)
(-0.00292689 0.105398 0)
(-0.00360347 0.103656 -1.50971e-26)
(-0.00324615 0.101669 3.73557e-27)
(-0.00146562 0.0993157 1.36242e-26)
(0.057254 0.000409619 1.65028e-28)
(0.0576249 0.00174347 -3.9391e-27)
(0.0580599 0.00412577 0)
(0.0584342 0.00772257 0)
(0.0587335 0.0127997 0)
(0.0589007 0.0195688 5.05903e-27)
(0.0590987 0.0286089 -6.10517e-28)
(0.0591934 0.0389213 0)
(0.0593239 0.0514277 -6.28049e-27)
(0.0602737 0.0673596 -1.34162e-26)
(0.0620647 0.0861663 0)
(0.063985 0.104749 0)
(0.0644909 0.119994 6.87228e-27)
(0.0618803 0.127957 0)
(0.0555588 0.128112 2.4145e-27)
(0.0475903 0.124119 1.93093e-27)
(0.0400905 0.12005 0)
(0.0336488 0.117121 -7.02252e-28)
(0.0280784 0.115032 3.60259e-28)
(0.0232002 0.113533 -9.05672e-28)
(0.0188446 0.112364 0)
(0.0149576 0.111458 -1.23782e-27)
(0.0114871 0.110759 1.3838e-27)
(0.00836051 0.110242 2.99704e-27)
(0.00552983 0.109794 -9.40627e-28)
(0.00295773 0.109311 0)
(0.000584502 0.108829 -5.87232e-28)
(-0.00154052 0.108208 0)
(-0.00329257 0.107173 4.64611e-28)
(-0.00458353 0.105417 1.05403e-27)
(-0.00516778 0.102995 0)
(-0.00441453 0.100099 1.71592e-26)
(-0.00191945 0.0968111 1.44019e-26)
(0.0568133 0.000364846 -2.07947e-27)
(0.0573225 0.00157213 -1.41347e-27)
(0.0578884 0.00387704 -4.5444e-27)
(0.0583835 0.00737034 0)
(0.0587988 0.0124649 0)
(0.0590904 0.0191866 0)
(0.059331 0.0282253 -5.01925e-27)
(0.0595098 0.0385876 4.39421e-27)
(0.0595822 0.0507703 1.12525e-27)
(0.0603479 0.0659727 -1.36814e-26)
(0.061929 0.0844268 0)
(0.0638781 0.103337 0)
(0.0649554 0.11996 6.04698e-27)
(0.0634354 0.130378 0)
(0.0582067 0.132616 0)
(0.0505185 0.129163 8.63266e-29)
(0.0427409 0.124601 2.53007e-28)
(0.0359438 0.121 0)
(0.0300701 0.118402 1.88767e-28)
(0.0249689 0.116491 0)
(0.020429 0.11502 9.89031e-28)
(0.0163724 0.113825 0)
(0.0127489 0.112891 1.39817e-43)
(0.00949618 0.112168 7.79775e-28)
(0.00654614 0.1116 1.28066e-27)
(0.00383434 0.111065 -4.33426e-28)
(0.00129245 0.110548 -7.00622e-27)
(-0.00111867 0.109891 0)
(-0.00331964 0.10902 4.70846e-28)
(-0.00520552 0.107554 1.12716e-27)
(-0.00660813 0.10515 -4.98871e-27)
(-0.0071206 0.101815 0)
(-0.00599988 0.0977684 4.66168e-26)
(-0.00122067 0.094112 3.12187e-27)
(-0.0034511 0.0942829 1.92016e-27)
(0.0562437 0.000327858 0)
(0.056878 0.0014214 -3.50208e-27)
(0.0575658 0.0036723 -2.14179e-27)
(0.0581458 0.00703302 2.60347e-27)
(0.0587163 0.0121937 7.43443e-27)
(0.0590979 0.0189131 1.24806e-27)
(0.0593594 0.0279943 -1.15523e-26)
(0.0596008 0.0383815 -5.73332e-27)
(0.05969 0.0504023 6.3962e-27)
(0.060281 0.0648945 6.95637e-27)
(0.0617123 0.0828642 -7.20871e-27)
(0.0636401 0.101936 7.30363e-27)
(0.0650569 0.119575 1.21679e-26)
(0.0644969 0.132103 -8.99825e-28)
(0.0604324 0.136711 -1.28022e-27)
(0.053309 0.134295 -8.90158e-27)
(0.0453965 0.129488 2.25452e-28)
(0.0382395 0.125197 0)
(0.0320727 0.122072 0)
(0.0266987 0.119673 0)
(0.021979 0.117888 -2.12403e-28)
(0.0177508 0.116392 1.01483e-27)
(0.0139812 0.115203 -9.98425e-29)
(0.0105985 0.114233 7.8636e-28)
(0.00755797 0.113482 -4.73305e-28)
(0.00475698 0.112879 0)
(0.00211145 0.112374 0)
(-0.000464789 0.111728 -1.48353e-26)
(-0.00299846 0.110954 -4.65307e-28)
(-0.00541159 0.109787 -2.37684e-27)
(-0.00757051 0.10774 -5.43757e-27)
(-0.00902612 0.104461 -1.78497e-28)
(-0.00931552 0.0999234 4.8569e-26)
(-0.00614252 0.0947782 -5.13872e-27)
(-0.00835117 0.0958363 0)
(-0.00136834 0.0920035 -3.10509e-27)
(-0.00397995 0.092268 -1.96065e-27)
(0.055527 0.000297646 1.87928e-27)
(0.0562895 0.00130554 6.34536e-28)
(0.0570972 0.00350726 2.11974e-27)
(0.0577758 0.00673969 2.86395e-27)
(0.0584405 0.0120042 7.73723e-27)
(0.0589111 0.0187701 0)
(0.0592325 0.0279217 -6.59028e-27)
(0.0595233 0.0382938 -1.54987e-26)
(0.0596274 0.0502963 3.79064e-27)
(0.0600748 0.0641122 -6.99144e-27)
(0.0613838 0.081486 -1.58991e-26)
(0.0632799 0.100563 1.08754e-30)
(0.064923 0.118799 1.47676e-26)
(0.0651107 0.13323 -9.30783e-27)
(0.0622166 0.14021 0)
(0.0558739 0.139392 -1.09833e-26)
(0.0480211 0.134639 1.62729e-28)
(0.0405551 0.129759 0)
(0.0340697 0.126016 -2.15697e-27)
(0.028411 0.123141 -1.63254e-28)
(0.0234843 0.120974 -2.15394e-28)
(0.0190835 0.119164 -5.8649e-28)
(0.0151701 0.117684 -2.2559e-28)
(0.0116681 0.116451 0)
(0.00853725 0.115469 -3.73199e-31)
(0.00568438 0.114728 -1.00935e-27)
(0.00299212 0.114197 -3.41754e-28)
(0.000344417 0.113642 0)
(-0.00235743 0.112994 -8.61694e-27)
(-0.00514059 0.112079 -7.97157e-27)
(-0.00797536 0.110466 -2.27109e-27)
(-0.0104559 0.107643 0)
(-0.010884 0.102248 5.20582e-27)
(-0.0119901 0.104172 0)
(-0.0104614 0.0971314 -2.46675e-27)
(-0.012144 0.102092 0)
(-0.0122747 0.0987585 0)
(-0.00690962 0.0928744 -1.11666e-27)
(-0.0094304 0.0940565 -1.61346e-27)
(-0.00146199 0.0896235 -1.5185e-27)
(-0.00454356 0.0899254 1.96108e-27)
(0.0546768 0.000267013 -1.68899e-27)
(0.0555595 0.00120833 6.02123e-28)
(0.0564938 0.00333291 1.02993e-27)
(0.057281 0.00646613 -2.81856e-31)
(0.0580309 0.0118542 3.73714e-27)
(0.0585646 0.0187221 6.05657e-28)
(0.0589425 0.0279555 -9.28309e-27)
(0.0592735 0.0382792 -6.21344e-27)
(0.0595009 0.0503777 -2.74393e-27)
(0.0597623 0.0635972 -2.21699e-26)
(0.0609546 0.0803042 -7.49838e-27)
(0.0627881 0.0992513 7.67859e-27)
(0.0645972 0.117945 7.66966e-27)
(0.0653343 0.133796 -7.09164e-27)
(0.0635053 0.143106 0)
(0.0581605 0.144218 -1.82821e-27)
(0.050564 0.139987 0)
(0.0428716 0.134645 5.23754e-27)
(0.0360498 0.130272 -3.29242e-30)
(0.0301311 0.126905 8.63093e-28)
(0.024931 0.124293 0)
(0.0203772 0.122144 -2.36465e-27)
(0.0162966 0.120346 -6.67266e-28)
(0.0126879 0.118839 -6.56371e-28)
(0.00945769 0.117599 2.14868e-28)
(0.00656504 0.116648 -1.91799e-29)
(0.00387844 0.115991 -2.33695e-27)
(0.00125005 0.115506 -2.28033e-28)
(-0.00148298 0.115053 0)
(-0.00444533 0.114418 -1.12609e-27)
(-0.00772809 0.113268 -4.14298e-27)
(-0.0111417 0.111061 5.01426e-28)
(-0.0128105 0.106046 6.92563e-27)
(-0.0136094 0.108195 7.10748e-27)
(-0.0135553 0.103842 0)
(-0.0119025 0.0955411 3.05803e-27)
(-0.0141013 0.100703 0)
(-0.0140549 0.0972861 -3.29022e-27)
(-0.00775261 0.0906254 1.45657e-26)
(-0.0107354 0.0919542 7.88602e-28)
(-0.00162836 0.0868977 2.88606e-27)
(-0.00514032 0.0872086 3.86645e-27)
(0.0536944 0.00023033 -1.49293e-27)
(0.0547293 0.0011112 -1.94407e-27)
(0.0557854 0.00311965 -8.11082e-28)
(0.0566453 0.00626128 -2.00484e-27)
(0.0574828 0.0117645 1.56764e-27)
(0.0580459 0.0188054 5.66666e-27)
(0.0584794 0.0280769 -1.07327e-26)
(0.0588165 0.0383985 -1.04921e-26)
(0.0591748 0.0505634 1.61501e-26)
(0.0594105 0.0633213 0)
(0.0604261 0.0793482 -2.10204e-26)
(0.062184 0.0980147 5.72524e-27)
(0.0641366 0.116971 4.86045e-27)
(0.0652218 0.133808 0)
(0.0643896 0.145345 0)
(0.0600515 0.148663 6.01826e-27)
(0.0529864 0.145382 -8.00639e-28)
(0.0451805 0.139833 3.05316e-27)
(0.0380536 0.134845 5.26666e-28)
(0.0318261 0.13095 -1.06305e-27)
(0.0263876 0.127858 2.0935e-27)
(0.0216009 0.125348 2.48332e-27)
(0.0173693 0.123221 -2.94291e-27)
(0.0136208 0.121402 -9.59344e-28)
(0.0102956 0.119888 3.43189e-27)
(0.00735485 0.118677 2.60955e-28)
(0.00469538 0.117794 2.49339e-27)
(0.00216546 0.117251 -2.86076e-27)
(-0.000460919 0.116952 6.09813e-28)
(-0.00339316 0.116661 1.01227e-27)
(-0.00685008 0.116031 -7.00987e-27)
(-0.0109009 0.114577 2.76019e-26)
(-0.0138715 0.110185 -1.5889e-27)
(-0.0142283 0.11245 -2.02417e-27)
(-0.0147544 0.105816 0)
(-0.0156044 0.107992 1.92837e-27)
(-0.0156859 0.102815 1.89264e-27)
(-0.0135161 0.0936014 3.64554e-27)
(-0.0161054 0.0993442 -3.67803e-27)
(-0.0160659 0.0955195 0)
(-0.00875805 0.088006 1.33762e-26)
(-0.0121622 0.0894935 6.86394e-27)
(-0.0018212 0.0837947 0)
(-0.0057903 0.0840939 -4.79994e-27)
(0.0525703 0.000188433 0)
(0.0537577 0.0010135 -1.74319e-27)
(0.054913 0.00293056 1.65408e-27)
(0.0558876 0.00623653 -3.28953e-27)
(0.0567251 0.0117851 -2.08335e-27)
(0.0573569 0.0190782 4.54944e-27)
(0.0578147 0.0282764 1.28193e-27)
(0.0582411 0.0386249 0)
(0.058681 0.0507461 6.71176e-27)
(0.0589761 0.0632616 8.61331e-27)
(0.0598363 0.0786008 3.14734e-27)
(0.0614919 0.0968647 -6.52304e-30)
(0.063508 0.115934 2.27336e-26)
(0.0649763 0.133629 2.07121e-26)
(0.0648064 0.146905 -2.97207e-26)
(0.0616121 0.152593 6.51379e-27)
(0.0551894 0.150721 0)
(0.0474519 0.145248 -6.65277e-27)
(0.0400557 0.139711 -4.08183e-27)
(0.0335452 0.135265 1.00292e-27)
(0.0278293 0.131701 6.56719e-28)
(0.0228009 0.128798 2.536e-27)
(0.0183741 0.126336 0)
(0.0144689 0.124185 -4.88573e-27)
(0.0110337 0.12237 -5.12327e-27)
(0.0080178 0.120837 3.99461e-27)
(0.00538995 0.119675 -2.60067e-27)
(0.00297248 0.11893 2.9235e-27)
(0.000558267 0.118633 7.70742e-28)
(-0.00212231 0.118611 2.44796e-27)
(-0.00543395 0.11856 0)
(-0.00976575 0.117962 1.87617e-26)
(-0.0138549 0.114487 4.18976e-31)
(-0.0137059 0.116754 1.52075e-27)
(-0.0161493 0.110309 3.68698e-27)
(-0.0163693 0.11272 1.12655e-27)
(-0.0170188 0.105105 2.45196e-28)
(-0.0180434 0.107591 -2.19295e-28)
(-0.01796 0.101686 0)
(-0.0153315 0.091307 1.58362e-27)
(-0.0184241 0.0977852 0)
(-0.0182679 0.0934175 4.06366e-27)
(-0.0098676 0.0850015 0)
(-0.0137216 0.0866544 4.28238e-27)
(-0.00203984 0.0802842 2.08524e-27)
(-0.00650509 0.0805621 -5.28534e-27)
(0.0513367 0.000152464 1.11543e-27)
(0.0526295 0.00093192 0)
(0.053881 0.00283556 0)
(0.0549485 0.00634341 1.72922e-27)
(0.055792 0.0118714 -4.0116e-27)
(0.0565444 0.0194395 2.26128e-27)
(0.0569913 0.0285401 -1.28968e-27)
(0.0575128 0.0389215 0)
(0.0580536 0.0509176 -6.78014e-27)
(0.0584371 0.063383 6.73149e-27)
(0.0591871 0.0780243 9.55426e-27)
(0.060746 0.0957799 1.9712e-26)
(0.0627464 0.11489 1.64748e-26)
(0.0645092 0.133231 3.26457e-26)
(0.0649305 0.148028 -3.10813e-26)
(0.0627284 0.155929 0)
(0.0571761 0.155841 -6.1635e-27)
(0.0496438 0.150831 8.41509e-27)
(0.0420526 0.144873 5.30055e-27)
(0.0352451 0.139854 -1.13501e-27)
(0.0292717 0.135801 8.89146e-28)
(0.0239906 0.132512 0)
(0.0193283 0.129684 2.7802e-27)
(0.0152391 0.127209 -5.65089e-27)
(0.0116685 0.125054 6.53082e-27)
(0.00855279 0.123177 3.31554e-27)
(0.00590467 0.121646 0)
(0.0036119 0.120608 -4.53156e-27)
(0.00146031 0.120136 3.75197e-27)
(-0.000865728 0.12019 1.88861e-31)
(-0.00374604 0.120621 3.89429e-27)
(-0.00783636 0.120949 2.70638e-27)
(-0.0126984 0.1187 -2.18129e-27)
(-0.0120594 0.120789 0)
(-0.0162107 0.115175 1.39371e-27)
(-0.0157832 0.117622 7.59567e-27)
(-0.0187108 0.110241 -4.71607e-31)
(-0.0189932 0.113001 -1.25416e-27)
(-0.0195259 0.104287 3.3827e-30)
(-0.020759 0.107121 -6.83214e-28)
(-0.0205531 0.100393 0)
(-0.0173238 0.0886345 4.3305e-32)
(-0.0209907 0.09593 0)
(-0.0206863 0.0909513 8.58654e-27)
(-0.0110786 0.0815817 0)
(-0.0154202 0.0833986 5.61018e-27)
(-0.00227925 0.0763296 -1.07558e-31)
(-0.00727554 0.0765762 0)
(0.0499789 0.000144677 1.85664e-29)
(0.051373 0.000891443 1.09699e-27)
(0.052719 0.00280025 -1.31368e-27)
(0.0538792 0.00646741 2.98935e-27)
(0.0547412 0.0120298 0)
(0.0555707 0.0198089 1.15004e-30)
(0.0560972 0.0289048 2.55978e-27)
(0.0566315 0.0392836 4.77193e-27)
(0.0572653 0.051134 -7.96972e-28)
(0.0577964 0.0636115 0)
(0.0584646 0.0775853 -8.39307e-27)
(0.059959 0.0947733 0)
(0.0619187 0.113827 -6.47095e-27)
(0.0638468 0.132579 -2.09904e-27)
(0.0646947 0.148625 4.41481e-27)
(0.0634459 0.158682 9.48098e-30)
(0.0588629 0.160619 -7.55287e-27)
(0.0517555 0.156468 3.88491e-27)
(0.0440331 0.150314 2.31235e-26)
(0.0369494 0.144732 -1.68958e-27)
(0.030689 0.140176 5.03684e-28)
(0.0251693 0.136457 0)
(0.0202731 0.13328 -2.05557e-27)
(0.0159526 0.130469 6.42507e-27)
(0.0122081 0.127974 1.50508e-26)
(0.00897236 0.125744 1.27144e-26)
(0.00622713 0.123812 0)
(0.00399289 0.122362 6.77898e-27)
(0.00209839 0.121545 -1.24411e-27)
(0.000240352 0.121451 -1.20998e-27)
(-0.00204707 0.122107 -8.99118e-27)
(-0.0054934 0.123209 2.89887e-26)
(-0.0105236 0.122456 9.17071e-28)
(-0.00946366 0.124143 -3.68035e-29)
(-0.0149195 0.119993 5.03092e-27)
(-0.0138733 0.122247 0)
(-0.0188745 0.115829 -2.60893e-27)
(-0.0183542 0.118655 3.76877e-27)
(-0.0215895 0.110147 -1.303e-27)
(-0.0219792 0.113307 -1.39124e-27)
(-0.0223873 0.103321 3.97316e-27)
(-0.0238595 0.106542 0)
(-0.0234496 0.098839 0)
(-0.0194955 0.0855422 -8.28457e-28)
(-0.0238352 0.0937318 -2.16613e-27)
(-0.0233446 0.0880712 6.47683e-27)
(-0.0123805 0.0777061 -8.56144e-27)
(-0.0172444 0.0796806 1.50372e-27)
(-0.00253907 0.0719007 -2.5117e-27)
(-0.00810202 0.0721055 -1.78088e-28)
(0.0484964 0.000130597 7.47263e-28)
(0.0499957 0.000885594 2.42121e-28)
(0.051407 0.00280539 -2.11718e-27)
(0.0526875 0.0065953 1.39282e-30)
(0.0536058 0.0123401 -1.83007e-27)
(0.0544358 0.0202044 -4.6171e-27)
(0.0550808 0.0294175 2.52339e-27)
(0.0556267 0.0397075 7.76364e-27)
(0.0563189 0.051385 0)
(0.0570213 0.0638597 -4.47686e-28)
(0.0576856 0.0772951 0)
(0.0591047 0.0938744 0)
(0.061056 0.112748 -8.56962e-27)