/*--------------------------------*- C++ -*----------------------------------*\
  =========                 |
  \\      /  F ield         | OpenFOAM: The Open Source CFD Toolbox
   \\    /   O peration     | Website:  https://openfoam.org
    \\  /    A nd           | Version:  dev
     \\/     M anipulation  |
\*---------------------------------------------------------------------------*/
FoamFile
{
    version     2.0;
    format      ascii;
    class       volScalarField;
    location    "2500";
    object      a;
}
// * * * * * * * * * * * * * * * * * * * * * * * * * * * * * * * * * * * * * //

dimensions      [0 -1 0 0 0 0 0];

internalField   nonuniform List<scalar> 
9851
(
0.100011
0.100011
0.100011
0.100011
0.100011
0.100011
0.100011
0.100011
0.100011
0.100011
0.10001
0.100011
0.100011
0.100011
0.100011
0.10001
0.10001
0.100011
0.100011
0.100011
0.100011
0.10001
0.10001
0.10001
0.100011
0.100011
0.100011
0.100011
0.10001
0.10001
0.10001
0.10001
0.100011
0.100011
0.100011
0.100011
0.100009
0.10001
0.10001
0.10001
0.10001
0.100011
0.100011
0.100011
0.100011
0.100009
0.100009
0.10001
0.10001
0.10001
0.10001
0.100011
0.100011
0.100011
0.100011
0.100009
0.100009
0.100009
0.10001
0.10001
0.10001
0.10001
0.100011
0.100011
0.100011
0.100011
0.100009
0.100009
0.100009
0.100009
0.10001
0.10001
0.10001
0.10001
0.100011
0.100011
0.100011
0.100011
0.100009
0.100009
0.100009
0.100009
0.100009
0.10001
0.10001
0.10001
0.10001
0.100011
0.100011
0.100011
0.100011
0.100008
0.100009
0.100009
0.100009
0.100009
0.100009
0.10001
0.10001
0.10001
0.10001
0.100011
0.100011
0.100011
0.100011
0.100008
0.100008
0.100009
0.100009
0.100009
0.100009
0.100009
0.10001
0.10001
0.10001
0.10001
0.100011
0.100011
0.100011
0.100011
0.100008
0.100008
0.100008
0.100009
0.100009
0.100009
0.100009
0.100009
0.10001
0.10001
0.10001
0.10001
0.100011
0.100011
0.100011
0.100011
0.100008
0.100008
0.100008
0.100008
0.100009
0.100009
0.100009
0.100009
0.100009
0.10001
0.10001
0.10001
0.10001
0.100011
0.100011
0.100011
0.100011
0.100007
0.100008
0.100008
0.100008
0.100008
0.100008
0.100009
0.100009
0.100009
0.100009
0.10001
0.10001
0.10001
0.10001
0.100011
0.100011
0.100011
0.100011
0.100007
0.100007
0.100008
0.100008
0.100008
0.100008
0.100008
0.100009
0.100009
0.100009
0.100009
0.10001
0.10001
0.10001
0.10001
0.100011
0.100011
0.100011
0.100011
0.100007
0.100007
0.100007
0.100008
0.100008
0.100008
0.100008
0.100008
0.100009
0.100009
0.100009
0.100009
0.10001
0.10001
0.10001
0.10001
0.100011
0.100011
0.100011
0.100011
0.100007
0.100007
0.100007
0.100007
0.100008
0.100008
0.100008
0.100008
0.100008
0.100009
0.100009
0.100009
0.100009
0.10001
0.10001
0.10001
0.10001
0.100011
0.100011
0.100011
0.100011
0.100006
0.100007
0.100007
0.100007
0.100007
0.100008
0.100008
0.100008
0.100008
0.100008
0.100009
0.100009
0.100009
0.100009
0.10001
0.10001
0.10001
0.10001
0.100011
0.100011
0.100011
0.100011
0.100006
0.100006
0.100007
0.100007
0.100007
0.100007
0.100008
0.100008
0.100008
0.100008
0.100008
0.100009
0.100009
0.100009
0.100009
0.10001
0.10001
0.10001
0.10001
0.100011
0.100011
0.100011
0.100011
0.100006
0.100006
0.100006
0.100007
0.100007
0.100007
0.100007
0.100008
0.100008
0.100008
0.100008
0.100008
0.100009
0.100009
0.100009
0.100009
0.10001
0.10001
0.10001
0.10001
0.100011
0.100011
0.100011
0.100011
0.100006
0.100006
0.100006
0.100006
0.100007
0.100007
0.100007
0.100007
0.100008
0.100008
0.100008
0.100008
0.100008
0.100009
0.100009
0.100009
0.100009
0.10001
0.10001
0.10001
0.10001
0.100011
0.100011
0.100011
0.100011
0.100006
0.100006
0.100006
0.100006
0.100006
0.100007
0.100007
0.100007
0.100007
0.100008
0.100008
0.100008
0.100008
0.100008
0.100009
0.100009
0.100009
0.100009
0.10001
0.10001
0.10001
0.10001
0.100011
0.100011
0.100011
0.100011
0.100005
0.100006
0.100006
0.100006
0.100006
0.100006
0.100007
0.100007
0.100007
0.100007
0.100008
0.100008
0.100008
0.100008
0.100008
0.100009
0.100009
0.100009
0.100009
0.10001
0.10001
0.10001
0.10001
0.100011
0.100011
0.100011
0.100011
0.100005
0.100005
0.100006
0.100006
0.100006
0.100006
0.100006
0.100007
0.100007
0.100007
0.100007
0.100008
0.100008
0.100008
0.100008
0.100008
0.100009
0.100009
0.100009
0.100009
0.10001
0.10001
0.10001
0.10001
0.100011
0.100011
0.100011
0.100011
0.100005
0.100005
0.100005
0.100006
0.100006
0.100006
0.100006
0.100006
0.100007
0.100007
0.100007
0.100007
0.100008
0.100008
0.100008
0.100008
0.100008
0.100009
0.100009
0.100009
0.100009
0.10001
0.10001
0.10001
0.10001
0.100011
0.100011
0.100011
0.100011
0.100005
0.100005
0.100005
0.100005
0.100006
0.100006
0.100006
0.100006
0.100006
0.100007
0.100007
0.100007
0.100007
0.100008
0.100008
0.100008
0.100008
0.100008
0.100009
0.100009
0.100009
0.100009
0.10001
0.10001
0.10001
0.10001
0.100011
0.100011
0.100011
0.100011
0.100004
0.100005
0.100005
0.100005
0.100005
0.100006
0.100006
0.100006
0.100006
0.100006
0.100007
0.100007
0.100007
0.100007
0.100008
0.100008
0.100008
0.100008
0.100008
0.100009
0.100009
0.100009
0.100009
0.10001
0.10001
0.10001
0.10001
0.100011
0.100011
0.100011
0.100011
0.100004
0.100004
0.100005
0.100005
0.100005
0.100005
0.100006
0.100006
0.100006
0.100006
0.100006
0.100007
0.100007
0.100007
0.100007
0.100008
0.100008
0.100008
0.100008
0.100008
0.100009
0.100009
0.100009
0.100009
0.10001
0.10001
0.10001
0.10001
0.100011
0.100011
0.100011
0.100011
0.100004
0.100004
0.100004
0.100005
0.100005
0.100005
0.100005
0.100006
0.100006
0.100006
0.100006
0.100006
0.100007
0.100007
0.100007
0.100007
0.100008
0.100008
0.100008
0.100008
0.100008
0.100009
0.100009
0.100009
0.100009
0.10001
0.10001
0.10001
0.10001
0.100011
0.100011
0.100011
0.100011
0.100004
0.100004
0.100004
0.100004
0.100005
0.100005
0.100005
0.100005
0.100006
0.100006
0.100006
0.100006
0.100006
0.100007
0.100007
0.100007
0.100007
0.100008
0.100008
0.100008
0.100008
0.100008
0.100009
0.100009
0.100009
0.100009
0.10001
0.10001
0.10001
0.10001
0.100011
0.100011
0.100011
0.100011
0.100011
0.100004
0.100004
0.100004
0.100004
0.100004
0.100005
0.100005
0.100005
0.100005
0.100006
0.100006
0.100006
0.100006
0.100006
0.100007
0.100007
0.100007
0.100007
0.100008
0.100008
0.100008
0.100008
0.100008
0.100009
0.100009
0.100009
0.100009
0.10001
0.10001
0.10001
0.10001
0.100011
0.100011
0.100011
0.100011
0.100011
0.100011
0.100003
0.100004
0.100004
0.100004
0.100004
0.100004
0.100005
0.100005
0.100005
0.100005
0.100006
0.100006
0.100006
0.100006
0.100006
0.100007
0.100007
0.100007
0.100007
0.100008
0.100008
0.100008
0.100008
0.100008
0.100009
0.100009
0.100009
0.100009
0.10001
0.10001
0.10001
0.10001
0.100011
0.10001
0.100011
0.100011
0.100011
0.100011
0.100011
0.100011
0.100011
0.100003
0.100003
0.100004
0.100004
0.100004
0.100004
0.100004
0.100005
0.100005
0.100005
0.100005
0.100006
0.100006
0.100006
0.100006
0.100006
0.100007
0.100007
0.100007
0.100007
0.100008
0.100008
0.100008
0.100008
0.100009
0.100009
0.100009
0.100009
0.10001
0.10001
0.10001
0.10001
0.10001
0.10001
0.100011
0.100011
0.100011
0.100011
0.100011
0.100011
0.100011
0.100011
0.100003
0.100003
0.100003
0.100004
0.100004
0.100004
0.100004
0.100004
0.100005
0.100005
0.100005
0.100005
0.100006
0.100006
0.100006
0.100006
0.100006
0.100007
0.100007
0.100007
0.100007
0.100008
0.100008
0.100008
0.100008
0.100009
0.100009
0.10001
0.10001
0.100011
0.100011
0.100011
0.10001
0.100011
0.10001
0.10001
0.100011
0.100011
0.100011
0.100011
0.100011
0.100011
0.100011
0.100011
0.100003
0.100003
0.100003
0.100003
0.100004
0.100004
0.100004
0.100004
0.100004
0.100005
0.100005
0.100005
0.100005
0.100006
0.100006
0.100006
0.100006
0.100006
0.100007
0.100007
0.100007
0.100007
0.100008
0.100008
0.100008
0.100009
0.10001
0.100011
0.100014
0.100017
0.100018
0.100018
0.100012
0.100017
0.100011
0.100013
0.100011
0.100011
0.100011
0.100011
0.100011
0.100011
0.100011
0.100011
0.100011
0.100011
0.100002
0.100003
0.100003
0.100003
0.100003
0.100004
0.100004
0.100004
0.100004
0.100004
0.100005
0.100005
0.100005
0.100005
0.100006
0.100006
0.100006
0.100006
0.100006
0.100007
0.100007
0.100007
0.100007
0.100008
0.100008
0.10001
0.100013
0.10002
0.100031
0.100047
0.100061
0.100066
0.100032
0.100074
0.10002
0.100043
0.100014
0.100024
0.100011
0.100015
0.100011
0.100011
0.100011
0.100011
0.100011
0.100011
0.100011
0.100011
0.100002
0.100002
0.100003
0.100003
0.100003
0.100003
0.100004
0.100004
0.100004
0.100004
0.100004
0.100005
0.100005
0.100005
0.100005
0.100006
0.100006
0.100006
0.100006
0.100006
0.100007
0.100007
0.100007
0.100008
0.10001
0.100015
0.100026
0.100049
0.100092
0.100164
0.100264
0.100352
0.100179
0.100446
0.100109
0.100283
0.100057
0.100158
0.100028
0.100074
0.100015
0.100031
0.100015
0.100011
0.100015
0.100014
0.100011
0.100011
0.100011
0.100011
0.100002
0.100002
0.100002
0.100003
0.100003
0.100003
0.100003
0.100004
0.100004
0.100004
0.100004
0.100004
0.100005
0.100005
0.100005
0.100005
0.100006
0.100006
0.100006
0.100006
0.100006
0.100007
0.100007
0.100009
0.100014
0.100031
0.100071
0.100153
0.100297
0.100551
0.100981
0.101625
0.101029
0.102438
0.100712
0.101712
0.100431
0.101107
0.100223
0.100638
0.100094
0.100303
0.100034
0.100112
0.100035
0.100013
0.100034
0.10003
0.100011
0.100012
0.100011
0.100011
0.100002
0.100002
0.100002
0.100002
0.100003
0.100003
0.100003
0.100003
0.100004
0.100004
0.100004
0.100004
0.100004
0.100005
0.100005
0.100005
0.100005
0.100006
0.100006
0.100006
0.100006
0.100006
0.100007
0.100011
0.100027
0.100078
0.100207
0.10047
0.100936
0.101699
0.102987
0.105208
0.104666
0.109121
0.103787
0.107623
0.102692
0.105966
0.101675
0.10404
0.100908
0.102447
0.100394
0.101234
0.100128
0.100481
0.100135
0.100024
0.10013
0.100112
0.100012
0.100019
0.100011
0.100011
0.100001
0.100002
0.100002
0.100002
0.100002
0.100003
0.100003
0.100003
0.100003
0.100004
0.100004
0.100004
0.100004
0.100004
0.100005
0.100005
0.100005
0.100005
0.100006
0.100006
0.100006
0.100006
0.100007
0.100014
0.100054
0.100204
0.100578
0.101352
0.102657
0.104601
0.107636
0.112512
0.113558
0.119864
0.112762
0.118621
0.111086
0.117302
0.108763
0.115222
0.105876
0.112116
0.103415
0.108164
0.101591
0.104522
0.100554
0.101926
0.10059
0.100082
0.10057
0.100489
0.100015
0.100053
0.100011
0.100013
0.100001
0.100001
0.100002
0.100002
0.100002
0.100002
0.100003
0.100003
0.100003
0.100003
0.100004
0.100004
0.100004
0.100004
0.100004
0.100005
0.100005
0.100005
0.100005
0.100006
0.100006
0.100006
0.100007
0.100017
0.100094
0.100438
0.101454
0.103426
0.106667
0.110826
0.11613
0.123569
0.125403
0.130621
0.124792
0.131355
0.123972
0.130736
0.122419
0.12983
0.11978
0.127919
0.115877
0.124608
0.110755
0.119805
0.105668
0.113427
0.102197
0.10668
0.102325
0.100358
0.102253
0.101943
0.10003
0.100218
0.100012
0.100018
0.100001
0.100001
0.100001
0.100002
0.100002
0.100002
0.100002
0.100003
0.100003
0.100003
0.100003
0.100004
0.100004
0.100004
0.100004
0.100004
0.100005
0.100005
0.100005
0.100005
0.100006
0.100006
0.100007
0.100018
0.100133
0.100751
0.102708
0.106888
0.112558
0.119299
0.126317
0.134501
0.146435
0.137068
0.145432
0.137383
0.143867
0.137069
0.143915
0.135912
0.143489
0.133479
0.141965
0.129501
0.138939
0.123698
0.134196
0.115917
0.127296
0.107433
0.117887
0.107753
0.101435
0.107486
0.106475
0.100108
0.100873
0.100013
0.100045
0.100001
0.100001
0.100001
0.100001
0.100002
0.100002
0.100002
0.100002
0.100003
0.100003
0.100003
0.100003
0.100004
0.100004
0.100004
0.100004
0.100004
0.100005
0.100005
0.100005
0.100005
0.100006
0.100007
0.100017
0.10015
0.101055
0.104204
0.110703
0.119595
0.128188
0.136661
0.146256
0.156988
0.159817
0.164561
0.149862
0.155449
0.150259
0.156061
0.150405
0.156542
0.149699
0.156558
0.147712
0.155539
0.144115
0.153062
0.1385
0.148825
0.130328
0.142245
0.119143
0.132533
0.119512
0.104819
0.118714
0.116398
0.100408
0.102957
0.10002
0.100153
0.100001
0.100001
0.100001
0.100001
0.100001
0.100002
0.100002
0.100002
0.100002
0.100003
0.100003
0.100003
0.100003
0.100004
0.100004
0.100004
0.100004
0.100004
0.100005
0.100005
0.100006
0.100006
0.100007
0.100017
0.100149
0.101215
0.105601
0.114622
0.126006
0.137256
0.147672
0.157262
0.164995
0.167285
0.169691
0.168764
0.170846
0.161129
0.165448
0.16188
0.166395
0.162409
0.167259
0.162232
0.167783
0.160876
0.167431
0.157955
0.165743
0.152986
0.162333
0.145234
0.156523
0.133862
0.147327
0.134175
0.11272
0.133073
0.130111
0.101408
0.108315
0.100048
0.100497
0.1
0.100001
0.100001
0.100001
0.100001
0.100001
0.100002
0.100002
0.100002
0.100002
0.100003
0.100003
0.100003
0.100003
0.100004
0.100004
0.100004
0.100004
0.100005
0.100006
0.100007
0.100008
0.100009
0.100016
0.100135
0.101221
0.106417
0.117921
0.131967
0.144796
0.155409
0.162979
0.167908
0.170631
0.170597
0.171785
0.171985
0.173296
0.173334
0.170058
0.172244
0.171169
0.173868
0.172153
0.175462
0.172672
0.176704
0.172169
0.177196
0.170175
0.176481
0.166165
0.174135
0.159268
0.169379
0.148558
0.161199
0.148645
0.124938
0.147149
0.143688
0.104109
0.117785
0.100125
0.101409
0.1
0.1
0.100001
0.100001
0.100001
0.100001
0.100001
0.100002
0.100002
0.100002
0.100002
0.100003
0.100003
0.100003
0.100003
0.100004
0.100004
0.100005
0.100006
0.100008
0.100011
0.100014
0.100015
0.100021
0.100109
0.101151
0.106506
0.119904
0.136221
0.149863
0.158584
0.164189
0.167746
0.169869
0.171759
0.170973
0.172995
0.172212
0.174783
0.173771
0.175194
0.175242
0.177237
0.17765
0.179278
0.180267
0.180814
0.182679
0.18136
0.184449
0.180437
0.184988
0.177536
0.183837
0.171839
0.180331
0.162231
0.173486
0.162064
0.138103
0.160296
0.156689
0.109964
0.12988
0.10031
0.103648
0.1
0.100001
0.100001
0.100001
0.100001
0.100001
0.100001
0.100002
0.100002
0.100002
0.100002
0.100003
0.100003
0.100003
0.100004
0.100004
0.100006
0.10001
0.100018
0.100027
0.100032
0.100033
0.100037
0.100099
0.100948
0.106301
0.120247
0.13863
0.150809
0.158139
0.163152
0.166277
0.166848
0.165841
0.162092
0.170744
0.168481
0.171964
0.16941
0.17418
0.171394
0.177167
0.176065
0.179944
0.178994
0.182917
0.182192
0.18555
0.185213
0.187375
0.187879
0.187914
0.189642
0.186501
0.18994
0.182296
0.188274
0.174217
0.183403
0.173748
0.150784
0.171834
0.16815
0.118989
0.141994
0.10076
0.10796
0.100001
0.100001
0.100001
0.100001
0.100001
0.100001
0.100002
0.100002
0.100002
0.100002
0.100002
0.100003
0.100003
0.100004
0.100006
0.100012
0.100027
0.100053
0.100079
0.100087
0.100089
0.100088
0.100119
0.100715
0.105779
0.119997
0.138753
0.14999
0.156039
0.159899
0.16158
0.160208
0.158519
0.154036
0.158502
0.154045
0.166246
0.162574
0.167845
0.163705
0.170845
0.166417
0.177234
0.174483
0.180625
0.178166
0.184125
0.182033
0.187228
0.185597
0.189684
0.188682
0.191178
0.191003
0.191213
0.192136
0.189202
0.191809
0.183633
0.189492
0.182776
0.162264
0.180765
0.177941
0.171657
0.129495
0.15318
0.101975
0.115216
0.100001
0.100002
0.100001
0.100001
0.100001
0.100001
0.100002
0.100002
0.100002
0.100002
0.100002
0.100003
0.100005
0.100011
0.100029
0.100076
0.100154
0.100221
0.100257
0.100261
0.100238
0.100219
0.100603
0.104643
0.119124
0.138158
0.148078
0.152094
0.152647
0.150356
0.146852
0.14088
0.149469
0.142592
0.149091
0.143898
0.159108
0.154192
0.161364
0.155858
0.165306
0.159547
0.17472
0.170413
0.178864
0.174796
0.182846
0.179144
0.186445
0.183042
0.189428
0.18648
0.191544
0.189337
0.192411
0.19122
0.191907
0.192077
0.189069
0.191446
0.190706
0.185261
0.188114
0.175763
0.165166
0.17284
0.18296
0.186409
0.187446
0.181286
0.140087
0.169404
0.164838
0.155343
0.104027
0.122705
0.100002
0.100002
0.100002
0.100001
0.100001
0.100001
0.100002
0.100002
0.100002
0.100002
0.100003
0.100007
0.100023
0.100074
0.100204
0.10042
0.100643
0.100788
0.100791
0.100683
0.100526
0.100645
0.10361
0.11705
0.136868
0.145991
0.148541
0.145034
0.137382
0.130185
0.125705
0.12831
0.122463
0.138681
0.133201
0.1383
0.132703
0.150055
0.144141
0.153322
0.146786
0.158344
0.151737
0.169989
0.164489
0.174583
0.169428
0.178915
0.174574
0.182855
0.179332
0.186063
0.183161
0.188445
0.185632
0.189953
0.188808
0.187272
0.191638
0.191076
0.188823
0.190173
0.191117
0.189934
0.190677
0.191279
0.18942
0.179155
0.176471
0.185293
0.187833
0.188709
0.183764
0.159573
0.141058
0.152607
0.173079
0.168855
0.10441
0.144856
0.134651
0.121489
0.100003
0.100003
0.100002
0.100001
0.100001
0.100001
0.100001
0.100002
0.100002
0.100004
0.100012
0.100049
0.100174
0.100502
0.1011
0.101806
0.102281
0.102331
0.101938
0.101353
0.100986
0.103124
0.114559
0.134547
0.144394
0.145931
0.139746
0.128175
0.117075
0.112166
0.109857
0.117867
0.112273
0.127435
0.122474
0.127314
0.121739
0.140123
0.133542
0.144851
0.137818
0.152138
0.145871
0.163937
0.15817
0.170157
0.1657
0.176214
0.172993
0.180927
0.179112
0.184035
0.183861
0.186329
0.185746
0.185715
0.186253
0.187624
0.186638
0.186753
0.186132
0.190713
0.18961
0.187222
0.188364
0.190829
0.190265
0.19036
0.190244
0.189697
0.181819
0.179369
0.186793
0.189032
0.188284
0.185485
0.163645
0.157141
0.176286
0.172438
0.123236
0.101195
0.108249
0.149259
0.138968
0.100004
0.100003
0.100002
0.100001
0.100001
0.100001
0.100002
0.100002
0.100004
0.100019
0.10009
0.100356
0.101094
0.102548
0.104372
0.105707
0.105938
0.105037
0.103496
0.102037
0.103089
0.112406
0.131716
0.142966
0.144455
0.137085
0.124094
0.111391
0.105624
0.103844
0.104733
0.102561
0.109436
0.106564
0.11695
0.112894
0.118263
0.113346
0.130829
0.124196
0.139404
0.132817
0.150356
0.144523
0.161004
0.155887
0.169589
0.166162
0.177885
0.177121
0.185062
0.187622
0.187199
0.18906
0.191226
0.193888
0.186107
0.18666
0.187849
0.190189
0.186713
0.186926
0.186377
0.186886
0.189149
0.187949
0.187021
0.187104
0.189766
0.189875
0.189304
0.188705
0.189327
0.183835
0.18175
0.187414
0.188732
0.188083
0.186364
0.167595
0.161541
0.179084
0.175677
0.125203
0.100788
0.107857
0.153757
0.143227
0.100005
0.100003
0.100002
0.100001
0.100001
0.100001
0.100002
0.100005
0.100025
0.100137
0.100594
0.10195
0.104585
0.1078
0.110126
0.110636
0.109414
0.107116
0.104571
0.103626
0.111149
0.128725
0.141574
0.143575
0.136814
0.123806
0.110705
0.103679
0.101551
0.100899
0.102016
0.101169
0.104616
0.103073
0.109546
0.106716
0.114574
0.110117
0.126292
0.120091
0.138386
0.132035
0.153976
0.14887
0.162448
0.15843
0.176641
0.175806
0.190535
0.193442
0.196373
0.199083
0.201245
0.203391
0.192952
0.196147
0.19953
0.202875
0.188079
0.190581
0.193695
0.197331
0.187681
0.187911
0.189513
0.190325
0.187636
0.187188
0.188592
0.187497
0.188302
0.188847
0.187933
0.187449
0.188397
0.185057
0.183409
0.187339
0.187954
0.187484
0.186467
0.171346
0.165782
0.181298
0.178484
0.127001
0.100597
0.107942
0.158353
0.14769
0.100005
0.100002
0.100001
0.100001
0.100001
0.100002
0.100005
0.100028
0.100178
0.100847
0.102897
0.106891
0.111572
0.114987
0.116
0.114547
0.111457
0.107968
0.105583
0.110957
0.126203
0.140187
0.143062
0.137255
0.124789
0.111829
0.103648
0.101011
0.100371
0.100529
0.100275
0.101261
0.100776
0.102989
0.101957
0.106821
0.104539
0.114123
0.109726
0.125665
0.119566
0.143139
0.136875
0.168519
0.164074
0.17424
0.171869
0.195132
0.19568
0.208766
0.208704
0.205898
0.208483
0.210245
0.210908
0.201279
0.205236
0.208915
0.212
0.193562
0.197461
0.201788
0.206238
0.191302
0.192627
0.195025
0.196655
0.187328
0.187915
0.192851
0.189704
0.187352
0.187608
0.187277
0.187492
0.187318
0.185518
0.184314
0.186922
0.187036
0.186739
0.186263
0.174739
0.169779
0.182671
0.180495
0.130051
0.1006
0.109174
0.163029
0.152982
0.100004
0.100001
0.100001
0.100001
0.100001
0.100004
0.100029
0.100202
0.101052
0.103802
0.109107
0.115332
0.11995
0.121735
0.12018
0.116261
0.111843
0.108683
0.111371
0.124915
0.138857
0.142986
0.138531
0.12758
0.115196
0.10467
0.101018
0.100253
0.100149
0.100456
0.100268
0.101197
0.100752
0.102791
0.101853
0.106484
0.104268
0.1177
0.112576
0.13027
0.123742
0.158478
0.151808
0.190819
0.187111
0.195013
0.193381
0.20756
0.205564
0.213692
0.212671
0.210332
0.21162
0.214135
0.21498
0.215054
0.214536
0.210447
0.214054
0.216578
0.217602
0.201214
0.206043
0.210765
0.214946
0.197257
0.199653
0.202475
0.204762
0.188368
0.190674
0.199337
0.194286
0.187646
0.187149
0.187634
0.188758
0.186992
0.185486
0.18451
0.186369
0.186798
0.186508
0.185896
0.177585
0.173452
0.183386
0.18177
0.135669
0.10117
0.114395
0.167761
0.159619
0.100003
0.100001
0.100001
0.100001
0.100004
0.100028
0.100208
0.101165
0.104471
0.11102
0.118712
0.124721
0.127453
0.126103
0.121533
0.116214
0.112235
0.113123
0.124814
0.138158
0.143011
0.14021
0.130966
0.119165
0.107183
0.10132
0.100238
0.100074
0.100221
0.10011
0.100595
0.100346
0.101497
0.100971
0.103735
0.102358
0.10863
0.105737
0.128882
0.121859
0.144353
0.136547
0.182043
0.17528
0.2014
0.20004
0.204121
0.202638
0.209123
0.207906
0.205294
0.213476
0.211535
0.207501
0.209494
0.217755
0.217336
0.216438
0.215112
0.218072
0.219529
0.219934
0.219714
0.209938
0.214737
0.218651
0.220863
0.205041
0.207992
0.210896
0.213384
0.191522
0.195645
0.207357
0.201249
0.189222
0.187585
0.189458
0.192154
0.187477
0.185261
0.184488
0.186136
0.187235
0.186857
0.185704
0.17952
0.176439
0.183566
0.182436
0.146215
0.106128
0.128258
0.172217
0.166922
0.100002
0.100001
0.100001
0.100003
0.100023
0.100201
0.101181
0.104789
0.112334
0.121466
0.128893
0.132798
0.132151
0.127429
0.12138
0.116413
0.116262
0.125283
0.13815
0.143172
0.141741
0.134059
0.122845
0.109837
0.101948
0.100285
0.100054
0.100057
0.100321
0.100171
0.100878
0.100536
0.10278
0.101555
0.107358
0.104667
0.115867
0.111044
0.148512
0.138948
0.167046
0.158075
0.198205
0.195253
0.202254
0.202154
0.203731
0.202711
0.205662
0.204567
0.196005
0.195331
0.20956
0.206582
0.201105
0.203708
0.218762
0.217243
0.215071
0.212443
0.221699
0.221766
0.221067
0.219595
0.218091
0.22146
0.222903
0.223415
0.213488
0.216372
0.219026
0.220919
0.1969
0.202946
0.215811
0.209428
0.192606
0.189446
0.192912
0.197875
0.189298
0.185212
0.184467
0.186375
0.188901
0.1883
0.185866
0.180764
0.178525
0.183623
0.182641
0.160513
0.140132
0.159665
0.175886
0.173323
0.100001
0.100001
0.100002
0.100018
0.100167
0.10114
0.104802
0.112925
0.123281
0.132107
0.137345
0.137794
0.133872
0.127606
0.121742
0.120513
0.126847
0.138545
0.143607
0.143057
0.136687
0.126071
0.112424
0.102672
0.100392
0.100055
0.100026
0.100137
0.10006
0.10046
0.100261
0.101692
0.100831
0.105981
0.10332
0.115163
0.109869
0.129916
0.121887
0.172766
0.161782
0.190338
0.182671
0.202022
0.201607
0.194648
0.197184
0.195082
0.19507
0.19302
0.198883
0.197135
0.187912
0.187503
0.20348
0.1997
0.193143
0.196195
0.217312
0.214412
0.211008
0.207303
0.223207
0.222042
0.220035
0.217253
0.223502
0.224599
0.224911
0.224339
0.221443
0.22322
0.225004
0.225158
0.204406
0.211237
0.22354
0.21786
0.198572
0.192862
0.198913
0.205539
0.192498
0.185217
0.184604
0.187494
0.19177
0.190738
0.186666
0.181507
0.179921
0.183765
0.182803
0.172425
0.169757
0.17482
0.178309
0.177499
0.1
0.100001
0.100011
0.100121
0.10094
0.104646
0.112949
0.124042
0.134079
0.140495
0.14223
0.140058
0.134708
0.128771
0.126442
0.130586
0.139672
0.144377
0.144176
0.138808
0.128705
0.114721
0.103437
0.100514
0.100064
0.100016
0.100029
0.100203
0.100099
0.100719
0.100377
0.10353
0.101641
0.112081
0.106867
0.128387
0.1193
0.150278
0.138915
0.192619
0.184
0.200507
0.197814
0.199639
0.201536
0.183451
0.185161
0.185681
0.187548
0.188273
0.181774
0.180337
0.190627
0.188799
0.179663
0.179218
0.196828
0.192384
0.184916
0.188338
0.21389
0.210062
0.205845
0.201377
0.222824
0.220438
0.217465
0.21398
0.226063
0.226172
0.225281
0.223435
0.226449
0.226621
0.227916
0.227411
0.212807
0.219818
0.2276
0.225053
0.206303
0.198667
0.206548
0.214005
0.198021
0.185622
0.184797
0.189501
0.196918
0.195307
0.188269
0.181749
0.18069
0.183886
0.183003
0.178005
0.17397
0.1791
0.179766
0.179512
0.100001
0.100007
0.100071
0.10071
0.104062
0.112612
0.124049
0.134796
0.141796
0.144774
0.144584
0.141432
0.136724
0.134113
0.136648
0.142252
0.145464
0.145191
0.140388
0.13065
0.116516
0.104152
0.100637
0.100077
0.100014
0.100013
0.100069
0.10003
0.100284
0.100157
0.10139
0.100586
0.106777
0.103212
0.121816
0.112871
0.146145
0.133201
0.172467
0.159562
0.200535
0.196723
0.202381
0.202062
0.190748
0.195551
0.175756
0.178604
0.172612
0.176243
0.17917
0.179481
0.173716
0.172284
0.18219
0.180438
0.171796
0.171305
0.190743
0.185633
0.177197
0.181018
0.210072
0.205762
0.201027
0.195964
0.220961
0.217997
0.214681
0.21101
0.227257
0.226009
0.224021
0.221553
0.228903
0.22851
0.229286
0.228078
0.221398
0.226191
0.229799
0.228514
0.2148
0.206399
0.215281
0.222579
0.205737
0.187035
0.185591
0.193267
0.204135
0.201755
0.191022
0.181919
0.181097
0.184227
0.183273
0.179973
0.155287
0.177054
0.180481
0.180437
0.100004
0.100048
0.100495
0.103127
0.111334
0.123614
0.134584
0.141769
0.14536
0.146646
0.146007
0.143662
0.14208
0.143159
0.145475
0.146766
0.14619
0.141324
0.131747
0.117612
0.104704
0.100738
0.100088
0.100014
0.100008
0.100015
0.10011
0.100046
0.100469
0.100221
0.102504
0.101018
0.111735
0.105698
0.134525
0.121436
0.164826
0.149552
0.189701
0.17878
0.201715
0.200143
0.199308
0.201411
0.179427
0.182759
0.184559
0.167266
0.169633
0.164139
0.16752
0.171203
0.171463
0.165448
0.164283
0.174259
0.172557
0.164376
0.163928
0.185893
0.180017
0.170399
0.174719
0.206942
0.20243
0.197383
0.191814
0.218775
0.215768
0.212536
0.209023
0.226645
0.22459
0.222211
0.219664
0.229987
0.228748
0.22939
0.227201
0.22709
0.229363
0.230836
0.230597
0.22354
0.215194
0.223846
0.227945
0.214133
0.188835
0.18713
0.198877
0.21213
0.209272
0.195567
0.18229
0.18151
0.185084
0.18366
0.180133
0.1236
0.166981
0.18085
0.180609
0.100029
0.100293
0.102209
0.109428
0.121708
0.133047
0.140366
0.144749
0.146699
0.147503
0.147512
0.147238
0.147451
0.148002
0.148256
0.146735
0.141478
0.13191
0.117859
0.104976
0.100792
0.100094
0.100014
0.100007
0.100008
0.100027
0.100155
0.100069
0.100684
0.100294
0.104077
0.101674
0.118146
0.109116
0.148024
0.131545
0.179177
0.164771
0.19649
0.189703
0.198013
0.198708
0.190668
0.195489
0.171355
0.175798
0.174353
0.170314
0.159204
0.161372
0.155083
0.158004
0.163669
0.163725
0.157639
0.15676
0.167163
0.165323
0.157688
0.157092
0.182434
0.175875
0.164806
0.169831
0.204989
0.20028
0.194906
0.188886
0.217005
0.214223
0.211132
0.207555
0.225144
0.22289
0.220598
0.218272
0.230297
0.227776
0.228728
0.225713
0.230214
0.231491
0.231413
0.23183
0.228552
0.223669
0.228977
0.230894
0.222688
0.192133
0.189089
0.205612
0.220582
0.217454
0.201229
0.182484
0.181783
0.186734
0.184387
0.178876
0.112807
0.152915
0.181015
0.180465
0.100173
0.101531
0.107105
0.119075
0.129519
0.136415
0.141987
0.145539
0.147175
0.147998
0.148636
0.149106
0.149315
0.1488
0.146569
0.141102
0.131396
0.117298
0.104915
0.10079
0.100094
0.100014
0.100006
0.100006
0.10001
0.100065
0.100103
0.100027
0.100199
0.100999
0.100396
0.105998
0.102513
0.124961
0.113064
0.157997
0.141005
0.184328
0.172897
0.196948
0.19229
0.188826
0.191244
0.176502
0.183665
0.16158
0.165705
0.165708
0.159997
0.151164
0.152804
0.146158
0.148392
0.156727
0.156566
0.150171
0.149896
0.161061
0.158887
0.151864
0.150914
0.179453
0.172158
0.159893
0.165414
0.203421
0.198589
0.192983
0.186539
0.215905
0.213246
0.210222
0.206757
0.223567
0.221535
0.219535
0.217546
0.22991
0.226728
0.228003
0.224695
0.232352
0.23279
0.231277
0.232547
0.231294
0.228849
0.231424
0.233051
0.228211
0.196614
0.192197
0.213057
0.226971
0.224275
0.207778
0.182828
0.181884
0.188622
0.185627
0.175355
0.103422
0.131027
0.180983
0.179795
0.100822
0.105558
0.11534
0.126635
0.132028
0.136616
0.140901
0.144628
0.146791
0.148125
0.148906
0.149115
0.148326
0.145609
0.139629
0.129603
0.115031
0.104434
0.100716
0.100087
0.100013
0.100006
0.100005
0.100006
0.100013
0.10014
0.100089
0.100039
0.100243
0.101422
0.100555
0.107882
0.103469
0.129079
0.116215
0.160736
0.144893
0.183873
0.174123
0.191802
0.189636
0.173004
0.178198
0.158543
0.163129
0.16493
0.15141
0.155272
0.152719
0.147847
0.1436
0.144587
0.137636
0.139103
0.150419
0.15006
0.143275
0.14342
0.155827
0.153382
0.146226
0.145018
0.17809
0.169948
0.155159
0.161943
0.202716
0.197937
0.192287
0.185631
0.21531
0.212791
0.209924
0.206545
0.222761
0.220904
0.219067
0.217225
0.22929
0.226025
0.227432
0.224205
0.23373
0.233767
0.23079
0.232656
0.23349
0.231363
0.233819
0.234637
0.231293
0.201999
0.196445
0.22129
0.230321
0.22929
0.216321
0.183296
0.181805
0.191727
0.18763
0.167359
0.100489
0.113416
0.18094
0.17823
0.103172
0.113093
0.122881
0.128824
0.13132
0.132655
0.136184
0.141173
0.144672
0.146519
0.14709
0.146086
0.142745
0.136052
0.125202
0.111512
0.103274
0.100589
0.100073
0.100011
0.100005
0.100005
0.100005
0.100007
0.100019
0.100175
0.100111
0.10005
0.1003
0.101616
0.100693
0.108554
0.103889
0.129635
0.117016
0.158911
0.144635
0.17732
0.170113
0.180265
0.180451
0.150138
0.158922
0.145916
0.152692
0.148652
0.143984
0.141174
0.144027
0.140541
0.136651
0.136385
0.136732
0.129741
0.130581
0.144233
0.143752
0.136513
0.136851
0.150488
0.147924
0.140453
0.139181
0.177849
0.169333
0.152526
0.160596
0.202593
0.197903
0.192326
0.185579
0.21515
0.212775
0.210082
0.206958
0.222451
0.220749
0.219076
0.217371
0.229211
0.225833
0.227528
0.224176
0.234811
0.234116
0.230912
0.232559
0.235321
0.233671
0.236447
0.235638
0.233281
0.209696
0.202317
0.226965
0.232227
0.230433
0.22325
0.184144
0.181887
0.195198
0.189775
0.157667
0.100075
0.104697
0.180661
0.176412
0.108519
0.120636
0.125447
0.127555
0.125782
0.12577
0.129151
0.134029
0.138252
0.140437
0.139862
0.136079
0.128908
0.118425
0.108025
0.102174
0.100372
0.100056
0.10001
0.100005
0.100005
0.100005
0.100005
0.100008
0.100031
0.100057
0.100016
0.100196
0.10012
0.100331
0.101716
0.10075
0.108389
0.103919
0.127468
0.116215
0.151829
0.140254
0.164726
0.160278
0.163513
0.165222
0.137614
0.128601
0.133083
0.134526
0.132327
0.137459
0.130475
0.131856
0.133839
0.128811
0.126247
0.129582
0.129468
0.123959
0.12343
0.138087
0.137296
0.130045
0.130642
0.145933
0.142335
0.135651
0.133761
0.178616
0.1699
0.151968
0.160644
0.203317
0.19897
0.193288
0.186427
0.215583
0.213536
0.21126
0.208586
0.222737
0.221051
0.219691
0.218229
0.230317
0.226062
0.229029
0.224651
0.235381
0.23429
0.232599
0.233614
0.23725
0.237197
0.238639
0.237389
0.237257
0.218502
0.209688
0.229157
0.236222
0.233977
0.228224
0.185055
0.182099
0.200261
0.192394