/*--------------------------------*- C++ -*----------------------------------*\
  =========                 |
  \\      /  F ield         | OpenFOAM: The Open Source CFD Toolbox
   \\    /   O peration     | Website:  https://openfoam.org
    \\  /    A nd           | Version:  dev
     \\/     M anipulation  |
\*---------------------------------------------------------------------------*/
FoamFile
{
    version     2.0;
    format      ascii;
    class       volScalarField;
    location    "2500";
    object      alphat;
}
// * * * * * * * * * * * * * * * * * * * * * * * * * * * * * * * * * * * * * //

dimensions      [1 -1 -1 0 0 0 0];

internalField   nonuniform List<scalar> 
9851
(
0.000152559
0.000156739
0.000147697
0.000142878
0.000186461
0.00013057
0.000131271
0.000198034
0.000174426
0.000123925
0.000126825
0.000192213
0.000198931
0.000148072
0.000121938
0.000122996
0.000175257
0.000215302
0.000181779
0.000134342
0.000120539
0.000121034
0.000154402
0.000217503
0.000207988
0.000154096
0.000128572
0.000119531
0.000120331
0.000144478
0.000212288
0.00022126
0.000182086
0.000138645
0.000125289
0.000118902
0.00012007
0.000135839
0.000196394
0.000232527
0.000208751
0.000155649
0.000131371
0.000122909
0.000118443
0.000119906
0.000130087
0.000173691
0.000233165
0.000227364
0.000177888
0.000140558
0.000127214
0.000121299
0.000118106
0.000119635
0.000126468
0.000157989
0.000227898
0.000236779
0.000204796
0.000153838
0.000132811
0.000124578
0.000120169
0.000117897
0.000119229
0.000124159
0.000146523
0.000212574
0.000246146
0.000226105
0.000173503
0.000140187
0.000128281
0.00012253
0.000119447
0.000117672
0.000119063
0.000123192
0.000138016
0.000190576
0.000247194
0.00024159
0.0001965
0.000151751
0.000132837
0.000125298
0.000121057
0.000118731
0.000117514
0.000119116
0.00012292
0.000133302
0.000168597
0.000242583
0.000249106
0.000220876
0.000167832
0.000139171
0.000128505
0.00012306
0.000120074
0.000118249
0.000117401
0.000119086
0.000123084
0.000130736
0.000157731
0.000229771
0.000257214
0.000239336
0.000187764
0.000148777
0.00013223
0.000125348
0.000121568
0.000119169
0.000117882
0.000117316
0.000119834
0.000123627
0.000129651
0.000149238
0.000208494
0.00025979
0.000252202
0.0002106
0.000161612
0.000137525
0.000128238
0.00012322
0.000120275
0.000118548
0.000117603
0.000117248
0.000119452
0.000124591
0.000129665
0.000143657
0.000187815
0.000256436
0.000260162
0.000231358
0.000178983
0.000145096
0.000131322
0.000125223
0.000121658
0.000119336
0.000118057
0.00011739
0.000117192
0.000127299
0.000129838
0.000129556
0.000141151
0.000171964
0.000247349
0.000265976
0.000249059
0.000198216
0.000155802
0.000135624
0.000127546
0.000123104
0.000120357
0.000118657
0.000117667
0.000117223
0.000117151
0.000201434
0.000178037
0.000134079
0.000138549
0.000164447
0.000230448
0.00027047
0.000259999
0.000218324
0.000169699
0.000141747
0.000130304
0.000124762
0.000121407
0.000119352
0.000118106
0.000117374
0.000117091
0.000117121
0.000134569
0.000310959
0.000176041
0.000139967
0.000156487
0.000211917
0.000269349
0.000268855
0.000236919
0.000186212
0.000150145
0.000133781
0.000126695
0.000122744
0.000120177
0.000118636
0.000117665
0.000117145
0.00011699
0.000117101
0.000120429
0.000227137
0.000279277
0.000164281
0.000152329
0.000192073
0.000264011
0.000272335
0.000254334
0.000203913
0.000161213
0.00013852
0.000129231
0.000124174
0.000121131
0.000119236
0.000118075
0.000117324
0.000116972
0.00011692
0.000117089
0.000118184
0.000145876
0.000261855
0.000238192
0.000162047
0.000179051
0.000252274
0.000278728
0.000265306
0.000221433
0.000174715
0.000145292
0.000131883
0.000125768
0.000122209
0.000119943
0.000118529
0.000117606
0.000117067
0.00011684
0.000116874
0.000117084
0.000116318
0.000123391
0.000192888
0.000262264
0.000200134
0.000175292
0.000233906
0.000279387
0.000274093
0.000239083
0.00018988
0.000153748
0.000135838
0.000127817
0.00012349
0.000120866
0.000119039
0.00011796
0.000117243
0.00011688
0.000116751
0.000116852
0.000117089
0.000116447
0.000119985
0.000143266
0.000237797
0.000253506
0.000190152
0.000211427
0.000276551
0.000279341
0.000254233
0.000205941
0.000164627
0.000140828
0.00013034
0.000124889
0.000121668
0.000119721
0.000118362
0.000117505
0.000116981
0.000116746
0.000116698
0.000116857
0.000117102
0.000116651
0.000117979
0.000126677
0.000182728
0.000254859
0.000228105
0.000208899
0.000268589
0.000283193
0.000267795
0.000222263
0.000177022
0.000147606
0.000133245
0.000126686
0.000122838
0.000120517
0.000118863
0.000117824
0.000117157
0.000116791
0.000116656
0.000116684
0.000116884
0.000117124
0.000116733
0.000117073
0.000121935
0.000148416
0.000235233
0.000256955
0.000223685
0.000253945
0.000285731
0.000277046
0.000236532
0.00019129
0.000155748
0.000137321
0.000128767
0.000124125
0.000121177
0.000119457
0.000118205
0.000117419
0.000116906
0.000116663
0.000116605
0.000116711
0.00011694
0.000117165
0.000116745
0.000116878
0.000121021
0.000133125
0.000191606
0.000257566
0.000252999
0.000248664
0.00028542
0.000282773
0.000251981
0.00020518
0.000166099
0.000142309
0.0001312
0.000125525
0.000122234
0.000120132
0.000118681
0.000117728
0.000117113
0.000116736
0.000116587
0.000116609
0.000116781
0.000117029
0.000117224
0.000116746
0.000116978
0.000120839
0.00012733
0.000161085
0.000244931
0.000271583
0.000258181
0.000283913
0.000286296
0.000264649
0.000219539
0.000177556
0.000148877
0.000134297
0.000127463
0.000123383
0.000120747
0.000119248
0.00011813
0.000117369
0.000116888
0.000116633
0.00011657
0.000116672
0.000116892
0.000117159
0.00011731
0.000116751
0.000117153
0.000120854
0.000125257
0.000144856
0.000214168
0.000272948
0.000277223
0.000284397
0.000288894
0.000276282
0.000233364
0.000189952
0.000156812
0.000138405
0.000129491
0.000124671
0.000121728
0.000119891
0.000118616
0.000117691
0.000117084
0.000116751
0.000116602
0.000116617
0.000116781
0.00011705
0.000117354
0.000117444
0.000116764
0.000117318
0.000120885
0.000124536
0.000137069
0.00018248
0.000265391
0.00029177
0.000289995
0.000292633
0.000283212
0.000245584
0.000202778
0.000166062
0.000143431
0.000132075
0.000126357
0.000122794
0.000120428
0.000119169
0.00011811
0.00011733
0.000116898
0.000116689
0.000116638
0.000116723
0.000116946
0.000117292
0.000117615
0.000117619
0.000116783
0.000117464
0.000120907
0.000124375
0.000133664
0.000164575
0.000246018
0.000295654
0.000302428
0.000297972
0.00028865
0.000258564
0.000214901
0.000176337
0.000149509
0.000135336
0.000128237
0.000124009
0.000121373
0.000119681
0.000118554
0.000117684
0.000117097
0.000116804
0.000116718
0.000116777
0.000116926
0.000117205
0.000117645
0.000118007
0.000117815
0.000116807
0.000117604
0.000120953
0.000124454
0.000132416
0.000153826
0.000217684
0.000292171
0.000315062
0.000306071
0.000294938
0.000269587
0.000227005
0.000187051
0.00015658
0.000139207
0.000130322
0.00012549
0.000122397
0.000120274
0.000119111
0.000118111
0.000117388
0.00011698
0.000116812
0.000116853
0.000117009
0.000117265
0.000117642
0.000118201
0.000118656
0.000118161
0.000116838
0.000117763
0.000121043
0.000124604
0.000132357
0.000148463
0.000193677
0.000281093
0.000322103
0.000317109
0.000303503
0.000279379
0.000238522
0.000197977
0.000164674
0.000143816
0.000132907
0.000127249
0.000123529
0.000121245
0.000119552
0.000118674
0.000117857
0.000117279
0.000117003
0.000117006
0.000117165
0.000117398
0.000117735
0.000118259
0.000118979
0.000119364
0.000118766
0.00011688
0.000117943
0.000121174
0.000124831
0.000132682
0.000145971
0.000179873
0.000261923
0.000321462
0.000328699
0.000313904
0.000288648
0.000249546
0.00020877
0.000173515
0.000149293
0.000136028
0.000129055
0.000125021
0.000122244
0.000120501
0.000119233
0.000118387
0.000117716
0.000117233
0.000117101
0.000117249
0.000117533
0.000117878
0.00011832
0.000119023
0.000120061
0.000114609
9.96215e-05
9.89949e-05
0.000116939
0.000118143
0.000121345
0.000125081
0.000133209
0.000145982
0.000170954
0.000238514
0.000316833
0.000338834
0.000325134
0.00029875
0.000259979
0.000219435
0.000182714
0.000155554
0.000139708
0.000131234
0.000126619
0.000123443
0.000121457
0.000120173
0.000119234
0.000118457
0.000117821
0.000117436
0.000117456
0.000117759
0.000118173
0.000118634
0.000119394
0.000120492
0.000106511
9.71528e-05
9.4951e-05
8.85717e-05
8.97996e-05
0.000117008
0.000118357
0.00012155
0.000125402
0.000133641
0.000146486
0.000165637
0.000217298
0.000305432
0.000346481
0.000336627
0.000309957
0.000270308
0.000229801
0.000192182
0.000162353
0.000143935
0.000133736
0.000128313
0.000125021
0.000122566
0.000121154
0.000120176
0.000119424
0.00011883
0.000118356
0.000118163
0.000118441
0.000119002
0.000119737
0.000120583
0.000117474
0.000110493
0.000104179
9.09773e-05
9.96637e-05
8.73924e-05
8.84831e-05
8.52853e-05
8.00002e-05
7.96996e-05
0.000117093
0.000118584
0.000121785
0.000125802
0.000134094
0.000147497
0.000162582
0.000202479
0.000289663
0.000346218
0.000347013
0.000322465
0.000281263
0.000239743
0.000201708
0.00016969
0.00014852
0.000136551
0.000130118
0.000126692
0.000124161
0.000122325
0.000121231
0.000120409
0.000119777
0.000119404
0.000119331
0.00011964
0.0001204
0.000121195
0.000121965
0.000110756
0.000100942
9.84377e-05
9.50456e-05
8.27338e-05
8.18968e-05
8.00995e-05
7.88252e-05
7.64511e-05
7.15251e-05
7.11898e-05
0.000117184
0.000118797
0.000122044
0.000126244
0.000134597
0.000148379
0.000161054
0.00019372
0.000272001
0.000343537
0.000355163
0.000336292
0.000292494
0.000250009
0.000211013
0.000177483
0.000153504
0.000139719
0.000132148
0.000128325
0.000125988
0.000124055
0.000122592
0.000121638
0.000120892
0.000120339
0.000120213
0.000120587
0.000121365
0.000122202
0.000122934
0.00010373
9.46626e-05
9.20609e-05
9.25908e-05
8.92465e-05
8.1494e-05
7.41759e-05
7.67398e-05
7.17402e-05
7.01945e-05
6.86424e-05
6.45298e-05
6.40937e-05
0.000117281
0.000118994
0.000122306
0.0001267
0.000135148
0.000149146
0.000160339
0.000187028
0.000252868
0.000336719
0.000362531
0.000347561
0.000304919
0.000260197
0.000220509
0.000185482
0.000159038
0.000143173
0.000134445
0.000129977
0.000127801
0.000126089
0.00012459
0.000123373
0.000122388
0.000121528
0.00012095
0.000121049
0.000121805
0.000122916
0.000121027
0.000101529
8.89885e-05
8.7464e-05
8.64266e-05
8.33269e-05
8.06437e-05
7.8752e-05
7.45406e-05
6.65043e-05
6.95157e-05
6.45713e-05
6.33164e-05
6.21172e-05
5.82626e-05
5.82741e-05
0.000117374
0.000119154
0.000122556
0.000127145
0.000135726
0.000149841
0.000160136
0.000182342
0.000236252
0.000325574
0.000367731
0.000357545
0.000319353
0.000270814
0.00023
0.000193847
0.000165022
0.000146922
0.000136966
0.000131815
0.000129513
0.000128281
0.000127109
0.000125926
0.000124837
0.000123688
0.000122519
0.00012208
0.000122571
0.000123524
0.000124002
0.000106994
8.75327e-05
9.13228e-05
8.15051e-05
8.16212e-05
7.65106e-05
7.46421e-05
7.28539e-05
7.08581e-05
6.79545e-05
6.02264e-05
6.3138e-05
5.87097e-05
5.77204e-05
5.64304e-05
5.30856e-05
5.35103e-05
0.00011745
0.000119249
0.000122771
0.000127548
0.000136309
0.000150472
0.000160383
0.000179408
0.000224083
0.000313098
0.000370403
0.000366677
0.000333021
0.000282389
0.000239395
0.000202545
0.000171573
0.000150918
0.000139654
0.000133781
0.000131159
0.000130382
0.00012987
0.000129276
0.000128127
0.00012665
0.000125192
0.00012395
0.000123754
0.000124386
0.000124342
0.000120069
0.000102228
0.000115324
8.66168e-05
0.000104739
7.57148e-05
8.47016e-05
6.86995e-05
7.04816e-05
6.62273e-05
6.43863e-05
6.19682e-05
5.50141e-05
5.79201e-05
5.41621e-05
5.30705e-05
5.17011e-05
4.88662e-05
4.98266e-05
0.000117495
0.000119254
0.00012292
0.000127874
0.000136855
0.000151045
0.000160969
0.000177366
0.000216718
0.000300782
0.000368506
0.000373893
0.000347137
0.000294628
0.000249125
0.000211339
0.000178681
0.000155317
0.000142352
0.00013569
0.000132808
0.000132392
0.000132766
0.000133059
0.000132763
0.000130919
0.000129081
0.00012713
0.000126248
0.000127156
0.000130308
0.000134808
0.000115446
0.000122984
0.000112578
0.000113315
0.000109348
0.000110822
8.29348e-05
0.00011033
6.67191e-05
8.31131e-05
6.04264e-05
6.38747e-05
5.6898e-05
5.08319e-05
5.36802e-05
5.04664e-05
4.91751e-05
4.77657e-05
4.55154e-05
4.67963e-05
0.000117492
0.000119149
0.00012297
0.000128079
0.000137311
0.000151534
0.000161551
0.000175936
0.000211934
0.000288554
0.000365313
0.000381293
0.000360592
0.000307017
0.00025922
0.000220186
0.000186288
0.000160311
0.000145137
0.000137498
0.000134386
0.000134227
0.000135597
0.000137277
0.00013866
0.000137471
0.000134633
0.000132474
0.000134136
0.000141967
0.000150173
0.000161995
0.00014949
0.000206318
0.000132437
0.000179024
0.00011821
0.000154346
0.000110554
0.000127668
0.000107829
0.000112715
8.54102e-05
0.000106748
6.11898e-05
8.70462e-05
5.86178e-05
4.72511e-05
5.57481e-05
5.17383e-05
4.58905e-05
4.47172e-05
4.30214e-05
4.4387e-05
0.000117418
0.000118899
0.000122897
0.000128126
0.000137621
0.000151898
0.000161985
0.000174917
0.000207796
0.00027675
0.000360584
0.000388739
0.000371495
0.00032075
0.000269579
0.000229254
0.000194356
0.000165972
0.000148151
0.000139328
0.00013586
0.000135829
0.000138164
0.00014165
0.000145462
0.000147376
0.000143802
0.000145112
0.000152403
0.000168553
0.000207518
0.000262551
0.000258872
0.000325789
0.000240898
0.000302387
0.000213416
0.000279387
0.00018068
0.0002491
0.000143766
0.000209784
0.000117414
0.000163562
0.000106437
0.000124002
8.88157e-05
0.000106402
8.88737e-05
4.72241e-05
8.58421e-05
7.72121e-05
4.33673e-05
4.36043e-05
4.1392e-05
4.25352e-05
0.000117296
0.000118499
0.000122659
0.000127991
0.000137739
0.000152089
0.0001622
0.000174136
0.000204119
0.000266561
0.000355738
0.000395301
0.000381635
0.000335252
0.00028061
0.000238635
0.000202937
0.000172403
0.000151831
0.000141122
0.000137097
0.000137197
0.000140467
0.000146009
0.00015294
0.000160605
0.000168764
0.000183313
0.000212758
0.000264707
0.000325847
0.000379875
0.000374233
0.000421102
0.000360737
0.00041348
0.000342745
0.000399516
0.000318281
0.000382107
0.000284728
0.000356816
0.00024038
0.000320311
0.000185455
0.000271062
0.000131388
0.00020757
0.000106398
0.000138094
0.00010539
6.52148e-05
0.00010307
9.91175e-05
4.18157e-05
5.33267e-05
4.08455e-05
4.13484e-05
0.000117147
0.000118135
0.000122295
0.000127616
0.000137655
0.000152066
0.000162137
0.000173463
0.000201244
0.000258696
0.000351311
0.000401444
0.000391677
0.000349311
0.000292483
0.000248461
0.000212178
0.000179898
0.00015637
0.000143469
0.000138259
0.0001385
0.000142513
0.000149905
0.000160901
0.000176491
0.000204811
0.000247731
0.000312735
0.000380957
0.000429032
0.000467586
0.000516076
0.000456125
0.000504734
0.000449295
0.000492762
0.00043817
0.000486865
0.000421016
0.000477178
0.000394355
0.000459711
0.000355488
0.000431185
0.000301028
0.000389221
0.000227929
0.000328766
0.000143205
0.00024373
0.000144685
9.37338e-05
0.000141519
0.00013245
4.54237e-05
8.89892e-05
4.14486e-05
4.34234e-05
0.00011755
0.000118558
0.000122186
0.000127052
0.000137291
0.000151826
0.000161807
0.000172764
0.000199098
0.000253143
0.000347834
0.000407421
0.00040173
0.00036341
0.000304783
0.000258885
0.000222071
0.000188642
0.000162146
0.000146671
0.000139933
0.000139795
0.000144278
0.000153495
0.000167815
0.000192693
0.000241339
0.000319409
0.000419403
0.000473006
0.000501049
0.00051932
0.000564561
0.000587501
0.000613495
0.000529952
0.000562242
0.00052903
0.000566009
0.000525475
0.000566952
0.000515802
0.000563653
0.000497001
0.000552964
0.000466465
0.000532004
0.000420351
0.000498557
0.000352151
0.000447348
0.000253616
0.000369036
0.000255949
0.000118153
0.000248097
0.000226452
7.32878e-05
0.000101133
4.42268e-05
5.56172e-05
0.000119589
0.000121177
0.000122603
0.000126794
0.000136634
0.000151231
0.000161107
0.000171935
0.000197461
0.000249218
0.00034463
0.000413047
0.000412476
0.000378239
0.000317723
0.000269937
0.000232747
0.000199055
0.000169963
0.000151098
0.000142614
0.000141794
0.000145887
0.000156057
0.0001735
0.000207669
0.000276785
0.000399477
0.00050877
0.000540079
0.000543925
0.000558032
0.000599572
0.000632935
0.00064869
0.000646687
0.000664635
0.000597752
0.000624355
0.000602447
0.000632813
0.000603668
0.000636781
0.000599283
0.000636848
0.000586573
0.000630612
0.000563321
0.000615479
0.000526196
0.000589609
0.000468454
0.000548467
0.000379048
0.000482661
0.000381247
0.000191054
0.000372719
0.000349716
8.55912e-05
0.000150089
5.31363e-05
7.9609e-05
0.000122152
0.000126947
0.000125628
0.000127603
0.000136624
0.000150131
0.000160057
0.000171
0.00019617
0.000246888
0.000342461
0.000418796
0.000425925
0.00039441
0.000331641
0.000281752
0.000244746
0.000211494
0.000180118
0.000158037
0.00014734
0.000144718
0.000147884
0.000157673
0.000177086
0.000218157
0.000309282
0.000471289
0.000572463
0.000588938
0.000586287
0.000593043
0.000636911
0.000661913
0.000671508
0.000678681
0.000683699
0.00069145
0.000693795
0.000658088
0.000677565
0.000663924
0.000685108
0.000666007
0.000687941
0.000664422
0.000688802
0.000656065
0.000685597
0.000638952
0.000675554
0.000610458
0.000656858
0.000564434
0.000625919
0.000490512
0.000574587
0.000490677
0.000307376
0.000480444
0.000456571
0.000110385
0.000242409
8.07726e-05
7.94979e-05
0.000124484
0.00013988
0.000139208
0.000133398
0.000137922
0.000150109
0.00015851
0.00016978
0.000195167
0.000245591
0.000341145
0.000425192
0.00044166
0.000411022
0.000346824
0.000294357
0.000257721
0.000225605
0.000193406
0.000168873
0.000156183
0.000149671
0.000151045
0.000159928
0.000178659
0.00022107
0.000332031
0.00053271
0.000618739
0.000626949
0.00062022
0.000630672
0.000655068
0.000667769
0.000684891
0.000681577
0.000692767
0.000686066
0.00069861
0.000690908
0.000699827
0.000700962
0.000704529
0.000706753
0.000704302
0.000713374
0.000704678
0.000714448
0.000700551
0.000714723
0.000689601
0.000710443
0.000669828
0.00069917
0.000636223
0.000678749
0.000579077
0.000642175
0.00057701
0.000416161
0.000566428
0.000545585
0.000168583
0.000352948
7.23825e-05
0.000103187
0.000139965
0.000155615
0.000150727
0.000144646
0.000151234
0.000158403
0.00016888
0.000194592
0.000244592
0.000340724
0.000432613
0.000459021
0.000428904
0.000363832
0.000308238
0.000271505
0.000242634
0.000211641
0.00018508
0.000167612
0.000157263
0.000156108
0.000163371
0.000179757
0.000220736
0.000337298
0.000574966
0.000656131
0.000656211
0.0006477
0.000654784
0.000656478
0.000662629
0.000660561
0.000645769
0.000680877
0.000674458
0.00068253
0.000672842
0.00068282
0.000668057
0.000702909
0.0006936
0.000708936
0.000696863
0.000715199
0.000705711
0.000718732
0.000714558
0.000720458
0.000720008
0.00071646
0.000723023
0.000705308
0.000719433
0.00068428
0.000709178
0.000643642
0.000686799
0.000640479
0.000510165
0.000631522
0.000614441
0.000258897
0.000452777
6.16451e-05
0.000152097
0.000150275
0.000170327
0.000163569
0.000157101
0.000159357
0.00016875
0.000193945
0.000244699
0.000341049
0.000441109
0.000477849
0.000448863
0.000383362
0.000323752
0.000287524
0.000263336
0.00023512
0.000206732
0.000181349
0.000167093
0.000162876
0.000168104
0.000180799
0.000218193
0.000334946
0.00058988
0.000687201
0.000681904
0.000667531
0.000652926
0.000652609
0.000653845
0.000627789
0.000608777
0.00061747
0.000591011
0.000659199
0.000640484
0.000649425
0.000626702
0.000641072
0.000613114
0.000683084
0.000664808
0.000687411
0.000666805
0.000698601
0.000675061
0.000711052
0.000689899
0.000719164
0.000704469
0.00072312
0.000714992
0.000720022
0.000716184
0.000710638
0.000705251
0.000685842
0.000709613
0.000681763
0.000586093
0.000674219
0.000663115
0.000635441
0.000359843
0.000537272
6.95781e-05
0.000232846
0.000160426
0.000186962
0.000173242
0.000164078
0.00016972
0.000193664
0.000243341
0.000341192
0.000450307
0.0004977
0.000471516
0.000405542
0.000341457
0.000305545
0.000284675
0.000258454
0.000227091
0.000198254
0.000178733
0.000169831
0.000172775
0.00018277
0.000212992
0.000326051
0.000588061
0.000709742
0.000706636
0.00068422
0.000655465
0.000641052
0.000611849
0.000522254
0.000562573
0.000517146
0.00053955
0.000506209
0.000599983
0.00057085
0.000582012
0.00054808
0.000572324
0.000533304
0.000639926
0.000608191
0.000647444
0.000613867
0.000661335
0.000628795
0.000678289
0.000646109
0.000692524
0.000662105
0.00067439
0.000651653
0.000645288
0.000606733
0.000660436
0.000595411
0.000699402
0.000615201
0.000706497
0.000690462
0.000670616
0.000655256
0.000607089
0.000644412
0.00068198
0.000660488
0.000644909
0.000676718
0.000453701
0.000630718
0.000610545
0.00055646
0.000100772
0.000323893
0.000176583
0.000207232
0.000177478
0.000173736
0.000193848
0.000241356
0.000339377
0.000458411
0.000518345
0.000496806
0.000430975
0.000361414
0.000324587
0.00030606
0.000282044
0.000248574
0.000216772
0.000189489
0.000173333
0.000171811
0.000181832
0.000210383
0.000308407
0.000575951
0.000721382
0.000731501
0.000703947
0.000669524
0.000622826
0.000524423
0.000403513
0.000393437
0.000346539
0.000471089
0.000431029
0.00043981
0.000403826
0.000512484
0.000476197
0.000491777
0.000449696
0.000492367
0.000449411
0.000575852
0.000535084
0.000590966
0.000551847
0.000610472
0.000573107
0.000627397
0.000589533
0.000641057
0.000603122
0.00058285
0.000585108
0.00054883
0.000547602
0.000522533
0.000622426
0.000545114
0.00049441
0.000555333
0.000580567
0.000684631
0.000589536
0.000586348
0.00065368
0.000669999
0.000661479
0.000679409
0.000639681
0.000647348
0.000677188
0.000584618
0.000468154
0.000538508
0.000649543
0.000632775
0.000116038
0.00047862
0.000372287
0.000314577
0.000202327
0.000207097
0.000183181
0.00019686
0.000238546
0.000336324
0.000464683
0.000538132
0.000524947
0.000459638
0.000384076
0.000344434
0.000327056
0.000307065
0.000281891
0.000258305
0.000234714
0.000214476
0.00019365
0.00018506
0.000207712
0.000295813
0.000543875
0.00072312
0.000754143
0.000731116
0.000691784
0.000625057
0.000448107
0.000299954
0.000247555
0.000297772
0.000256782
0.000368397
0.000333277
0.000332254
0.00029956
0.00040844
0.0003689
0.000407398
0.000365756
0.000436522
0.000398487
0.000513366
0.000474903
0.000535837
0.000498576
0.000550762
0.000513632
0.000562603
0.000523576
0.00057231
0.000530625
0.000543751
0.00051768
0.000545196
0.000541647
0.000519609
0.000478558
0.00048661
0.000517681
0.000547258
0.000523472
0.00049231
0.000502658
0.000571428
0.000601123
0.000561511
0.000535922
0.000594731
0.000667142
0.000651433
0.000630377
0.000591819
0.000581029
0.000623888
0.000590872
0.000536931
0.000629358
0.000598891
0.000280343
6.05637e-05
0.000182795
0.000452401
0.000368455
0.000232432
0.00020175
0.000203052
0.000238161
0.000332707
0.000467501
0.000556817
0.00055456
0.000491857
0.000409135
0.000365638
0.00034935
0.000336882
0.000336393
0.000343263
0.000349535
0.000334215
0.000297888
0.000252382
0.000225121
0.000295906
0.000507478
0.000719873
0.000770291
0.000765949
0.000724261
0.000639135
0.000426862
0.000255511
0.000201846
0.000194845
0.000178816
0.000226397
0.000208115
0.000271175
0.000247021
0.000253175
0.000225744
0.000325127
0.000286997
0.000360932
0.00032375
0.000393625
0.000360424
0.000462554
0.000427606
0.000479634
0.000449905
0.000490212
0.000464225
0.000494273
0.000467216
0.000521921
0.000502246
0.000486057
0.000470985
0.000513836
0.000522344
0.000522729
0.000502228
0.000486373
0.000488701
0.000501217
0.000492647
0.000507715
0.000493378
0.000477261
0.000480418
0.000529494
0.000547163
0.000517433
0.000498075
0.000539214
0.000613317
0.000600704
0.000573336
0.000533604
0.000527134
0.000568189
0.000558232
0.000504632
0.000583362
0.000558565
0.000255857
4.84622e-05
0.000178756
0.00042677
0.000335676
0.000245282
0.000215216
0.000240905
0.000332641
0.000470097
0.000572088
0.000585348
0.000526122
0.000437686
0.000388243
0.000373358
0.000377005
0.000404311
0.000446792
0.000469394
0.000455187
0.000417467
0.000364207
0.000311311
0.000310789
0.000483762
0.000705269
0.000778414
0.000801488
0.000776193
0.00067443
0.00044175
0.000249299
0.000180243
0.000156638
0.000163821
0.000156751
0.000179973
0.000171405
0.000205413
0.000190935
0.000223543
0.000199239
0.000287579
0.000253623
0.000327534
0.000294836
0.000376592
0.000353324
0.000423648
0.000399614
0.000443848
0.000428034
0.000449419
0.000438874
0.000460566
0.000450985
0.000445411
0.000439878
0.000483671
0.000468124
0.000456021
0.000446983
0.000503337
0.000504147
0.000483211
0.000465272
0.000474453
0.000488345
0.000477977
0.000487379
0.00048197
0.00047247
0.000465874
0.00046679
0.0004909
0.000505612
0.000483442
0.000473113
0.000497865
0.00056278
0.000556134
0.000522676
0.000493471
0.000488849
0.00052035
0.000523718
0.000470597
0.000545377
0.000526321
0.000225814
3.78849e-05
0.000168649
0.000398088
0.000300466
0.000254103
0.000251492
0.000337735
0.000471656
0.0005862
0.000614382
0.000562912
0.00046856
0.000412499
0.000398847
0.000421208
0.000481721
0.000553005
0.000576089
0.00055763
0.000515474
0.000461109
0.000403189
0.000368249
0.000479318
0.00068262
0.000783593
0.000830481
0.000838962
0.000758239
0.000499406
0.000258618
0.000177328
0.000149081
0.00014377
0.00014002
0.000150261
0.000145676
0.000161735
0.000155522
0.000181697
0.000169895
0.000205284
0.000183958
0.000262684
0.000232226
0.000328624
0.00030191
0.000390309
0.000375982
0.000414864
0.000402752
0.000431836
0.000427795
0.000433228
0.000433825
0.000440819
0.000436749
0.000434589
0.000433856
0.000451093
0.00044072
0.000433821
0.000429768
0.000485969
0.000464675
0.00044739
0.000434366
0.000466441
0.000479073
0.00046903
0.000468142
0.000463979
0.00045918
0.000458163
0.000457594
0.000467221
0.000475796
0.000462669
0.000456464
0.000471482
0.000519529
0.000517884
0.000486276
0.000467333
0.000463195
0.000484457
0.000494295
0.000442798
0.000513171
0.000499787
0.000210507
2.53555e-05
0.000158702
0.000371579
0.000282665
0.000284151
0.000344768
0.000478152
0.0005969
0.000642391
0.000599701
0.000503586
0.00043722
0.000422507
0.000463511
0.000557427
0.000645614
0.000658784
0.00063387
0.000589231
0.000535084
0.000478069
0.000437923
0.000492728
0.000662979
0.000783783
0.000857384
0.000899246
0.000841658
0.000611219
0.000288767
0.000185312
0.000148707
0.000135976
0.000137537
0.000134287
0.00014425
0.000140409
0.000153349
0.0001485
0.000169068
0.000159623
0.000216295
0.000192574
0.000273309
0.000244066
0.000358547
0.000337455
0.00041812
0.000410959
0.000425136
0.000422225
0.000436113
0.000440356
0.000430432
0.000432131
0.000438983
0.000435211
0.000427856
0.000427389
0.000427865
0.000428763
0.000425444
0.000420142
0.000417725
0.000417378
0.000446814
0.000429983
0.000417751
0.000409862
0.000458647
0.000451215
0.000435172
0.000429562
0.000452098
0.0004503
0.000448253
0.000450601
0.000451784
0.000457441
0.000446819
0.000445412
0.000453774
0.000484712
0.000485156
0.000460794
0.000449494
0.000446611
0.000459954
0.00047101
0.00042194
0.000484497
0.000475821
0.000199616
2.80029e-05
0.000175865
0.000358201
0.000279253
0.000365357
0.000484259
0.000608842
0.000667195
0.000636874
0.000540272
0.000464471
0.000443686
0.000497529
0.000625055
0.000712709
0.000717571
0.000686238
0.000639853
0.000585059
0.000533734
0.000496845
0.000515477
0.000649352
0.000775463
0.000875386
0.000953121
0.000916962
0.000709541
0.000343686
0.000198748
0.000154137
0.000136567
0.000129203
0.000129118
0.000131895
0.000130226
0.000139697
0.000135109
0.000152644
0.000145517
0.000174551
0.000161803
0.000255832
0.000228128
0.000312582
0.000284801
0.000399522
0.000383621
0.0004548
0.000453488
0.000446612
0.000451915
0.000442947
0.000450795
0.000467768
0.000428195
0.000432248
0.000442464
0.000436878
0.00041836
0.000420404
0.000422275
0.000424842
0.00040556
0.000404053
0.000404578
0.000406518
0.000412965
0.00040119
0.0003937
0.000389715
0.00042042
0.000413174
0.000397514
0.00039633
0.000442978
0.000442534
0.000406794
0.000436242
0.000439634
0.000441083
0.000432513
0.000435217
0.000436427
0.000461891
0.000463363
0.000445993
0.000432713
0.000432136
0.000447189
0.000452894
0.000411023
0.000463062
0.00045824
0.000193556
2.94805e-05
0.000161424
0.000365096
0.000302893
0.000503224
0.00061817
0.000689876
0.00067131
0.000580753
0.000490997
0.000462407
0.000521772
0.000675697
0.000758951
0.000757672
0.000722862
0.000664872
0.000613138
0.000569499
0.000541906
0.000551111
0.000645112
0.00076702
0.000893982
0.00100001
0.000984338
0.000798503
0.000409502
0.00022205
0.000162157
0.000140412
0.000130027
0.000126219
0.000126018
0.000130187
0.000126998
0.000143913
0.000135712
0.000167935
0.00015469
0.000203945
0.000184073
0.000309625
0.000279485
0.000362945
0.000337947
0.000445902
0.000433208
0.000508968
0.000510671
0.000485151
0.00050111
0.000450037
0.000459001
0.000479755
0.000494798
0.000425021
0.000430071
0.000445161
0.000436439
0.000409718
0.000412417
0.000416064
0.000420224
0.000388338
0.00038899
0.000391246
0.000395324
0.000384535
0.000376867
0.000372356
0.000370431
0.000382544
0.000380184
0.00036442
0.000367803
0.000433796
0.000425335
0.000368477
0.00039436
0.000427581
0.000425982
0.000419164
0.000424776
0.000421674
0.000447908
0.000448882
0.000432937
0.000418305
0.000415525
0.000433212
0.000441987
0.000415033
0.000451351
0.000451412
0.000199662
0.000121227
0.000168885
0.000405273
0.000351103
0.000633886
0.000709131
0.000703092
0.000621146
0.000520287
0.000479275
0.00053333
0.000708024
0.000787632
0.000783122
0.000734465
0.000667609
0.000625808
0.000589442
0.000568742
0.000580999
0.000656143
0.0007772
0.00091131
0.00103941
0.00104139
0.000875054
0.000478454
0.000246579
0.000171827
0.000147399
0.00013323
0.00012465
0.000126485
0.000124651
0.000124357
0.000133264
0.000127503
0.00015713
0.000143037
0.000196839
0.000175225
0.000249617
0.000221746
0.000365558
0.000335118
0.000415243
0.000392545
0.000503791
0.000490818
0.000530739
0.00055787
0.000505501
0.000518362
0.000492765
0.000455444
0.000467403
0.000462635
0.000446666
0.000419861
0.000427009
0.00044757
0.000436462
0.000398833
0.00040307
0.000408215
0.000413819
0.000370487
0.000372336
0.00037615
0.000381351
0.000359301
0.000353607
0.000350002
0.000348455
0.000349256
0.000351125
0.00033476
0.000341138
0.000415307
0.000383196
0.000334922
0.000355388
0.000416175
0.000414214
0.000409263
0.000405262
0.000405886
0.00043534
0.000439083
0.000411345
0.000395892
0.000383269
0.000411781
0.000443002
0.000452993
0.00044462
0.000450475