/*--------------------------------*- C++ -*----------------------------------*\
  =========                 |
  \\      /  F ield         | OpenFOAM: The Open Source CFD Toolbox
   \\    /   O peration     | Website:  https://openfoam.org
    \\  /    A nd           | Version:  dev
     \\/     M anipulation  |
\*---------------------------------------------------------------------------*/
FoamFile
{
    version     2.0;
    format      ascii;
    class       volScalarField;
    location    "2500";
    object      CO2;
}
// * * * * * * * * * * * * * * * * * * * * * * * * * * * * * * * * * * * * * //

dimensions      [0 0 0 0 0 0 0];

internalField   nonuniform List<scalar> 
9851
(
3.28329e-28
1.18202e-27
7.29371e-28
3.66582e-27
2.95258e-27
4.08191e-28
1.33687e-26
1.10018e-26
3.89631e-27
1.94529e-28
4.02812e-26
3.90267e-26
1.22241e-26
2.93781e-27
7.12854e-29
1.04242e-25
1.29061e-25
4.66436e-26
9.51604e-27
1.19285e-27
8.72877e-29
3.30883e-25
4.42223e-25
2.3118e-25
3.91662e-26
8.06476e-27
5.94571e-28
6.17073e-29
1.46415e-24
1.39319e-24
8.26962e-25
1.94568e-25
2.77767e-26
3.76907e-27
8.9125e-28
2.80949e-28
4.94404e-24
5.64141e-24
3.19416e-24
8.70541e-25
1.56963e-25
2.6135e-26
2.74082e-27
1.70111e-27
4.64755e-28
1.02947e-23
2.56466e-23
1.24285e-23
3.73594e-24
1.00911e-24
1.15856e-25
1.60901e-26
6.32179e-27
2.7858e-27
3.77753e-28
7.12993e-23
1.08139e-22
5.29262e-23
1.86637e-23
4.15151e-24
7.72364e-25
8.43429e-26
2.39325e-26
1.5836e-26
7.49364e-27
4.2866e-28
1.6395e-22
4.19485e-22
2.06074e-22
7.4918e-23
1.76421e-23
2.78603e-24
4.6603e-25
6.77459e-26
6.32362e-26
4.15969e-26
7.2028e-27
3.57668e-27
1.25703e-21
1.83284e-21
8.93835e-22
3.57919e-22
8.99487e-23
1.75878e-23
1.61018e-24
3.01649e-25
1.49091e-25
1.63761e-25
6.65596e-26
2.00405e-26
9.10564e-27
3.15703e-21
7.05871e-21
4.36211e-21
1.57291e-21
4.4725e-22
8.06902e-23
9.30402e-24
1.32779e-24
5.16351e-25
4.84781e-25
2.91595e-25
1.81849e-25
7.47567e-26
2.45326e-27
2.99296e-20
3.63183e-20
1.5694e-20
7.7901e-21
1.84191e-21
3.96188e-22
5.46205e-23
5.53547e-24
1.49092e-24
1.26443e-24
9.32998e-25
5.56364e-25
3.89246e-25
6.07057e-26
1.63667e-26
1.86111e-19
1.26732e-19
8.56679e-20
4.13791e-20
1.01737e-20
1.80542e-21
2.61557e-22
2.93325e-23
4.23989e-24
3.08158e-24
2.56826e-24
2.22121e-24
1.15363e-24
7.09336e-25
1.93627e-25
2.34675e-26
1.50321e-18
8.04485e-19
5.33412e-19
2.15715e-19
5.3998e-20
1.00191e-20
1.62972e-21
1.46756e-22
2.3091e-23
7.55113e-24
8.5523e-24
9.18146e-24
6.02295e-24
2.6158e-24
1.75031e-24
2.89503e-25
1.46603e-25
9.37115e-18
5.91368e-18
2.28604e-18
9.74262e-19
2.74306e-19
5.73401e-20
8.6983e-21
9.62861e-22
1.1443e-22
1.90342e-23
1.94969e-23
2.07153e-23
1.94199e-23
1.50414e-23
4.53706e-24
3.03773e-24
1.17901e-24
1.23117e-25
4.77743e-17
2.69743e-17
1.16038e-17
4.581e-18
1.1856e-18
2.57593e-19
4.83167e-20
6.36218e-21
5.59244e-22
7.93669e-23
4.11114e-23
4.36992e-23
5.06304e-23
4.07382e-23
2.06834e-23
8.19588e-24
3.79461e-24
1.20721e-24
4.58502e-25
1.81265e-17
1.02156e-16
4.96508e-17
1.90172e-17
5.05922e-18
1.00331e-18
1.87416e-19
2.46408e-20
3.98572e-21
3.35655e-22
9.57748e-23
9.76023e-23
9.10527e-23
9.13205e-23
6.54886e-23
2.24088e-23
2.68629e-23
9.15613e-24
4.1477e-24
1.62956e-24
7.2354e-18
9.78896e-17
1.32142e-16
6.64414e-17
1.95159e-17
3.83251e-18
6.13235e-19
1.07395e-19
1.63024e-20
2.05922e-21
3.0796e-22
1.86983e-22
2.48264e-22
2.54523e-22
1.98917e-22
1.17636e-22
6.98218e-23
3.68535e-23
2.12971e-23
1.91363e-23
1.48036e-23
2.20977e-18
5.51377e-17
1.78089e-16
1.63714e-16
6.06093e-17
1.77501e-17
2.67246e-18
4.22488e-19
6.00529e-20
9.57892e-21
1.0975e-21
4.35734e-22
5.16774e-22
4.10052e-22
4.23248e-22
4.90321e-22
3.11159e-22
1.35131e-22
8.77166e-23
1.59036e-22
1.67408e-22
9.45294e-23
3.23414e-18
3.02965e-17
1.27941e-16
2.63685e-16
1.58191e-16
5.28368e-17
1.28713e-17
2.13715e-18
3.11879e-19
4.07489e-20
5.55709e-21
8.91605e-22
8.82363e-22
1.19648e-21
8.04584e-22
9.08303e-22
1.09338e-21
9.60791e-22
7.77909e-22
8.67646e-22
1.11536e-21
7.91507e-22
2.66165e-22
3.53068e-18
2.13113e-17
1.08935e-16
3.16862e-16
2.91214e-16
1.32703e-16
3.85581e-17
8.26518e-18
1.18701e-18
1.74447e-19
2.30564e-20
2.66664e-21
1.77785e-21
1.84997e-21
2.61426e-21
2.35256e-21
2.1273e-21
3.41532e-21
4.21347e-21
3.30011e-21
6.58297e-21
7.67646e-21
5.41283e-21
2.02207e-21
5.8918e-18
1.62563e-17
6.42255e-17
2.96392e-16
4.20047e-16
2.7128e-16
9.18146e-17
2.04617e-17
4.52593e-18
6.14683e-19
8.84597e-20
9.80088e-21
3.83067e-21
4.12008e-21
5.9934e-21
8.98377e-21
8.97251e-21
6.80563e-21
1.58937e-20
2.79776e-20
3.40553e-20
4.1896e-20
4.27941e-20
5.8692e-20
2.44698e-20
7.57909e-18
2.9562e-17
5.81643e-17
2.67504e-16
4.82708e-16
4.4267e-16
1.78614e-16
5.42538e-17
1.10455e-17
2.22652e-18
3.168e-19
4.2229e-20
8.90584e-21
7.6291e-21
1.00618e-20
1.69284e-20
2.48949e-20
2.13468e-20
3.83219e-20
1.05679e-19
1.55527e-19
1.59319e-19
2.86839e-19
3.80053e-19
3.25473e-19
4.71308e-20
9.04998e-18
4.06305e-17
7.58659e-17
2.59317e-16
5.11839e-16
6.12586e-16
3.82204e-16
1.18899e-16
3.69255e-17
5.98079e-18
9.59819e-19
1.64577e-19
1.91069e-20
1.47967e-20
2.6938e-20
3.31498e-20
5.89494e-20
8.87056e-20
1.46079e-19
3.39312e-19
7.37135e-19
1.20347e-18
1.34527e-18
1.62287e-18
2.28907e-18
1.22143e-18
5.77463e-19
1.18307e-17
4.78502e-17
1.38181e-16
2.81844e-16
5.44428e-16
7.54543e-16
6.41293e-16
2.70766e-16
7.83964e-17
1.76554e-17
2.56852e-18
4.87259e-19
8.16543e-20
2.5217e-20
4.12422e-20
8.94671e-20
1.09299e-19
2.31637e-19
5.4879e-19
1.08057e-18
3.3604e-18
7.21547e-18
1.16251e-17
1.25723e-17
1.01357e-17
1.23791e-17
1.33523e-17
8.42027e-18
2.11193e-17
1.02612e-16
2.52643e-16
3.51896e-16
6.04494e-16
8.54621e-16
8.9791e-16
4.29355e-16
1.56418e-16
3.87303e-17
7.06305e-18
1.15268e-18
2.48133e-19
6.91427e-20
9.95855e-20
1.42864e-19
3.61789e-19
5.27933e-19
1.90559e-18
4.94645e-18
9.97284e-18
3.11997e-17
4.37387e-17
9.61475e-17
8.40619e-17
9.44882e-17
1.0155e-16
8.77479e-17
3.57984e-17
3.97395e-17
1.59984e-16
3.4618e-16
5.09354e-16
7.23127e-16
9.96976e-16
1.24215e-15
8.36981e-16
3.08e-16
8.86399e-17
1.90034e-17
3.74184e-18
6.34109e-19
1.62326e-19
1.62793e-19
3.34293e-19
8.26189e-19
1.79782e-18
5.03997e-18
1.45829e-17
4.78763e-17
1.22205e-16
2.39835e-16
4.25497e-16
6.73603e-16
8.07621e-16
8.40959e-16
5.84385e-16
3.99644e-16
9.48453e-17
5.57693e-17
2.69672e-16
5.49637e-16
8.38153e-16
1.11086e-15
1.32916e-15
1.63342e-15
1.16408e-15
5.91841e-16
1.54114e-16
5.22238e-17
9.72338e-18
1.39217e-18
3.04781e-19
3.12602e-19
6.12706e-19
1.52079e-18
5.52404e-18
1.22445e-17
3.35529e-17
1.1946e-16
3.85755e-16
1.08629e-15
1.57743e-15
2.89668e-15
4.25393e-15
5.03513e-15
4.51077e-15
3.20669e-15
1.47303e-15
3.27559e-16
1.15574e-16
5.63261e-16
1.0357e-15
1.26973e-15
1.80275e-15
1.94836e-15
2.11423e-15
1.83186e-15
9.30206e-16
3.48415e-16
1.02999e-16
1.79575e-17
4.93913e-18
9.11403e-19
5.20861e-19
1.31806e-18
2.64399e-18
9.71404e-18
4.36643e-17
1.09565e-16
2.98774e-16
1.01197e-15
3.61864e-15
8.8964e-15
1.92667e-14
3.35387e-14
4.5054e-14
4.65092e-14
3.64607e-14
2.19945e-14
7.91106e-15
1.04942e-15
2.16535e-16
8.69398e-16
1.8439e-15
2.20992e-15
2.62864e-15
2.98468e-15
2.60906e-15
2.34693e-15
1.50371e-15
6.34145e-16
2.10086e-16
5.18952e-17
1.09505e-17
1.96634e-18
1.48566e-18
3.48211e-18
7.53793e-18
2.89999e-17
9.58109e-17
2.76505e-16
1.15523e-15
3.91295e-15
1.59193e-14
5.31551e-14
1.3078e-13
2.51422e-13
3.80301e-13
4.44493e-13
3.96771e-13
2.63257e-13
1.24594e-13
2.95442e-14
3.16158e-15
4.03216e-16
1.41026e-15
2.76489e-15
4.57892e-15
4.34577e-15
5.32199e-15
3.97176e-15
3.51042e-15
2.22781e-15
1.03421e-15
3.70228e-16
8.88578e-17
2.57523e-17
6.18261e-18
2.95177e-18
7.8225e-18
2.71834e-17
8.39251e-17
2.52995e-16
7.12402e-16
2.93591e-15
1.5787e-14
7.46494e-14
2.7916e-13
8.0209e-13
1.74722e-12
2.90527e-12
3.79068e-12
3.86381e-12
2.96308e-12
1.57643e-12
3.91718e-13
7.03047e-14
8.74038e-16
1.4102e-14
5.35719e-16
2.44144e-15
5.06206e-15
8.09349e-15
9.95409e-15
9.45956e-15
8.04259e-15
6.02043e-15
3.63778e-15
1.55077e-15
5.91376e-16
2.04582e-16
4.17329e-17
1.30482e-17
7.63143e-18
1.37404e-17
5.65198e-17
1.74587e-16
5.84106e-16
2.04353e-15
1.01437e-14
6.28987e-14
3.33776e-13
1.36474e-12
4.33362e-12
1.07547e-11
2.02735e-11
2.91664e-11
3.28679e-11
2.9422e-11
1.92054e-11
5.66479e-12
7.82405e-13
9.70112e-14
6.34686e-13
3.0287e-15
4.57358e-14
1.40006e-15
4.28361e-15
9.17962e-15
1.45249e-14
1.89332e-14
1.70279e-14
1.45159e-14
1.00656e-14
6.2345e-15
2.99316e-15
9.19448e-16
3.47411e-16
7.86297e-17
2.15854e-17
1.66836e-17
4.32567e-17
1.08825e-16
4.09966e-16
1.43883e-15
5.84979e-15
3.7114e-14
2.47986e-13
1.40955e-12
6.20166e-12
2.12104e-11
5.75443e-11
1.23901e-10
2.02733e-10
2.53288e-10
2.47615e-10
1.96147e-10
7.6153e-11
8.77558e-12
3.46757e-11
3.41645e-12
2.29513e-11
1.95874e-11
3.50387e-13
2.2645e-12
9.42706e-15
1.53201e-13
1.42394e-15
7.57548e-15
1.81001e-14
2.80393e-14
3.52145e-14
3.59224e-14
2.84579e-14
2.10189e-14
1.2266e-14
5.4786e-15
1.72052e-15
5.09933e-16
1.90247e-16
4.16598e-17
4.40535e-17
7.44808e-17
2.99767e-16
9.28844e-16
3.06131e-15
1.7174e-14
1.27152e-13
1.01083e-12
5.74121e-12
2.63999e-11
9.55618e-11
2.76404e-10
6.51516e-10
1.22252e-09
1.74963e-09
1.91554e-09
1.6345e-09
9.35146e-10
1.28321e-10
5.26563e-10
1.06874e-10
1.36011e-11
9.73259e-11
7.7509e-11
1.23665e-12
8.44412e-12
3.08499e-14
5.22388e-13
2.46129e-15
1.36875e-14
3.21663e-14
5.66071e-14
7.10643e-14
7.4928e-14
5.15371e-14
3.38926e-14
2.0964e-14
1.11294e-14
3.29479e-15
9.97929e-16
3.28596e-16
9.96875e-17
9.9412e-17
2.31232e-16
6.06866e-16
2.02392e-15
8.19114e-15
4.85168e-14
3.98137e-13
3.64627e-12
2.36603e-11
1.07761e-10
4.01293e-10
1.21463e-09
3.04008e-09
6.27952e-09
1.0418e-08
1.32141e-08
1.29446e-08
9.75775e-09
1.92941e-09
7.17484e-09
4.96447e-10
2.14621e-09
4.80551e-10
5.40341e-11
4.2082e-10
3.29334e-10
4.4973e-12
3.31007e-11
1.06716e-13
1.88371e-12
4.39333e-15
2.27468e-14
6.03865e-14
9.84713e-14
1.43698e-13
1.37248e-13
1.14964e-13
7.07217e-14
4.40287e-14
1.85155e-14
6.95835e-15
1.6999e-15
5.30599e-16
2.55197e-16
1.8903e-16
4.94153e-16
1.46754e-15
5.44462e-15
2.2885e-14
1.2839e-13
1.15249e-12
1.17845e-11
8.63484e-11
4.36179e-10
1.61432e-09
4.95168e-09
1.28627e-08
2.82666e-08
5.23386e-08
7.8296e-08
9.02345e-08
8.30462e-08
2.37465e-08
7.80365e-08
8.53363e-09
3.14291e-08
2.2261e-09
9.67326e-09
2.15695e-09
2.29479e-10
1.8996e-09
1.50585e-09
1.74218e-11
1.39772e-10
3.90307e-13
7.1826e-12
6.96833e-15
3.95205e-14
1.00901e-13
1.91744e-13
2.49344e-13
2.76624e-13
2.24772e-13
1.59678e-13
7.46059e-14
3.8311e-14
1.3779e-14
3.25214e-15
1.01162e-15
4.59818e-16
5.91814e-16
1.3289e-15
4.47666e-15
1.63161e-14
6.39941e-14
3.17192e-13
3.03994e-12
3.49171e-11
2.82455e-10
1.57595e-09
6.29403e-09
1.9363e-08
5.02279e-08
1.13762e-07
2.25911e-07
3.86555e-07
5.38534e-07
5.92311e-07
2.3105e-07
6.7551e-07
1.0819e-07
3.48347e-07
3.88077e-08
1.44087e-07
1.02584e-08
4.53175e-08
1.01719e-08
1.05543e-09
9.16547e-09
7.40675e-09
7.20204e-11
6.35054e-10
1.52349e-12
2.92215e-11
1.20938e-14
6.79184e-14
1.79243e-13
3.43877e-13
4.99316e-13
5.5598e-13
4.5331e-13
3.50876e-13
1.66511e-13
8.81173e-14
2.83867e-14
7.27816e-15
1.72675e-15
1.0057e-15
1.56026e-15
4.12806e-15
1.33338e-14
4.9547e-14
1.86008e-13
7.80725e-13
6.36545e-12
9.55233e-11
8.45557e-10
5.13028e-09
2.21024e-08
7.14459e-08
1.87668e-07
4.20061e-07
8.53419e-07
1.58748e-06
2.62909e-06
3.56373e-06
1.78077e-06
4.57413e-06
1.04502e-06
2.88062e-06
4.95938e-07
1.56833e-06
1.83822e-07
6.78646e-07
4.96888e-08
2.20949e-07
5.05739e-08
5.20883e-09
4.68131e-08
3.84887e-08
3.19929e-10
3.09224e-09
6.40403e-12
1.27516e-10
2.2859e-14
1.19018e-13
3.09002e-13
6.08255e-13
9.36773e-13
1.10637e-12
9.50858e-13
7.55896e-13
4.64842e-13
1.52023e-13
5.29592e-14
1.40907e-14
3.87603e-15
3.07066e-15
5.81542e-15
1.37192e-14
4.55234e-14
1.58965e-13
5.62621e-13
2.0446e-12
1.18024e-11
1.90259e-10
2.30193e-09
1.52342e-08
7.03794e-08
2.40121e-07
6.46063e-07
1.47843e-06
2.94509e-06
5.54186e-06
9.98456e-06
1.67102e-05
1.06756e-05
2.53617e-05
7.39787e-06
1.78811e-05
4.45816e-06
1.15826e-05
2.26141e-06
6.65881e-06
8.89056e-07
3.12314e-06
2.49884e-07
1.09029e-06
2.61131e-07
2.71081e-08
2.47274e-07
2.06178e-07
1.52343e-09
1.59181e-08
2.92102e-11
5.99757e-10
5.18626e-14
2.17216e-13
5.4077e-13
1.05282e-12
1.67576e-12
2.13132e-12
1.94706e-12
1.61698e-12
1.0202e-12
4.41985e-13
1.10821e-13
2.75196e-14
1.01114e-14
1.03371e-14
2.29628e-14
5.27292e-14
1.64071e-13
5.3676e-13
1.77191e-12
5.78604e-12
2.33972e-11
2.79351e-10
4.60024e-09
4.01572e-08
2.04391e-07
7.35292e-07
2.04578e-06
4.72228e-06
9.44656e-06
1.72415e-05
3.05545e-05
5.37632e-05
4.84992e-05
9.48801e-05
3.96234e-05
7.96603e-05
2.82444e-05
6.26288e-05
1.76324e-05
4.25503e-05
9.5522e-06
2.58617e-05
4.10232e-06
1.30593e-05
1.26199e-06
5.04263e-06
1.34479e-06
1.45609e-07
1.29544e-06
1.09454e-06
7.71273e-09
8.50693e-08
1.43195e-10
2.98352e-09
1.78193e-13
4.98374e-13
9.66184e-13
1.83405e-12
2.93857e-12
3.8831e-12
4.03916e-12
3.43958e-12
2.95175e-12
1.18593e-12
2.53539e-13
6.1375e-14
2.91837e-14
3.79915e-14
9.5363e-14
2.11966e-13
6.21946e-13
1.89932e-12
5.82568e-12
1.74283e-11
5.45052e-11
3.73782e-10
6.63595e-09
7.89809e-08
5.07006e-07
2.06023e-06
5.89067e-06
1.37783e-05
2.70607e-05
4.69234e-05
7.83198e-05
0.000129496
0.000141263
0.000207562
0.000133491
0.000195109
0.00011632
0.000181731
9.22385e-05
0.000160218
6.21168e-05
0.000127805
3.62129e-05
8.6493e-05
1.69135e-05
4.80765e-05
5.84863e-06
2.05386e-05
6.24919e-06
7.79924e-07
6.06263e-06
5.19513e-06
4.03381e-08
4.55663e-07
7.39757e-10
1.529e-08
8.14524e-13
1.66078e-12
2.14714e-12
3.25486e-12
5.1552e-12
6.89112e-12
7.67465e-12
7.79805e-12
5.70885e-12
2.2805e-12
5.90587e-13
1.55031e-13
8.99487e-14
1.46781e-13
3.67841e-13
9.4529e-13
2.43843e-12
7.0228e-12
2.00411e-11
5.5244e-11
1.4767e-10
5.66635e-10
7.64542e-09
1.15683e-07
9.54057e-07
4.58662e-06
1.5095e-05
3.52273e-05
6.83641e-05
0.000111152
0.000166589
0.000245643
0.000266089
0.000321354
0.000260302
0.000329978
0.00025223
0.000324039
0.000236279
0.000314968
0.000208743
0.000295103
0.00016785
0.000260327
0.000114152
0.000209778
6.03805e-05
0.000142731
2.34996e-05
7.13006e-05
2.49313e-05
3.78678e-06
2.42288e-05
2.09604e-05
2.12047e-07
2.27341e-06
3.92812e-09
7.83726e-08
4.1483e-12
7.2106e-12
6.71635e-12
7.49464e-12
8.84667e-12
1.24063e-11
1.38628e-11
1.4426e-11
1.52662e-11
6.53853e-12
1.41733e-12
4.46778e-13
2.91763e-13
5.64976e-13
1.46503e-12
4.06831e-12
9.72511e-12
2.69579e-11
7.21205e-11
1.83732e-10
4.4007e-10
1.11528e-09
8.29324e-09
1.32135e-07
1.39921e-06
8.01401e-06
2.85629e-05
7.18884e-05
0.000130268
0.000200071
0.000273948
0.000361588
0.000490889
0.000390806
0.000480645
0.00039493
0.000464376
0.000392193
0.000465556
0.000380336
0.000461557
0.000354796
0.000445678
0.000312769
0.000413648
0.000251434
0.000363254
0.000169422
0.000290027
7.94888e-05
0.000190613
8.30849e-05
1.55153e-05
8.04249e-05
6.98133e-05
1.06463e-06
9.43706e-06
2.05719e-08
3.80328e-07
2.02517e-11
3.47926e-11
2.41859e-11
1.96872e-11
1.74706e-11
2.11534e-11
2.60479e-11
2.80772e-11
2.70407e-11
1.22299e-11
3.22748e-12
1.11485e-12
9.52545e-13
2.09312e-12
5.70654e-12
1.66137e-11
3.91556e-11
1.06083e-10
2.69751e-10
6.39147e-10
1.39358e-09
2.83676e-09
9.85284e-09
1.31696e-07
1.61847e-06
1.14397e-05
4.4774e-05
0.000112692
0.000205012
0.000294767
0.000384017
0.00048721
0.00060484
0.000636527
0.000688063
0.000528857
0.000589196
0.000533839
0.000596526
0.000536033
0.000602393
0.000528955
0.000603178
0.000507993
0.000592643
0.000469649
0.000566245
0.000409672
0.000520794
0.000322637
0.000450184
0.000204238
0.000346442
0.000208445
5.21707e-05
0.000200247
0.000175972
4.38095e-06
3.21681e-05
9.98732e-08
1.5786e-06
8.15853e-11
1.62309e-10
1.14183e-10
6.99822e-11
4.83208e-11
3.7771e-11
4.70101e-11
5.23165e-11
5.92678e-11
3.06515e-11
7.26831e-12
2.23076e-12
2.98678e-12
7.32391e-12
2.11507e-11
6.45081e-11
1.56247e-10
4.21395e-10
1.03812e-09
2.31753e-09
4.62742e-09
8.24222e-09
1.5743e-08
1.22918e-07
1.61739e-06
1.33818e-05
6.02242e-05
0.000154958
0.000274074
0.000391979
0.000503187
0.000607242
0.000692038
0.000717793
0.000743979
0.000734527
0.000757148
0.00065146
0.000698381
0.000660345
0.000709477
0.000666748
0.000719555
0.000665363
0.000725966
0.000651103
0.000722634
0.000619729
0.000704563
0.000566101
0.000667667
0.000482612
0.000604682
0.000360885
0.000505368
0.000364441
0.000137056
0.000352891
0.000321647
1.53821e-05
9.01747e-05
4.11765e-07
5.40583e-06
2.37066e-10
5.97376e-10
5.14092e-10
2.64323e-10
1.16203e-10
8.09617e-11
7.89209e-11
9.91934e-11
1.02997e-10
5.42398e-11
1.68708e-11
5.66386e-12
9.12239e-12
2.39963e-11
7.37041e-11
2.37418e-10
6.07836e-10
1.66667e-09
4.05337e-09
8.69414e-09
1.60621e-08
2.55079e-08
3.56427e-08
1.20501e-07
1.47991e-06
1.3535e-05
6.97259e-05
0.000191054
0.000338696
0.000474802
0.000588793
0.000670726
0.000724627
0.000754274
0.000753908
0.000767337
0.000769324
0.00078447
0.00078462
0.000749342
0.000773078
0.000762327
0.000791545
0.000773835
0.00080975
0.00077988
0.000824173
0.000774856
0.000830139
0.000753341
0.000822311
0.000709637
0.000796756
0.000634633
0.0007448
0.000518786
0.000655645
0.00051983
0.000267183
0.000503867
0.000466879
4.50162e-05
0.000191797
1.27717e-06
1.55496e-05
4.04262e-10
1.4746e-09
1.82795e-09
1.19724e-09
4.67242e-10
2.62516e-10
1.45169e-10
1.65288e-10
1.9219e-10
1.15352e-10
3.55105e-11
1.28923e-11
3.00874e-11
7.25856e-11
2.403e-10
8.21081e-10
2.28196e-09
6.45803e-09
1.59458e-08
3.32182e-08
5.84271e-08
8.32044e-08
9.65969e-08
1.57106e-07
1.17911e-06
1.28656e-05
7.11729e-05
0.000213655
0.000385609
0.000530909
0.000625269
0.000685693
0.000723517
0.000746104
0.000766755
0.000758011
0.000780738
0.000771861
0.00080088
0.000789464
0.000805841
0.000806083
0.000828882
0.000832885
0.000851689
0.000861861
0.000869234
0.000888524
0.000875661
0.000908376
0.000865904
0.000914936
0.000833931
0.000902492
0.000771531
0.000864267
0.000666802
0.000789217
0.000664876
0.000407382
0.000645611
0.000606595
0.000108546
0.000320336
3.38223e-06
4.02826e-05
1.91948e-09
3.94997e-09
4.4121e-09
1.85561e-09
6.71678e-10
3.21055e-10
2.8726e-10
3.25523e-10
2.14581e-10
7.61626e-11
2.62963e-11
6.2791e-11
2.00657e-10
7.15433e-10
2.63842e-09
7.99406e-09
2.40674e-08
6.04833e-08
1.27624e-07
2.17775e-07
2.65824e-07
2.7406e-07
3.14253e-07
1.03165e-06
1.07524e-05
6.91855e-05
0.000218324
0.000413012
0.000542747
0.000621298
0.000675238
0.000708486
0.000713818
0.000701566
0.000660851
0.000755404
0.000730492
0.000769203
0.000740916
0.000793973
0.000763089
0.000827408
0.000815029
0.000857961
0.00084724
0.000890308
0.000882211
0.000919163
0.000914881
0.000939212
0.000943433
0.000945493
0.000962933
0.000930776
0.000966549
0.000885044
0.000948814
0.000796818
0.000896502
0.000791301
0.000543099
0.000770121
0.000729886
0.000205277
0.000449092
8.50914e-06
8.75699e-05
4.34687e-09
7.68584e-09
7.30406e-09
3.34459e-09
8.45329e-10
5.53394e-10
5.74284e-10
3.70546e-10
1.72628e-10
5.08877e-11
1.24621e-10
5.12469e-10
1.9464e-09
7.5358e-09
2.62167e-08
8.16164e-08
2.20153e-07
4.69993e-07
7.12222e-07
7.90522e-07
7.99747e-07
7.92185e-07
1.17618e-06
8.06167e-06
6.3984e-05
0.000216167
0.000415189
0.000533968
0.000599882
0.000641292
0.000659394
0.000643441
0.000622296
0.000574436
0.000621307
0.000572999
0.000706033
0.00066574
0.000723923
0.000678403
0.000756898
0.00070823
0.0008276
0.000797064
0.000864608
0.000837026
0.000902369
0.000878833
0.000935993
0.000917268
0.00096247
0.000950562
0.000978749
0.000975767
0.000979407
0.00098845
0.000958071
0.000985133
0.000898357
0.000960624
0.000888438
0.000666095
0.000866012
0.000834998
0.000767217
0.000316558
0.00056825
2.21169e-05
0.000164972
8.33233e-09
1.2508e-08
8.93779e-09
3.10312e-09
1.29997e-09
1.08593e-09
6.48049e-10
3.14604e-10
1.01244e-10
2.09326e-10
1.23408e-09
4.9909e-09
1.99606e-08
7.76446e-08
2.5809e-07
7.11953e-07
1.46005e-06
2.07523e-06
2.39884e-06
2.42089e-06
2.20617e-06
2.08825e-06
6.57339e-06
5.20098e-05
0.00020756
0.000408849
0.000513145
0.000556463
0.000563624
0.000540561
0.000502119
0.000433954
0.000523838
0.000450479
0.000519054
0.000463058
0.000628043
0.000574419
0.000652919
0.000592863
0.000695518
0.000632774
0.000798866
0.000751438
0.000843409
0.000798469
0.000886299
0.000845014
0.00092516
0.000886997
0.000957443
0.000924523
0.000980664
0.000955091
0.000990579
0.000976374
0.000985546
0.000986367
0.000955413
0.000980137
0.000972812
0.000914468
0.000945015
0.000811221
0.000696766
0.000779385
0.000889099
0.000926239
0.000937617
0.000870748
0.000428218
0.000742046
0.000692587
0.000590748
4.45062e-05
0.000243467
1.44659e-08
1.82948e-08
1.19432e-08
4.37546e-09
2.25841e-09
1.12428e-09
5.29714e-10
1.93397e-10
3.10963e-10
2.0889e-09
1.08671e-08
5.00669e-08
1.99186e-07
7.04106e-07
1.97992e-06
4.04065e-06
6.1111e-06
7.42587e-06
7.40377e-06
6.39149e-06
4.95852e-06
6.76017e-06
4.02515e-05
0.000186207
0.000395343
0.000489911
0.000516845
0.000478784
0.000398261
0.000323112
0.000274117
0.000297567
0.000236533
0.000407259
0.000349113
0.000402787
0.000342803
0.0005298
0.00046575
0.00056526
0.000494648
0.000618922
0.000547786
0.000745808
0.000685529
0.000794936
0.000739393
0.000843216
0.000797776
0.000886841
0.000851997
0.000921975
0.000895176
0.000947004
0.000921376
0.000962909
0.000951419
0.000937385
0.000981786
0.000975377
0.000952346
0.000965842
0.000976485
0.000964105
0.000971664
0.000977846
0.000958484
0.000847476
0.000818203
0.000913949
0.000941218
0.000950768
0.000897204
0.000635627
0.000437795
0.000560725
0.000781272
0.000735233
4.90532e-05
0.000477271
0.000367969
0.00022965
2.53819e-08
2.44468e-08
1.17823e-08
5.85045e-09
2.13534e-09
8.94869e-10
3.28087e-10
4.16496e-10
2.82181e-09
1.90089e-08
1.04016e-07
4.74473e-07
1.72182e-06
4.94515e-06
1.07067e-05
1.73443e-05
2.16891e-05
2.19844e-05
1.82331e-05
1.27643e-05
9.73056e-06
3.39785e-05
0.00015927
0.000371333
0.000472279
0.000487413
0.000419215
0.000295813
0.000180414
0.000129516
0.000103546
0.000186283
0.000127502
0.000286778
0.000234449
0.00028538
0.000226078
0.000422841
0.000352008
0.000473971
0.000398849
0.000555395
0.000488539
0.000680843
0.000619665
0.000751684
0.0007046
0.000820184
0.000785844
0.000872963
0.000856913
0.000909638
0.000913566
0.000930297
0.00092805
0.000930486
0.000939764
0.000941636
0.000935255
0.000933823
0.00093097
0.000971576
0.00096018
0.000939059
0.000948332
0.000973074
0.000967281
0.000968177
0.000966833
0.00096118
0.000875956
0.000849191
0.000929864
0.000953997
0.00094599
0.0009156
0.000678504
0.000607949
0.000815424
0.000773251
0.00024784
1.39847e-05
9.02473e-05
0.000522515
0.0004119
4.24396e-08
2.84677e-08
1.01949e-08
4.62478e-09
1.56443e-09
5.43303e-10
5.20597e-10
3.46819e-09
2.80806e-08
1.76504e-07
9.16282e-07
3.63277e-06
1.10327e-05
2.53935e-05
4.31277e-05
5.58658e-05
5.77359e-05
4.84754e-05
3.31558e-05
1.94149e-05
3.2997e-05
0.000135251
0.000341514
0.000456961
0.000470707
0.000388477
0.000249512
0.000117177
5.89615e-05
4.0411e-05
4.87496e-05
2.62871e-05
9.71006e-05
6.7434e-05
0.000175497
0.000133019
0.000191584
0.000139585
0.000324546
0.000254379
0.000419557
0.000349344
0.00053988
0.000477441
0.00065451
0.000598982
0.000750912
0.000715264
0.000846994
0.000843181
0.000932578
0.000964359
0.000955885
0.000979651
0.00100534
0.00103592
0.00093419
0.000943994
0.000964002
0.000992379
0.000937583
0.000943527
0.000935949
0.000944989
0.000955896
0.00094495
0.000942883
0.000940004
0.00096208
0.000963146
0.000957542
0.000951925
0.000957409
0.000897607
0.000874717
0.0009366
0.000951134
0.000944191
0.000925229
0.000720254
0.000654075
0.000845408
0.000807908
0.000266334
9.2771e-06
8.48081e-05
0.000569062
0.000454643
4.63319e-08
2.32853e-08
1.00928e-08
2.95925e-09
9.02835e-10
6.23009e-10
3.89004e-09
3.28195e-08
2.47335e-07
1.43967e-06
6.19836e-06
2.00832e-05
4.67065e-05
7.89037e-05
0.000101854
0.000106269
9.32963e-05
6.97756e-05
4.3976e-05
3.72966e-05
0.000120072
0.000309414
0.000442217
0.000460974
0.000384887
0.000244993
0.000107845
3.72502e-05
1.60357e-05
9.30263e-06
2.09079e-05
1.21041e-05
4.78779e-05
3.18516e-05
9.94989e-05
6.97992e-05
0.000155232
0.000107782
0.000279852
0.000213902
0.000411751
0.000343786
0.000587318
0.000532561
0.000676308
0.000634835
0.000839424
0.000831212
0.00099967
0.00102907
0.00106317
0.00109169
0.00111319
0.00113334
0.00102533
0.00106189
0.00109902
0.00113392
0.00096576
0.000996431
0.00103348
0.00107529
0.000954035
0.000961649
0.000981161
0.000992394
0.000943274
0.000942064
0.000967919
0.000948537
0.000948313
0.000953075
0.000945237
0.000942854
0.00094858
0.000910888
0.000892776
0.000936269
0.000943991
0.000938908
0.000926926
0.000760212
0.000698831
0.000869493
0.000838151
0.000281768
6.59937e-06
8.25711e-05
0.000616709
0.000498724
4.59453e-08
1.63308e-08
6.08581e-09
1.61938e-09
7.54132e-10
3.88477e-09
3.57151e-08
2.96828e-07
1.90981e-06
9.00283e-06
3.03167e-05
7.12963e-05
0.000118827
0.000152994
0.00016225
0.000146408
0.000114409
7.87143e-05
5.51362e-05
0.000116611
0.000281318
0.000427623
0.000455366
0.000389377
0.000254814
0.00011854
3.63327e-05
1.01089e-05
3.76034e-06
5.57927e-06
2.88111e-06
1.34409e-05
8.28692e-06
3.17879e-05
2.08379e-05
7.26516e-05
4.83095e-05
0.000152268
0.000105117
0.000275652
0.000210467
0.00047084
0.000403169
0.000753159
0.000704638
0.000815682
0.000790169
0.00104324
0.00104457
0.00117556
0.00116849
0.00116469
0.00118772
0.00119987
0.00120157
0.0011188
0.00116032
0.00119739
0.00122453
0.00103136
0.00107639
0.0011247
0.00117214
0.00100178
0.00101962
0.00104697
0.00106664
0.000944866
0.000954679
0.00101991
0.000980544
0.000942435
0.00094263
0.000942094
0.000946443
0.000940043
0.000916498
0.00090317
0.000932943
0.000937196
0.000933668
0.00092559
0.000796537
0.000741198
0.000884636
0.000860373
0.000306958
5.80569e-06
8.9055e-05
0.000665149
0.000550051
3.59821e-08
1.0956e-08
3.07474e-09
1.01878e-09
3.55456e-09
3.50329e-08
3.14892e-07
2.21585e-06
1.1363e-05
4.03174e-05
9.53149e-05
0.00015915
0.000205838
0.000222855
0.000205304
0.000164227
0.00011863
8.66742e-05
0.000119851
0.00026546
0.000413241
0.000454617
0.00040287
0.000283587
0.000152667
4.55766e-05
1.00149e-05
2.49235e-06
1.53685e-06
4.95009e-06
2.87336e-06
1.30233e-05
8.1982e-06
3.02447e-05
1.99952e-05
7.02397e-05
4.62656e-05
0.000195495
0.000139692
0.000331719
0.000261023
0.00064409
0.000571625
0.00099042
0.00095191
0.00103458
0.00101648
0.00115326
0.00113119
0.00121469
0.00120112
0.00117215
0.00118747
0.00123727
0.00123975
0.00123608
0.00122675
0.0012149
0.00124759
0.00126349
0.00126758
0.00111807
0.00117074
0.00121977
0.00125957
0.0010723
0.00110008
0.00113106
0.00115667
0.000962163
0.000991459
0.00109535
0.00103681
0.000948408
0.000941081
0.0009491
0.000967158
0.000939558
0.000916682
0.000906353
0.000929535
0.000937465
0.000934092
0.000924086
0.000827372
0.000780408
0.000893534
0.000874688
0.000353258
9.33709e-06
0.000127006
0.000714272
0.000615448
2.45729e-08
6.0353e-09
1.6038e-09
2.99061e-09
3.07268e-08
3.00318e-07
2.30814e-06
1.2746e-05
4.79721e-05
0.000116461
0.000195985
0.000257314
0.000284073
0.000267688
0.000219004
0.000163649
0.000123172
0.000135373
0.000263557
0.000404884
0.000454943
0.000421446
0.000320129
0.000194568
7.05277e-05
1.27787e-05
2.2903e-06
7.17523e-07
2.40865e-06
1.18324e-06
6.62957e-06
3.83747e-06
1.66737e-05
1.06538e-05
4.20913e-05
2.66322e-05
9.63914e-05
6.44228e-05
0.000321535
0.000244617
0.000490302
0.000405195
0.000898724
0.000827255
0.00108811
0.00107584
0.00111572
0.0011001
0.00115843
0.00114555
0.00111415
0.0011992
0.00117482
0.00112796
0.00115058
0.00126466
0.00125538
0.00124096
0.00122205
0.00128207
0.0012899
0.00128931
0.00128085
0.00121181
0.00125997
0.00129331
0.00130662
0.00115874
0.00119123
0.00122189
0.0012474
0.0010011
0.00105226
0.00118339
0.00111602
0.000971395
0.000948772
0.00097353
0.00100833
0.000947367
0.000916155
0.000906817
0.000929632
0.000944506
0.000939933
0.000924198
0.000849207
0.000812839
0.000896758
0.00088361
0.000449565
3.10013e-05
0.000221429
0.000761635
0.000692007
1.42478e-08
2.96331e-09
2.56253e-09
2.39848e-08
2.60259e-07
2.25289e-06
1.30294e-05
5.19193e-05
0.000131467
0.000226584
0.000303102
0.000342058
0.000332257
0.000280568
0.00021677
0.000165947
0.000166942
0.000267458
0.000404418
0.000456547
0.000438522
0.000353793
0.000233703
9.78182e-05
1.8979e-05
2.71984e-06
4.86714e-07
5.76972e-07
3.53873e-06
1.90822e-06
9.89268e-06
6.00817e-06
3.20895e-05
1.79896e-05
8.38713e-05
5.35338e-05
0.000178597
0.000125096
0.000536995
0.000432824
0.000738374
0.000640743
0.00105864
0.00103022
0.00109017
0.00109214
0.00109981
0.00109248
0.00110887
0.00109874
0.00100207
0.000996909
0.0011431
0.00110889
0.00104955
0.00107719
0.00126455
0.00124088
0.00121111
0.00117775
0.00131012
0.00130546
0.00129073
0.00126669
0.0012932
0.00131727
0.00132646
0.00132698
0.00124889
0.00127798
0.00130515
0.0013185
0.00106602
0.0011341
0.00127261
0.0012052
0.00101384
0.000973113
0.00101696
0.00107649
0.000970794
0.000917815
0.000908609
0.000934085
0.00096577
0.000958534
0.00092705
0.000863337
0.000836722
0.000898547
0.000886512
0.000594498
0.000289014
0.000545142
0.000802156
0.00076428
7.15958e-09
2.5822e-09
1.64434e-08
1.99645e-07
1.91208e-06
1.26374e-05
5.23662e-05
0.000138804
0.000247445
0.000339259
0.00039234
0.000393728
0.000348763
0.000281174
0.000220162
0.000209793
0.00028197
0.000407926
0.000460955
0.000453258
0.00038262
0.000268335
0.000124729
2.62213e-05
3.76738e-06
4.83022e-07
2.18497e-07
1.5062e-06
6.31209e-07
5.19035e-06
2.87981e-06
1.97468e-05
9.47892e-06
6.87639e-05
3.8506e-05
0.000171536
0.000112519
0.00033412
0.000245893
0.000798304
0.000679699
0.000981476
0.000903145
0.00109346
0.00109069
0.000998616
0.0010303
0.000996321
0.000997985
0.000977012
0.00102693
0.00101086
0.0009131
0.000910499
0.00106755
0.00102604
0.000958043
0.000989009
0.00123467
0.00119697
0.00115497
0.00111112
0.00131743
0.00129737
0.00126711
0.00123012
0.00133574
0.0013437
0.00134106
0.00132665
0.00132824
0.00133818
0.00135501
0.00135263
0.00114953
0.00122433
0.00134506
0.00129513
0.00108367
0.00101613
0.00108704
0.00116125
0.00101124
0.000919558
0.000909864
0.000949726
0.00100236
0.000990283
0.000939932
0.000872755
0.000852711
0.00090058
0.000889189
0.000741029
0.000684143
0.000763172
0.000831537
0.000816932
3.73308e-09
1.10137e-08
1.28081e-07
1.41649e-06
1.06704e-05
5.09887e-05
0.0001396
0.000257014
0.000362313