/*--------------------------------*- C++ -*----------------------------------*\
  =========                 |
  \\      /  F ield         | OpenFOAM: The Open Source CFD Toolbox
   \\    /   O peration     | Website:  https://openfoam.org
    \\  /    A nd           | Version:  dev
     \\/     M anipulation  |
\*---------------------------------------------------------------------------*/
FoamFile
{
    version     2.0;
    format      ascii;
    class       volScalarField;
    location    "2500";
    object      G;
}
// * * * * * * * * * * * * * * * * * * * * * * * * * * * * * * * * * * * * * //

dimensions      [1 0 -3 0 0 0 0];

internalField   nonuniform List<scalar> 
9851
(
4275.06
4281.6
4283.08
4287.4
4289.65
4291.95
4292.43
4295.47
4298.53
4301.62
4296.7
4300.52
4304.36
4308.22
4312.1
4300.22
4304.8
4309.41
4314.05
4318.71
4323.42
4303
4308.32
4313.67
4319.08
4324.54
4330.04
4335.58
4305.08
4311.1
4317.18
4323.33
4329.56
4335.86
4342.21
4348.63
4306.45
4313.16
4319.93
4326.8
4333.77
4340.85
4348.02
4355.26
4362.57
4307.16
4314.52
4321.96
4329.52
4337.2
4345.03
4352.98
4361.05
4369.21
4377.45
4307.21
4315.2
4323.29
4331.5
4339.86
4348.39
4357.1
4365.97
4374.98
4384.09
4393.3
4306.64
4315.23
4323.93
4332.76
4341.77
4350.97
4360.39
4370.02
4379.84
4389.83
4399.94
4410.16
4305.47
4314.63
4323.91
4333.33
4342.95
4352.79
4362.87
4373.21
4383.8
4394.62
4405.65
4416.81
4428.09
4303.73
4313.43
4323.25
4333.24
4343.43
4353.87
4364.58
4375.58
4386.88
4398.48
4410.36
4422.46
4434.73
4447.15
4301.45
4311.66
4321.99
4332.5
4343.23
4354.23
4365.52
4377.14
4389.11
4401.43
4414.1
4427.08
4440.33
4453.78
4467.38
4298.66
4309.34
4320.15
4331.15
4342.38
4353.9
4365.73
4377.93
4390.51
4403.5
4416.89
4430.68
4444.84
4459.31
4474
4488.88
4295.38
4306.51
4317.77
4329.22
4340.92
4352.91
4365.25
4377.97
4391.11
4404.7
4418.76
4433.29
4448.27
4463.68
4479.45
4495.47
4511.71
4291.66
4303.19
4314.87
4326.74
4338.86
4351.29
4364.09
4377.29
4390.94
4405.08
4419.74
4434.94
4450.67
4466.92
4483.67
4500.82
4518.28
4535.98
4287.51
4299.42
4311.48
4323.74
4336.25
4349.09
4362.29
4375.92
4390.04
4404.67
4419.87
4435.66
4452.06
4469.08
4486.69
4504.86
4523.51
4542.51
4561.79
4282.94
4295.22
4307.64
4320.25
4333.12
4346.32
4359.89
4373.91
4388.43
4403.5
4419.18
4435.49
4452.49
4470.18
4488.56
4507.63
4527.34
4547.6
4568.27
4589.26
4278.02
4290.62
4303.37
4316.3
4329.5
4343.02
4356.93
4371.29
4386.17
4401.62
4417.71
4434.48
4451.98
4470.26
4489.33
4509.18
4529.82
4551.2
4573.2
4595.68
4618.53
4272.75
4285.64
4298.69
4311.93
4325.42
4339.23
4353.44
4368.1
4383.29
4399.07
4415.51
4432.67
4450.6
4469.37
4489.02
4509.56
4531
4553.33
4576.51
4600.42
4624.88
4649.76
4267.19
4280.32
4293.65
4307.16
4320.91
4334.99
4349.45
4364.38
4379.83
4395.89
4412.63
4430.11
4448.4
4467.58
4487.69
4508.8
4530.93
4554.09
4578.25
4603.4
4629.39
4656.03
4683.15
4261.35
4274.71
4288.27
4302.01
4316.01
4330.31
4345
4360.15
4375.84
4392.13
4409.1
4426.84
4445.43
4464.93
4485.43
4506.98
4529.67
4553.51
4578.52
4604.69
4631.99
4660.26
4689.3
4718.91
4255.25
4268.81
4282.58
4296.53
4310.73
4325.24
4340.13
4355.47
4371.34
4387.82
4404.99
4422.93
4441.74
4461.49
4482.27
4504.18
4527.29
4551.67
4577.37
4604.39
4632.75
4662.41
4693.21
4724.92
4757.37
4248.93
4262.66
4276.61
4290.75
4305.13
4319.81
4334.86
4350.36
4366.38
4383.01
4400.33
4418.42
4437.38
4457.31
4478.31
4500.46
4523.87
4548.65
4574.87
4602.57
4631.8
4662.56
4694.83
4728.45
4763.2
4798.8
4242.42
4256.29
4270.4
4284.69
4299.22
4314.04
4329.24
4344.86
4361
4377.74
4395.17
4413.36
4432.43
4452.47
4473.59
4495.9
4519.51
4544.54
4571.11
4599.32
4629.22
4660.86
4694.27
4729.44
4766.25
4804.41
4843.5
4235.72
4249.72
4263.96
4278.38
4293.03
4307.98
4323.28
4339.01
4355.24
4372.06
4389.54
4407.8
4426.92
4447.01
4468.19
4490.57
4514.28
4539.46
4566.23
4594.73
4625.1
4657.4
4691.69
4728.04
4766.5
4806.91
4848.85
4891.89
4228.87
4242.98
4257.33
4271.85
4286.61
4301.65
4317.04
4332.84
4349.13
4365.99
4383.51
4401.78
4420.91
4441
4462.17
4484.55
4508.27
4533.48
4560.32
4588.96
4619.56
4652.28
4687.22
4724.44
4764.11
4806.27
4850.67
4896.9
4944.46
4221.89
4236.08
4250.52
4265.13
4279.96
4295.08
4310.53
4326.38
4342.71
4359.59
4377.11
4395.36
4414.45
4434.5
4455.6
4477.91
4501.56
4526.7
4553.5
4582.13
4612.79
4645.67
4680.96
4718.79
4759.31
4802.71
4848.99
4897.91
4949.05
5001.8
4214.79
4229.05
4243.56
4258.23
4273.13
4288.29
4303.78
4319.66
4336
4352.88
4370.37
4388.58
4407.59
4427.54
4448.54
4470.72
4494.22
4519.21
4545.86
4574.36
4604.92
4637.75
4673.11
4711.22
4752.28
4796.51
4844.04
4894.96
4949.06
5005.87
5064.64
4207.6
4221.91
4236.46
4251.19
4266.12
4281.32
4296.83
4312.72
4329.05
4345.9
4363.34
4381.47
4400.39
4420.2
4441.04
4463.04
4486.34
4511.1
4537.51
4565.76
4596.08
4628.7
4663.89
4701.94
4743.18
4787.87
4836.18
4888.36
4944.58
5004.65
5068.05
5133.86
4200.33
4214.67
4229.26
4244.02
4258.98
4274.19
4289.7
4305.58
4321.89
4338.68
4356.06
4374.09
4392.88
4412.53
4433.17
4454.93
4477.97
4502.45
4528.55
4556.45
4586.41
4618.67
4653.5
4691.24
4732.27
4776.99
4825.66
4878.54
4936.01
4998.3
5065.31
5136.46
5210.54
4193
4207.36
4221.97
4236.74
4251.7
4266.91
4282.42
4298.27
4314.53
4331.26
4348.55
4366.46
4385.1
4404.58
4424.99
4446.48
4469.21
4493.34
4519.05
4546.53
4576.03
4607.79
4642.12
4679.34
4719.86
4764.17
4812.72
4865.8
4923.85
4987.34
5056.62
5131.85
5212.11
5272.88
5275.5
4185.63
4199.99
4214.6
4229.37
4244.33
4259.52
4275
4290.81
4307.01
4323.66
4340.84
4358.63
4377.1
4396.37
4416.54
4437.74
4460.12
4483.84
4509.1
4536.1
4565.05
4596.21
4629.9
4666.44
4706.24
4749.81
4797.72
4850.45
4908.49
4972.38
5042.81
5120.14
5205.5
5275.75
5273.48
5318.19
5320.62
4178.23
4192.58
4207.18
4221.93
4236.87
4252.03
4267.47
4283.22
4299.35
4315.91
4332.98
4350.62
4368.91
4387.96
4407.87
4428.76
4450.77
4474.05
4498.8
4525.23
4553.57
4584.06
4617
4652.72
4691.63
4734.23
4781.13
4832.93
4890.31
4953.91
5024.46
5102.94
5177.16
5168.12
5269.02
5213.84
5262.06
5320.39
5317.51
5366.27
5368.48
4170.82
4185.14
4199.72
4214.44
4229.34
4244.46
4259.84
4275.53
4291.58
4308.04
4324.97
4342.46
4360.56
4379.38
4399.02
4419.58
4441.2
4464.03
4488.25
4514.06
4541.7
4571.43
4603.54
4638.34
4676.22
4717.68
4763.31
4813.76
4869.83
4932.39
5002.26
5080.45
5157.79
5145.71
5204.14
5312.11
5252.96
5304.21
5367.76
5364.15
5417.4
5419.37
4163.4
4177.68
4192.23
4206.91
4221.76
4236.83
4252.14
4267.75
4283.71
4300.05
4316.85
4334.17
4352.08
4370.67
4390.02
4410.24
4431.46
4453.83
4477.5
4502.68
4529.58
4558.46
4589.65
4623.45
4660.21
4700.38
4744.56
4793.4
4847.7
4908.46
4976.79
5053.78
5132.71
5118.27
5192.5
5179.19
5241.92
5357.76
5293.98
5348.7
5418.1
5413.62
5471.87
5473.59
4155.99
4170.23
4184.72
4199.35
4214.15
4229.15
4244.39
4259.91
4275.76
4291.98
4308.64
4325.79
4343.5
4361.84
4380.91
4400.79
4421.61
4443.5
4466.61
4491.14
4517.28
4545.3
4575.48
4608.18
4643.73
4682.53
4725.14
4772.19
4824.44
4882.9
4948.82
5023.6
5103.07
5086.58
5164.67
5148.9
5228.86
5214.08
5281.54
5406.11
5337.13
5395.73
5471.69
5466.23
5530.05
5531.48
4148.61
4162.78
4177.22
4191.79
4206.52
4221.44
4236.6
4252.02
4267.75
4283.85
4300.36
4317.33
4334.84
4352.94
4371.71
4391.26
4411.67
4433.09
4455.64
4479.51
4504.89
4532.03
4561.18
4592.69
4626.94
4664.3
4705.25
4750.4
4800.44
4856.31
4919.27
4990.84
5069.52
5051.34
5132.07
5114.18
5197.97
5180.6
5266.95
5250.52
5323.17
5457.44
5382.62
5445.52
5528.87
5522.3
5592.31
5593.44
4141.25
4155.36
4169.73
4184.23
4198.88
4213.72
4228.78
4244.09
4259.71
4275.67
4292.02
4308.81
4326.11
4343.97
4362.46
4381.67
4401.69
4422.63
4444.63
4467.85
4492.47
4518.71
4546.84
4577.15
4610.01
4645.84
4685.08
4728.27
4776.02
4829.16
4888.88
4956.67
5032.98
5013.91
5095.42
5075.84
5162.08
5142.49
5232.64
5213.46
5306.92
5288.65
5366.96
5512.04
5430.66
5498.35
5590.02
5582.2
5659.11
5659.87
4133.94
4147.97
4162.27
4176.69
4191.25
4206
4220.95
4236.15
4251.64
4267.45
4283.64
4300.25
4317.34
4334.96
4353.17
4372.05
4391.68
4412.17
4433.63
4456.2
4480.07
4505.43
4532.53
4561.65
4593.13
4627.37
4664.81
4705.97
4751.43
4801.82
4858.19
4921.97
4995.02
4975.7
5055.81
5035.41
5122.01
5100.83
5193.09
5171.64
5268.76
5247.57
5348.87
5328.52
5413.03
5570.23
5481.45
5554.47
5655.54
5646.29
5730.92
5731.25
4126.67
4140.63
4154.84
4169.17
4183.65
4198.29
4213.13
4228.2
4243.55
4259.22
4275.24
4291.67
4308.54
4325.92
4343.86
4362.42
4381.68
4401.72
4422.66
4444.61
4467.75
4492.24
4518.32
4546.26
4576.38
4609.04
4644.67
4683.76
4726.87
4774.57
4827.64
4887.38
4956.76
4937.62
5015
4994.54
5079.19
5057.32
5149.35
5126.48
5225.19
5201.76
5306.39
5283
5392.82
5370.15
5461.59
5632.35
5535.27
5614.23
5725.89
5715.02
5808.39
5808.27
4119.47
4133.33
4147.46
4161.7
4176.07
4190.6
4205.32
4220.27
4235.47
4250.98
4266.83
4283.07
4299.73
4316.88
4334.54
4352.79
4371.69
4391.31
4411.75
4433.11
4455.54
4479.2
4504.29
4531.07
4559.83
4590.94
4624.81
4661.88
4702.65
4747.66
4797.56
4853.37
4918.93
4900.07
4974.23
4954.08
5035.48
5013.71
5103.23
5079.84
5177.63
5153.04
5258.51
5233.11
5345.64
5319.98
5438.97
5413.79
5512.89
5698.88
5592.4
5678.04
5801.73
5788.97
5892.27
5891.61
4112.32
4126.09
4140.13
4154.26
4168.53
4182.95
4197.54
4212.35
4227.41
4242.76
4258.43
4274.47
4290.92
4307.83
4325.23
4343.19
4361.74
4380.96
4400.92
4421.73
4443.49
4466.35
4490.5
4516.15
4543.58
4573.16
4605.29
4640.44
4678.98
4721.36
4768.16
4820.19
4881.79
4863.66
4934.18
4914.4
4992.13
4970.8
5056.55
5033.41
5128.14
5103.18
5207.13
5180.78
5293.41
5266.04
5386.84
5358.99
5487.63
5459.89
5567.27
5770.3
5653.29
5746.47
5883.66
5868.72
5983.33
5982.02
4105.24
4118.92
4132.85
4146.89
4161.04
4175.34
4189.81
4204.47
4219.38
4234.56
4250.04
4265.89
4282.12
4298.79
4315.94
4333.61
4351.83
4370.67
4390.19
4410.47
4431.6
4453.72
4476.97
4501.55
4527.71
4555.79
4586.23
4619.49
4655.94
4695.84
4739.63
4788.08
4842.23
4894.99
4875.92
4949.71
4928.8
5010.47
4987.83
5078.35
5053.69
5154.15
5127.46
5238.17
5209.93
5330.36
5300.97
5430.63
5400.6
5539.35
5509.25
5625.38
5847.28
5718.72
5820.42
5972.47
5955.09
6082.57
6080.44
4098.24
4111.81
4125.65
4139.58
4153.62
4167.79
4182.12
4196.64
4211.39
4226.39
4241.69
4257.33
4273.35
4289.78
4306.67
4324.06
4341.97
4360.46
4379.57
4399.35
4419.9
4441.32
4463.74
4487.32
4512.28
4538.92
4567.72
4599.15
4633.57
4671.14
4712.17
4757.21
4807.19
4868.43
4848.85
4908.24
4888.14
4965.44
4943.27
5029.25
5005.13
5100.91
5074.52
5181.36
5152.7
5271
5240.58
5369.8
5338.1
5477.74
5445.33
5595.08
5562.79
5688.29
5930.73
5789.94
5901.19
6069.05
6048.96
6191.19
6188.04
4091.31
4104.78
4118.51
4132.33
4146.26
4160.3
4174.5
4188.87
4203.45
4218.27
4233.38
4248.81
4264.6
4280.8
4297.44
4314.55
4332.17
4350.32
4369.04
4388.38
4408.4
4429.18
4450.83
4473.48
4497.32
4522.61
4549.84
4579.54
4612.01
4647.38
4685.79
4727.62
4773.65
4830.1
4811.55
4879.36
4858.93
4921.47
4900.19
4981.29
4957.71
5048.38
5022.59
5124.16
5095.8
5209.75
5178.79
5305.67
5272.68
5411.96
5377.49
5528.8
5493.44
5655.76
5621.01
5757.14
6021.93
5868.36
5990.35
6174.46
6151.75
6310.7
6306.31
4084.46
4097.83
4111.46
4125.17
4138.97
4152.89
4166.95
4181.17
4195.58
4210.22
4225.13
4240.34
4255.9
4271.86
4288.24
4305.08
4322.41
4340.25
4358.62
4377.55
4397.08
4417.28
4438.23
4460.04
4482.86
4506.92
4532.66
4560.73
4591.4
4624.68
4660.57
4699.42
4741.82
4793.9
4776.68
4839.08
4819.84
4889.97
4868.46
4934.55
4911.99
4997.13
4971.97
5067.71
5040.05
5147.96
5117.36
5239.2
5205.58
5342.13
5306.09
5456.9
5419.08
5583.96
5544.99
5721.94
5684.05
5832.72
6122.72
5954.98
6089.04
6290.23
6265.35
6442.76
6436.95
4077.77
4090.95
4104.48
4118.08
4131.77
4145.56
4159.47
4173.54
4187.78
4202.24
4216.94
4231.94
4247.27
4262.97
4279.08
4295.65
4312.7
4330.24
4348.28
4366.84
4385.94
4405.62
4425.95
4447
4468.9
4491.84
4516.23
4542.75
4571.79
4603.14
4636.71
4672.78
4711.87
4754.55
4801.33
4783.46
4847.62
4827.54
4900.14
4877.48
4947.33
4923.4
5012.8
4985.94
5087.1
5057.37
5172.14
5139.02
5269.54
5232.87
5380.25
5340.66
5504.59
5462.78
5643.29
5600.04
5794.05
5752.13
5915.67
6234.52
6050.33
6197.76
6418.4
6391.88
6588.87
6581.57
4084.25
4097.58
4111.07
4124.65
4138.31
4152.08
4166
4180.07
4194.34
4208.84
4223.62
4238.7
4254.15
4269.99
4286.27
4303.04
4320.29
4338.03
4356.26
4374.98
4394.2
4413.97
4434.35
4455.43
4477.36
4500.54
4525.66
4553.2
4582.85
4614.36
4647.82
4683.74
4722.84
4771.71
4754.41
4808.24
4789.64
4855.6
4834.65
4909.73
4885.88
4959.72
4934.34
5028.16
4999.48
5106.38
5074.4
5196.49
5160.61
5300.57
5260.47
5419.86
5376.16
5554.96
5508.37
5706.84
5658.41
5872.45
5825.29
6006.28
6358.62
6154.77
6317.44
6561.23
6533.18
6750.85
6742.21
4090.87
4104.16
4117.62
4131.16
4144.79
4158.55
4172.46
4186.54
4200.84
4215.39
4230.23
4245.41
4260.97
4276.97
4293.44
4310.41
4327.87
4345.8
4364.18
4383
4402.27
4422.06
4442.42
4463.46
4485.52
4509.39
4535.58
4563.79
4593.51
4624.66
4657.6
4693.17
4738.02
4722.26
4776.88
4759.22
4814.57
4795.32
4862.97
4841.12
4918.67
4893.61
4971.6
4944.69
5043.05
5012.46
5125.41
5091.01
5220.84
5181.95
5332.05
5288.14
5460.68
5412.3
5607.74
5555.52
5774.35
5719.76
5957.41
5903.35
6104.64
6496.67
6269.58
6404.1
6429.5
6720.92
6690.61
6931.78
6922.01
4097.44
4110.68
4124.1
4137.6
4151.21
4164.95
4178.85
4192.94
4207.26
4221.85
4236.77
4252.05
4267.75
4283.92
4300.59
4317.77
4335.42
4353.52
4372
4390.86
4410.11
4429.83
4450.1
4471.15
4493.82
4518.81
4545.78
4574.06
4603.3
4633.69
4665.99
4701.22
4742.37
4726.3
4781.49
4763.45
4820.29
4800.42
4869.69
4846.96
4926.98
4900.7
4982.9
4954.43
5057.42
5024.85
5144
5107.11
5244.95
5202.82
5363.68
5315.55
5502.39
5448.72
5662.67
5603.85
5845.73
5783.95
6049.44
5950.55
5981.78
6200
6170.15
6498.94
6622.39
6598.83
6377.14
6347.53
6256.2
6472.43
6899.51
6702.17
6810.86
6831.47
7134.83
7123.64
4103.94
4117.13
4130.5
4143.97
4157.55
4171.27
4185.16
4199.25
4213.6
4228.24
4243.23
4258.63
4274.48
4290.84
4307.72
4325.12
4342.96
4361.18
4379.7
4398.5
4417.65
4437.22
4457.41
4478.94
4502.77
4528.65
4555.75
4583.55
4611.97
4641.53
4673.36
4714.19
4699.48
4746.24
4729.85
4785.53
4767.12
4825.4
4804.94
4875.78
4852.2
4934.71
4907.25
4993.59
4963.55
5071.24
5036.67
5161.99
5122.55
5268.56
5223.07
5395.14
5342.49
5544.73
5485.19
5719.66
5657.45
5625.07
5918.68
5885.36
5816.24
5851.32
6025.6
6139.3
6106.18
5992.48
6224.55
6572.86
6677.84
6443.08
6411.25
6315.46
6544.08
6922.59
7056.51
7039.83
6787.49
6901.78
7361.7
7160.06
7285.83
7298.13
4110.39
4123.51
4136.84
4150.27
4163.81
4177.5
4191.38
4205.48
4219.85
4234.54
4249.61
4265.13
4281.15
4297.73
4314.86
4332.48
4350.48
4368.74
4387.19
4405.86
4424.8
4444.23
4464.74
4487.4
4512.24
4538.32
4565.01
4591.98
4619.49
4648.48
4679.76
4717.33
4702.45
4749.64
4733.07
4789.01
4770.27
4829.92
4808.88
4881.34
4856.91
4941.88
4913.32
5003.66
4972.06
5084.43
5047.9
5179.25
5137.19
5291.45
5242.38
5426.17
5368.61
5593
5560.6
5528.52
5496.26
5781
5744.95
5683
5649.02
5958.24
5922.72
5848.96
5886.18
6071.43
6191.13
6155.77
6035.55
6281.1
6650.05
6760.99
6512.21
6376.86
6477.59
6619
7020.56
7143.82
6876.98
6997.87
7414.21
7546.98
7545.55
7271.44
7403.14
4116.77
4129.83
4143.11
4156.48
4169.98
4183.64
4197.5
4211.59
4225.98
4240.73
4255.89
4271.56
4287.79
4304.63
4322.02
4339.83
4357.9
4376.09
4394.38
4412.82
4431.55
4451.17
4472.67
4496.45
4521.59
4547.35
4573.21
4599.2
4625.98
4654.36
4690.52
4677.06
4720
4704.91
4752.59
4735.87
4791.99
4772.94
4833.91
4812.3
4886.43
4861.16
4948.52
4918.9
5013.15
4979.99
5096.82
5058.38
5195.48
5150.79
5313.26
5260.47
5464.68
5433.16
5402.52
5372.13
5614.98
5580.96
5547.12
5513.41
5811.33
5773.21
5709
5672.98
5998.74
5960.74
5882.15
5921.71
6118.42
6244.8
6206.71
6079.69
6339.72
6730.94
6848.36
6584.42
6440.42
6546.68
6697.28
7123.54
7253.75
6971.12
7099.07
7538.31
7675.92
7674.85
7388.3
7526.65
4123.06
4136.06
4149.28
4162.59
4176.04
4189.66
4203.5
4217.59
4232
4246.8
4262.08
4277.94
4294.45
4311.59
4329.2
4347.11
4365.12
4383.13
4401.17
4419.34
4438.17
4458.59
4481.25
4505.44
4530.34
4555.31
4580.11
4605.17
4631.28
4658.69
4692.46
4678.86
4722.1
4706.88
4755.05
4738.15
4794.46
4775.08
4837.43
4815.22
4891.07
4864.93
4954.72
4924.06
5021.97
4987.38
5108.24
5067.99
5210.31
5162.96
5342.93
5314.06
5286.35
5259.26
5480.13
5447.27
5415.06
5383.5
5636.96
5601.15
5565.56
5530.19
5842.12
5735.11
5801.69
5697.02
6040.14
5999.51
5915.85
5957.91
6166.59
6300.34
6259.22
6124.98
6400.46
6815.79
6940.06
6659.79
6506.37
6618.77
6779.17
7232
7369.59
7070.08
7205.67
7667.66
7810.42
7809.31
7511.28
7656.14
4129.27
4142.2
4155.34
4168.59
4181.99
4195.56
4209.36
4223.44
4237.87
4252.75
4268.2
4284.35
4301.18
4318.59
4336.34
4354.2
4372.01
4389.75
4407.5
4425.65
4445.12
4466.65
4489.83
4513.86
4538.03
4561.91
4585.61
4609.9
4635.12
4667.06
4654.76
4693.79
4680.1
4723.54
4708.24
4756.91
4739.76
4796.39
4776.63
4840.44
4817.61
4895.27
4868.23
4960.41
4928.8
5030
4994.12
5118.31
5076.38
5222.72
5172.85
5352.9
5323.04
5294.09
5266.18
5495.24
5460.83
5427.09
5394.15
5658.94
5621.2
5583.76
5546.57
5873.3
5761.34
5830.4
5721.06
6082.53
6039.14
5950.14
5994.9
6216.26
6357.91
6313.48
6171.66
6463.34
6904.6
7036.23
6738.49
6574.87
6693.96
6864.7
7346.34
7491.7
7174.22
7317.99
7802.63
7950.78
7949.5
7640.85
7792.26
4135.39
4148.24
4161.3
4174.47
4187.79
4201.31
4215.06
4229.13
4243.6
4258.62
4274.35
4290.85
4307.99
4325.57
4343.31
4360.97
4378.49
4395.92
4413.53
4432.18
4452.63
4474.76
4497.89
4521.27
4544.38
4567.05
4589.85
4613.32
4637.28
4667.75
4655.35
4694.5
4680.78
4724.34
4708.99
4758.1
4740.68
4797.78
4777.55
4842.97
4819.52
4899.08
4871.18
4965.48
4933.05
5037
5000.05
5126.35
5082.92
5244.17
5216.86
5165.81
5191.05
5362.2
5331.16
5301.07
5272.09
5509.85
5473.75
5438.41
5403.98
5680.83
5641.01
5601.56
5562.41
5904.85
5787.64
5859.27
5745.02
6126.04
6079.68
5984.94
6032.61
6267.45
6417.41
6369.42
6219.63
6528.34
6997.55
7137.34
6820.57
6646.22
6772.47
6954.25
7467.05
7620.69
7283.95
7436.45
7944.39
8098.17
8097.29
7777.73
7936.65
4141.4
4154.15
4167.12
4180.2
4193.45
4206.89
4220.6
4234.66
4249.24
4264.52
4280.62
4297.45
4314.8
4332.4
4349.96
4367.31
4384.49
4401.72
4419.65
4439.14
4460.22
4482.4
4504.97
4527.35
4549.24
4570.89
4592.94
4615.34
4643.55
4632.29
4667.82
4655.43
4694.56
4680.84
4724.48
4709.07
4758.61
4740.94
4798.64
4777.82
4845.16
4821.03
4902.54
4873.88
4969.49
4936.46
5042.48
5004.73
5142.26
5119.43
5086.97
5248.4
5220.58
5168.47
5193.96
5370.69
5338.44
5307.22
5277.23
5523.8
5485.92
5448.94
5413.01
5702.48
5660.42
5618.81
5577.58
5936.69
5813.92
5888.23
5768.75
6170.66
6121.16
6020.09
6071
6320.01
6478.9
6427.25
6268.82
6595.9
7095.24
7243.85
6906.55
6720.9
6854.73
7048.3
7594.55
7757.32
7399.47
7561.58
8096.01
8255.78
8258.39
7923.4
8092.07
4147.3
4159.94
4172.8
4185.78
4198.93
4212.3
4225.97
4240.1
4254.92
4270.57
4287.01
4304.07
4321.48
4338.93
4356.18
4373.19
4390.12
4407.48
4426.11
4446.21
4467.4
4489.14
4510.81
4532
4552.8
4573.7
4594.86
4615.92
4643.23
4632
4667.26
4654.96
4693.92
4680.22
4723.95
4708.46
4758.48
4740.56
4799.08
4777.63
4847.14
4822.24
4905.42
4876.23
4971.73
4938.3
5045.82
5007.42
5144.32
5121.17
5099.43
5077.3
5251.76
5223.26
5170.2
5196.07
5378.33
5344.81
5312.45
5281.45
5537.03
5497.34
5458.65
5421.15
5723.74
5679.29
5635.42
5592.07
5968.67
5840.05
5917.16
5792.14
6216.42
6163.52
6055.5
6109.91
6374.19
6542.85
6487.39
6319.53
6666.48
7198.08
7355.89
6996.73
6799.14
6940.78
7147.14
7729.55
7902.55
7521.38
7693.93
8263.72
8440.06
8447.48
8079.9
8262.29
4153.08
4165.58
4178.33
4191.19
4204.24
4217.53
4231.23
4245.58
4260.76
4276.77
4293.44
4310.56
4327.86
4345.04
4361.94
4378.68
4395.62
4413.5
4432.68
4452.93
4473.82
4494.76
4515.31
4535.4
4555.42
4575.55
4595.63
4620.74
4610.57
4642.44
4631.38
4666.11
4653.98
4692.6
4678.95
4722.8
4707.17
4757.85
4739.63
4799.29
4777.25
4848.83
4823.17
4906.99
4877.5
4971.86
4938.23
5056.7
5036.8
5007.63
5145.62
5122.13
5099.34
5077.27
5254.22
5225.01
5171.01
5197.29
5385.05
5350.26
5316.75
5284.76
5549.51
5507.94
5467.52
5428.43
5744.5
5697.59
5651.39
5605.84
6000.73
5865.96
5946.04
5815.12
6263.49
6206.72
6091.15
6149.27
6430.29
6609.41
6549.8
6371.79
6740.23
7306.24
7474.08
7091.29
6880.82
7030.74
7251.1
7872.9
8057.75
7650.45
7834.23
8455.06
8667.66
8671.6
8249.19
8450.55
4158.71
4171.07
4183.67
4196.42
4209.35
4222.65
4236.55
4251.25
4266.78
4283.01
4299.75
4316.79
4333.84
4350.69
4367.3
4383.97
4401.24
4419.6
4438.96
4459
4479.22
4499.17
4518.64
4537.94
4557.25
4576.47
4595.3
4619.97
4609.85
4641.24
4630.41
4664.43
4652.53
4690.67
4677.09
4721.15
4705.32
4756.98
4738.33
4799.27
4776.75
4849.69
4823.59
4906.82
4877.14
4978.83
4961.7
4935.68
5056.34
5036.24
4996.76
5015.65
5146.08
5122.29
5098.38
5076.25
5255.75
5225.83
5170.9
5197.56
5390.89
5354.8
5320.14
5287.16
5561.22
5517.74
5475.56
5434.86
5764.79
5715.33
5666.69
5618.87
6032.86
5891.7
5974.84
5837.78
6311.79
6250.77
6127.18
6189.15
6488.27
6678.6
6614.58
6425.44
6817.21
7420.28
7599.27
7190.64
6966.12
7125.3
7360.62
8025.47
8224.35
7787.08
7983.32
8669.68
8923.94
8916.23
8432.75
8656.13
4164.16
4176.37
4188.83
4201.44
4214.34
4227.81
4242.06
4257.12
4272.86
4289.15
4305.8
4322.63
4339.38
4355.92
4372.41
4389.24
4406.9
4425.45
4444.67
4464.18
4483.53
4502.47
4521.16
4539.8
4558.32
4576.49
4599.19
4589.83
4618.84
4608.88
4639.65
4629.07
4662.31
4650.67
4688.29
4674.77
4719.17
4703.04
4755.96
4736.8
4798.52
4775.79
4849.15
4822.94
4904.56
4874.87
4976.83
4959.57
4940.18
4924.18
5055.2
5035.06
4994.81
5013.62
5145.65
5121.53
5096.59
5074.41
5256.33
5225.69
5169.86
5196.88
5395.86
5358.47
5322.63
5288.61
5572.15
5526.75
5482.79
5440.46
5784.65
5732.53
5681.32
5631.17
6065.17
5917.14
6003.44
5860.02
6361.17
6295.66
6163.62
6229.69
6548.37
6750.69
6681.85
6480.62
6897.76
7541.03
7731.81
7295.3
7055.84
7225
7476.39
8188.37
8403.01
7932
8142.05
8900.12
9188.68
9170.99
8630.56
8875.3
4169.44
4181.48
4193.79
4206.33
4219.37
4233.19
4247.8
4263.06
4278.85
4295.04
4311.51
4328.05
4344.5
4360.86
4377.4
4394.51
4412.34
4430.81
4449.62
4468.39
4486.83
4505
4523.07
4541
4558.64
4575.66
4598.18
4588.93
4617.37
4607.66
4637.68
4627.36
4659.86
4648.45
4685.66
4672.17
4716.97
4700.55
4754.62
4735.01
4796.57
4773.83
4846.98
4820.9
4908.68
4893.86
4870.34
4974.08
4956.84
4936.94
4921.02
5053.3
5033.1
4992.02
5010.81
5144.32
5119.91
5094.05
5071.82
5255.95
5224.63
5167.91
5195.3
5399.99
5361.26
5324.22
5289.13
5582.32
5534.95
5489.18
5445.21
5804
5749.09
5695.25
5642.68
6097.49
5942.14
6031.7
5881.79
6411.56
6341.37
6200.12
6270.79
6610.57
6826.05
6751.75
6537.42
6982.37
7668.91
7872.1
7405.93
7150.33
7330.27
7599.13
8362.28
8593.98
8086.08
8311.26
9141.09
9441.22
9425.06
8840.96
9105
4174.51
4186.39
4198.6
4211.23
4224.65
4238.85
4253.65
4268.93
4284.63
4300.63
4316.84
4333.09
4349.31
4365.64
4382.34
4399.58
4417.37
4435.52
4453.71
4471.68
4489.39
4506.97
4524.4
4541.57
4558.27
4574.33
4597.04
4588.02
4615.7
4606.26
4635.4
4625.39
4657.13
4645.9
4682.9
4669.36
4714.57
4697.94
4752.57
4732.79
4793.15
4770.61
4842.88
4817.21
4905.6
4890.63
4858.66
4872.36
4970.64
4953.47
4933
4917.15
5050.65
5030.37
4988.53
5007.25
5142.1
5117.49
5090.67
5068.43
5254.62
5222.69
5165.07
5192.86
5403.24
5363.16
5324.89
5288.67
5591.64
5542.26
5494.65
5449
5822.77
5764.93
5708.36
5653.32
6129.51
5966.67
6059.5
5903.01
6463.14
6388.02
6236.72
6312.44
6675.05
6904.98
6824.58
6596.24
7071.13
7804.1
8021.07
7523.28
7249.72
7441.65
7728.94
8547.3
8797.17
8250.24
8490.77
9387.62
9684.28
9675.13
9061.98
9342.8
4179.38
4191.13
4203.39
4216.39
4230.25
4244.66
4259.45
4274.62
4290.12
4305.9
4321.84
4337.86
4353.97
4370.34
4387.1
4404.3
4421.84
4439.46
4456.99
4474.29
4491.43
4508.41
4525.16
4541.53
4557.32
4577.14
4586.89
4568.81
4595.76
4613.93
4604.76
4633
4623.31
4654.25
4643.21
4679.99
4666.41
4711.73
4695.1
4749.52
4729.88
4788.17
4766.08
4836.81
4811.74
4901.8
4886.87
4854.76
4868.4
4966.52
4949.43
4928.44
4912.66
5047.21
5026.84
4984.35
5003.01
5138.94
5114.15
5086.51
5064.27
5252.38
5219.85
5161.38
5189.56
5405.52
5364.1
5324.63
5287.3
5600.03
5548.59
5499.11
5451.75
5840.82
5779.91
5720.51
5662.91
6161.31
5990.66
6086.85
5923.5
6516.25
6435.67
6273.55
6354.61
6741.85
6987.51
6900.42
6656.92
7164.1
7947.51
8179.71
7647.31
7354.41
7559.24
7866.39
8743.77
9011.03
8424.53
8680.89
9636.45
9923.39
9920.24
9291.88
9585.93
4184.05
4195.79
4208.4
4221.93
4236.06
4250.47
4265.1
4280.05
4295.34
4310.88
4326.6
4342.46
4358.52
4374.87
4391.57
4408.56
4425.66
4442.75
4459.66
4476.4
4492.98
4509.34
4525.37
4540.92
4555.78
4585.69
4575.97
4567.67
4594.37
4612.1
4603.17
4630.63
4621.22
4651.38
4640.57
4676.86
4663.39
4708.27
4691.83
4745.42
4726.15
4781.64
4760.23
4837.32
4824.91
4804.48
4897.41
4882.64
4850.4
4863.86
4961.8
4944.79
4923.34
4907.61
5043.02
5022.58
4979.58
4998.18
5134.92
5109.99
5081.65
5059.39
5249.28
5216.09
5156.83
5185.35
5406.71
5363.98
5323.42
5285.09
5607.29
5553.76
5502.41
5453.35
5857.91
5793.77
5731.43
5671.18
6192.99
6014.04
6113.58
5943.13
6570.62
6483.92
6310.37
6396.98
6810.88
7073.68
6979.28
6719.23
7261.5
8100.2
8348.3
7778.21
7464.64
7682.86
8012.3
8951.17
9234.09
8608.89
8882.39
9885.67
10157.3
10158.5
9528.98
9832.76
4188.58
4200.61
4213.82
4227.73
4241.92
4256.15
4270.55
4285.27
4300.32
4315.64
4331.18
4346.92
4362.9
4379.16
4395.66
4412.32
4428.97
4445.49
4461.85
4478.05
4494.05
4509.76
4525.06
4539.8
4553.92
4584.38
4574.7
4566.55
4592.9
4610.25
4601.51
4628.34
4619.15
4648.62
4638.05
4673.55
4660.38
4704.19
4688.17
4740.23
4721.56
4773.64
4753.15
4832.77
4820.39
4792.41
4803.61
4892.46
4877.87
4845.6
4858.85
4956.59
4939.65
4917.75
4902.07
5038.1
5017.68
4974.29
4992.81
5130.14
5105.12
5076.05
5053.83
5245.35
5211.47
5151.37
5180.25
5406.75
5362.7
5321.16
5281.98
5613.16
5557.51
5504.29
5453.59
5873.79
5806.18
5740.72
5677.68
6224.07
6036.32
6138.92
5961.37
6626.12
6532.72
6342.34
6439.02
6881.97
7163.39
7060.8
6783.02
7363.58
8262.41
8526.93
7916.38
7580
7812.33
8167.22
9168.28
9465.23
8804.24
9094.02
10135.3
10388.8
10393.9
9771.7
10084.2
4193.15
4205.83
4219.58
4233.65
4247.69
4261.67
4275.84
4290.33
4305.15
4320.27
4335.65
4351.26
4367.12
4383.19
4399.42
4415.65
4431.78
4447.77
4463.61
4479.25
4494.65
4509.7
4524.26
4538.25
4556.09
4565.24
4548.45
4582.97
4573.3
4591.34
4608.36
4599.79
4626.1
4617.09
4645.94
4635.62
4670.11
4657.38
4699.54
4684.18
4733.99
4716.15
4787.6
4771.82
4761.83
4744.95
4827.66
4815.46
4798.68
4887.03
4872.64
4840.31
4853.43
4950.9
4934.02
4911.71
4896.13
5032.54
5012.2
4968.51
4986.96
5124.5
5099.47
5069.75
5047.6
5240.61
5206.12
5145.18
5174.41
5405.53
5360.25
5317.79
5277.91
5617.21
5559.4
5504.32
5451.99
5888.03
5816.65
5747.88
5681.93
6248.92
6056.49
6160.61
5973.98
6682.28
6579.81
6387.01
6479.97
6954.67
7256.74
7142.84
6845.97
7470.06
8434.72
8715.86
8062.33
7700.48
7948.41
8331.56
9394.09
9703.81
9010.14
9314.76
10384
10616.2
10632.3
10020.9
10339.6
4198.08
4211.49
4225.52
4239.51
4253.28
4267.04
4281.02
4295.31
4309.92
4324.85
4340.07
4355.52
4371.18
4386.98
4402.79
4418.52
4434.14
4449.62
4464.93
4480.01
4494.79
4509.16
4523.04
4536.3
4563.91
4554.81
4547.19
4581.45
4571.83
4589.69
4606.44
4598.01
4623.9
4615.03
4643.29
4633.23
4666.52
4654.33
4694.41
4679.89
4726.89
4710.07
4782.42
4766.75
4756.96
4733.93
4742.62
4822.18
4810.2
4793.29
4881.26
4867.05
4834.64
4847.62
4944.74
4927.93
4905.31
4889.86
5026.43
5006.24
4962.27
4980.63
5118.14
5093.1
5062.84
5040.78
5234.86
5199.9
5138.28
5167.78
5402.6
5356.29
5313.06
5272.64
5618.91
5558.9
5501.92
5447.94
5895.58
5821.8
5750.99
5683.02
6253.07
6078.09
6166.62
6003.1
6737.19
6637.49
6373.94
6495.88
7026.44
7353.42
7232.92
6917.49
7580.76
8617.3
8915.6
8216.91
7826.78
8092.78
8506.13
9628.77
9949.81
9225.32
9544.9
10635.7
10826.2
10882
10276.6
10600.7
4203.52
4217.42
4231.47
4245.18
4258.7
4272.3
4286.12
4300.22
4314.65
4329.41
4344.43
4359.66
4375.01
4390.38
4405.71
4420.95
4436.08
4451.05
4465.82
4480.33
4494.5
4508.23
4521.47
4534.19
4562.52
4553.49
4545.98
4579.85
4570.32
4587.95
4604.44
4596.13
4621.65
4612.91
4640.6
4630.81
4662.76
4651.2
4688.88
4675.32
4719.02
4703.45
4776.98
4761.31
4751.81
4729.3
4737.72
4816.33
4804.56
4787.58
4875.17
4861.11
4828.61
4841.43
4938.16
4921.44
4898.47
4883.23
5019.77
4999.78
4955.58
4973.79
5111.15
5086.15
5055.16
5033.29
5227.6
5192.43
5130.5
5160.13
5397.26
5350.05
5306.28
5265.61
5617.99
5556.14
5497.68
5442.43
5891.82
5819.33
5749.35
5681.53
6251.88
6088.34
6165.52
5991.6
6760.48
6626.04
6372.56
6494.99
7058.04
7456.62
7224.44
6906.76
7698.41
8810.25
9125.24
8381.72
7959.95
8243.94
8695.82
9871.39
10203.9
9450.19
9783.68
10897.5
11084.1
11186.1
10539.2
10870.1
4209.39
4223.44
4237.22
4250.64
4263.99
4277.44
4291.09
4305.03
4319.3
4333.84
4348.6
4363.49
4378.42
4393.34
4408.2
4422.97
4437.6
4452.05
4466.28
4480.23
4493.81
4506.97
4519.65
4531.82
4544.67
4561.08
4552.1
4578.2
4568.76
4586.16
4602.37
4594.2
4619.31
4610.72
4637.74
4628.27
4658.75
4647.86
4682.94
4670.44
4710.53
4696.28
4771.21
4755.64
4746.49
4724.43
4732.51
4810.18
4798.62
4781.53
4868.71
4854.79
4822.25
4834.84
4931
4914.41
4891
4876.04
5012.55
4992.77
4948.27
4966.28
5103.33
5078.38
5046.55
5024.94
5218.26
5183.08
5121.55
5151.04
5391.14
5343.89
5299.12
5256.45
5616.17
5553.87
5495.12
5439.78
5890.67
5818.2
5748.22
5680.41
6250.79
6087.63
6164.46
5990.15
6759.69
6624.61
6371.36
6493.96
7057.21
7451.52
7223.13
6905.29
7695.63
9012.34
9344.32
8555.05
7960
8246.95
8891.04
10122.7
10465.5
9685.16
10031.4
11192.2
12038.8
11624.9
10810.3
11157
4215.48
4229.3
4242.73
4255.93
4269.12
4282.41
4295.9
4309.68
4323.73
4338
4352.42
4366.91
4381.41
4395.89
4410.29
4424.58
4438.71
4452.66
4466.36
4479.76
4492.8
4505.43
4517.6
4529.24
4543.35
4541.93
4559.58
4550.66
4576.5
4567.13
4584.32
4600.25
4592.23
4616.83
4608.43
4634.62
4625.53
4654.37
4644.21
4676.52
4665.14
4707.03
4719.39
4700.34
4688.5
4765.18
4749.69
4740.92
4727.08
4803.63
4792.32
4775.16
4861.72
4847.98
4815.45
4827.77
4923.02
4906.65
4882.74
4868.12
5004.52
4985.02
4940.06
4957.8
5094.48
5069.62
5036.58
5015.33
5207.52
5172.54
5110.66
5139.91
5388.72
5341.97
5280.4
5243.53
5615.06
5552.78
5494.04
5438.7
5889.6
5817.17
5747.22
5679.38
6249.84
6086.76
6163.49
5988.98
6758.63
6623.39
6370.32