/*--------------------------------*- C++ -*----------------------------------*\
  =========                 |
  \\      /  F ield         | OpenFOAM: The Open Source CFD Toolbox
   \\    /   O peration     | Website:  https://openfoam.org
    \\  /    A nd           | Version:  dev
     \\/     M anipulation  |
\*---------------------------------------------------------------------------*/
FoamFile
{
    version     2.0;
    format      ascii;
    class       volScalarField;
    location    "2500";
    object      H2O;
}
// * * * * * * * * * * * * * * * * * * * * * * * * * * * * * * * * * * * * * //

dimensions      [0 0 0 0 0 0 0];

internalField   nonuniform List<scalar> 
9851
(
3.12923e-28
1.12656e-27
6.95146e-28
3.49381e-27
2.81403e-27
3.89037e-28
1.27414e-26
1.04855e-26
3.71348e-27
1.85401e-28
3.83911e-26
3.71954e-26
1.16505e-26
2.79996e-27
6.79405e-29
9.93508e-26
1.23005e-25
4.44549e-26
9.06952e-27
1.13687e-27
8.31918e-29
3.15357e-25
4.21472e-25
2.20332e-25
3.73284e-26
7.68634e-27
5.66672e-28
5.88118e-29
1.39545e-24
1.32782e-24
7.88158e-25
1.85438e-25
2.64734e-26
3.59221e-27
8.4943e-28
2.67766e-28
4.71205e-24
5.3767e-24
3.04428e-24
8.29692e-25
1.49598e-25
2.49087e-26
2.61221e-27
1.62129e-27
4.42947e-28
9.81162e-24
2.44432e-23
1.18453e-23
3.56064e-24
9.61762e-25
1.1042e-25
1.53351e-26
6.02515e-27
2.65508e-27
3.60028e-28
6.79538e-23
1.03065e-22
5.04428e-23
1.77879e-23
3.95671e-24
7.36122e-25
8.03853e-26
2.28095e-26
1.50929e-26
7.14201e-27
4.08546e-28
1.56257e-22
3.99801e-22
1.96404e-22
7.14026e-23
1.68143e-23
2.6553e-24
4.44163e-25
6.4567e-26
6.02689e-26
3.9645e-26
6.86482e-27
3.40885e-27
1.19804e-21
1.74683e-21
8.51894e-22
3.41124e-22
8.5728e-23
1.67625e-23
1.53462e-24
2.87494e-25
1.42095e-25
1.56077e-25
6.34364e-26
1.91001e-26
8.67837e-27
3.0089e-21
6.7275e-21
4.15742e-21
1.4991e-21
4.26264e-22
7.6904e-23
8.86745e-24
1.26548e-24
4.92122e-25
4.62034e-25
2.77912e-25
1.73316e-25
7.12489e-26
2.33814e-27
2.85252e-20
3.46142e-20
1.49576e-20
7.42456e-21
1.75548e-21
3.77597e-22
5.20575e-23
5.27573e-24
1.42096e-24
1.2051e-24
8.89219e-25
5.30258e-25
3.70981e-25
5.78572e-26
1.55987e-26
1.77378e-19
1.20785e-19
8.16481e-20
3.94375e-20
9.69636e-21
1.7207e-21
2.49284e-22
2.79562e-23
4.04094e-24
2.93698e-24
2.44775e-24
2.11698e-24
1.0995e-24
6.76052e-25
1.84541e-25
2.23664e-26
1.43267e-18
7.66736e-19
5.08383e-19
2.05593e-19
5.14643e-20
9.54894e-21
1.55325e-21
1.3987e-22
2.20075e-23
7.1968e-24
8.151e-24
8.75063e-24
5.74033e-24
2.49306e-24
1.66818e-24
2.75919e-25
1.39724e-25
8.93142e-18
5.6362e-18
2.17877e-18
9.28547e-19
2.61435e-19
5.46495e-20
8.29015e-21
9.1768e-22
1.0906e-22
1.81411e-23
1.85821e-23
1.97433e-23
1.85087e-23
1.43356e-23
4.32417e-24
2.89519e-24
1.12369e-24
1.1734e-25
4.55326e-17
2.57086e-17
1.10594e-17
4.36604e-18
1.12996e-18
2.45506e-19
4.60495e-20
6.06365e-21
5.33002e-22
7.56428e-23
3.91823e-23
4.16487e-23
4.82547e-23
3.88266e-23
1.97129e-23
7.8113e-24
3.61655e-24
1.15057e-24
4.36988e-25
1.72759e-17
9.7363e-17
4.73211e-17
1.81249e-17
4.82183e-18
9.56233e-19
1.78622e-19
2.34846e-20
3.7987e-21
3.19905e-22
9.12807e-23
9.30225e-23
8.67802e-23
8.70354e-23
6.24157e-23
2.13573e-23
2.56024e-23
8.7265e-24
3.95308e-24
1.5531e-24
6.89589e-18
9.32963e-17
1.25942e-16
6.33237e-17
1.86002e-17
3.65268e-18
5.8446e-19
1.02356e-19
1.55374e-20
1.96259e-21
2.93509e-22
1.78209e-22
2.36614e-22
2.4258e-22
1.89583e-22
1.12116e-22
6.65456e-23
3.51243e-23
2.02977e-23
1.82384e-23
1.41089e-23
2.10608e-18
5.25504e-17
1.69732e-16
1.56032e-16
5.77653e-17
1.69172e-17
2.54706e-18
4.02664e-19
5.72351e-20
9.12945e-21
1.046e-21
4.15288e-22
4.92526e-22
3.90811e-22
4.03388e-22
4.67314e-22
2.96558e-22
1.2879e-22
8.36007e-23
1.51573e-22
1.59552e-22
9.00937e-23
3.08238e-18
2.88749e-17
1.21937e-16
2.51312e-16
1.50768e-16
5.03576e-17
1.22674e-17
2.03687e-18
2.97244e-19
3.88368e-20
5.29634e-21
8.49768e-22
8.4096e-22
1.14034e-21
7.6683e-22
8.65682e-22
1.04207e-21
9.15708e-22
7.41407e-22
8.26934e-22
1.06303e-21
7.54367e-22
2.53676e-22
3.36501e-18
2.03113e-17
1.03824e-16
3.01994e-16
2.7755e-16
1.26476e-16
3.67488e-17
7.87735e-18
1.13131e-18
1.66262e-19
2.19745e-20
2.54152e-21
1.69443e-21
1.76316e-21
2.49159e-21
2.24217e-21
2.02748e-21
3.25507e-21
4.01576e-21
3.14526e-21
6.27407e-21
7.31626e-21
5.15885e-21
1.92719e-21
5.61534e-18
1.54935e-17
6.12118e-17
2.82485e-16
4.00337e-16
2.58551e-16
8.75063e-17
1.95016e-17
4.31356e-18
5.8584e-19
8.43089e-20
9.34099e-21
3.65092e-21
3.92675e-21
5.71217e-21
8.56222e-21
8.5515e-21
6.48629e-21
1.51479e-20
2.66648e-20
3.24573e-20
3.99301e-20
4.07861e-20
5.5938e-20
2.33216e-20
7.22345e-18
2.81748e-17
5.5435e-17
2.54952e-16
4.60058e-16
4.21899e-16
1.70233e-16
5.17081e-17
1.05272e-17
2.12205e-18
3.01935e-19
4.02475e-20
8.48795e-21
7.27112e-21
9.58964e-21
1.61341e-20
2.37268e-20
2.03451e-20
3.65238e-20
1.0072e-19
1.48229e-19
1.51844e-19
2.7338e-19
3.6222e-19
3.102e-19
4.49193e-20
8.62532e-18
3.8724e-17
7.2306e-17
2.47149e-16
4.87822e-16
5.83842e-16
3.64269e-16
1.1332e-16
3.51929e-17
5.70015e-18
9.14781e-19
1.56855e-19
1.82104e-20
1.41024e-20
2.5674e-20
3.15943e-20
5.61833e-20
8.45433e-20
1.39225e-19
3.2339e-19
7.02546e-19
1.147e-18
1.28214e-18
1.54672e-18
2.18166e-18
1.16411e-18
5.50367e-19
1.12755e-17
4.56049e-17
1.31697e-16
2.68619e-16
5.18882e-16
7.19138e-16
6.11201e-16
2.58061e-16
7.47178e-17
1.68269e-17
2.448e-18
4.64395e-19
7.78228e-20
2.40337e-20
3.9307e-20
8.5269e-20
1.0417e-19
2.20768e-19
5.23039e-19
1.02987e-18
3.20272e-18
6.8769e-18
1.10796e-17
1.19824e-17
9.66012e-18
1.17982e-17
1.27258e-17
8.02516e-18
2.01284e-17
9.77971e-17
2.40788e-16
3.35384e-16
5.76129e-16
8.1452e-16
8.55777e-16
4.09209e-16
1.49078e-16
3.69129e-17
6.73163e-18
1.09859e-18
2.3649e-19
6.58983e-20
9.49127e-20
1.3616e-19
3.44812e-19
5.03161e-19
1.81618e-18
4.71435e-18
9.50488e-18
2.97357e-17
4.16864e-17
9.1636e-17
8.01175e-17
9.00545e-17
9.67846e-17
8.36305e-17
3.41186e-17
3.78748e-17
1.52477e-16
3.29936e-16
4.85453e-16
6.89196e-16
9.50195e-16
1.18387e-15
7.97708e-16
2.93547e-16
8.44806e-17
1.81117e-17
3.56626e-18
6.04354e-19
1.5471e-19
1.55154e-19
3.18607e-19
7.87422e-19
1.71346e-18
4.80348e-18
1.38986e-17
4.56298e-17
1.16471e-16
2.28581e-16
4.05531e-16
6.41995e-16
7.69725e-16
8.01499e-16
5.56964e-16
3.80892e-16
9.03948e-17
5.31524e-17
2.57018e-16
5.23846e-16
7.98824e-16
1.05874e-15
1.26679e-15
1.55677e-15
1.10946e-15
5.6407e-16
1.46883e-16
4.97733e-17
9.26713e-18
1.32684e-18
2.90479e-19
2.97934e-19
5.83956e-19
1.44943e-18
5.26484e-18
1.167e-17
3.19785e-17
1.13854e-16
3.67654e-16
1.03532e-15
1.50341e-15
2.76076e-15
4.05433e-15
4.79886e-15
4.29911e-15
3.05622e-15
1.40391e-15
3.12189e-16
1.10151e-16
5.36831e-16
9.87099e-16
1.21015e-15
1.71816e-15
1.85694e-15
2.01503e-15
1.7459e-15
8.86558e-16
3.32066e-16
9.81662e-17
1.71149e-17
4.70737e-18
8.68637e-19
4.96421e-19
1.25622e-18
2.51993e-18
9.25822e-18
4.16154e-17
1.04424e-16
2.84755e-16
9.64486e-16
3.44884e-15
8.47895e-15
1.83626e-14
3.1965e-14
4.29399e-14
4.43268e-14
3.47499e-14
2.09624e-14
7.53985e-15
1.00018e-15
2.06374e-16
8.28603e-16
1.75738e-15
2.10622e-15
2.5053e-15
2.84463e-15
2.48663e-15
2.23681e-15
1.43315e-15
6.04389e-16
2.00228e-16
4.94602e-17
1.04366e-17
1.87407e-18
1.41595e-18
3.31872e-18
7.18423e-18
2.76391e-17
9.13151e-17
2.63531e-16
1.10103e-15
3.72934e-15
1.51723e-14
5.06609e-14
1.24644e-13
2.39625e-13
3.62456e-13
4.23636e-13
3.78154e-13
2.50905e-13
1.18748e-13
2.81579e-14
3.01322e-15
3.84296e-16
1.34408e-15
2.63516e-15
4.36406e-15
4.14185e-15
5.07226e-15
3.78539e-15
3.3457e-15
2.12327e-15
9.85684e-16
3.52856e-16
8.46883e-17
2.45439e-17
5.8925e-18
2.81327e-18
7.45545e-18
2.59078e-17
7.9987e-17
2.41124e-16
6.78974e-16
2.79815e-15
1.50462e-14
7.11466e-14
2.66061e-13
7.64454e-13
1.66523e-12
2.76894e-12
3.61281e-12
3.6825e-12
2.82405e-12
1.50246e-12
3.73337e-13
6.70058e-14
8.33025e-16
1.34403e-14
5.10582e-16
2.32688e-15
4.82453e-15
7.71372e-15
9.48702e-15
9.01569e-15
7.66521e-15
5.73793e-15
3.46708e-15
1.478e-15
5.63627e-16
1.94982e-16
3.97747e-17
1.2436e-17
7.27334e-18
1.30956e-17
5.38678e-17
1.66395e-16
5.56698e-16
1.94764e-15
9.66769e-15
5.99473e-14
3.18114e-13
1.3007e-12
4.13027e-12
1.025e-11
1.93222e-11
2.77979e-11
3.13257e-11
2.80414e-11
1.83042e-11
5.39898e-12
7.45692e-13
9.24591e-14
6.04904e-13
2.88658e-15
4.35897e-14
1.33436e-15
4.08261e-15
8.74889e-15
1.38434e-14
1.80448e-14
1.62289e-14
1.38347e-14
9.59331e-15
5.94196e-15
2.85271e-15
8.76304e-16
3.31109e-16
7.49401e-17
2.05726e-17
1.59007e-17
4.12269e-17
1.03719e-16
3.90729e-16
1.37131e-15
5.5753e-15
3.53725e-14
2.36349e-13
1.34341e-12
5.91066e-12
2.02151e-11
5.48441e-11
1.18088e-10
1.9322e-10
2.41403e-10
2.35996e-10
1.86943e-10
7.25797e-11
8.3638e-12
3.30486e-11
3.25614e-12
2.18743e-11
1.86683e-11
3.33946e-13
2.15824e-12
8.98471e-15
1.46013e-13
1.35712e-15
7.22002e-15
1.72508e-14
2.67236e-14
3.35622e-14
3.42368e-14
2.71226e-14
2.00326e-14
1.16904e-14
5.22153e-15
1.63978e-15
4.86005e-16
1.8132e-16
3.9705e-17
4.19864e-17
7.09859e-17
2.85701e-16
8.8526e-16
2.91767e-15
1.63682e-14
1.21186e-13
9.63394e-13
5.47182e-12
2.51611e-11
9.10778e-11
2.63434e-10
6.20945e-10
1.16516e-09
1.66753e-09
1.82566e-09
1.5578e-09
8.91266e-10
1.223e-10
5.01855e-10
1.01859e-10
1.29629e-11
9.27591e-11
7.3872e-11
1.17862e-12
8.0479e-12
2.94023e-14
4.97876e-13
2.3458e-15
1.30452e-14
3.06569e-14
5.39509e-14
6.77297e-14
7.14122e-14
4.91188e-14
3.23022e-14
1.99804e-14
1.06072e-14
3.14019e-15
9.51103e-16
3.13178e-16
9.50099e-17
9.47473e-17
2.20381e-16
5.7839e-16
1.92896e-15
7.80679e-15
4.62402e-14
3.79455e-13
3.47518e-12
2.25501e-11
1.02704e-10
3.82463e-10
1.15764e-09
2.89743e-09
5.98487e-09
9.92919e-09
1.25941e-08
1.23372e-08
9.29989e-09
1.83887e-09
6.83818e-09
4.73152e-10
2.0455e-09
4.58002e-10
5.14986e-11
4.01073e-10
3.13881e-10
4.28627e-12
3.15475e-11
1.01708e-13
1.79532e-12
4.18718e-15
2.16794e-14
5.7553e-14
9.38507e-14
1.36956e-13
1.30808e-13
1.0957e-13
6.74032e-14
4.19628e-14
1.76467e-14
6.63185e-15
1.62014e-15
5.05702e-16
2.43223e-16
1.8016e-16
4.70966e-16
1.39868e-15
5.18915e-15
2.18112e-14
1.22366e-13
1.09841e-12
1.12315e-11
8.22966e-11
4.15712e-10
1.53857e-09
4.71934e-09
1.22591e-08
2.69403e-08
4.98827e-08
7.46221e-08
8.60004e-08
7.91494e-08
2.26322e-08
7.43748e-08
8.13321e-09
2.99544e-08
2.12164e-09
9.21937e-09
2.05574e-09
2.18711e-10
1.81046e-09
1.4352e-09
1.66044e-11
1.33213e-10
3.71993e-13
6.84557e-12
6.64136e-15
3.76661e-14
9.61662e-14
1.82747e-13
2.37644e-13
2.63644e-13
2.14225e-13
1.52185e-13
7.11051e-14
3.65134e-14
1.31324e-14
3.09954e-15
9.64153e-16
4.38242e-16
5.64045e-16
1.26655e-15
4.2666e-15
1.55505e-14
6.09913e-14
3.02308e-13
2.8973e-12
3.32787e-11
2.69201e-10
1.502e-09
5.9987e-09
1.84544e-08
4.7871e-08
1.08423e-07
2.1531e-07
3.68417e-07
5.13264e-07
5.64518e-07
2.20209e-07
6.43813e-07
1.03114e-07
3.32001e-07
3.69867e-08
1.37326e-07
9.77705e-09
4.31911e-08
9.69464e-09
1.0059e-09
8.7354e-09
7.05921e-09
6.86409e-11
6.05256e-10
1.45201e-12
2.78503e-11
1.15263e-14
6.47315e-14
1.70832e-13
3.27741e-13
4.75887e-13
5.29891e-13
4.3204e-13
3.34412e-13
1.58698e-13
8.39826e-14
2.70547e-14
6.93665e-15
1.64573e-15
9.58508e-16
1.48705e-15
3.93436e-15
1.27081e-14
4.72221e-14
1.7728e-13
7.44091e-13
6.06677e-12
9.10411e-11
8.0588e-10
4.88955e-09
2.10653e-08
6.80935e-08
1.78862e-07
4.0035e-07
8.13374e-07
1.513e-06
2.50573e-06
3.39651e-06
1.69721e-06
4.35949e-06
9.95983e-07
2.74545e-06
4.72667e-07
1.49474e-06
1.75197e-07
6.46802e-07
4.73572e-08
2.10582e-07
4.82009e-08
4.96441e-09
4.46165e-08
3.66826e-08
3.04917e-10
2.94714e-09
6.10353e-12
1.21532e-10
2.17864e-14
1.13434e-13
2.94503e-13
5.79714e-13
8.92816e-13
1.05445e-12
9.06241e-13
7.20427e-13
4.4303e-13
1.44889e-13
5.04742e-14
1.34295e-14
3.69415e-15
2.92658e-15
5.54254e-15
1.30755e-14
4.33873e-14
1.51506e-13
5.36221e-13
1.94866e-12
1.12486e-11
1.81331e-10
2.19392e-09
1.45193e-08
6.7077e-08
2.28854e-07
6.15748e-07
1.40906e-06
2.8069e-06
5.28181e-06
9.51605e-06
1.59261e-05
1.01747e-05
2.41716e-05
7.05074e-06
1.7042e-05
4.24897e-06
1.10391e-05
2.1553e-06
6.34636e-06
8.47339e-07
2.9766e-06
2.38159e-07
1.03913e-06
2.48878e-07
2.58361e-08
2.35671e-07
1.96503e-07
1.45194e-09
1.51712e-08
2.78396e-11
5.71615e-10
4.9429e-14
2.07024e-13
5.15396e-13
1.00342e-12
1.59713e-12
2.03132e-12
1.8557e-12
1.54111e-12
9.72325e-13
4.21246e-13
1.05621e-13
2.62283e-14
9.6369e-15
9.85206e-15
2.18853e-14
5.0255e-14
1.56373e-13
5.11574e-13
1.68876e-12
5.51454e-12
2.22993e-11
2.66243e-10
4.38438e-09
3.82729e-08
1.948e-07
7.0079e-07
1.94978e-06
4.50069e-06
9.0033e-06
1.64325e-05
2.91208e-05
5.12405e-05
4.62234e-05
9.0428e-05
3.77642e-05
7.59223e-05
2.69191e-05
5.96901e-05
1.68051e-05
4.05537e-05
9.10398e-06
2.46482e-05
3.90983e-06
1.24465e-05
1.20277e-06
4.80601e-06
1.28168e-06
1.38777e-07
1.23465e-06
1.04318e-06
7.35082e-09
8.10776e-08
1.36475e-10
2.84352e-09
1.69832e-13
4.74989e-13
9.20848e-13
1.74799e-12
2.80069e-12
3.70089e-12
3.84963e-12
3.27818e-12
2.81325e-12
1.13029e-12
2.41642e-13
5.84951e-14
2.78143e-14
3.62088e-14
9.08883e-14
2.0202e-13
5.92762e-13
1.8102e-12
5.55232e-12
1.66106e-11
5.19476e-11
3.56243e-10
6.32457e-09
7.52749e-08
4.83216e-07
1.96356e-06
5.61426e-06
1.31317e-05
2.57909e-05
4.47216e-05
7.46448e-05
0.00012342
0.000134635
0.000197822
0.000127227
0.000185954
0.000110862
0.000173203
8.79104e-05
0.0001527
5.92021e-05
0.000121808
3.45136e-05
8.24345e-05
1.61199e-05
4.58206e-05
5.57419e-06
1.95749e-05
5.95596e-06
7.43327e-07
5.77815e-06
4.95136e-06
3.84453e-08
4.34282e-07
7.05045e-10
1.45725e-08
7.76304e-13
1.58285e-12
2.04639e-12
3.10214e-12
4.9133e-12
6.56776e-12
7.31453e-12
7.43215e-12
5.44098e-12
2.17349e-12
5.62875e-13
1.47756e-13
8.5728e-14
1.39894e-13
3.5058e-13
9.00934e-13
2.32401e-12
6.69327e-12
1.91007e-11
5.26518e-11
1.40741e-10
5.40047e-10
7.28667e-09
1.10255e-07
9.0929e-07
4.37141e-06
1.43867e-05
3.35743e-05
6.51562e-05
0.000105937
0.000158772
0.000234117
0.000253603
0.000306275
0.000248087
0.000314494
0.000240395
0.000308834
0.000225192
0.000300188
0.000198948
0.000281256
0.000159974
0.000248112
0.000108795
0.000199934
5.75473e-05
0.000136034
2.23969e-05
6.79549e-05
2.37615e-05
3.60909e-06
2.30919e-05
1.99768e-05
2.02098e-07
2.16673e-06
3.7438e-09
7.46951e-08
3.95365e-12
6.87226e-12
6.4012e-12
7.14297e-12
8.43156e-12
1.18242e-11
1.32124e-11
1.37491e-11
1.45499e-11
6.23172e-12
1.35082e-12
4.25814e-13
2.78072e-13
5.38465e-13
1.39628e-12
3.87741e-12
9.26877e-12
2.56929e-11
6.87364e-11
1.75111e-10
4.19421e-10
1.06295e-09
7.90409e-09
1.25934e-07
1.33355e-06
7.63797e-06
2.72227e-05
6.85151e-05
0.000124155
0.000190683
0.000261093
0.000344621
0.000467855
0.000372468
0.000458091
0.000376398
0.000442586
0.00037379
0.000443711
0.000362489
0.0004399
0.000338148
0.000424765
0.000298093
0.000394238
0.000239636
0.000346209
0.000161472
0.000276418
7.57589e-05
0.000181669
7.91863e-05
1.47873e-05
7.66512e-05
6.65374e-05
1.01467e-06
8.99424e-06
1.96066e-08
3.62481e-07
1.93014e-11
3.316e-11
2.3051e-11
1.87634e-11
1.66508e-11
2.01609e-11
2.48256e-11
2.67597e-11
2.57719e-11
1.16561e-11
3.07603e-12
1.06253e-12
9.07849e-13
1.9949e-12
5.43877e-12
1.58341e-11
3.73183e-11
1.01106e-10
2.57093e-10
6.09156e-10
1.32819e-09
2.70365e-09
9.39051e-09
1.25516e-07
1.54253e-06
1.09029e-05
4.26731e-05
0.000107404
0.000195393
0.000280935
0.000365998
0.000464349
0.000576459
0.000606659
0.000655777
0.000504041
0.000561549
0.000508789
0.000568535
0.000510881
0.000574127
0.000504135
0.000574875
0.000484156
0.000564835
0.000447611
0.000539675
0.000390449
0.000496357
0.000307498
0.00042906
0.000194655
0.000330185
0.000198664
4.97227e-05
0.000190851
0.000167715
4.17538e-06
3.06587e-05
9.51869e-08
1.50453e-06
7.7757e-11
1.54693e-10
1.08825e-10
6.66984e-11
4.60534e-11
3.59986e-11
4.48043e-11
4.98616e-11
5.64868e-11
2.92132e-11
6.92726e-12
2.12609e-12
2.84663e-12
6.98025e-12
2.01583e-11
6.14811e-11
1.48915e-10
4.01622e-10
9.89408e-10
2.20878e-09
4.41029e-09
7.85547e-09
1.50043e-08
1.17151e-07
1.5415e-06
1.27539e-05
5.73983e-05
0.000147687
0.000261213
0.000373586
0.000479576
0.000578748
0.000659565
0.000684112
0.000709069
0.00070006
0.00072162
0.000620891
0.000665611
0.00062936
0.000676186
0.000635462
0.000685791
0.000634142
0.000691901
0.000620551
0.000688726
0.00059065
0.000671502
0.000539538
0.000636338
0.000459967
0.000576309
0.000343951
0.000481655
0.00034734
0.000130625
0.000336332
0.000306554
1.46603e-05
8.59434e-05
3.92444e-07
5.15218e-06
2.25942e-10
5.69346e-10
4.89969e-10
2.5192e-10
1.1075e-10
7.71627e-11
7.52177e-11
9.45389e-11
9.81638e-11
5.16947e-11
1.60792e-11
5.3981e-12
8.69434e-12
2.28703e-11
7.02457e-11
2.26278e-10
5.79315e-10
1.58847e-09
3.86317e-09
8.28618e-09
1.53084e-08
2.4311e-08
3.39702e-08
1.14847e-07
1.41047e-06
1.28999e-05
6.64541e-05
0.000182089
0.000322804
0.000452523
0.000561165
0.000639253
0.000690625
0.000718881
0.000718532
0.000731331
0.000733225
0.00074766
0.000747803
0.00071418
0.000736803
0.000726556
0.000754403
0.000737524
0.000771754
0.000743286
0.000785501
0.000738497
0.000791186
0.000717992
0.000783726
0.000676339
0.00075937
0.000604854
0.000709852
0.000494443
0.00062488
0.000495438
0.000254646
0.000480224
0.000444972
4.29039e-05
0.000182797
1.21724e-06
1.482e-05
3.85293e-10
1.40541e-09
1.74218e-09
1.14106e-09
4.45317e-10
2.50198e-10
1.38357e-10
1.57532e-10
1.83172e-10
1.09939e-10
3.38442e-11
1.22874e-11
2.86756e-11
6.91796e-11
2.29024e-10
7.82553e-10
2.17488e-09
6.15499e-09
1.51976e-08
3.16595e-08
5.56855e-08
7.93002e-08
9.20643e-08
1.49734e-07
1.12379e-06
1.22619e-05
6.78333e-05
0.000203629
0.000367515
0.000505997
0.00059593
0.000653518
0.000689567
0.000711094
0.000730776
0.000722443
0.000744104
0.000735643
0.0007633
0.00075242
0.000768028
0.000768259
0.000789988
0.000793804
0.000811725
0.00082142
0.000828446
0.000846832
0.000834573
0.000865752
0.000825273
0.000872004
0.0007948
0.000860145
0.000735329
0.000823713
0.000635513
0.000752185
0.000633678
0.000388266
0.000615317
0.000578131
0.000103453
0.000305305
3.22352e-06
3.83924e-05
1.82942e-09
3.76463e-09
4.20507e-09
1.76854e-09
6.40161e-10
3.0599e-10
2.73781e-10
3.10248e-10
2.04512e-10
7.25888e-11
2.50624e-11
5.98447e-11
1.91241e-10
6.81863e-10
2.51461e-09
7.61896e-09
2.29381e-08
5.76453e-08
1.21636e-07
2.07557e-07
2.53351e-07
2.612e-07
2.99507e-07
9.83245e-07
1.02479e-05
6.59391e-05
0.00020808
0.000393632
0.00051728
0.000592145
0.000643554
0.000675241
0.000680323
0.000668646
0.000629842
0.000719958
0.000696215
0.00073311
0.00070615
0.000756718
0.000727282
0.000788583
0.000776785
0.000817703
0.000807485
0.000848532
0.000840815
0.000876033
0.000871952
0.000895142
0.000899164
0.000901127
0.000917749
0.000887102
0.000921195
0.000843515
0.000904293
0.000759429
0.000854436
0.00075417
0.000517615
0.000733984
0.000695637
0.000195644
0.000428019
8.10987e-06
8.34609e-05
4.1429e-09
7.32519e-09
6.96133e-09
3.18766e-09
8.05663e-10
5.27427e-10
5.47337e-10
3.53159e-10
1.64528e-10
4.84999e-11
1.18773e-10
4.88422e-10
1.85507e-09
7.1822e-09
2.49866e-08
7.77867e-08
2.09823e-07
4.47939e-07
6.78802e-07
7.53428e-07
7.62221e-07
7.55013e-07
1.12099e-06
7.68339e-06
6.09816e-05
0.000206023
0.000395707
0.000508913
0.000571734
0.000611201
0.000628453
0.000613248
0.000593096
0.000547482
0.000592153
0.000546112
0.000672904
0.000634502
0.000689954
0.00064657
0.000721382
0.000674998
0.000788766
0.000759663
0.000824038
0.00079775
0.000860027
0.000837596
0.000892074
0.000874227
0.000917308
0.000905958
0.000932823
0.000929981
0.00093345
0.000942069
0.000913116
0.000938907
0.000856203
0.000915548
0.00084675
0.00063484
0.000825376
0.000795818
0.000731216
0.000301704
0.000541586
2.10791e-05
0.000157231
7.94135e-09
1.1921e-08
8.5184e-09
2.95751e-09
1.23897e-09
1.03498e-09
6.17641e-10
2.99841e-10
9.64932e-11
1.99503e-10
1.17617e-09
4.75671e-09
1.9024e-08
7.40013e-08
2.4598e-07
6.78546e-07
1.39154e-06
1.97785e-06
2.28628e-06
2.30729e-06
2.10265e-06
1.99026e-06
6.26495e-06
4.95693e-05
0.000197821
0.000389665
0.000489066
0.000530352
0.000537177
0.000515196
0.000478558
0.000413592
0.000499258
0.000429341
0.000494698
0.00044133
0.000598574
0.000547466
0.000622282
0.000565044
0.000662882
0.000603082
0.000761381
0.000716179
0.000803834
0.000761002
0.000844711
0.000805363
0.000881748
0.000845376
0.000912517
0.000881141
0.000934648
0.000910275
0.000944098
0.00093056
0.000939301
0.000940083
0.000910582
0.000934146
0.000927165
0.000871558
0.000900672
0.000773156
0.000664072
0.000742814
0.00084738
0.000882777
0.000893621
0.00082989
0.000408125
0.000707227
0.000660089
0.000563028
4.24179e-05
0.000232043
1.37871e-08
1.74363e-08
1.13827e-08
4.17015e-09
2.15244e-09
1.07153e-09
5.04858e-10
1.84322e-10
2.96372e-10
1.99089e-09
1.03572e-08
4.77176e-08
1.8984e-07
6.71067e-07
1.88702e-06
3.85105e-06
5.82435e-06
7.07743e-06
7.05636e-06
6.09158e-06
4.72585e-06
6.44297e-06
3.83628e-05
0.00017747
0.000376793
0.000466923
0.000492593
0.000456318
0.000379573
0.00030795
0.000261254
0.000283605
0.000225434
0.000388149
0.000332731
0.000383887
0.000326717
0.00050494
0.000443896
0.000538736
0.000471437
0.000589881
0.000522082
0.000710812
0.000653362
0.000757635
0.000704698
0.00080365
0.000760342
0.000845227
0.000812019
0.000878713
0.000853172
0.000902568
0.000878142
0.000917727
0.000906775
0.0008934
0.000935718
0.000929609
0.000907659
0.000920522
0.000930665
0.000918866
0.00092607
0.000931962
0.000913509
0.00080771
0.000779811
0.000871064
0.000897053
0.000906155
0.000855105
0.000605801
0.000417252
0.000534414
0.000744612
0.000700734
4.67515e-05
0.000454876
0.000350703
0.000218874
2.41909e-08
2.32997e-08
1.12294e-08
5.57592e-09
2.03514e-09
8.52879e-10
3.12692e-10
3.96952e-10
2.6894e-09
1.81169e-08
9.91351e-08
4.5221e-07
1.64102e-06
4.71311e-06
1.02044e-05
1.65304e-05
2.06714e-05
2.09528e-05
1.73776e-05
1.21654e-05
9.27397e-06
3.23841e-05
0.000151796
0.000353909
0.000450118
0.000464542
0.000399544
0.000281932
0.000171949
0.000123439
9.86877e-05
0.000177542
0.000121519
0.000273322
0.000223448
0.000271989
0.00021547
0.000403
0.000335491
0.000451731
0.000380134
0.000529334
0.000465615
0.000648896
0.000590589
0.000716413
0.000671538
0.000781699
0.00074897
0.000832001
0.000816704
0.000866955
0.000870699
0.000886645
0.000884503
0.000886825
0.000895667
0.000897452
0.00089137
0.000890005
0.000887286
0.000925987
0.000915125
0.000894995
0.000903833
0.000927415
0.000921894
0.000922747
0.000921466
0.000916079
0.000834853
0.000809344
0.000886232
0.000909232
0.000901601
0.000872637
0.000646666
0.000579422
0.000777162
0.000736968
0.00023621
1.33285e-05
8.60126e-05
0.000497997
0.000392573
4.04482e-08
2.71319e-08
9.71653e-09
4.40777e-09
1.49103e-09
5.1781e-10
4.96169e-10
3.30546e-09
2.67629e-08
1.68222e-07
8.73287e-07
3.46231e-06
1.05151e-05
2.4202e-05
4.1104e-05
5.32444e-05
5.50267e-05
4.62008e-05
3.16e-05
1.85039e-05
3.14487e-05
0.000128905
0.000325489
0.000435519
0.00044862
0.000370248
0.000237804
0.000111679
5.61948e-05
3.85148e-05
4.64621e-05
2.50537e-05
9.25443e-05
6.42698e-05
0.000167262
0.000126777
0.000182595
0.000133035
0.000309317
0.000242442
0.00039987
0.000332952
0.000514547
0.000455038
0.000623799
0.000570876
0.000715677
0.000681702
0.000807251
0.000803617
0.000888819
0.000919108
0.000911032
0.000933683
0.000958162
0.000987311
0.000890355
0.000899699
0.000918768
0.000945813
0.000893589
0.000899254
0.000892031
0.000900647
0.000911043
0.00090061
0.00089864
0.000895896
0.000916937
0.000917952
0.000912611
0.000907258
0.000912484
0.000855489
0.000833672
0.000892651
0.000906504
0.000899887
0.000881815
0.000686457
0.000623384
0.000805739
0.000769999
0.000253837
8.84179e-06
8.08286e-05
0.00054236
0.00043331
4.41579e-08
2.21927e-08
9.61923e-09
2.82039e-09
8.60471e-10
5.93776e-10
3.7075e-09
3.12795e-08
2.35729e-07
1.37211e-06
5.90752e-06
1.91408e-05
4.45149e-05
7.52013e-05
9.7075e-05
0.000101282
8.89186e-05
6.65015e-05
4.19125e-05
3.55465e-05
0.000114438
0.000294895
0.000421467
0.000439343
0.000366827
0.000233497
0.000102785
3.55023e-05
1.52833e-05
8.86612e-06
1.99269e-05
1.15362e-05
4.56313e-05
3.0357e-05
9.48301e-05
6.6524e-05
0.000147948
0.000102724
0.00026672
0.000203865
0.00039243
0.000327655
0.000559759
0.000507572
0.000644574
0.000605046
0.000800035
0.000792209
0.000952762
0.000980784
0.00101328
0.00104046
0.00106095
0.00108016
0.000977215
0.00101206
0.00104745
0.00108071
0.000920444
0.000949675
0.000984991
0.00102483
0.000909269
0.000916525
0.000935122
0.000945828
0.000899013
0.000897859
0.000922501
0.000904029
0.000903815
0.000908354
0.000900883
0.000898612
0.00090407
0.000868146
0.000850884
0.000892337
0.000899696
0.000894852
0.000883432
0.000724541
0.00066604
0.000828693
0.000798822
0.000268547
6.2897e-06
7.86966e-05
0.000587771
0.000475322
4.37894e-08
1.55645e-08
5.80025e-09
1.5434e-09
7.18746e-10
3.70249e-09
3.40393e-08
2.829e-07
1.8202e-06
8.58039e-06
2.88942e-05
6.79509e-05
0.000113251
0.000145815
0.000154637
0.000139538
0.00010904
7.50208e-05
5.2549e-05
0.00011114
0.000268118
0.000407558
0.000433999
0.000371106
0.000242858
0.000112978
3.46279e-05
9.63451e-06
3.5839e-06
5.31747e-06
2.74592e-06
1.28103e-05
7.89807e-06
3.02963e-05
1.98602e-05
6.92425e-05
4.60426e-05
0.000145123
0.000100184
0.000262717
0.000200591
0.000448747
0.000384251
0.000717818
0.000671575
0.000777407
0.000753092
0.000994291
0.000995559
0.0011204
0.00111367
0.00111004
0.00113199
0.00114357
0.00114518
0.00106631
0.00110587
0.0011412
0.00116707
0.000982968
0.00102588
0.00107193
0.00111714
0.00095477
0.000971773
0.000997846
0.00101659
0.00090053
0.000909882
0.00097205
0.000934534
0.000898213
0.000898399
0.000897888
0.000902033
0.000895933
0.000873493
0.000860791
0.000889166
0.00089322
0.000889857
0.000882158
0.000759161
0.000706419
0.000843126
0.000820002
0.000292555
5.53327e-06
8.48763e-05
0.000633939
0.000524241
3.42937e-08
1.04419e-08
2.93047e-09
9.70972e-10
3.38777e-09
3.3389e-08
3.00116e-07
2.11188e-06
1.08299e-05
3.84256e-05
9.08424e-05
0.000151682
0.000196179
0.000212398
0.00019567
0.000156521
0.000113064
8.26071e-05
0.000114227
0.000253004
0.00039385
0.000433285
0.000383966
0.000270281
0.000145503
4.3438e-05
9.54496e-06
2.3754e-06
1.46474e-06
4.71782e-06
2.73853e-06
1.24122e-05
7.81351e-06
2.88255e-05
1.9057e-05
6.69438e-05
4.40947e-05
0.000186322
0.000133138
0.000316153
0.000248775
0.000613868
0.000544803
0.000943947
0.000907244
0.000986037
0.000968782
0.00109915
0.00107811
0.0011577
0.00114476
0.00111714
0.00113175
0.00117922
0.00118158
0.00117808
0.00116919
0.00115789
0.00118905
0.0012042
0.0012081
0.00106561
0.0011158
0.00116254
0.00120047
0.00102198
0.00104846
0.00107798
0.0011024
0.000917015
0.000944937
0.00104395
0.000988157
0.000903906
0.000896923
0.000904565
0.000921776
0.000895471
0.000873668
0.000863824
0.000885918
0.000893476
0.000890262
0.000880725
0.000788549
0.000743788
0.000851607
0.000833645
0.000336682
8.89897e-06
0.000121047
0.000680757
0.000586569
2.34199e-08
5.75211e-09
1.52854e-09
2.85028e-09
2.9285e-08
2.86226e-07
2.19983e-06
1.21479e-05
4.57211e-05
0.000110996
0.000186789
0.00024524
0.000270743
0.000255128
0.000208727
0.00015597
0.000117393
0.000129021
0.00025119
0.000385886
0.000433596
0.00040167
0.000305108
0.000185438
6.72183e-05
1.21791e-05
2.18283e-06
6.83855e-07
2.29563e-06
1.12772e-06
6.31849e-06
3.6574e-06
1.58913e-05
1.01539e-05
4.01163e-05
2.53825e-05
9.18684e-05
6.13999e-05
0.000306448
0.000233138
0.000467296
0.000386182
0.000856553
0.000788438
0.00103706
0.00102536
0.00106337
0.00104848
0.00110407
0.00109179
0.00106187
0.00114293
0.00111969
0.00107503
0.00109659
0.00120531
0.00119648
0.00118273
0.0011647
0.00122191
0.00122937
0.00122881
0.00122075
0.00115495
0.00120085
0.00123263
0.00124531
0.00110437
0.00113534
0.00116455
0.00118887
0.000954127
0.00100288
0.00112786
0.00106366
0.000925815
0.000904253
0.000927849
0.000961015
0.000902913
0.000873166
0.000864267
0.00088601
0.000900187
0.000895828
0.000880832
0.00080936
0.000774698
0.00085468
0.000842148
0.00042847
2.95466e-05
0.000211038
0.000725897
0.000659536
1.35793e-08
2.82427e-09
2.44229e-09
2.28593e-08
2.48047e-07
2.14718e-06
1.2418e-05
4.94831e-05
0.000125298
0.000215952
0.00028888
0.000326007
0.000316667
0.000267403
0.000206599
0.00015816
0.000159109
0.000254908
0.000385442
0.000435124
0.000417945
0.000337192
0.000222737
9.32283e-05
1.80885e-05
2.59221e-06
4.63876e-07
5.49898e-07
3.37268e-06
1.81868e-06
9.42848e-06
5.72625e-06
3.05838e-05
1.71455e-05
7.99358e-05
5.10218e-05
0.000170216
0.000119226
0.000511798
0.000412515
0.000703727
0.000610677
0.00100896
0.000981876
0.00103901
0.0010409
0.00104821
0.00104122
0.00105684
0.00104719
0.000955052
0.000950131
0.00108947
0.00105686
0.00100031
0.00102664
0.00120522
0.00118265
0.00115428
0.00112248
0.00124865
0.0012442
0.00123017
0.00120725
0.00123252
0.00125546
0.00126422
0.00126471
0.00119029
0.00121801
0.00124391
0.00125663
0.001016
0.00108089
0.0012129
0.00114865
0.000966264
0.000927451
0.000969237
0.00102598
0.000925241
0.000874748
0.000865974
0.000890255
0.000920453
0.000913556
0.00088355
0.000822827
0.000797461
0.000856385
0.000844914
0.000566603
0.000275453
0.000519562
0.000764516
0.000728418
6.82363e-09
2.46103e-09
1.56718e-08
1.90277e-07
1.82236e-06
1.20444e-05
4.99091e-05
0.000132291
0.000235835
0.00032334
0.00037393
0.000375253
0.000332398
0.000267981
0.000209831
0.000199949
0.00026874
0.000388785
0.000439326
0.00043199
0.000364667
0.000255744
0.000118877
2.49909e-05
3.59061e-06
4.60357e-07
2.08244e-07
1.43552e-06
6.01591e-07
4.9468e-06
2.74468e-06
1.88202e-05
9.03414e-06
6.55373e-05
3.66992e-05
0.000163487
0.000107239
0.000318443
0.000234355
0.000760845
0.000647806
0.000935422
0.000860767
0.00104215
0.00103952
0.000951757
0.000981952
0.000949571
0.000951157
0.000931168
0.000978744
0.000963432
0.000870254
0.000867776
0.00101746
0.000977893
0.000913088
0.000942601
0.00117673
0.0011408
0.00110078
0.00105898
0.00125561
0.00123649
0.00120765
0.0011724
0.00127306
0.00128065
0.00127813
0.0012644
0.00126591
0.00127539
0.00129143
0.00128916
0.00109559
0.00116688
0.00128194
0.00123436
0.00103282
0.000968446
0.00103603
0.00110676
0.000963792
0.00087641
0.000867171
0.000905162
0.000955323
0.000943816
0.000895828
0.000831803
0.000812699
0.000858322
0.000847465
0.000706257
0.000652041
0.000727362
0.000792519
0.000778599
3.55791e-09
1.04969e-08
1.22071e-07
1.35002e-06
1.01697e-05
4.85961e-05
0.00013305
0.000244954
0.000345312