/*--------------------------------*- C++ -*----------------------------------*\
  =========                 |
  \\      /  F ield         | OpenFOAM: The Open Source CFD Toolbox
   \\    /   O peration     | Website:  https://openfoam.org
    \\  /    A nd           | Version:  dev
     \\/     M anipulation  |
\*---------------------------------------------------------------------------*/
FoamFile
{
    version     2.0;
    format      ascii;
    class       volScalarField;
    location    "2500";
    object      k;
}
// * * * * * * * * * * * * * * * * * * * * * * * * * * * * * * * * * * * * * //

dimensions      [0 2 -2 0 0 0 0];

internalField   nonuniform List<scalar> 
9851
(
0.000163771
0.000170401
0.000153577
0.000144949
0.00021716
0.000122478
0.000121805
0.00023256
0.000192432
0.000108993
0.000112303
0.000220206
0.000231778
0.000145314
0.000105499
0.000106432
0.000187985
0.000255276
0.000198244
0.000121385
0.000103558
0.000103505
0.000152032
0.000256559
0.000239731
0.000149954
0.000112308
0.000102166
0.000101797
0.000133299
0.00024478
0.00025983
0.000192657
0.000124691
0.000107679
0.000101263
0.000100816
0.000120219
0.000214976
0.000274515
0.000234699
0.000147815
0.000114027
0.000104586
0.000100636
0.000100282
0.000111849
0.000177385
0.000273946
0.000263061
0.000180968
0.000124503
0.00010842
0.000102447
0.000100193
9.99088e-05
0.000106897
0.000149626
0.000263288
0.000276912
0.00022182
0.000141773
0.000113821
0.000104708
0.000100955
9.99114e-05
9.96836e-05
0.000103973
0.000132072
0.000237023
0.000289251
0.000255073
0.000169339
0.000121801
0.000107836
0.000102093
9.99759e-05
9.96419e-05
9.98067e-05
0.000102563
0.000120192
0.000200467
0.000290057
0.000278549
0.000203533
0.000135645
0.000111999
0.000103808
0.000100263
9.91213e-05
9.94437e-05
0.000100223
0.000102202
0.000113571
0.000165848
0.00028175
0.000290354
0.000240144
0.000157172
0.000118416
0.000106123
0.000100976
9.89988e-05
9.85177e-05
9.93034e-05
0.000100753
0.000102691
0.000110218
0.000146011
0.000260245
0.00030132
0.000269168
0.0001856
0.000129089
0.000109366
0.000102169
9.91234e-05
9.79021e-05
9.80693e-05
9.92007e-05
0.000102167
0.000104003
0.000109124
0.000133284
0.000226415
0.000304354
0.000289311
0.00021866
0.000145416
0.000114402
0.00010394
9.95035e-05
9.75747e-05
9.71428e-05
9.77369e-05
9.91194e-05
0.000102037
0.000105437
0.00010965
0.000125693
0.000193214
0.000299055
0.00030171
0.000250053
0.000168632
0.000122344
0.000106498
0.000100313
9.75919e-05
9.64595e-05
9.65606e-05
9.74855e-05
9.90544e-05
0.000112369
0.000112045
0.000109754
0.000122511
0.00016746
0.00028449
0.000309641
0.000277283
0.00019583
0.000134909
0.000110361
0.000101595
9.77708e-05
9.6075e-05
9.56551e-05
9.61061e-05
9.72919e-05
9.90081e-05
0.000222636
0.000189171
0.000115243
0.000119109
0.000153683
0.000257761
0.000315984
0.000294941
0.000224576
0.000152584
0.000116379
0.00010357
9.82326e-05
9.58124e-05
9.49216e-05
9.50156e-05
9.57655e-05
9.71387e-05
9.89756e-05
0.00012396
0.000471858
0.000182057
0.000120643
0.000141614
0.000228588
0.000314214
0.000308899
0.000251992
0.000174597
0.000125524
0.000106523
9.91747e-05
9.5873e-05
9.43874e-05
9.41024e-05
9.45209e-05
9.55059e-05
9.7028e-05
9.89538e-05
0.000102943
0.000297682
0.000390019
0.000156231
0.000134543
0.000197543
0.000306143
0.0003151
0.000277743
0.000198923
0.00013872
0.000110914
0.000100713
9.61218e-05
9.4061e-05
9.33344e-05
9.34797e-05
9.41384e-05
9.53104e-05
9.69512e-05
9.89425e-05
9.81644e-05
0.000138812
0.000350589
0.000292361
0.000147081
0.000171801
0.000287917
0.000323628
0.000295669
0.000223785
0.000155629
0.000117757
0.000102844
9.66896e-05
9.39022e-05
9.27403e-05
9.25528e-05
9.29636e-05
9.38517e-05
9.51682e-05
9.69051e-05
9.89399e-05
9.68033e-05
0.000103005
0.00021762
0.000340287
0.00020973
0.000164205
0.000259286
0.000324377
0.000310422
0.00024826
0.000175584
0.000127182
0.000106253
9.77493e-05
9.40238e-05
9.24075e-05
9.17487e-05
9.19315e-05
9.25745e-05
9.36526e-05
9.50767e-05
9.68863e-05
9.89475e-05
9.69418e-05
9.56672e-05
0.000128336
0.000289231
0.000306428
0.000185355
0.000220516
0.00031981
0.000319386
0.000270636
0.000197081
0.000139982
0.000110958
9.9556e-05
9.44116e-05
9.20801e-05
9.11765e-05
9.10261e-05
9.1445e-05
9.23e-05
9.35145e-05
9.50258e-05
9.69006e-05
9.89661e-05
9.69782e-05
9.32313e-05
0.000102553
0.000190324
0.000307735
0.000248132
0.000212325
0.000306597
0.00032528
0.000290994
0.000219099
0.000155424
0.000117933
0.000101938
9.52536e-05
9.21217e-05
9.0797e-05
9.02689e-05
9.04495e-05
9.10876e-05
9.21094e-05
9.34248e-05
9.50187e-05
9.69407e-05
9.89979e-05
9.69247e-05
9.26496e-05
9.55162e-05
0.000130267
0.000270484
0.000301502
0.000234674
0.000282022
0.000327832
0.000306708
0.000239137
0.000173434
0.000127013
0.000105517
9.64678e-05
9.23355e-05
9.03709e-05
8.96657e-05
8.95793e-05
9.00259e-05
9.08405e-05
9.19852e-05
9.33821e-05
9.5065e-05
9.70148e-05
9.90489e-05
9.68411e-05
9.25504e-05
9.36028e-05
0.000107577
0.000197001
0.000301373
0.000283204
0.000272801
0.000325908
0.000317047
0.000259941
0.000191702
0.000138963
0.000110325
9.83469e-05
9.2828e-05
9.03171e-05
8.92099e-05
8.88596e-05
8.90952e-05
8.97233e-05
9.06821e-05
9.19187e-05
9.34046e-05
9.51626e-05
9.71307e-05
9.91243e-05
9.67592e-05
9.25881e-05
9.30603e-05
9.96069e-05
0.00014469
0.000277809
0.000316815
0.000288237
0.000322689
0.0003225
0.000278715
0.000210381
0.000152865
0.000117108
0.000100913
9.38463e-05
9.04609e-05
8.87925e-05
8.82983e-05
8.83166e-05
8.87423e-05
8.95177e-05
9.05966e-05
9.19211e-05
9.34972e-05
9.53081e-05
9.73053e-05
9.924e-05
9.66857e-05
9.26486e-05
9.2943e-05
9.68416e-05
0.000120064
0.000226267
0.000318668
0.000320686
0.000323988
0.000325962
0.000296122
0.000228465
0.000168283
0.000125786
0.000104588
9.53092e-05
9.08619e-05
8.87367e-05
8.78796e-05
8.76815e-05
8.78914e-05
8.84664e-05
8.94027e-05
9.05905e-05
9.20026e-05
9.36468e-05
9.55148e-05
9.75681e-05
9.94202e-05
9.66204e-05
9.26904e-05
9.29534e-05
9.58825e-05
0.000109339
0.000174729
0.000305139
0.000345802
0.000334507
0.000331485
0.000307992
0.000245098
0.000184224
0.000136382
0.000109476
9.73481e-05
9.16825e-05
8.88593e-05
8.74453e-05
8.7168e-05
8.71916e-05
8.75319e-05
8.83003e-05
8.93699e-05
9.06623e-05
9.21531e-05
9.3867e-05
9.58325e-05
9.79259e-05
9.96689e-05
9.65594e-05
9.27265e-05
9.29919e-05
9.55893e-05
0.000104931
0.000144555
0.000271768
0.000352138
0.000357482
0.0003405
0.000317507
0.000262257
0.000199614
0.000148414
0.000115707
0.000100091
9.28554e-05
8.91871e-05
8.73811e-05
8.66726e-05
8.6573e-05
8.67681e-05
8.73159e-05
8.82293e-05
8.94339e-05
9.08482e-05
9.24108e-05
9.42065e-05
9.63012e-05
9.84554e-05
9.99789e-05
9.65076e-05
9.27762e-05
9.30481e-05
9.55656e-05
0.000103252
0.000128815
0.000226603
0.000345659
0.000378944
0.000356358
0.00032782
0.000277688
0.000214776
0.000161257
0.000123276
0.000103602
9.44214e-05
8.98538e-05
8.74966e-05
8.62999e-05
8.60898e-05
8.61351e-05
8.64927e-05
8.72249e-05
8.82825e-05
8.96354e-05
9.11628e-05
9.28342e-05
9.47469e-05
9.70272e-05
9.93152e-05
0.000100473
9.64682e-05
9.28616e-05
9.3151e-05
9.5676e-05
0.000102906
0.000121185
0.000187677
0.000326197
0.000391725
0.000377123
0.000341791
0.000292069
0.000229241
0.000174422
0.000132245
0.000107999
9.6473e-05
9.08462e-05
8.78176e-05
8.63224e-05
8.55963e-05
8.56719e-05
8.58929e-05
8.64166e-05
8.72945e-05
8.85447e-05
9.00361e-05
9.16809e-05
9.34559e-05
9.55346e-05
9.80575e-05
0.0001004
0.000101296
9.64462e-05
9.29958e-05
9.33126e-05
9.59282e-05
0.000103089
0.000117662
0.000163678
0.000293518
0.000390779
0.000397758
0.000360522
0.000306217
0.000243284
0.000187458
0.000142285
0.000113483
9.91216e-05
9.21365e-05
8.85041e-05
8.64988e-05
8.55825e-05
8.52939e-05
8.54366e-05
8.58081e-05
8.64409e-05
8.74943e-05
8.89221e-05
9.05716e-05
9.23627e-05
9.4282e-05
9.66073e-05
9.95547e-05
0.000101811
0.000101137
0.000102339
9.64527e-05
9.3181e-05
9.35456e-05
9.6277e-05
0.000103561
0.000117067
0.000149538
0.000256511
0.000382807
0.000414222
0.000382207
0.0003224
0.000256998
0.000200203
0.000152933
0.000119996
0.000102431
9.37802e-05
8.93945e-05
8.69452e-05
8.57285e-05
8.53155e-05
8.53166e-05
8.55342e-05
8.59542e-05
8.67229e-05
8.79766e-05
8.96379e-05
9.14982e-05
9.34606e-05
9.57135e-05
9.85591e-05
0.000101773
0.000102919
0.000103317
0.00010126
0.000102588
9.64897e-05
9.34157e-05
9.38502e-05
9.67231e-05
0.00010409
0.000117488
0.00014161
0.000222579
0.000363665
0.000426517
0.000403274
0.000341678
0.000271201
0.000212642
0.000163884
0.000127303
0.00010637
9.57826e-05
9.04783e-05
8.77697e-05
8.61442e-05
8.55143e-05
8.5411e-05
8.55678e-05
8.59084e-05
8.64847e-05
8.75083e-05
8.91035e-05
9.11187e-05
9.33522e-05
9.57262e-05
9.83714e-05
0.000100689
0.00010028
0.000103519
0.000101678
0.000103532
0.000103464
0.000104159
0.000101299
0.000102861
9.65564e-05
9.36939e-05
9.42131e-05
9.72561e-05
0.000104694
0.000118556
0.000137117
0.000197557
0.000337231
0.00042682
0.000421819
0.000364244
0.00028697
0.000224771
0.000174921
0.000135297
0.000110798
9.81471e-05
9.1795e-05
8.87733e-05
8.70439e-05
8.60274e-05
8.57401e-05
8.57909e-05
8.60333e-05
8.65106e-05
8.74281e-05
8.89704e-05
9.11499e-05
9.35594e-05
9.60442e-05
9.86041e-05
0.000100106
0.000100124
0.000101455
0.000104527
0.000103463
0.000104591
0.000104076
0.000105048
0.000101379
0.000103151
9.66515e-05
9.39914e-05
9.46182e-05
9.78484e-05
0.000105381
0.00011966
0.000134829
0.000181565
0.000308805
0.000422659
0.000435794
0.000389417
0.000304484
0.000237443
0.000185726
0.000143896
0.00011573
0.000100832
9.33414e-05
8.98642e-05
8.8209e-05
8.71267e-05
8.65041e-05
8.63784e-05
8.64762e-05
8.67704e-05
8.75193e-05
8.89975e-05
9.12859e-05
9.40548e-05
9.68749e-05
9.95681e-05
0.000100286
0.00010081
0.000101356
0.000101425
0.00010318
0.000105583
0.000104511
0.000105714
0.000104639
0.000105852
0.000101493
0.000103459
9.67712e-05
9.42944e-05
9.50399e-05
9.84701e-05
0.000106139
0.000120668
0.000133734
0.000170659
0.000279639
0.000412012
0.000447487
0.000411472
0.000324541
0.000250678
0.000196683
0.000152829
0.000121329
0.000103831
9.51569e-05
9.10602e-05
8.94593e-05
8.85871e-05
8.79711e-05
8.76454e-05
8.75422e-05
8.75949e-05
8.80048e-05
8.93249e-05
9.17514e-05
9.50651e-05
9.85438e-05
0.000101648
0.000101877
0.000103758
0.000101707
0.000102492
0.000103082
0.000103194
0.00010433
0.000106519
0.000105636
0.000106704
0.000105203
0.000106625
0.000101609
0.00010379
9.69016e-05
9.45784e-05
9.54511e-05
9.90915e-05
0.000106939
0.000121637
0.000133372
0.000163303
0.000253523
0.000395175
0.000456313
0.00043039
0.000348308
0.000265087
0.000207738
0.000162201
0.000127558
0.000107195
9.71357e-05
9.24248e-05
9.07111e-05
9.02342e-05
8.99441e-05
8.96694e-05
8.94824e-05
8.93351e-05
8.94157e-05
9.06362e-05
9.36256e-05
9.83036e-05
0.00010365
0.000108081
0.000106144
0.000111349
0.000104256
0.000107672
0.0001037
0.000105229
0.000104372
0.000104769
0.000105588
0.0001074
0.000106731
0.000107662
0.000105787
0.000107388
0.000101741
0.000104162
9.70225e-05
9.48018e-05
9.58173e-05
9.96717e-05
0.000107755
0.000122572
0.000133604
0.000158539
0.000233015
0.000376311
0.000461728
0.000447045
0.000372822
0.000281458
0.000218862
0.000171984
0.000134503
0.000110921
9.92246e-05
9.3864e-05
9.19428e-05
9.1936e-05
9.2317e-05
9.26042e-05
9.24709e-05
9.22948e-05
9.27401e-05
9.47082e-05
0.000100097
0.000110224
0.000124734
0.000138762
0.000122642
0.000149858
0.000115352
0.00013337
0.000109347
0.000120217
0.00010632
0.000111326
0.000105889
0.000107504
0.000107026
0.00010823
0.000108112
0.000108883
0.000106431
0.000108149
0.000101893
0.000104597
9.71078e-05
9.49248e-05
9.60877e-05
0.000100161
0.000108535
0.000123471
0.000134258
0.000155313
0.000218879
0.000357715
0.000461318
0.00046084
0.000398207
0.000299789
0.000230682
0.00018198
0.000142146
0.000115139
0.000101312
9.51989e-05
9.31456e-05
9.36365e-05
9.50479e-05
9.64664e-05
9.73699e-05
9.79365e-05
0.000100527
0.000107043
0.000121173
0.000148605
0.000195854
0.000267578
0.000208938
0.000348651
0.000175848
0.000272944
0.000147585
0.000212318
0.00012624
0.000166311
0.000113714
0.000133862
0.000108792
0.000116357
0.000110077
0.00010913
0.000111063
0.000111497
0.000107133
0.000108751
0.000102069
0.000105117
9.71255e-05
9.49058e-05
9.62097e-05
0.000100497
0.00010921
0.0001243
0.000135088
0.000153174
0.000209032
0.000339855
0.000459347
0.000474559
0.00042312
0.000319668
0.000243281
0.000192072
0.000150495
0.000120069
0.000103513
9.63555e-05
9.42303e-05
9.51791e-05
9.78321e-05
0.000101145
0.000105299
0.000109776
0.000119851
0.000142282
0.000184416
0.000261401
0.00039118
0.00059867
0.000562856
0.000978044
0.000475349
0.00082492
0.000360872
0.000664361
0.000263723
0.000479217
0.000190687
0.000332141
0.000143078
0.000220904
0.000119095
0.000152629
0.000121251
0.000111141
0.000122169
0.000121242
0.0001076
0.000109919
0.000102285
0.000105564
9.7036e-05
9.46941e-05
9.61404e-05
0.000100614
0.000109701
0.000124996
0.000135825
0.000151786
0.000201587
0.000323345
0.000455568
0.000488286
0.000444497
0.000341935
0.00025701
0.000202468
0.000159515
0.000125837
0.000106069
9.74923e-05
9.51037e-05
9.64411e-05
0.000100418
0.000106394
0.000116301
0.000135155
0.000168406
0.000236827
0.000355291
0.000535
0.000833001
0.00127934
0.00133291
0.00181598
0.00127394
0.00170674
0.00110945
0.00159566
0.000897332
0.00142035
0.000640556
0.00116453
0.000417794
0.000836138
0.000255183
0.000517144
0.000161757
0.000289206
0.000167843
0.000118444
0.000168743
0.000162865
0.000107908
0.000114419
0.000102543
0.000105603
9.68562e-05
9.42537e-05
9.58072e-05
0.00010047
0.000109936
0.000125487
0.000136354
0.000150847
0.000195972
0.000309294
0.000452195
0.000502208
0.000464536
0.00036621
0.000272201
0.000213528
0.000169277
0.00013264
0.000109406
9.86528e-05
9.56788e-05
9.74034e-05
0.00010277
0.000111949
0.000130229
0.000176473
0.000280029
0.00046381
0.000744027
0.00112287
0.00156184
0.00204106
0.00212393
0.00245159
0.00211875
0.00246891
0.00205157
0.00245529
0.00193964
0.00241388
0.00174833
0.00230489
0.00145759
0.00209621
0.00105737
0.00176687
0.000623068
0.00129068
0.000319455
0.000722669
0.000338278
0.000150496
0.000339503
0.00031741
0.00011021
0.000134948
0.000102637
0.000106052
9.65282e-05
9.37088e-05
9.51703e-05
9.99597e-05
0.000109876
0.000125707
0.000136571
0.000150158
0.000191931
0.000298472
0.000450212
0.00051714
0.000484694
0.000391239
0.000289212
0.000225493
0.000179979
0.000140873
0.00011381
0.000100311
9.62147e-05
9.81968e-05
0.000104803
0.00011708
0.000146291
0.000233003
0.000451213
0.000844847
0.00134147
0.00181097
0.00219537
0.00256285
0.00307294
0.00274856
0.00307551
0.00280375
0.0031063
0.00283014
0.00319376
0.00280332
0.0032467
0.00269133
0.00322887
0.00246496
0.00310578
0.00208677
0.00284884
0.0015185
0.0024058
0.000805676
0.00171654
0.000855506
0.000271893
0.000856594
0.000787861
0.000120217
0.000214519
0.000102332
0.000109562
9.66362e-05
9.38036e-05
9.45346e-05
9.90513e-05
0.00010941
0.000125621
0.000136458
0.000149541
0.000189133
0.000291052
0.00045062
0.000533585
0.00050591
0.000417115
0.000307762
0.00023863
0.000191813
0.000150993
0.000119802
0.000102838
9.72715e-05
9.89329e-05
0.000106406
0.000121541
0.000161151
0.000297183
0.000668667
0.00131037
0.00197886
0.00234753
0.00258218
0.00283331
0.00333688
0.00375846
0.00393394
0.00336631
0.0035868
0.00351164
0.00379403
0.0036363
0.00397766
0.0037049
0.00412435
0.00368459
0.00419854
0.00354369
0.00416437
0.00323886
0.0039913
0.00270606
0.00362103
0.00186945
0.00296479
0.00195911
0.000645111
0.0019546
0.00181143
0.000159151
0.000460971
0.000102865
0.000123763
9.91185e-05
9.6608e-05
9.48958e-05
9.83633e-05
0.000108412
0.000125083
0.000135921
0.000148844
0.000187326
0.000286647
0.000452692
0.000551654
0.000529717
0.000444914
0.000328292
0.000253162
0.00020506
0.000163493
0.000128338
0.000107013
9.92551e-05
0.000100268
0.0001077
0.000124358
0.000171852
0.000359797
0.000897171
0.00181029
0.00250656
0.00270571
0.00278857
0.00299202
0.003512
0.00406007
0.0041518
0.00439813
0.00451866
0.00403745
0.00423719
0.00427324
0.00452602
0.00448416
0.00478404
0.00464123
0.00501136
0.00470985
0.00517366
0.00465683
0.00523142
0.00443674
0.00515063
0.0039754
0.00486875
0.00317261
0.00428423
0.00331211
0.00151259
0.00334206
0.00321035
0.000287483
0.00109648
0.000106523
0.000171692
0.000103684
0.000105701
9.984e-05
9.92775e-05
0.000108135
0.000123862
0.000134949
0.000148057
0.00018624
0.000284668
0.000457428
0.000572298
0.000559388
0.000475995
0.000351443
0.000269476
0.000220391
0.000178989
0.000140239
0.000114668
0.000103383
0.000102478
0.000109281
0.00012596
0.000176574
0.000401134
0.00111138
0.00225561
0.00288058
0.00295315
0.00296075
0.00313596
0.00368936
0.00422402
0.00425383
0.00460267
0.00460988
0.00496378
0.00495591
0.00473048
0.00487266
0.00502557
0.00520415
0.00530114
0.00551114
0.00554422
0.00581598
0.00571066
0.00608178
0.00576009
0.00625734
0.00564155
0.00629602
0.00527029
0.00612514
0.0045447
0.00563575
0.00472905
0.0028562
0.00479287
0.00468311
0.00064359
0.00223917
0.000117728
0.00030584
0.000106927
0.000125634
0.000120296
0.000107482
0.000109906
0.000123942
0.000133515
0.000147086
0.000185677
0.00028492
0.00046469
0.000596405
0.000595199
0.000509975
0.000377902
0.000287867
0.000238057
0.00019804
0.000157309
0.000127594
0.000112396
0.000106972
0.000112111
0.000128416
0.00017758
0.00040935
0.00125958
0.00263291
0.00315173
0.00314308
0.00311471
0.00332838
0.00377089
0.00423797
0.00457756
0.00451208
0.00490606
0.00480043
0.00523558
0.00511298
0.00531271
0.00529955
0.00565263
0.00565773
0.00598156
0.006058
0.00633166
0.00645727
0.00663116
0.00686646
0.00682342
0.00721003
0.00684386
0.00741872
0.00659076
0.0074036
0.00595493
0.00703063
0.00619664
0.00435868
0.00631258
0.00626024
0.00143495
0.00373502
0.000148734
0.000659951
0.000128383
0.000149599
0.000136946
0.000120767
0.000125982
0.000133656
0.000146561
0.000185859
0.0002864
0.000474351
0.000624743
0.000637024
0.000548709
0.000408767
0.000309274
0.00025864
0.000222586
0.000182369
0.000148237
0.000126522
0.000115841
0.000118034
0.000133165
0.000177258
0.00040425
0.00129253
0.00289584
0.00336707
0.00329152
0.00325258
0.003463
0.00375832
0.00406009
0.00434661
0.00413403
0.00468127
0.00453511
0.00496724
0.004789
0.00527068
0.00504797
0.00558833
0.00544493
0.00599588
0.00583513
0.00645942
0.0063374
0.00695395
0.00690875
0.00744145
0.00750544
0.00783283
0.00807096
0.00804799
0.00850405
0.00795934
0.0087072
0.00742863
0.00849161
0.00774237
0.00597468
0.00793027
0.0079248
0.002702
0.00536558
0.000234169
0.0013911
0.0001453
0.00017503
0.000157072
0.000136543
0.000135697
0.000147132
0.000186617
0.000289564
0.00048615
0.0006572
0.00068544
0.000594089
0.000445767
0.000334507
0.000283781
0.000253705
0.000216943
0.000179319
0.0001484
0.000132308
0.000130314
0.000143119
0.000179666
0.000384362
0.00127401
0.00299486
0.00354313
0.00342255
0.00335814
0.00347119
0.00370141
0.00387065
0.00390972
0.00371187
0.0040435
0.00374307
0.00457096
0.0043193
0.00477795
0.00447508
0.00503992
0.00467627
0.00562692
0.00536177
0.00609541
0.00579894
0.0067121
0.0063948
0.00741574
0.00715187
0.00812122
0.00797555
0.00875777
0.0087789
0.00921629
0.00946837
0.0093584
0.00995627
0.00898125
0.00996341
0.00935453
0.00768115
0.00960883
0.00965139
0.00874915
0.00427171
0.00707939
0.000494525
0.00266996
0.000164783
0.000207406
0.000171058
0.000144794
0.000149847
0.000188354
0.000292676
0.000497945
0.000693225
0.000740075
0.000647986
0.000490058
0.000364878
0.000313676
0.000290275
0.000260019
0.000222017
0.000187971
0.000165356
0.000156566
0.000164689
0.00019298
0.000362659
0.0012053
0.00298698
0.00366764
0.00354482
0.00344604
0.00346791
0.00355909
0.00352915
0.00300472
0.00344919
0.00303437
0.00346165
0.00311205
0.00414906
0.00380871
0.00428676
0.00388573
0.0045554
0.00408368
0.00542868
0.00500909
0.00600536
0.00554357
0.00676131
0.00629878
0.00764211
0.00719818
0.00854286
0.00814842
0.00940528
0.0090792
0.010164
0.00998247
0.0106197
0.010786
0.0105215
0.0110473
0.0107325
0.0102087
0.0108187
0.0096293
0.00843585
0.00949602
0.0104334
0.0111366
0.0110247
0.0104722
0.00595628
0.0093187
0.00898815
0.00771552
0.00107705
0.00424003
0.000198847
0.000246205
0.000173335
0.000158309
0.000192415
0.000295874
0.00050837
0.000729255
0.000800783
0.000710905
0.000543476
0.000401263
0.000347426
0.000334284
0.000319474
0.000293274
0.00026796
0.000241084
0.000219856
0.000213232
0.000229096
0.00036033
0.00107838
0.00291602
0.0037273
0.00366478
0.00354018
0.00349607
0.00335147
0.00287309
0.00216583
0.00209285
0.00177596
0.00277285
0.00241425
0.00271387
0.00236044
0.00348374
0.00309039
0.00360961
0.00314884
0.00398895
0.00347891
0.00503841
0.00451556
0.00577132
0.00522991
0.00669082
0.00615798
0.0076743
0.00715915
0.00863692
0.00814124
0.0095712
0.00903335
0.0105238
0.0101129
0.00978285
0.011188
0.0111941
0.0107621
0.0110421
0.0113671
0.0112683
0.0116092
0.0114799
0.0114983
0.0104372
0.0103321
0.011219
0.0118286
0.01169
0.0112596
0.00858391
0.00642661
0.0079548
0.0101357
0.0098353
0.00158563
0.00724056
0.00624855
0.00442185
0.000257431
0.000245811
0.000179947
0.000201574
0.000301157
0.000516902
0.000764696
0.000864071
0.000783799
0.000606962
0.00044492
0.000385871
0.000388508
0.000405922
0.000425951
0.000440801
0.000426425
0.000390697
0.000340361
0.00031474
0.000388636
0.000983036
0.00272569
0.00373093
0.00376782
0.00366873
0.003575
0.00326838
0.00226373
0.00139141
0.00105924
0.00145689
0.00115241
0.00203384
0.00173086
0.00194753
0.0016369
0.00271188
0.00230852
0.00299972
0.00255116
0.00369147
0.00321557
0.00470277
0.00418893
0.00562847
0.00510389
0.00663931
0.00613905
0.00765403
0.00722117
0.00853199
0.00815714
0.00946543
0.00916041
0.00891782
0.00873391
0.010378
0.00995113
0.00991178
0.00952159
0.0114596
0.0112669
0.0104575
0.0109174
0.0117456
0.0118364
0.0119747
0.0117007
0.0120588
0.0112402
0.0111495
0.0119369
0.0122508
0.0124195
0.0120009
0.00941181
0.00883147
0.0109691
0.0106889
0.00503366
0.000835781
0.00322142
0.00811335
0.00712471
0.000323111
0.000231455
0.000217868
0.000312415
0.000526939
0.000794711
0.000929735
0.000864523
0.000681897
0.000496373
0.000430403
0.000458243
0.000531468
0.000648354
0.000760001
0.00081108
0.000771231
0.000664885
0.000543109
0.000502094
0.0009573
0.00247945
0.00369905
0.00383231
0.0038289
0.00373676
0.00329514
0.00201959
0.000997796
0.000729049
0.000756799
0.000642877
0.000997501
0.000851203
0.0013783
0.00116762
0.00144801
0.00119175
0.0021374
0.00176648
0.00276432
0.00233804
0.00365046
0.00320284
0.00460012
0.00411594
0.0056697
0.00523733
0.00686501
0.00655492
0.00793379
0.00782761
0.00862236
0.00857326
0.0085805
0.00863053
0.00920045
0.00895656
0.00881973
0.00876829
0.00996706
0.00951236
0.00954083
0.00920452
0.0114548
0.0110359
0.0099567
0.01051
0.0119174
0.0121967
0.0121232
0.0116245
0.0124099
0.0120108
0.0119537
0.0125646
0.0126061
0.0127916
0.0126699
0.0102869
0.00975052
0.0118114
0.0115662
0.00577525
0.000630722
0.00364459
0.00904656
0.00807086
0.000346495
0.000254007
0.000328344
0.000542702
0.000826354
0.000991832
0.000953155
0.000766463
0.000557656
0.00048094
0.000539795
0.00070377
0.000950808
0.00118737
0.00128354
0.00122789
0.00109116
0.000921033
0.00079783
0.0010042
0.00227281
0.0035895
0.00385052
0.00399347
0.00401195
0.00347262
0.00204322
0.000873852
0.000568069
0.000506798
0.000601117
0.00054168
0.00074981
0.000667664
0.000998063
0.000856597
0.00129115
0.00105414
0.00194343
0.00159078
0.00277152
0.00235784
0.00405822
0.00366217
0.00483429
0.00444484
0.00626451
0.00597861
0.0077665
0.00765321
0.00870944
0.00878788
0.00885445
0.00890028
0.00879092
0.00889121
0.00904817
0.0092313
0.0089727
0.00888469
0.00888501
0.00898379
0.00947056
0.00916877
0.00911481
0.00897219
0.0111469
0.0105455
0.00941436
0.00993233
0.0117908
0.01233
0.0119621
0.0112561
0.0125377
0.0127237
0.0127124
0.0129645
0.0127427
0.0129554
0.013116
0.0111997
0.0107074
0.0126204
0.0124232
0.00659739
0.000524612
0.00429434
0.0100515
0.00912904
0.000364512
0.000353964
0.000572267
0.000853852
0.00105471
0.00104352
0.000862079
0.000628041
0.00053582
0.000629181
0.000901136
0.00131422
0.00166143
0.00175548
0.00166509
0.00149168
0.00129654
0.00114088
0.00121175
0.00215606
0.0034035
0.00384146
0.00411612
0.0043645
0.00392444
0.00231969
0.000883999
0.000511975
0.000438284
0.000470211
0.000430362
0.000545479
0.000499451
0.000667213
0.000599588
0.000880072
0.000756481
0.00130699
0.00106367
0.00196751
0.0016124
0.00325211
0.00282899
0.00504269
0.00466355
0.00568899
0.00537986
0.00746879
0.00724002
0.00926723
0.0091487
0.00941391
0.00956715
0.00965976
0.00967665
0.00917317
0.00942422
0.00970634
0.00998423
0.00892196
0.00897129
0.00914219
0.00940967
0.00905727
0.00895309
0.0089223
0.00893111
0.010577
0.00990537
0.00900556
0.009354
0.011374
0.0121481
0.0115057
0.0106203
0.0123521
0.0132301
0.0132918
0.0131617
0.0125724
0.0128165
0.0133537
0.0121092
0.0116897
0.0132884
0.0131847
0.00762364
0.000499084
0.00544093
0.0111221
0.0103006
0.000439204
0.000597382
0.000894373
0.0011108
0.00113651
0.000964515
0.000710101
0.000592771
0.000712405
0.00110514
0.00168645
0.00210388
0.00215322
0.00202277
0.00182202
0.00161232
0.00144895
0.00148041
0.00212953
0.00320851
0.00379284
0.00423689
0.00472407
0.00442533
0.00291373
0.00101206
0.000508537
0.000406215
0.000395534
0.000452837
0.000421574
0.000535744
0.000489967
0.000661515
0.000591389
0.000883233
0.000754479
0.00162332
0.00131225
0.0024025
0.0019931
0.0042395
0.00377409
0.00637192
0.00598305
0.00698626
0.00670118
0.00890449
0.00863624
0.0104668
0.0103286
0.0100035
0.0101949
0.0102251
0.0104052
0.0105047
0.010521
0.00974382
0.0101094
0.0104695
0.0107869
0.00902971
0.00926054
0.00959194
0.0099915
0.00888609
0.00892109
0.00889787
0.00905946
0.00988983
0.00930497
0.00885428
0.0089632
0.0106883
0.0116679
0.0107867
0.00989785
0.0118728
0.0135079
0.0136272
0.0130723
0.012118
0.0124122
0.0133283
0.0129706
0.0126477
0.0137162
0.0137251
0.00905411
0.000698239
0.00777874
0.0121813
0.0115904
0.000658514
0.000928308
0.00116975
0.00122603
0.0010732
0.000801562
0.00065251
0.000782027
0.0012777
0.00202737
0.00245049
0.00245662
0.00229023
0.00206789
0.00184631
0.00169757
0.00171962
0.00215379
0.00303077
0.00368526
0.00430803
0.00504856
0.00491561
0.00353224
0.00129532
0.00053576
0.000396694
0.000369993
0.000398595
0.000375497
0.000455754
0.000421819
0.000562519
0.000501633
0.000745461
0.000641767
0.0010678
0.000883069
0.00230548
0.00187654
0.0032801
0.00278138
0.00552671
0.00501131
0.00779267
0.00739315
0.00837753
0.00811578
0.00985674
0.00971415
0.00977167
0.0110284
0.0108444
0.0104153
0.0106275
0.0110301
0.0111755
0.0112128
0.0111602
0.0104222
0.0108463
0.0112278
0.0115338
0.00933674
0.00971336
0.0101549
0.0106254
0.00887198
0.00906695
0.0090537
0.00937033
0.00927634
0.00893427
0.00884637
0.00882899
0.00994065
0.0109318
0.0100212
0.00927466
0.0111345
0.0135865
0.0138
0.0127406
0.0113915
0.0117211
0.0130883
0.0136536
0.0134762
0.0139474
0.0140312
0.0110126
0.00151769
0.0113546
0.0131387
0.0127517
0.000991372
0.00122217
0.00131163
0.00118254
0.000904939
0.000712872
0.000828918
0.00139974
0.00229073
0.00270535
0.00267998
0.00248302
0.00220477
0.00199424
0.00187241
0.00190992
0.00223725
0.0028991
0.00357152
0.00437164
0.00534423
0.00536961
0.00412927
0.00166904
0.000603275
0.000398168
0.000357362
0.000358331
0.000402386
0.00037998
0.000485864
0.000436079
0.000659835
0.000558229
0.000979283
0.000797592
0.00151134
0.00121396
0.0032878
0.00272966
0.00445171
0.00386902
0.00689567
0.00632909
0.00921693
0.00884467
0.00962096
0.00948988
0.0102388
0.0101146
0.0102727
0.0102626
0.0113915
0.0110986
0.0105587
0.0108033
0.0117344
0.0118002
0.0117701
0.0116207
0.0110887
0.0115133
0.0118716
0.0121365
0.00977141
0.0102285
0.0107075
0.0111821
0.00902237
0.00936705
0.00933107
0.00976748
0.00892306
0.00881424
0.00898571
0.00882666
0.00930849
0.0101543
0.00937828
0.00893533
0.0103442
0.0134329
0.013739
0.0121165
0.0106101
0.010967
0.0125783
0.0140829
0.0140177
0.0140046
0.0141907
0.0129618
0.0113412
0.0144525
0.013718
0.0134396
0.00128682
0.00139095
0.00128862
0.00101604
0.000776649
0.000859951
0.00145019
0.00246434
0.00287354
0.00283037
0.0025585
0.00224006
0.00207024
0.00197701
0.00202503
0.00229834
0.00284192
0.00354277
0.00445734
0.0055952
0.00576666
0.00466498
0.00208473
0.000691306
0.000408316
0.000353771
0.000340142
0.000367173
0.000348676
0.000419251
0.00038697
0.000550019
0.000469974
0.000848084
0.000672121
0.00139254
0.00108616
0.00221859
0.00177016
0.00439252
0.00373627
0.00571007
0.00505763
0.00832107
0.00769786
0.0101872
0.00993296
0.0102838
0.0102614
0.0103317
0.0103929
0.0103077
0.0103613
0.0103981
0.011529
0.0111529
0.0105587
0.0108161
0.0122527
0.0122517
0.0121266
0.011873
0.0116255
0.0120164
0.0123322
0.0125378
0.0102138
0.0106699
0.0111137
0.0115343
0.00927462
0.00971262
0.00962177
0.0101183
0.00881573
0.00881843
0.0092134
0.00895137
0.00897466
0.00949505
0.00904429
0.00883672
0.00967711
0.0130586
0.0135139
0.0114202
0.00994563
0.01031
0.0119389
0.0142728
0.0141733
0.0138915
0.0141527
0.0139084
0.017566
0.0154705
0.0137831
0.0134695
0.00147462
0.00138588
0.00113779
0.000842143
0.000864921
0.00145338
0.00252962
0.00297671
0.0029152
0.00255591
0.0022377
0.00210817
0.00203702
0.00208049
0.00233959
0.00284978
0.00356477
0.00458673
0.00580939
0.00608596
0.00509689
0.00248627
0.00079315
0.000425701
0.000354886
0.000333411
0.00033251
0.000369341
0.000350169
0.000445553
0.000398581
0.000653679
0.000523905
0.00114557
0.000856149
0.00198556
0.00152376
0.00310675
0.00251804
0.00550683
0.00476304
0.00700636
0.00626555
0.00955185
0.00901773
0.0103398
0.0102548
0.0101677
0.0104326
0.0104387
0.0103601
0.0103757
0.0104065
0.0103554
0.0102549
0.0103034
0.0115272
0.0110702
0.0103802
0.010668
0.0125797
0.0125285
0.0123114
0.0119638
0.0119255
0.0122736
0.0125557
0.012724
0.0105207
0.0109083
0.01129
0.0116664
0.00950977
0.00996769
0.00978145
0.010301
0.00882606
0.00892545
0.00938073
0.00915033
0.00888184
0.00915989
0.00896205
0.0088541
0.00932362
0.0125001
0.0130846
0.0107541
0.00953432
0.0097833
0.0112758
0.0142485
0.0140608
0.0136035
0.0139705
0.013954
0.0218204
0.0163103
0.0135007
0.0131367
0.00150028
0.00124454
0.000929815
0.000865226
0.00141426
0.00253076
0.00302272
0.00294407