/*--------------------------------*- C++ -*----------------------------------*\
  =========                 |
  \\      /  F ield         | OpenFOAM: The Open Source CFD Toolbox
   \\    /   O peration     | Website:  https://openfoam.org
    \\  /    A nd           | Version:  dev
     \\/     M anipulation  |
\*---------------------------------------------------------------------------*/
FoamFile
{
    version     2.0;
    format      ascii;
    class       volScalarField;
    location    "2500";
    object      nut;
}
// * * * * * * * * * * * * * * * * * * * * * * * * * * * * * * * * * * * * * //

dimensions      [0 2 -1 0 0 0 0];

internalField   nonuniform List<scalar> 
9851
(
0.000130204
0.00013379
0.000126066
0.000121961
0.000159207
0.000111439
0.000112055
0.000169122
0.000148939
0.000105761
0.000108258
0.000164161
0.000169912
0.000126426
0.000104061
0.000104984
0.000149676
0.000183929
0.000155257
0.000114689
0.000102867
0.000103306
0.000131865
0.000185832
0.000177692
0.000131604
0.000109753
0.000102002
0.000102706
0.000123378
0.000181379
0.00018907
0.000155555
0.000118392
0.000106948
0.000101466
0.000102482
0.000115995
0.0001678
0.000198726
0.000178383
0.000132959
0.000112168
0.000104912
0.000101073
0.000102335
0.000111083
0.000148394
0.000199285
0.000194332
0.000151999
0.000120051
0.000108614
0.000103534
0.000100783
0.000102107
0.000107992
0.000134975
0.000194792
0.000202406
0.000175039
0.000131434
0.000113424
0.000106359
0.000102568
0.000100604
0.000101755
0.000106014
0.000125165
0.000181679
0.000210431
0.000193288
0.000148278
0.000119754
0.000109548
0.000104608
0.000101949
0.000100413
0.000101616
0.000105186
0.000117885
0.000162878
0.000211343
0.000206558
0.000167971
0.00012967
0.000113464
0.000106995
0.000103346
0.000101336
0.000100278
0.000101657
0.000104948
0.000113862
0.000144093
0.000207404
0.000213007
0.000188846
0.000143451
0.00011891
0.000109759
0.00010508
0.000102505
0.000100925
0.00010018
0.000101632
0.000105087
0.000111662
0.000134787
0.000196446
0.000219955
0.000204663
0.000160523
0.000127151
0.000112966
0.000107056
0.000103801
0.00010173
0.00010061
0.000100107
0.000102268
0.000105539
0.000110725
0.000127528
0.000178252
0.000222165
0.000215692
0.000180083
0.000138151
0.000117519
0.000109548
0.000105233
0.000102694
0.0001012
0.000100371
0.000100049
0.000101944
0.000106357
0.000110742
0.000122751
0.000160561
0.000219306
0.000222523
0.000197868
0.000153037
0.000124019
0.000112211
0.000106969
0.000103897
0.000101891
0.000100779
0.000100189
0.000100001
0.00010865
0.000110843
0.000110636
0.000120603
0.000147007
0.000211535
0.000227511
0.000213039
0.000169516
0.0001332
0.000115912
0.000108976
0.000105154
0.000102784
0.000101309
0.000100445
0.000100047
9.99658e-05
0.000172007
0.000152013
0.000114497
0.000118379
0.00014057
0.000197072
0.000231364
0.000222423
0.000186745
0.000145115
0.000121172
0.000111356
0.000106592
0.000103701
0.000101923
0.000100837
0.000100193
9.99329e-05
9.99406e-05
0.000114865
0.000265642
0.00015036
0.000119586
0.00013376
0.00018122
0.000230413
0.000230019
0.000202683
0.000159266
0.000128379
0.000114351
0.000108262
0.000104861
0.000102647
0.000101308
0.000100462
9.99992e-05
9.98473e-05
9.99233e-05
0.000102785
0.000194006
0.000238631
0.000140381
0.000130201
0.000164245
0.000225844
0.000233011
0.000217609
0.000174439
0.000137872
0.000118426
0.000110455
0.000106106
0.000103482
0.000101842
0.000100829
0.000100169
9.98498e-05
9.97867e-05
9.99132e-05
0.000100866
0.000124569
0.000223759
0.000203596
0.000138512
0.000153102
0.000215801
0.000238492
0.00022702
0.000189457
0.000149447
0.000124242
0.000112743
0.000107484
0.000104419
0.000102466
0.000101235
0.000100428
9.99488e-05
9.97382e-05
9.97482e-05
9.99092e-05
9.92772e-05
0.000105359
0.000164786
0.000224198
0.000171106
0.000149896
0.000200088
0.00023906
0.000234559
0.000204587
0.00016245
0.000131498
0.000116144
0.00010926
0.000105533
0.000103269
0.00010169
0.00010075
0.000100119
9.97906e-05
9.96624e-05
9.97293e-05
9.99127e-05
9.9389e-05
0.00010245
0.000122387
0.000203276
0.000216771
0.000162616
0.000180852
0.000236634
0.000239061
0.000217575
0.00017622
0.00014083
0.000120437
0.000111435
0.00010675
0.000103973
0.00010229
0.000101112
0.000100361
9.9894e-05
9.9677e-05
9.96176e-05
9.97334e-05
9.99236e-05
9.95646e-05
0.000100734
0.000108205
0.000156179
0.000217937
0.000195095
0.000178696
0.000229832
0.000242372
0.000229205
0.000190213
0.000151461
0.000126261
0.000113943
0.000108307
0.000104997
0.00010299
0.000101555
0.000100651
0.000100063
9.97324e-05
9.96001e-05
9.96053e-05
9.97579e-05
9.99443e-05
9.96342e-05
9.99656e-05
0.000104155
0.000126842
0.000201139
0.000219789
0.000191361
0.00021731
0.00024455
0.000237141
0.00020245
0.000163699
0.000133248
0.000117451
0.000110106
0.000106112
0.000103572
0.000102082
0.000100992
0.000100304
9.98479e-05
9.96226e-05
9.95573e-05
9.96294e-05
9.98063e-05
9.99785e-05
9.96447e-05
9.97993e-05
0.000103374
0.000113769
0.000163826
0.000220312
0.000216456
0.000212797
0.000244294
0.000242063
0.000215695
0.000175611
0.000142125
0.000121739
0.000112207
0.000107327
0.000104493
0.000102677
0.000101418
0.000100584
0.000100042
9.97028e-05
9.95584e-05
9.95599e-05
9.96894e-05
9.98819e-05
0.000100029
9.96445e-05
9.98833e-05
0.000103224
0.000108813
0.000137718
0.000209499
0.000232379
0.000220956
0.000243021
0.000245095
0.000226562
0.000187924
0.000151956
0.000127377
0.000114872
0.000109004
0.00010549
0.000103219
0.000101919
0.000100946
0.000100279
9.98523e-05
9.96169e-05
9.95451e-05
9.96131e-05
9.97847e-05
9.99944e-05
0.000100104
9.96499e-05
0.000100038
0.00010324
0.000107039
0.000123838
0.000183169
0.000233552
0.00023726
0.000243446
0.000247329
0.000236542
0.000199782
0.000162588
0.000134193
0.00011841
0.000110753
0.000106612
0.000104073
0.000102487
0.000101378
0.000100571
0.000100037
9.97334e-05
9.95906e-05
9.95859e-05
9.97087e-05
9.99212e-05
0.000100162
0.000100219
9.96616e-05
0.000100178
0.000103265
0.00010642
0.000117174
0.000156056
0.000227089
0.000249725
0.00024825
0.000250548
0.000242494
0.000210268
0.00017359
0.00014213
0.000122728
0.000112986
0.00010807
0.000105004
0.000102962
0.000101868
0.000100948
0.000100264
9.98783e-05
9.96822e-05
9.96228e-05
9.96788e-05
9.98516e-05
0.000100129
0.000100386
0.000100369
9.96775e-05
0.000100302
0.000103282
0.000106284
0.000114262
0.000140741
0.000210504
0.000253056
0.000258908
0.000255134
0.000247168
0.000221402
0.00018399
0.000150943
0.000127951
0.000115794
0.000109695
0.00010606
0.000103785
0.000102322
0.000101343
0.000100583
0.000100066
9.97971e-05
9.9707e-05
9.97417e-05
9.98516e-05
0.000100073
0.000100431
0.000100721
0.000100536
9.96995e-05
0.000100426
0.000103323
0.000106349
0.000113195
0.00013155
0.000186248
0.000250077
0.000269731
0.000262082
0.000252569
0.00023086
0.00019438
0.00016014
0.00013402
0.000119125
0.000111495
0.000107341
0.000104679
0.000102846
0.000101834
0.000100962
0.000100329
9.99641e-05
9.98047e-05
9.98243e-05
9.99411e-05
0.000100143
0.000100449
0.000100908
0.000101277
0.000100833
9.97277e-05
0.000100561
0.0001034
0.000106475
0.00011314
0.00012695
0.000165687
0.000240592
0.000275769
0.00027155
0.00025992
0.000239271
0.000204263
0.000169513
0.000140972
0.000123087
0.000113726
0.000108863
0.000105662
0.000103692
0.000102228
0.000101458
0.000100745
0.000100236
9.99852e-05
9.99727e-05
0.000100092
0.000100276
0.000100547
0.000100978
0.000101575
0.000101883
0.00010135
9.97643e-05
0.000100713
0.00010351
0.000106668
0.000113417
0.000124821
0.000153872
0.000224178
0.000275226
0.000281482
0.000268844
0.000247223
0.000213725
0.000178781
0.000148561
0.000127795
0.000116416
0.000110425
0.000106954
0.000104561
0.000103052
0.000101952
0.000101214
0.000100626
0.000100199
0.000100071
0.000100183
0.00010041
0.000100688
0.00010105
0.000101634
0.000102501
9.7826e-05
8.50029e-05
8.44802e-05
9.98137e-05
0.000100884
0.000103656
0.000106883
0.000113864
0.000124828
0.000146237
0.000204131
0.000271269
0.000290169
0.000278478
0.000255898
0.000222676
0.000187933
0.000156457
0.000133172
0.000119582
0.000112305
0.000108336
0.000105601
0.000103885
0.000102771
0.000101954
0.000101276
0.000100718
0.000100375
0.000100377
0.000100621
0.00010096
0.000101338
0.000101971
0.00010289
9.09323e-05
8.29196e-05
8.10506e-05
7.55747e-05
7.66335e-05
9.98747e-05
0.000101068
0.000103831
0.000107158
0.000114235
0.000125261
0.000141692
0.000185964
0.000261511
0.000296722
0.000288334
0.000265513
0.000231545
0.000196826
0.000164585
0.000139013
0.000123215
0.000114462
0.000109801
0.000106965
0.000104849
0.000103626
0.000102775
0.000102118
0.000101597
0.000101178
0.000100999
0.000101222
0.000101687
0.0001023
0.000103007
0.000100333
9.43476e-05
8.8965e-05
7.76682e-05
8.50975e-05
7.46166e-05
7.55205e-05
7.28007e-05
6.82614e-05
6.80151e-05
9.99454e-05
0.00010126
0.000104033
0.000107501
0.000114624
0.000126127
0.000139078
0.000173282
0.00024801
0.000296506
0.000297243
0.000276241
0.000240953
0.000205366
0.000172764
0.000145312
0.000127157
0.000116886
0.000111358
0.000108409
0.000106228
0.000104643
0.000103694
0.000102977
0.000102423
0.000102091
0.000102015
0.000102266
0.000102901
0.000103566
0.000104208
9.46145e-05
8.62093e-05
8.40794e-05
8.11642e-05
7.06317e-05
6.99322e-05
6.83911e-05
6.72784e-05
6.5261e-05
6.10303e-05
6.07536e-05
0.000100024
0.000101445
0.000104254
0.000107879
0.000115054
0.000126881
0.000137772
0.000165782
0.000232884
0.000294219
0.000304234
0.000288106
0.000250591
0.000214182
0.000180752
0.000152006
0.000131442
0.000119612
0.000113111
0.000109821
0.000107805
0.000106138
0.000104873
0.000104044
0.000103393
0.000102907
0.000102786
0.000103093
0.000103745
0.000104446
0.000105057
8.86309e-05
8.08631e-05
7.86489e-05
7.90771e-05
7.62295e-05
6.95959e-05
6.3327e-05
6.55302e-05
6.12553e-05
5.99131e-05
5.85966e-05
5.50618e-05
5.46987e-05
0.000100106
0.000101613
0.000104479
0.000108268
0.000115526
0.000127538
0.000137161
0.000160049
0.000216505
0.000288378
0.000310554
0.000297774
0.000261255
0.000222931
0.000188904
0.000158873
0.000136196
0.000122586
0.000115092
0.00011125
0.000109371
0.000107892
0.000106596
0.000105544
0.000104688
0.00010394
0.000103433
0.000103506
0.000104139
0.000105076
0.000103448
8.67677e-05
7.60319e-05
7.47375e-05
7.3829e-05
7.1189e-05
6.88773e-05
6.72689e-05
6.36596e-05
5.6779e-05
5.9363e-05
5.51357e-05
5.40436e-05
5.30278e-05
4.97146e-05
4.9733e-05
0.000100185
0.000101749
0.000104692
0.000108648
0.00011602
0.000128131
0.000136987
0.000156036
0.000202275
0.000278835
0.000315026
0.000306344
0.000273641
0.000232043
0.000197055
0.000166058
0.00014134
0.000125812
0.000117265
0.000112837
0.000110851
0.000109781
0.000108766
0.000107742
0.000106798
0.000105804
0.000104792
0.000104404
0.000104813
0.000105616
0.000106012
9.14585e-05
7.48045e-05
7.80533e-05
6.96403e-05
6.97478e-05
6.53616e-05
6.37725e-05
6.22261e-05
6.05284e-05
5.80367e-05
5.14208e-05
5.39186e-05
5.01325e-05
4.92684e-05
4.81746e-05
4.52976e-05
4.56684e-05
0.00010025
0.000101829
0.000104875
0.000108992
0.000116518
0.000128671
0.000137198
0.000153523
0.000191854
0.000268155
0.000317319
0.000314179
0.00028537
0.000241978
0.000205121
0.000173526
0.000146967
0.000129251
0.000119581
0.000114534
0.000112275
0.000111595
0.000111142
0.000110622
0.000109628
0.000108354
0.000107095
0.000106022
0.000105844
0.000106375
0.000106327
0.000102664
8.73859e-05
9.85981e-05
7.40265e-05
8.95291e-05
6.4697e-05
7.23864e-05
5.86913e-05
6.02216e-05
5.65683e-05
5.50025e-05
5.29261e-05
4.69723e-05
4.94646e-05
4.62512e-05
4.53007e-05
4.41388e-05
4.16977e-05
4.25256e-05
0.000100289
0.000101833
0.000105001
0.00010927
0.000116984
0.000129159
0.000137698
0.000151773
0.000185545
0.000257602
0.000315692
0.000320373
0.000297483
0.000252486
0.000213477
0.000181078
0.000153073
0.000133034
0.000121907
0.000116183
0.0001137
0.00011333
0.000113636
0.000113873
0.000113609
0.000112021
0.000110439
0.000108762
0.000108001
0.000108773
0.000111468
0.000115324
9.87275e-05
0.000105222
9.62514e-05
9.69169e-05
9.34673e-05
9.47548e-05
7.08732e-05
9.43062e-05
5.70031e-05
7.10224e-05
5.16158e-05
5.45692e-05
4.85981e-05
4.34033e-05
4.5846e-05
4.30975e-05
4.1977e-05
4.07806e-05
3.8839e-05
3.99404e-05
0.000100286
0.000101743
0.000105043
0.000109445
0.000117373
0.000129576
0.000138194
0.000150549
0.000181437
0.000247122
0.000312957
0.00032673
0.000309032
0.00026312
0.000222146
0.000188676
0.000159607
0.000137327
0.000124307
0.000117744
0.000115064
0.000114915
0.000116074
0.000117499
0.00011867
0.000117643
0.000115209
0.00011336
0.000114785
0.000121497
0.000128547
0.000138727
0.000127983
0.000176847
0.000113343
0.000153375
0.000101123
0.000132159
9.45335e-05
0.000109245
9.2169e-05
9.63949e-05
7.29823e-05
9.12472e-05
5.22719e-05
7.43767e-05
5.00711e-05
4.03477e-05
4.7616e-05
4.41871e-05
3.91747e-05
3.81798e-05
3.67114e-05
3.78852e-05
0.000100223
0.00010153
0.00010498
0.000109484
0.000117636
0.000129885
0.000138563
0.000149674
0.000177893
0.000237014
0.000308904
0.000333121
0.000318388
0.000274908
0.000231042
0.000196465
0.000166536
0.000142193
0.000126903
0.000119326
0.000116339
0.0001163
0.000118286
0.000121258
0.00012451
0.000126141
0.000123081
0.000124218
0.00013049
0.000144373
0.000177863
0.00022528
0.000222152
0.000280027
0.000206664
0.000259805
0.000182988
0.000239939
0.000154809
0.000213793
0.000123072
0.000179887
0.000100433
0.000140092
9.0984e-05
0.000106092
7.58846e-05
9.0956e-05
7.59293e-05
4.03275e-05
7.33331e-05
6.59536e-05
3.70223e-05
3.72318e-05
3.53216e-05
3.6306e-05
0.000100119
0.000101187
0.000104777
0.000109367
0.000117736
0.000130046
0.000138744
0.000149005
0.000174735
0.000228278
0.000304748
0.000338752
0.000327091
0.000287354
0.000240514
0.000204521
0.000173906
0.000147718
0.000130069
0.000120875
0.000117411
0.000117483
0.000120271
0.000125004
0.000130927
0.000137491
0.000144502
0.000157019
0.000182371
0.000227109
0.000279898
0.000326865
0.000322116
0.000362936
0.000310423
0.000356392
0.000294852
0.000344273
0.000273673
0.000329167
0.000244636
0.000307205
0.000206306
0.000275521
0.00015894
0.000232854
0.000112438
0.000178003
9.09522e-05
0.0001182
9.00869e-05
5.56983e-05
8.8096e-05
8.47034e-05
3.56995e-05
4.5538e-05
3.4856e-05
3.52943e-05
9.99919e-05
0.000100876
0.000104465
0.000109044
0.000117663
0.000130025
0.000138688
0.000148425
0.000172271
0.000221541
0.000300955
0.00034402
0.000335707
0.00029942
0.000250707
0.000212959
0.000181841
0.000154155
0.000133971
0.000122899
0.000118419
0.000118611
0.000122036
0.000128357
0.000137762
0.000151117
0.000175441
0.00021241
0.000268488
0.00032756
0.000369484
0.000403437
0.0004465
0.000393708
0.000436557
0.000387807
0.000426004
0.000378142
0.000420875
0.000363202
0.000412422
0.000339968
0.000397144
0.00030613
0.000372191
0.000258831
0.000335546
0.000195573
0.000282915
0.00012259
0.000209221
0.000123858
8.00838e-05
0.000121132
0.00011333
3.87826e-05
7.60096e-05
3.53713e-05
3.70673e-05
0.000100338
0.00010124
0.000104373
0.000108563
0.000117351
0.000129818
0.000138401
0.000147824
0.000170424
0.000216773
0.000297968
0.000349143
0.000344333
0.000311519
0.000261267
0.00022191
0.000190336
0.000161662
0.000138934
0.000125655
0.000119865
0.000119732
0.00012356
0.000131442
0.000143703
0.000165027
0.000206829
0.000274157
0.000360724
0.000407625
0.000432615
0.000449365
0.000489708
0.000509877
0.000533047
0.000458825
0.000487442
0.000458033
0.000490739
0.000454934
0.000491572
0.000446445
0.000488672
0.000429927
0.000479246
0.000403123
0.000460764
0.000362739
0.000431316
0.000303245
0.00038636
0.000217762
0.000317935
0.000219771
0.000101043
0.00021297
0.000194261
6.25812e-05
8.64351e-05
3.7743e-05
4.74794e-05
0.000102084
0.000103482
0.000104731
0.000108343
0.000116787
0.000129307
0.000137798
0.000147109
0.000169019
0.00021341
0.000295218
0.000353963
0.00035355
0.000324244
0.000272375
0.0002314
0.000199502
0.000170601
0.000145646
0.00012946
0.000122175
0.000121456
0.000124949
0.000133649
0.00014858
0.000177885
0.000237319
0.00034324
0.000438317
0.000466488
0.000470924
0.000484174
0.00052109
0.000550304
0.000564339
0.000562399
0.000578305
0.000518892
0.000542546
0.000523017
0.000549972
0.000524098
0.000553482
0.000520222
0.000553557
0.000508977
0.000548038
0.000488417
0.000534622
0.000455644
0.00051169
0.00040485
0.000475286
0.000326643
0.000417303
0.000328538
0.000163728
0.000321077
0.000301019
7.31103e-05
0.000128461
4.53471e-05
6.79688e-05
0.000104279
0.000108421
0.000107323
0.000109037
0.00011678
0.000128364
0.000136896
0.000146301
0.000167904
0.000211402
0.000293349
0.000358886
0.000365083
0.000338119
0.000284322
0.000241544
0.000209802
0.000181277
0.000154362
0.000135419
0.000126235
0.000123973
0.000126671
0.000135043
0.000151662
0.00018688
0.000265274
0.000405311
0.000493951
0.00050968
0.000508602
0.000515308
0.000553993
0.000575998
0.000584366
0.000590673
0.000595096
0.000601931
0.000604001
0.000572433
0.000589686
0.000577605
0.000596412
0.000579495
0.000599031
0.000578122
0.000599887
0.000570726
0.000597099
0.000555526
0.000588191
0.000530205
0.000571547
0.000489393
0.00054398
0.000424179
0.000498374
0.000424293
0.000264215
0.000415259
0.000394263
9.43596e-05
0.00020798
6.89334e-05
6.78921e-05
0.000106277
0.00011948
0.000118939
0.000113996
0.000117891
0.000128342
0.000135569
0.00014525
0.000167034
0.000210287
0.000292209
0.000364359
0.000378573
0.000352372
0.000297353
0.000252366
0.00022094
0.000193386
0.000165763
0.000144717
0.000133824
0.000128229
0.000129392
0.000136987
0.000153024
0.000189382
0.000284814
0.000458422
0.000534488
0.000543296
0.000538533
0.000548247
0.000569822
0.000581045
0.000596125
0.000593155
0.000603077
0.000597154
0.000608336
0.000601506
0.000609417
0.000610431
0.000613724
0.000615728
0.000613732
0.000621771
0.0006142
0.000622953
0.00061061
0.000623361
0.000600882
0.000619639
0.000583212
0.000609594
0.000553186
0.000591277
0.000502339
0.000558509
0.000500476
0.000358853
0.000491048
0.000472536
0.000144332
0.000303711
6.17773e-05
8.81778e-05
0.00011955
0.000132962
0.000128817
0.000123643
0.000129305
0.000135475
0.000144474
0.000166529
0.000209421
0.00029183
0.000370707
0.000393454
0.000367712
0.00031195
0.000264282
0.000232772
0.000207998
0.000181406
0.000158619
0.00014363
0.000134748
0.000133743
0.000139951
0.000153977
0.000189104
0.00028933
0.000494878
0.000567194
0.000568867
0.000562381
0.00056912
0.000570912
0.000576223
0.000574165
0.000560853
0.00059245
0.000586579
0.000593974
0.000585214
0.00059444
0.000581225
0.000612323
0.000604081
0.000617865
0.000607228
0.000623635
0.000615271
0.000626986
0.00062329
0.000628664
0.000628314
0.000625187
0.000631118
0.000615219
0.000627969
0.000596282
0.000618747
0.000559816
0.000598556
0.000556947
0.000441205
0.000548866
0.000533522
0.000222158
0.000390723
5.26207e-05
0.000130123
0.000128376
0.00014556
0.000139822
0.000134324
0.000136288
0.000144355
0.000165961
0.000209501
0.000292098
0.000377971
0.000409592
0.000384832
0.00032871
0.0002776
0.000246522
0.000225761
0.000201547
0.000177192
0.000155419
0.000143186
0.000139558
0.000144022
0.000154881
0.000186932
0.000287293
0.000507706
0.000594126
0.000591057
0.00057937
0.000567135
0.000566999
0.000567791
0.000544817
0.000527815
0.000535768
0.000512311
0.000572948
0.000556233
0.000564569
0.000544315
0.000557588
0.000532744
0.000594993
0.000578708
0.00059911
0.000580813
0.000609223
0.000588404
0.000620403
0.000601705
0.000627731
0.000614735
0.000631322
0.000624166
0.000628573
0.000625315
0.000620073
0.000615681
0.000597687
0.000619154
0.000593959
0.000508177
0.000587071
0.000576998
0.000552149
0.000309561
0.000464823
5.94137e-05
0.000199575
0.000137055
0.000159803
0.000148123
0.000140324
0.000145179
0.000165708
0.000208328
0.00029221
0.000385834
0.000426601
0.00040426
0.000347743
0.000292798
0.000261989
0.000244072
0.000221568
0.000194662
0.000169928
0.000153182
0.000145538
0.000148044
0.000156589
0.000182486
0.000279611
0.000506058
0.000613554
0.000612257
0.000593354
0.00056844
0.000555589
0.000529772
0.000451464
0.000487176
0.000447165
0.000467112
0.000437747
0.000520579
0.000494764
0.000505152
0.000475121
0.000497073
0.000462593
0.000556962
0.000528828
0.000563907
0.000534161
0.000576394
0.000547547
0.000591542
0.000562989
0.00060428
0.000577279
0.000588692
0.000568475
0.000563366
0.0005295
0.000576504
0.000519714
0.000610123
0.000536915
0.000616524
0.000601805
0.00058485
0.000569857
0.000526689
0.000560037
0.000594061
0.000575756
0.000562324
0.000589235
0.000391275
0.000547687
0.000529598
0.000481628
8.60964e-05
0.000278121
0.000150876
0.000177166
0.000151782
0.000148607
0.000165864
0.000206616
0.000290639
0.000392755
0.000444286
0.000425944
0.000369563
0.000309929
0.000278335
0.000262427
0.000241816
0.000213108
0.000185835
0.000162436
0.000148572
0.000147247
0.000155812
0.000180261
0.000264434
0.000495424
0.000623459
0.000633532
0.00060999
0.000579629
0.000538187
0.000452355
0.00034764
0.000339064
0.000298265
0.000406912
0.000371861
0.000379786
0.000348282
0.000443694
0.000411738
0.000425986
0.000388973
0.000426859
0.000389052
0.000500537
0.000464526
0.000514059
0.000479471
0.000531417
0.000498403
0.000546537
0.000513144
0.00055877
0.000525344
0.000508278
0.000509886
0.000478757
0.000477554
0.000455508
0.000543217
0.000475654
0.00043114
0.000484445
0.000506626
0.000597283
0.000514378
0.000511662
0.000570192
0.000583088
0.000575308
0.000592084
0.000557749
0.00056456
0.000589931
0.000506472
0.000403801
0.000465753
0.000564477
0.000549357
9.91466e-05
0.00041318
0.000320584
0.000270013
0.000172913
0.000177097
0.000156685
0.000168438
0.000204187
0.000288004
0.000398108
0.000461229
0.000450069
0.000394152
0.000329379
0.000295375
0.000280454
0.000263304
0.000241729
0.000221521
0.000201294
0.000183922
0.000166029
0.000158624
0.000178
0.000253616
0.000467578
0.000624657
0.000652935
0.000633193
0.000598192
0.000538972
0.000385353
0.000257611
0.000212438
0.000255974
0.000220456
0.000317357
0.000286788
0.000286153
0.000257676
0.000352768
0.000318153
0.000352149
0.000315668
0.000377849
0.000344462
0.000445497
0.000411606
0.000465543
0.000432751
0.000479047
0.000446423
0.00048977
0.00045558
0.000498504
0.000462107
0.000473878
0.000451074
0.000475003
0.000471915
0.000452961
0.000417059
0.000424111
0.000451105
0.000477461
0.000456566
0.000429096
0.000438261
0.000498569
0.000524419
0.000489845
0.000467497
0.000518759
0.000580912
0.000566908
0.000549495
0.000516127
0.000506619
0.000543668
0.000512346
0.000464855
0.000547302
0.000520338
0.000240722
5.16945e-05
0.000156343
0.000390929
0.000317592
0.000198715
0.000172569
0.000173722
0.000203837
0.000284884
0.000400497
0.000477225
0.00047545
0.000421785
0.000350883
0.000313578
0.000299602
0.00028893
0.000288586
0.000294587
0.000300043
0.000286883
0.000255617
0.000216459
0.000192983
0.000253704
0.00043608
0.000621467
0.000666728
0.000663172
0.000625946
0.000550628
0.000366607
0.000219108
0.00017297
0.000166965
0.000153153
0.000194209
0.00017841
0.000233011
0.000212065
0.000217571
0.000193787
0.000280175
0.000246958
0.000311564
0.00027907
0.000340532
0.000311422
0.000401075
0.000370365
0.000416562
0.000390448
0.000426395
0.000403683
0.000430469
0.000407012
0.000454771
0.000437724
0.00042373
0.000410734
0.000447712
0.000455129
0.000455532
0.000437788
0.000423845
0.000425847
0.000436744
0.000429274
0.000442752
0.000430098
0.000415896
0.000418695
0.000461819
0.000477261
0.000451235
0.000434279
0.000470255
0.000534249
0.000523009
0.000499803
0.000465288
0.00045957
0.00049519
0.00048446
0.000437316
0.000507595
0.000485634
0.000219782
4.1359e-05
0.000152861
0.00036915
0.000289609
0.000209797
0.000184122
0.000206182
0.000284811
0.000402693
0.000490293
0.000501829
0.000451169
0.000375379
0.000332981
0.000320222
0.000323425
0.000347046
0.000383788
0.000403407
0.000391214
0.000358652
0.000312681
0.000267058
0.000266509
0.000415587
0.00060845
0.000673581
0.000693832
0.00067082
0.000581019
0.000379337
0.000213688
0.000154378
0.000134101
0.000140274
0.000134192
0.000154195
0.000146802
0.000176185
0.000163664
0.000191929
0.000170894
0.000247541
0.000218018
0.000282633
0.000254072
0.000325971
0.000305505
0.000367367
0.000346229
0.000385876
0.000372037
0.000391658
0.00038261
0.000401778
0.000393557
0.000388794
0.00038406
0.000421768
0.000408388
0.000398009
0.000390287
0.000438654
0.000439494
0.00042142
0.000405979
0.000413458
0.000425582
0.000416625
0.000424865
0.000420102
0.000411746
0.000406026
0.000406776
0.000427961
0.000440866
0.000421406
0.000412345
0.000434054
0.000490327
0.000484352
0.000455598
0.000430168
0.000426091
0.000453476
0.000454876
0.000408201
0.000474752
0.000457867
0.000194036
3.23293e-05
0.000144205
0.00034469
0.000259479
0.00021739
0.000215232
0.000289148
0.000404004
0.000502359
0.00052671
0.000482714
0.000401865
0.000353799
0.000342117
0.000361444
0.000413749
0.000475498
0.000495733
0.00047993
0.000443447
0.00039633
0.000346198
0.000315946
0.000411757
0.000588571
0.000677874
0.000718908
0.000725175
0.000653399
0.000428973
0.000221678
0.000151869
0.000127623
0.000123053
0.000119837
0.000128627
0.000124689
0.000138502
0.000133151
0.000155733
0.000145542
0.000176218
0.00015776
0.000226056
0.000199582
0.000283807
0.000260394
0.000338746
0.000326026
0.00036047
0.000349777
0.000376549
0.000373038
0.000378451
0.000378941
0.000385047
0.000381595
0.000379756
0.000379115
0.000393815
0.000384954
0.000379094
0.000375665
0.000423823
0.000405471
0.000390619
0.000379466
0.000406658
0.000417755
0.000409131
0.000408452
0.000404332
0.000400154
0.000399523
0.000398856
0.000407182
0.000414698
0.000403189
0.000397773
0.000410902
0.000452659
0.0004511
0.000423791
0.000407254
0.000403616
0.000422147
0.000429632
0.000384422
0.000446829
0.00043496
0.000180981
2.16366e-05
0.000135717
0.000322065
0.000244376
0.00024317
0.000295161
0.000409538
0.000511498
0.000550703
0.000514259
0.000431909
0.000375013
0.000362441
0.000397848
0.000479059
0.000555677
0.000567625
0.000546353
0.00050763
0.000460485
0.000410912
0.00037604
0.000423326
0.000571469
0.000677856
0.000742219
0.000777563
0.00072581
0.000525472
0.000247588
0.000158714
0.000127305
0.000116375
0.000117707
0.000114922
0.000123468
0.000120169
0.000131305
0.000127125
0.000144886
0.000136723
0.000185792
0.000165233
0.000235397
0.000209919
0.000310566
0.000291907
0.000364338
0.000357886
0.000370678
0.000368052
0.000380874
0.000384476
0.000376115
0.000377527
0.000383368
0.000380147
0.000374034
0.000373621
0.000374002
0.000374723
0.000371858
0.000367351
0.000365285
0.000364974
0.000390089
0.000375637
0.00036516
0.000358418
0.000400195
0.000393846
0.000379987
0.000375207
0.000393996
0.000392539
0.000391233
0.000393004
0.000393685
0.000398608
0.000389347
0.00038818
0.000395388
0.00042229
0.000422586
0.000401484
0.000391632
0.000389093
0.000400716
0.000409637
0.000366603
0.000421905
0.000414196
0.000171796
2.38978e-05
0.000150533
0.000310788
0.000241766
0.000312779
0.000414744
0.000521694
0.000571937
0.000546125
0.000463376
0.000398395
0.00038063
0.000427134
0.00053746
0.000613973
0.000619042
0.000592356
0.000552064
0.000504159
0.000459263
0.000427033
0.000443057
0.000559716
0.000670576
0.000757838
0.000824542
0.000791458
0.000610635
0.000294873
0.000170242
0.000131963
0.000116886
0.000110559
0.00011049
0.000112865
0.000111434
0.000119568
0.000115625
0.000130717
0.000124575
0.000149639
0.000138623
0.000220255
0.000196111
0.000269981
0.000245589
0.000347622
0.000333376
0.000396946
0.000395768
0.000389884
0.000394457
0.000386769
0.000393569
0.000408199
0.000373954
0.00037735
0.000386025
0.000381262
0.000365791
0.000367508
0.000369046
0.00037117
0.000354723
0.000353406
0.000353826
0.000355444
0.000360949
0.000350845
0.000344401
0.000340935
0.000367228
0.000361044
0.000347485
0.000346551
0.000386191
0.000386034
0.000355427
0.000380842
0.00038315
0.000384333
0.000376941
0.000379449
0.000380257
0.000402357
0.000403577
0.000388522
0.000376996
0.000376462
0.000389529
0.000394037
0.000357344
0.00040323
0.000398928
0.000166944
2.51731e-05
0.000138488
0.000317076
0.000262661
0.000430967
0.000529649
0.00059135
0.000575637
0.000498096
0.000421153
0.000396701
0.000447999
0.000581223
0.000654291
0.000654345
0.000624819
0.000574519
0.000529124
0.000490659
0.000466252
0.000474064
0.000556126
0.000663288
0.000773997
0.000865479
0.000850308
0.000687857
0.000351593
0.000190247
0.000138839
0.000120185
0.00011127
0.000107992
0.000107821
0.0001114
0.000108662
0.000123198
0.000116147
0.00014391
0.00013248
0.000175095
0.000157868
0.000267649
0.000241117
0.00031491
0.000292698
0.000389079
0.000377856
0.000444213
0.00044579
0.000423343
0.000437296
0.00039255
0.000400342
0.000417761
0.000430868
0.000370721
0.000374942
0.000387803
0.000380333
0.000358117
0.000360306
0.0003633
0.000366731
0.000339699
0.0003402
0.000342048
0.000345428
0.000336396
0.000329745
0.000325791
0.000324055
0.000334497
0.000332543
0.000318839
0.000321834
0.000378467
0.000371395
0.000322273
0.000344645
0.000372805
0.000371236
0.00036547
0.000370634
0.000367461
0.000390119
0.000390915
0.000377126
0.000364493
0.000362029
0.000377324
0.000384636
0.000360988
0.000393005
0.000392981
0.000172768
0.000104149
0.000145968
0.00035225
0.000304924
0.000543081
0.000607834
0.000602869
0.000532739
0.000446285
0.000411176
0.000457934
0.000609146
0.000679359
0.000676897
0.000635584
0.000577702
0.000540912
0.000508607
0.000489968
0.00050029
0.000565846
0.000672164
0.000789112
0.000899912
0.000900222
0.00075444
0.00041108
0.000211318
0.000147136
0.000126173
0.000114018
0.000106643
0.000108221
0.000106645
0.000106391
0.000114044
0.000109094
0.000134596
0.000122451
0.000168955
0.000150227
0.00021494
0.000190613
0.000317568
0.000290484
0.000361903
0.000341657
0.000439865
0.000428583
0.00046246
0.00048647
0.00044023
0.000451494
0.000429119
0.000396663
0.000407022
0.000402235
0.00038837
0.000365686
0.000371704
0.00038928
0.000379755
0.000348279
0.000351749
0.000355999
0.000360647
0.000323997
0.00032545
0.000328561
0.000332872
0.000314419
0.000309406
0.000306182
0.000304684
0.000305629
0.000307286
0.000292992
0.00029855
0.000362695
0.00033495
0.000293112
0.000310884
0.00036315
0.000361138
0.000357119
0.000353958
0.000353845
0.00037913
0.000382347
0.000358341
0.000345084
0.000334023
0.000358668
0.000385557
0.000394108
0.000387115
0.000392147