/*--------------------------------*- C++ -*----------------------------------*\
  =========                 |
  \\      /  F ield         | OpenFOAM: The Open Source CFD Toolbox
   \\    /   O peration     | Website:  https://openfoam.org
    \\  /    A nd           | Version:  dev
     \\/     M anipulation  |
\*---------------------------------------------------------------------------*/
FoamFile
{
    version     2.0;
    format      ascii;
    class       volScalarField;
    location    "2500";
    object      O2;
}
// * * * * * * * * * * * * * * * * * * * * * * * * * * * * * * * * * * * * * //

dimensions      [0 0 0 0 0 0 0];

internalField   nonuniform List<scalar> 
9851
(
0.23301
0.23301
0.23301
0.23301
0.23301
0.23301
0.23301
0.23301
0.23301
0.23301
0.23301
0.23301
0.23301
0.23301
0.23301
0.23301
0.23301
0.23301
0.23301
0.23301
0.23301
0.23301
0.23301
0.23301
0.23301
0.23301
0.23301
0.23301
0.23301
0.23301
0.23301
0.23301
0.23301
0.23301
0.23301
0.23301
0.23301
0.23301
0.23301
0.23301
0.23301
0.23301
0.23301
0.23301
0.23301
0.23301
0.23301
0.23301
0.23301
0.23301
0.23301
0.23301
0.23301
0.23301
0.23301
0.23301
0.23301
0.23301
0.23301
0.23301
0.23301
0.23301
0.23301
0.23301
0.23301
0.23301
0.23301
0.23301
0.23301
0.23301
0.23301
0.23301
0.23301
0.23301
0.23301
0.23301
0.23301
0.23301
0.23301
0.23301
0.23301
0.23301
0.23301
0.23301
0.23301
0.23301
0.23301
0.23301
0.23301
0.23301
0.23301
0.23301
0.23301
0.23301
0.23301
0.23301
0.23301
0.23301
0.23301
0.23301
0.23301
0.23301
0.23301
0.23301
0.23301
0.23301
0.23301
0.23301
0.23301
0.23301
0.23301
0.23301
0.23301
0.23301
0.23301
0.23301
0.23301
0.23301
0.23301
0.23301
0.23301
0.23301
0.23301
0.23301
0.23301
0.23301
0.23301
0.23301
0.23301
0.23301
0.23301
0.23301
0.23301
0.23301
0.23301
0.23301
0.23301
0.23301
0.23301
0.23301
0.23301
0.23301
0.23301
0.23301
0.23301
0.23301
0.23301
0.23301
0.23301
0.23301
0.23301
0.23301
0.23301
0.23301
0.23301
0.23301
0.23301
0.23301
0.23301
0.23301
0.23301
0.23301
0.23301
0.23301
0.23301
0.23301
0.23301
0.23301
0.23301
0.23301
0.23301
0.23301
0.23301
0.23301
0.23301
0.23301
0.23301
0.23301
0.23301
0.23301
0.23301
0.23301
0.23301
0.23301
0.23301
0.23301
0.23301
0.23301
0.23301
0.23301
0.23301
0.23301
0.23301
0.23301
0.23301
0.23301
0.23301
0.23301
0.23301
0.23301
0.23301
0.23301
0.23301
0.23301
0.23301
0.23301
0.23301
0.23301
0.23301
0.23301
0.23301
0.23301
0.23301
0.23301
0.23301
0.23301
0.23301
0.23301
0.23301
0.23301
0.23301
0.23301
0.23301
0.23301
0.23301
0.23301
0.23301
0.23301
0.23301
0.23301
0.23301
0.23301
0.23301
0.23301
0.23301
0.23301
0.23301
0.23301
0.23301
0.23301
0.23301
0.23301
0.23301
0.23301
0.23301
0.23301
0.23301
0.23301
0.23301
0.23301
0.23301
0.23301
0.23301
0.23301
0.23301
0.23301
0.23301
0.23301
0.23301
0.23301
0.23301
0.23301
0.23301
0.23301
0.23301
0.23301
0.23301
0.23301
0.23301
0.23301
0.23301
0.23301
0.23301
0.23301
0.23301
0.23301
0.23301
0.23301
0.23301
0.23301
0.23301
0.23301
0.23301
0.23301
0.23301
0.23301
0.23301
0.23301
0.23301
0.23301
0.23301
0.23301
0.23301
0.23301
0.23301
0.23301
0.23301
0.23301
0.23301
0.23301
0.23301
0.23301
0.23301
0.23301
0.23301
0.23301
0.23301
0.23301
0.23301
0.23301
0.23301
0.23301
0.23301
0.23301
0.23301
0.23301
0.23301
0.23301
0.23301
0.23301
0.23301
0.23301
0.23301
0.23301
0.23301
0.23301
0.23301
0.23301
0.23301
0.23301
0.23301
0.23301
0.23301
0.23301
0.23301
0.23301
0.23301
0.23301
0.23301
0.23301
0.23301
0.23301
0.23301
0.23301
0.23301
0.23301
0.23301
0.23301
0.23301
0.23301
0.23301
0.23301
0.23301
0.23301
0.23301
0.23301
0.23301
0.23301
0.23301
0.23301
0.23301
0.23301
0.23301
0.23301
0.23301
0.23301
0.23301
0.23301
0.23301
0.23301
0.23301
0.23301
0.23301
0.23301
0.23301
0.23301
0.23301
0.23301
0.23301
0.23301
0.23301
0.23301
0.23301
0.23301
0.23301
0.23301
0.23301
0.23301
0.23301
0.23301
0.23301
0.23301
0.23301
0.23301
0.23301
0.23301
0.23301
0.23301
0.23301
0.23301
0.23301
0.23301
0.23301
0.23301
0.23301
0.23301
0.23301
0.23301
0.23301
0.23301
0.23301
0.23301
0.23301
0.23301
0.23301
0.23301
0.23301
0.23301
0.23301
0.23301
0.23301
0.23301
0.23301
0.23301
0.23301
0.23301
0.23301
0.23301
0.23301
0.23301
0.23301
0.23301
0.23301
0.23301
0.23301
0.23301
0.23301
0.23301
0.23301
0.23301
0.23301
0.23301
0.23301
0.23301
0.23301
0.23301
0.23301
0.23301
0.23301
0.23301
0.23301
0.23301
0.23301
0.23301
0.23301
0.23301
0.23301
0.23301
0.23301
0.23301
0.23301
0.23301
0.23301
0.23301
0.23301
0.23301
0.23301
0.23301
0.23301
0.23301
0.23301
0.23301
0.23301
0.23301
0.23301
0.23301
0.23301
0.23301
0.23301
0.23301
0.23301
0.23301
0.23301
0.23301
0.23301
0.23301
0.23301
0.23301
0.23301
0.23301
0.23301
0.23301
0.23301
0.23301
0.23301
0.23301
0.23301
0.23301
0.23301
0.23301
0.23301
0.23301
0.23301
0.23301
0.23301
0.23301
0.23301
0.23301
0.23301
0.23301
0.23301
0.23301
0.23301
0.23301
0.23301
0.23301
0.23301
0.23301
0.23301
0.23301
0.23301
0.23301
0.23301
0.23301
0.23301
0.23301
0.23301
0.23301
0.23301
0.23301
0.23301
0.23301
0.23301
0.23301
0.23301
0.23301
0.23301
0.23301
0.23301
0.23301
0.23301
0.23301
0.23301
0.23301
0.23301
0.23301
0.23301
0.23301
0.23301
0.23301
0.23301
0.23301
0.23301
0.23301
0.23301
0.23301
0.23301
0.23301
0.23301
0.23301
0.23301
0.23301
0.23301
0.23301
0.23301
0.23301
0.23301
0.23301
0.23301
0.23301
0.23301
0.23301
0.23301
0.23301
0.23301
0.23301
0.23301
0.23301
0.23301
0.23301
0.23301
0.23301
0.23301
0.23301
0.23301
0.23301
0.23301
0.23301
0.23301
0.23301
0.23301
0.23301
0.23301
0.23301
0.23301
0.23301
0.23301
0.23301
0.23301
0.23301
0.23301
0.23301
0.23301
0.23301
0.23301
0.23301
0.23301
0.23301
0.23301
0.23301
0.23301
0.23301
0.23301
0.23301
0.23301
0.23301
0.23301
0.23301
0.23301
0.23301
0.23301
0.23301
0.23301
0.23301
0.23301
0.23301
0.23301
0.23301
0.23301
0.23301
0.23301
0.23301
0.23301
0.23301
0.23301
0.23301
0.23301
0.23301
0.23301
0.23301
0.23301
0.23301
0.23301
0.23301
0.23301
0.23301
0.23301
0.23301
0.23301
0.23301
0.23301
0.23301
0.23301
0.23301
0.23301
0.23301
0.23301
0.23301
0.23301
0.23301
0.23301
0.23301
0.23301
0.23301
0.23301
0.23301
0.23301
0.23301
0.23301
0.23301
0.23301
0.23301
0.23301
0.23301
0.23301
0.23301
0.23301
0.23301
0.23301
0.23301
0.23301
0.23301
0.23301
0.23301
0.23301
0.23301
0.23301
0.23301
0.23301
0.23301
0.23301
0.23301
0.23301
0.23301
0.23301
0.23301
0.23301
0.23301
0.23301
0.23301
0.23301
0.23301
0.23301
0.23301
0.23301
0.23301
0.23301
0.23301
0.23301
0.23301
0.23301
0.23301
0.23301
0.23301
0.23301
0.23301
0.23301
0.23301
0.23301
0.23301
0.23301
0.23301
0.23301
0.23301
0.23301
0.23301
0.23301
0.23301
0.23301
0.23301
0.23301
0.23301
0.23301
0.23301
0.23301
0.23301
0.23301
0.23301
0.23301
0.23301
0.23301
0.23301
0.23301
0.23301
0.23301
0.23301
0.23301
0.23301
0.23301
0.23301
0.23301
0.23301
0.23301
0.23301
0.23301
0.23301
0.23301
0.23301
0.23301
0.23301
0.23301
0.23301
0.23301
0.23301
0.23301
0.23301
0.23301
0.23301
0.23301
0.23301
0.23301
0.23301
0.23301
0.23301
0.23301
0.23301
0.23301
0.23301
0.23301
0.23301
0.23301
0.23301
0.23301
0.23301
0.23301
0.23301
0.23301
0.23301
0.23301
0.23301
0.23301
0.23301
0.23301
0.23301
0.23301
0.23301
0.23301
0.23301
0.23301
0.23301
0.23301
0.23301
0.23301
0.23301
0.23301
0.23301
0.23301
0.23301
0.23301
0.23301
0.23301
0.23301
0.23301
0.23301
0.23301
0.23301
0.23301
0.23301
0.23301
0.23301
0.23301
0.23301
0.23301
0.23301
0.23301
0.23301
0.23301
0.23301
0.23301
0.23301
0.23301
0.23301
0.23301
0.23301
0.23301
0.233009
0.233009
0.233009
0.23301
0.233009
0.23301
0.233009
0.23301
0.23301
0.23301
0.23301
0.23301
0.23301
0.23301
0.23301
0.23301
0.23301
0.23301
0.23301
0.23301
0.23301
0.23301
0.23301
0.23301
0.23301
0.23301
0.23301
0.23301
0.23301
0.23301
0.23301
0.23301
0.23301
0.23301
0.23301
0.23301
0.23301
0.23301
0.23301
0.23301
0.23301
0.23301
0.23301
0.23301
0.23301
0.23301
0.233009
0.233009
0.233008
0.233006
0.233004
0.233007
0.233003
0.233008
0.233006
0.233009
0.233008
0.23301
0.233009
0.23301
0.23301
0.23301
0.23301
0.23301
0.23301
0.23301
0.23301
0.23301
0.23301
0.23301
0.23301
0.23301
0.23301
0.23301
0.23301
0.23301
0.23301
0.23301
0.23301
0.23301
0.23301
0.23301
0.23301
0.23301
0.23301
0.23301
0.23301
0.23301
0.23301
0.23301
0.23301
0.23301
0.23301
0.23301
0.23301
0.233009
0.233008
0.233005
0.233001
0.232995
0.232984
0.232993
0.232971
0.232999
0.232982
0.233003
0.232992
0.233007
0.233
0.233009
0.233005
0.23301
0.233008
0.23301
0.23301
0.23301
0.23301
0.23301
0.23301
0.23301
0.23301
0.23301
0.23301
0.23301
0.23301
0.23301
0.23301
0.23301
0.23301
0.23301
0.23301
0.23301
0.23301
0.23301
0.23301
0.23301
0.23301
0.23301
0.23301
0.23301
0.23301
0.23301
0.23301
0.23301
0.23301
0.23301
0.233009
0.233007
0.233003
0.232995
0.232983
0.232963
0.232927
0.232935
0.232863
0.232949
0.232887
0.232966
0.232913
0.232983
0.232944
0.232995
0.23297
0.233004
0.23299
0.233008
0.233002
0.233008
0.23301
0.233008
0.233008
0.23301
0.23301
0.23301
0.23301
0.23301
0.23301
0.23301
0.23301
0.23301
0.23301
0.23301
0.23301
0.23301
0.23301
0.23301
0.23301
0.23301
0.23301
0.23301
0.23301
0.23301
0.23301
0.23301
0.23301
0.23301
0.23301
0.23301
0.23301
0.233009
0.233007
0.233001
0.232989
0.232968
0.232937
0.232889
0.23281
0.232792
0.232689
0.232804
0.232708
0.23283
0.232729
0.232867
0.232762
0.232914
0.232812
0.232954
0.232876
0.232984
0.232936
0.233001
0.232978
0.233
0.233009
0.233001
0.233002
0.23301
0.233009
0.23301
0.23301
0.23301
0.23301
0.23301
0.23301
0.23301
0.23301
0.23301
0.23301
0.23301
0.23301
0.23301
0.23301
0.23301
0.23301
0.23301
0.23301
0.23301
0.23301
0.23301
0.23301
0.23301
0.23301
0.23301
0.23301
0.233009
0.233003
0.232987
0.232956
0.232904
0.232838
0.232752
0.23263
0.232599
0.232513
0.232608
0.2325
0.23262
0.232509
0.232645
0.232523
0.232687
0.232554
0.23275
0.232607
0.232833
0.232686
0.232917
0.232789
0.232974
0.2329
0.232971
0.233004
0.232973
0.232978
0.23301
0.233006
0.23301
0.23301
0.23301
0.23301
0.23301
0.23301
0.23301
0.23301
0.23301
0.23301
0.23301
0.23301
0.23301
0.23301
0.23301
0.23301
0.23301
0.23301
0.23301
0.23301
0.23301
0.23301
0.23301
0.23301
0.23301
0.23301
0.233008
0.232998
0.232966
0.232899
0.232809
0.232701
0.232586
0.232451
0.232251
0.232406
0.232267
0.232399
0.232292
0.232404
0.23229
0.232422
0.232296
0.232461
0.232321
0.232526
0.23237
0.232621
0.232448
0.232748
0.232562
0.232887
0.232715
0.232882
0.232986
0.232886
0.232902
0.233008
0.232995
0.23301
0.233009
0.23301
0.23301
0.23301
0.23301
0.23301
0.23301
0.23301
0.23301
0.23301
0.23301
0.23301
0.23301
0.23301
0.23301
0.23301
0.23301
0.23301
0.23301
0.23301
0.23301
0.23301
0.23301
0.23301
0.23301
0.233007
0.232992
0.232941
0.232836
0.232693
0.232554
0.232416
0.232257
0.232075
0.232026
0.231946
0.232192
0.232099
0.232185
0.232088
0.232181
0.232079
0.232192
0.232077
0.232225
0.232094
0.232284
0.232134
0.232377
0.232205
0.232511
0.232314
0.232694
0.232474
0.232688
0.232929
0.2327
0.232738
0.233003
0.23296
0.23301
0.233008
0.23301
0.23301
0.23301
0.23301
0.23301
0.23301
0.23301
0.23301
0.23301
0.23301
0.23301
0.23301
0.23301
0.23301
0.23301
0.23301
0.23301
0.23301
0.23301
0.23301
0.23301
0.23301
0.23301
0.23301
0.233007
0.232989
0.232917
0.23277
0.232586
0.232404
0.232232
0.232071
0.23194
0.2319
0.23186
0.231874
0.231839
0.232003
0.23193
0.231989
0.231913
0.231979
0.231897
0.231981
0.231887
0.232003
0.231893
0.232052
0.231921
0.232135
0.231978
0.232264
0.232075
0.232452
0.232229
0.232446
0.232798
0.232464
0.232513
0.232986
0.232871
0.233009
0.233002
0.23301
0.23301
0.23301
0.23301
0.23301
0.23301
0.23301
0.23301
0.23301
0.23301
0.23301
0.23301
0.23301
0.23301
0.23301
0.23301
0.23301
0.23301
0.23301
0.23301
0.23301
0.23301
0.23301
0.23301
0.233008
0.232989
0.232902
0.232715
0.232486
0.232276
0.2321
0.231973
0.23189
0.231844
0.231844
0.231824
0.23182
0.231797
0.231797
0.231851
0.231815
0.231831
0.231786
0.231813
0.231758
0.231804
0.231736
0.231812
0.231726
0.231845
0.231739
0.231913
0.231778
0.232029
0.231858
0.232208
0.231996
0.232206
0.232597
0.232231
0.232288
0.23294
0.232713
0.233008
0.232986
0.23301
0.23301
0.23301
0.23301
0.23301
0.23301
0.23301
0.23301
0.23301
0.23301
0.23301
0.23301
0.23301
0.23301
0.23301
0.23301
0.23301
0.23301
0.23301
0.23301
0.23301
0.23301
0.23301
0.23301
0.233008
0.23299
0.2329
0.23268
0.232414
0.232189
0.232043
0.23195
0.231891
0.231856
0.231824
0.231838
0.231803
0.231817
0.231772
0.231789
0.231764
0.231764
0.231728
0.231722
0.231693
0.231677
0.231666
0.231636
0.231656
0.231605
0.231671
0.231595
0.231721
0.231615
0.231817
0.231674
0.231979
0.23179
0.231982
0.23238
0.232012
0.232072
0.232842
0.232515
0.233005
0.232948
0.23301
0.23301
0.23301
0.23301
0.23301
0.23301
0.23301
0.23301
0.23301
0.23301
0.23301
0.23301
0.23301
0.23301
0.23301
0.23301
0.23301
0.23301
0.23301
0.23301
0.23301
0.23301
0.23301
0.233008
0.232993
0.232903
0.232672
0.232371
0.232171
0.232049
0.231966
0.231915
0.231906
0.231925
0.231988
0.231842
0.23188
0.231821
0.231864
0.231782
0.23183
0.231731
0.23175
0.231683
0.2317
0.231633
0.231646
0.231589
0.231595
0.231558
0.231551
0.231548
0.231521
0.231571
0.231515
0.231642
0.231543
0.231778
0.231624
0.231786
0.23217
0.231819
0.231881
0.232693
0.232316
0.232997
0.232875
0.23301
0.23301
0.23301
0.23301
0.23301
0.23301
0.23301
0.23301
0.23301
0.23301
0.23301
0.23301
0.23301
0.23301
0.23301
0.23301
0.23301
0.233009
0.233009
0.233009
0.233009
0.233009
0.233008
0.232998
0.232911
0.232676
0.232368
0.232184
0.232082
0.232018
0.23199
0.232015
0.232048
0.232122
0.232049
0.232124
0.231918
0.231981
0.231891
0.231961
0.23184
0.231915
0.23173
0.231778
0.231673
0.231716
0.231615
0.231651
0.231563
0.231592
0.231522
0.23154
0.231497
0.231501
0.231496
0.231482
0.231529
0.231487
0.231621
0.231525
0.231636
0.23198
0.231671
0.231719
0.231824
0.232521
0.232131
0.232976
0.232755
0.23301
0.23301
0.23301
0.23301
0.23301
0.23301
0.23301
0.23301
0.23301
0.23301
0.23301
0.23301
0.23301
0.23301
0.23301
0.233009
0.233008
0.233007
0.233006
0.233006
0.233007
0.233007
0.233
0.23293
0.232689
0.232378
0.232217
0.23215
0.232139
0.232174
0.232234
0.232339
0.2322
0.232313
0.232207
0.232294
0.232039
0.232122
0.232
0.232093
0.231935
0.232032
0.231775
0.231848
0.231706
0.231775
0.23164
0.231703
0.231579
0.231638
0.23153
0.23158
0.231494
0.231533
0.231478
0.2315
0.231486
0.231485
0.231533
0.231494
0.231506
0.231596
0.231549
0.231756
0.231933
0.231805
0.231635
0.231578
0.23156
0.231664
0.232348
0.231863
0.231939
0.232097
0.232941
0.232634
0.23301
0.23301
0.23301
0.23301
0.23301
0.23301
0.23301
0.23301
0.23301
0.23301
0.23301
0.23301
0.23301
0.233009
0.233007
0.233004
0.233001
0.232999
0.232999
0.233
0.233002
0.233
0.232948
0.232722
0.232399
0.232252
0.232211
0.23227
0.232394
0.23251
0.232586
0.23255
0.232644
0.23238
0.23247
0.232387
0.23248
0.232191
0.23229
0.232136
0.232245
0.232053
0.232163
0.231857
0.23195
0.231781
0.231867
0.231706
0.231776
0.231639
0.231693
0.231584
0.231626
0.231546
0.231585
0.231521
0.231539
0.231561
0.231492
0.231502
0.231537
0.231517
0.2315
0.231519
0.231508
0.231498
0.231528
0.2317
0.231745
0.231597
0.231555
0.23154
0.231623
0.232027
0.232333
0.232143
0.231802
0.231873
0.232934
0.232272
0.232441
0.232655
0.23301
0.23301
0.23301
0.23301
0.23301
0.23301
0.23301
0.23301
0.23301
0.23301
0.23301
0.233009
0.233007
0.233002
0.232993
0.232983
0.232976
0.232976
0.232982
0.23299
0.232995
0.232957
0.232764
0.232436
0.23228
0.232256
0.232362
0.232553
0.232731
0.23281
0.23285
0.232722
0.232813
0.232567
0.232647
0.232569
0.23266
0.232356
0.232466
0.232277
0.232393
0.232151
0.232255
0.231957
0.232052
0.231848
0.231921
0.231742
0.231795
0.23166
0.231685
0.231603
0.231597
0.231572
0.231575
0.231571
0.231557
0.231554
0.231564
0.231566
0.231571
0.231508
0.231525
0.231558
0.231544
0.231505
0.231514
0.231513
0.231515
0.231524
0.231656
0.231697
0.231572
0.231535
0.231547
0.231594
0.231961
0.23207
0.231749
0.231814
0.232627
0.232988
0.23287
0.232202
0.232373
0.23301
0.23301
0.23301
0.23301
0.23301
0.23301
0.23301
0.23301
0.23301
0.23301
0.233009
0.233004
0.232993
0.232971
0.232943
0.232924
0.232921
0.232935
0.232959
0.23298
0.232959
0.232801
0.232482
0.232303
0.232282
0.232409
0.232624
0.232829
0.232919
0.232948
0.232935
0.232969
0.23286
0.232906
0.232739
0.232804
0.232714
0.232794
0.232508
0.232617
0.232361
0.23247
0.232175
0.232272
0.231998
0.232084
0.231849
0.231904
0.2317
0.231706
0.231568
0.231519
0.231532
0.231495
0.231456
0.231408
0.231566
0.23155
0.231519
0.231476
0.23156
0.231551
0.231563
0.231549
0.231532
0.231549
0.231552
0.231557
0.231522
0.231521
0.231529
0.231538
0.23153
0.231622
0.231657
0.231562
0.231539
0.23155
0.231579
0.231896
0.231999
0.231703
0.231761
0.232598
0.232996
0.232879
0.23213
0.232307
0.23301
0.23301
0.23301
0.23301
0.23301
0.23301
0.23301
0.23301
0.23301
0.233008
0.233
0.232979
0.232938
0.232888
0.232853
0.232846
0.232866
0.232902
0.232942
0.232952
0.232824
0.232532
0.232326
0.232297
0.232415
0.232631
0.232843
0.232952
0.232985
0.232996
0.232978
0.232991
0.232936
0.232961
0.232856
0.232902
0.23277
0.232843
0.232577
0.232679
0.232373
0.232478
0.232102
0.232187
0.231964
0.232028
0.231712
0.231725
0.231464
0.231419
0.231366
0.231322
0.231289
0.231258
0.231425
0.231368
0.231311
0.231257
0.231517
0.231469
0.231412
0.231347
0.231535
0.231523
0.231493
0.231476
0.231551
0.231553
0.231513
0.231543
0.231544
0.231536
0.231548
0.231552
0.231543
0.231602
0.23163
0.231562
0.23155
0.231558
0.231577
0.231835
0.231929
0.231666
0.231714
0.232574
0.233
0.232882
0.232056
0.232239
0.23301
0.23301
0.23301
0.23301
0.23301
0.23301
0.23301
0.23301
0.233007
0.232996
0.232963
0.2329
0.232826
0.232773
0.232759
0.232784
0.232833
0.232888
0.232925
0.23283
0.232575
0.232349
0.232306
0.232408
0.232616
0.232827
0.232954
0.232994
0.233004
0.233001
0.233006
0.232989
0.232997
0.232961
0.232978
0.232898
0.232935
0.232775
0.232847
0.232584
0.232685
0.232282
0.232387
0.231845
0.23192
0.231749
0.231788
0.231397
0.231395
0.231192
0.231203
0.231209
0.231174
0.231155
0.231152
0.23128
0.231216
0.231159
0.231117
0.231415
0.231346
0.231271
0.231198
0.231461
0.231433
0.231391
0.231361
0.231549
0.231534
0.231433
0.231494
0.231553
0.231552
0.231553
0.231547
0.231556
0.231593
0.231613
0.231567
0.231561
0.231566
0.231579
0.231778
0.231864
0.231642
0.23168
0.232535
0.233001
0.232872
0.231982
0.232159
0.23301
0.23301
0.23301
0.23301
0.23301
0.23301
0.23301
0.233007
0.232992
0.232948
0.232863
0.232764
0.232692
0.232665
0.232693
0.232756
0.232827
0.232876
0.232825
0.2326
0.232371
0.232307
0.232387
0.232572
0.232774
0.23294
0.232995
0.233006
0.233008
0.233002
0.233006
0.23299
0.232997
0.232963
0.232979
0.232901
0.232938
0.232708
0.232794
0.232497
0.232606
0.232014
0.232126
0.231479
0.231538
0.23141
0.231438
0.231227
0.231261
0.231132
0.231153
0.231198
0.231174
0.231097
0.231093
0.231099
0.231113
0.231131
0.231081
0.231056
0.23105
0.231281
0.2312
0.231124
0.231062
0.231352
0.231309
0.231261
0.231222
0.231522
0.231477
0.231316
0.231407
0.231544
0.231555
0.231542
0.231515
0.231557
0.231593
0.231609
0.231573
0.23156
0.231566
0.231581
0.231731
0.231803
0.231628
0.231658
0.232464
0.232996
0.232814
0.231906
0.232058
0.23301
0.23301
0.23301
0.23301
0.23301
0.23301
0.233006
0.23299
0.232936
0.23283
0.232707
0.232612
0.232571
0.232596
0.232671
0.232757
0.23282
0.232801
0.232602
0.232384
0.232307
0.232358
0.232515
0.232709
0.232901
0.23299
0.233006
0.233009
0.233006
0.233008
0.233
0.233004
0.232984
0.232994
0.232945
0.232969
0.232861
0.23291
0.232513
0.232632
0.232252
0.232383
0.23162
0.231731
0.231328
0.231347
0.231285
0.231309
0.231219
0.231239
0.231287
0.231156
0.231193
0.231266
0.231231
0.231055
0.231069
0.231091
0.23112
0.231028
0.231016
0.231016
0.23103
0.231136
0.231062
0.23101
0.23099
0.231218
0.231168
0.231121
0.231081
0.231462
0.231383
0.23118
0.231284
0.231508
0.231543
0.231505
0.231451
0.231545
0.231593
0.231608
0.231573
0.23155
0.231557
0.231581
0.231697
0.231753
0.231623
0.231644
0.232315
0.232962
0.232668
0.231832
0.23194
0.23301
0.23301
0.23301
0.23301
0.23301
0.233007
0.23299
0.23293
0.232807
0.23266
0.232541
0.232481
0.232496
0.232576
0.232675
0.232753
0.232752
0.232596
0.232385
0.232304
0.232332
0.232463
0.232649
0.232859
0.232981
0.233006
0.233009
0.233009
0.233005
0.233007
0.232995
0.233001
0.23296
0.232982
0.23288
0.232927
0.232734
0.232817
0.23218
0.232341
0.231868
0.232019
0.231373
0.231417
0.231324
0.231321
0.231309
0.231321
0.231295
0.231311
0.231461
0.231469
0.231242
0.231295
0.231387
0.231344
0.231055
0.231091
0.231137
0.231189
0.230984
0.230991
0.231014
0.231051
0.23101
0.230973
0.230959
0.230958
0.231079
0.231034
0.230992
0.230971
0.231362
0.231256
0.231042
0.231146
0.231442
0.231505
0.231438
0.231345
0.231509
0.231591
0.231605
0.231566
0.231517
0.231528
0.231577
0.231675
0.231716
0.231621
0.231639
0.232091
0.232563
0.232167
0.23177
0.231828
0.23301
0.23301
0.23301
0.23301
0.233007
0.23299
0.232929
0.232795
0.232627
0.232485
0.232403
0.232401
0.232471
0.232575
0.23267
0.232686
0.232574
0.232379
0.232297
0.232309
0.232418
0.232595
0.232817
0.232969
0.233004
0.233009
0.23301
0.233008
0.233009
0.233002
0.233006
0.232979
0.232995
0.232904
0.23295
0.232745
0.232836
0.232493
0.23263
0.231776
0.231959
0.231492
0.231614
0.231319
0.231324
0.231466
0.231417
0.231469
0.231467
0.231499
0.231422
0.231447
0.231598
0.231602
0.231359
0.231424
0.231529
0.231481
0.231101
0.231159
0.231224
0.231292
0.230973
0.231004
0.231051
0.231108
0.230945
0.230932
0.230936
0.230959
0.230956
0.230941
0.230915
0.230919
0.231233
0.231117
0.23093
0.231007
0.231334
0.231439
0.231329
0.231214
0.231446
0.231588
0.231603
0.231542
0.23146
0.231479
0.231557
0.231661
0.231692
0.231617
0.231635
0.231864
0.231952
0.23183
0.231724
0.231747
0.23301
0.23301
0.23301
0.233008
0.232994
0.232931
0.232794
0.232613
0.23245
0.232348
0.232324
0.232366
0.232459
0.232558
0.232592
0.232519
0.232363
0.232285
0.23229
0.232382
0.232551
0.23278
0.232957
0.233002
0.233009
0.23301
0.23301
0.233007
0.233008
0.232997
0.233003
0.232947
0.23298
0.232798
0.232888
0.232519
0.232674
0.232151
0.232342
0.231458
0.231595
0.231338
0.231378
0.231369
0.231331
0.231658
0.231627
0.231616
0.231599
0.231583
0.231689
0.231716
0.231566
0.231588
0.231737
0.231743
0.231481
0.231554
0.23167
0.231618
0.231174
0.231246
0.231323
0.231403
0.230996
0.231047
0.231106
0.231173
0.230911
0.230918
0.230947
0.230988
0.230895
0.230895
0.230874
0.230891
0.231092
0.230978
0.230877
0.23091
0.231203
0.231334
0.231199
0.231074
0.231346
0.231576
0.231593
0.231503
0.231365
0.231395
0.231527
0.231655
0.231675
0.23161
0.231629
0.23174
0.231786
0.231716
0.231695
0.231703
0.23301
0.23301
0.233009
0.232997
0.23294
0.232799
0.232611
0.232435
0.232322
0.232277
0.232286
0.232345
0.232427
0.232469
0.232422
0.232323
0.232268
0.232273
0.232355
0.232518
0.23275
0.232946
0.233
0.233009
0.23301
0.23301
0.233009
0.23301
0.233005
0.233007
0.232985
0.233
0.23289
0.232953
0.232632
0.232785
0.232222
0.232439
0.231783
0.231998
0.231338
0.231397
0.231313
0.231315
0.231526
0.231441
0.23179
0.231739
0.231843
0.231779
0.231742
0.231734
0.231827
0.231854
0.231709
0.231728
0.23187
0.231876
0.231591
0.231674
0.231801
0.231745
0.231246
0.231326
0.231412
0.231501
0.231039
0.231096
0.231159
0.231227
0.230905
0.230937
0.230979
0.231027
0.230861
0.230874
0.230862
0.230894
0.230955
0.230894
0.230849
0.230862
0.231059
0.231202
0.23105
0.230942
0.231213
0.231552
0.231574
0.231432
0.23124
0.231281
0.231473
0.231649
0.231667
0.231602
0.231621
0.231693
0.232026
0.231727
0.231677
0.231683
0.23301
0.233009
0.233001
0.232955
0.232817
0.232617
0.232437
0.232321
0.232264
0.232246
0.232262
0.232307
0.232335
0.232314
0.23227
0.232247
0.232256
0.232338
0.232498
0.23273
0.232937
0.232999
0.233009
0.23301
0.23301
0.23301
0.233008
0.233009
0.233002
0.233006
0.232966
0.232992
0.232805
0.23291
0.232419
0.23264
0.231913
0.232168
0.231508
0.231684
0.231324
0.231348
0.231373
0.231334
0.231724
0.231667
0.231636
0.231936
0.231895
0.231991
0.231933
0.231877
0.231871
0.231969
0.23199
0.231841
0.23186
0.231994
0.232
0.231679
0.231774
0.231916
0.231854
0.231303
0.231386
0.231479
0.231578
0.23108
0.231136
0.231196
0.231262
0.230927
0.230969
0.231014
0.231062
0.230851
0.230884
0.230873
0.230918
0.23088
0.230849
0.230836
0.230836
0.230929
0.231052
0.230923
0.230868
0.231069
0.231513
0.23155
0.231332
0.231103
0.231155
0.23139
0.231641
0.23166
0.23158
0.231611
0.231686
0.232465
0.231863
0.231669
0.231676
0.233009
0.233005
0.232971
0.232848
0.232645
0.23246
0.23234
0.232271
0.232242
0.232231
0.232235
0.232242
0.232238
0.232227
0.232222
0.232246
0.232335
0.232494
0.232725
0.232932
0.232998
0.233009
0.23301
0.23301
0.23301
0.23301
0.233007
0.233009
0.232998
0.233005
0.232939
0.23298
0.232698
0.232852
0.232198
0.232472
0.231688
0.231922
0.231408
0.231518
0.231398
0.231383
0.23153
0.231444
0.231866
0.231789
0.231819
0.231888
0.232075
0.232038
0.232149
0.232099
0.232004
0.232002
0.232102
0.232118
0.231959
0.231981
0.232106
0.232114
0.231742
0.231849
0.232012
0.231941
0.231338
0.231426
0.231524
0.231632
0.23111
0.231162
0.23122
0.231287
0.230959
0.231001
0.231042
0.231085
0.230857
0.230908
0.23089
0.230948
0.230835
0.230821
0.230837
0.230819
0.230854
0.230926
0.230849
0.230823
0.23094
0.231452
0.231507
0.231216
0.230968
0.231017
0.231292
0.231635
0.231653
0.231555
0.231595
0.2317
0.232707
0.232066
0.231663
0.231676
0.233007
0.232982
0.232887
0.232687
0.232516
0.232401
0.23231
0.232257
0.232233
0.232221
0.232212
0.232206
0.232202
0.232211
0.232248
0.23234
0.232501
0.232733
0.232932
0.232998
0.233009
0.23301
0.23301
0.23301
0.23301
0.233009
0.233008
0.23301
0.233007
0.232992
0.233003
0.232906
0.232966
0.232588
0.232787
0.232047
0.232324
0.231616
0.231804
0.231409
0.231484
0.231568
0.231523
0.231784
0.23166
0.232039
0.231968
0.231971
0.232069
0.232213
0.232186
0.2323
0.232264
0.23212
0.232122
0.232229
0.232234
0.232062
0.232089
0.232203
0.232218
0.231796
0.231916
0.232097
0.232019
0.231364
0.231453
0.231557
0.231673
0.231128
0.231178
0.231234
0.231298
0.230987
0.231023
0.231059
0.231096
0.230869
0.230929
0.230906
0.230965
0.230805
0.230802
0.230844
0.230815
0.230818
0.23085
0.230817
0.230792
0.230859
0.231372
0.231451
0.231091
0.230876
0.230923
0.231178
0.231624
0.231647
0.231517
0.231565
0.231748
0.232927
0.232413
0.231662
0.231684
0.232995
0.232912
0.232749
0.232565
0.232476
0.232397
0.232323
0.232268
0.232237
0.232218
0.232207
0.232204
0.232217
0.232262
0.232362
0.232528
0.232766
0.232939
0.232999
0.233009
0.23301
0.23301
0.23301
0.23301
0.23301
0.233008
0.233009
0.233009
0.233006
0.232986
0.233
0.232878
0.232951
0.232531
0.232741
0.232013
0.232273
0.231635
0.231794
0.231511
0.231543
0.231852
0.231759
0.232098
0.232022
0.231993
0.232215
0.23215
0.232197
0.23228
0.232341
0.232325
0.232443
0.232421
0.232226
0.232232
0.232346
0.232343
0.23215
0.232182
0.232298
0.232317
0.23182
0.231955
0.232179
0.232081
0.231373
0.231462
0.231567
0.231688
0.231137
0.231184
0.231237
0.2313
0.231
0.231033
0.231067
0.2311
0.230882
0.230941
0.230914
0.230973
0.230786
0.230794
0.230858
0.230821
0.230781
0.230818
0.230773
0.23077
0.230823
0.231281
0.231376
0.230966
0.230842
0.230847
0.23104
0.231613
0.231645
0.231463
0.231536
0.231863
0.232999
0.232746
0.231664
0.231707
0.232953
0.232785
0.232627
0.23253
0.232487
0.232459
0.232395
0.232316
0.232266
0.232239
0.232232
0.23225
0.232306
0.232416
0.232595
0.232822
0.232957
0.233001
0.233009
0.23301
0.23301
0.23301
0.23301
0.23301
0.23301
0.233007
0.233008
0.233009
0.233005
0.232983
0.232998
0.23287
0.232946
0.232528
0.232732
0.232056
0.232286
0.231761
0.231875
0.231721
0.231714
0.232248
0.232097
0.232314
0.2322
0.232273
0.23235
0.232388
0.232342
0.232403
0.232466
0.23246
0.232456
0.23257
0.23256
0.23233
0.232338
0.232457
0.232453
0.232241
0.232274
0.232393
0.232414
0.231824
0.231967
0.232226
0.232105
0.231373
0.23146
0.231564
0.231687
0.231139
0.231182
0.231231
0.231288
0.231004
0.231035
0.231065
0.231095
0.230887
0.230943
0.230917
0.230972
0.230773
0.230798
0.23086
0.230829
0.230758
0.230772
0.230741
0.230758
0.230778
0.231147
0.231274
0.23088
0.230801
0.230827
0.230932
0.231596
0.231643
0.231397
0.231495
0.23201
0.233009
0.232916
0.231669
0.231736
0.232862
0.232664
0.232587
0.232553
0.232578
0.23257
0.23251
0.232427
0.232361
0.232329
0.232343
0.232408
0.232528
0.232703
0.232877
0.232974
0.233004
0.233009
0.23301
0.23301
0.23301
0.23301
0.23301
0.23301
0.23301
0.233009
0.23301
0.233007
0.233008
0.233005
0.232982
0.232998
0.232875
0.232946
0.232572
0.23275
0.232186
0.232369
0.231986
0.232053
0.232015
0.231983
0.232454
0.232601
0.23253
0.232507
0.232539
0.232458
0.232572
0.232541
0.23251
0.232596
0.232633
0.232563
0.232569
0.232637
0.232647
0.232431
0.232445
0.232556
0.232538
0.232318
0.232366
0.232458
0.232484
0.231803
0.231952
0.232236
0.232104
0.231355
0.231439
0.231544
0.231667
0.231127
0.231164
0.231204
0.231251
0.230999
0.231028
0.231051
0.231076
0.230869
0.230942
0.230891
0.230966
0.230775
0.230799
0.230829
0.230812
0.230736
0.230727
0.230712
0.23074
0.230721
0.231016
0.231147
0.230856
0.230731
0.230765
0.230873
0.231578
0.231635
0.231303
0.231448
0.232307
0.23301
0.23298
0.231673
0.231808
0.232745
0.232618
0.232605
0.232658
0.232703
0.232688
0.232639
0.232583
0.232541
0.232535
0.23258
0.23268
0.232816
0.232929
0.232988
0.233006
0.233009
0.23301
0.23301
0.23301
0.23301
0.23301
0.23301
0.23301
0.233009
0.23301
0.23301
0.233007
0.233008
0.233005
0.232983
0.232998
0.232895
0.232953
0.23266
0.232797
0.232381
0.23251
0.232281
0.232299
0.232373
0.232306
0.232702
0.232784
0.232691
0.232753
0.232806
0.232705
0.232657
0.232762
0.232657
0.232654
0.232724
0.232718
0.232598
0.232618
0.232639
0.232663
0.232504
0.232523
0.23258
0.232556
0.232345
0.232415
0.232467
0.232496
0.231719
0.231869
0.232192
0.232041
0.231305
0.231368
0.231465
0.231582
0.2311
0.231127
0.231156
0.231188
0.230971
0.230997
0.231016
0.231036
0.230785
0.230906
0.2308
0.23092
0.230758
0.230772
0.230785
0.230764
0.230711
0.230699
0.230695
0.230724
0.230693
0.230918
0.231032
0.230813
0.230693
0.230704
0.230847
0.23155
0.231631
0.231215
0.231381
0.232525
0.233004
0.232997
0.231685
0.231867
0.23268
0.232628
0.232698
0.232782
0.232807
0.232795
0.232772
0.232745
0.232735
0.232762
0.232825
0.232904
0.232968
0.232998
0.233008
0.23301
0.23301