/*--------------------------------*- C++ -*----------------------------------*\
  =========                 |
  \\      /  F ield         | OpenFOAM: The Open Source CFD Toolbox
   \\    /   O peration     | Website:  https://openfoam.org
    \\  /    A nd           | Version:  dev
     \\/     M anipulation  |
\*---------------------------------------------------------------------------*/
FoamFile
{
    version     2.0;
    format      ascii;
    class       volScalarField;
    location    "2500";
    object      omega;
}
// * * * * * * * * * * * * * * * * * * * * * * * * * * * * * * * * * * * * * //

dimensions      [0 0 -1 0 0 0 0];

internalField   nonuniform List<scalar> 
9851
(
1.2578
1.27364
1.21823
1.18849
1.36401
1.09906
1.087
1.3751
1.29202
1.03055
1.03736
1.3414
1.36411
1.1494
1.01381
1.01379
1.25594
1.38791
1.27688
1.05839
1.00672
1.00193
1.15293
1.3806
1.34914
1.13944
1.02328
1.0016
0.991151
1.08041
1.34955
1.37425
1.23851
1.05321
1.00683
0.998003
0.98374
1.03642
1.28114
1.38138
1.3157
1.11173
1.01658
0.996888
0.995675
0.979932
1.0069
1.19537
1.37465
1.35367
1.19058
1.03709
0.998216
0.989505
0.994141
0.978471
0.989865
1.10855
1.35164
1.3681
1.26725
1.07867
1.00351
0.984472
0.984271
0.993118
0.979644
0.980753
1.05518
1.30462
1.37456
1.31966
1.14204
1.0171
0.984366
0.97596
0.980641
0.992322
0.982192
0.975059
1.01957
1.23078
1.37245
1.34852
1.21172
1.04608
0.987087
0.970216
0.970164
0.978141
0.991682
0.985893
0.97383
0.997438
1.15098
1.35846
1.36312
1.27164
1.09564
0.99584
0.966873
0.960942
0.965793
0.976151
0.991253
0.991356
0.977205
0.987065
1.08327
1.32477
1.36992
1.31517
1.15622
1.01525
0.968132
0.954349
0.954934
0.962367
0.974746
0.990946
0.999016
0.985445
0.985539
1.04514
1.2702
1.36995
1.34132
1.21422
1.05259
0.973471
0.948803
0.945551
0.950149
0.95991
0.973757
0.990709
1.00092
0.991349
0.990145
1.02397
1.20337
1.36365
1.35586
1.26374
1.1019
0.986489
0.949084
0.937783
0.939312
0.946698
0.958142
0.973016
0.990535
1.03423
1.01085
0.992033
1.01582
1.13913
1.34489
1.36099
1.30156
1.15523
1.01283
0.952112
0.932266
0.929785
0.934725
0.94419
0.956799
0.972462
0.99042
1.29434
1.24444
1.00651
1.00617
1.09329
1.30796
1.36575
1.32604
1.20258
1.05147
0.960448
0.930086
0.921576
0.92393
0.931302
0.942265
0.95581
0.972039
0.990344
1.07918
1.77629
1.21081
1.00884
1.05872
1.26138
1.36369
1.34293
1.24328
1.09626
0.977765
0.93155
0.916066
0.914285
0.919531
0.928872
0.940862
0.955067
0.971764
0.990298
1.00153
1.53439
1.6344
1.1129
1.03335
1.20273
1.35555
1.3523
1.27634
1.14036
1.00615
0.936571
0.911804
0.905904
0.908963
0.916462
0.92711
0.939792
0.954537
0.971584
0.990285
0.973216
1.11434
1.56682
1.43598
1.06186
1.12214
1.33417
1.35698
1.3024
1.18119
1.04136
0.947802
0.912196
0.89957
0.899279
0.905085
0.914235
0.925672
0.938997
0.954181
0.971497
0.990298
0.975082
0.977651
1.32062
1.51779
1.22573
1.09546
1.29586
1.35689
1.32343
1.21347
1.08085
0.967177
0.914844
0.894652
0.890941
0.894819
0.902235
0.912472
0.924646
0.938492
0.953987
0.971493
0.99034
0.975377
0.933793
1.04861
1.42285
1.4136
1.13984
1.21931
1.3515
1.336
1.24387
1.11838
0.993973
0.921294
0.893401
0.884415
0.885615
0.891353
0.900254
0.911162
0.92398
0.938175
0.953906
0.971596
0.990418
0.974023
0.925517
0.947763
1.21863
1.41204
1.27185
1.18819
1.33401
1.34207
1.26958
1.15186
1.02616
0.934043
0.894637
0.879481
0.877377
0.881607
0.888868
0.898643
0.910298
0.923565
0.937999
0.953953
0.97176
0.990531
0.972806
0.926815
0.917062
1.027
1.34476
1.37178
1.22634
1.29779
1.34055
1.29336
1.18121
1.05947
0.953212
0.898387
0.876135
0.870167
0.87254
0.878369
0.886997
0.897533
0.909789
0.923337
0.937973
0.954186
0.972032
0.990702
0.971864
0.927365
0.90548
0.945578
1.2025
1.36794
1.30837
1.28197
1.33408
1.30977
1.20513
1.09163
0.977754
0.90624
0.876479
0.864905
0.864339
0.868838
0.876175
0.885777
0.896859
0.909524
0.923264
0.938175
0.95459
0.972456
0.990957
0.971043
0.926963
0.901538
0.915395
1.05062
1.32606
1.36336
1.3045
1.32782
1.31582
1.23019
1.1195
1.00598
0.919381
0.878488
0.860944
0.857532
0.860231
0.866359
0.87489
0.884958
0.896501
0.90945
0.923411
0.938603
0.955137
0.973107
0.991366
0.970254
0.926135
0.900261
0.904733
0.969525
1.23529
1.36444
1.35162
1.33084
1.31793
1.25188
1.14357
1.03502
0.937351
0.88327
0.860558
0.852266
0.852642
0.857475
0.864896
0.873923
0.884337
0.896417
0.90963
0.923851
0.939204
0.955901
0.9741
0.992027
0.969485
0.925255
0.900146
0.900984
0.933129
1.11966
1.3437
1.38473
1.34746
1.32304
1.2701
1.16565
1.06126
0.959563
0.892016
0.861598
0.848361
0.846248
0.849297
0.855693
0.863726
0.873014
0.884079
0.896548
0.910056
0.924501
0.940065
0.957091
0.975497
0.99303
0.968718
0.92447
0.900368
0.899376
0.918333
1.0271
1.29103
1.39154
1.38073
1.33459
1.28458
1.18453
1.08492
0.983244
0.90431
0.864395
0.846491
0.840911
0.84194
0.847059
0.85426
0.862655
0.872586
0.884087
0.896967
0.910835
0.925482
0.94138
0.958881
0.977508
0.994456
0.967985
0.92383
0.900552
0.898602
0.912163
0.979203
1.21668
1.38221
1.40489
1.35972
1.29794
1.20284
1.10493
1.00697
0.919832
0.869687
0.84687
0.83709
0.835853
0.839116
0.845397
0.853148
0.862093
0.872563
0.884552
0.897932
0.912166
0.927012
0.943237
0.961539
0.980633
0.99643
0.967315
0.923439
0.900883
0.898573
0.909544
0.954583
1.13272
1.35581
1.42048
1.38878
1.31498
1.22066
1.12228
1.02896
0.938096
0.877414
0.848291
0.834503
0.831119
0.832491
0.837307
0.844404
0.852581
0.862129
0.873074
0.885688
0.899532
0.914289
0.929474
0.946095
0.965367
0.985438
0.999466
0.966741
0.923371
0.901487
0.899313
0.908938
0.942643
1.06373
1.30931
1.41985
1.41309
1.34101
1.23863
1.13831
1.04853
0.957751
0.888013
0.851445
0.834378
0.827497
0.827254
0.830481
0.836605
0.844121
0.852744
0.862692
0.874318
0.887599
0.902018
0.917314
0.933022
0.950545
0.971254
0.991906
1.00231
1.00213
0.966328
0.923645
0.90246
0.900766
0.909516
0.93783
1.02257
1.2566
1.41117
1.42752
1.37248
1.25988
1.15413
1.06529
0.977473
0.901063
0.856582
0.835046
0.825161
0.823336
0.825226
0.830149
0.836813
0.844568
0.853411
0.863992
0.876463
0.890842
0.906281
0.922268
0.938636
0.957906
0.980553
0.999656
0.996285
1.00392
1.00442
0.966107
0.924285
0.903871
0.902623
0.911192
0.937947
0.999419
1.19689
1.39063
1.43743
1.39864
1.28686
1.17127
1.08036
0.995746
0.915762
0.863293
0.836803
0.824023
0.820542
0.821606
0.825218
0.831049
0.837927
0.845582
0.854775
0.866427
0.880277
0.896066
0.912534
0.929317
0.946453
0.968267
0.961853
0.993592
0.972578
0.988219
1.00311
1.00177
1.00537
1.00801
0.966092
0.92528
0.905605
0.904701
0.913369
0.939976
0.985903
1.14009
1.35975
1.4395
1.4191
1.31857
1.19098
1.09449
1.01249
0.931078
0.871345
0.839681
0.824327
0.818873
0.819404
0.822103
0.826859
0.833109
0.839982
0.847387
0.857014
0.869993
0.885802
0.903383
0.921658
0.940692
0.956828
0.953522
0.967594
0.999886
0.983769
0.995779
1.00849
1.0088
1.00736
1.01261
0.966286
0.92653
0.907571
0.907021
0.915921
0.943084
0.978644
1.09521
1.326
1.43654
1.43243
1.35164
1.21506
1.1086
1.02752
0.946641
0.880468
0.842993
0.825223
0.818278
0.818224
0.820881
0.824849
0.830212
0.836386
0.843192
0.85147
0.863272
0.879909
0.900511
0.922117
0.942157
0.953359
0.954326
0.963333
0.962502
0.978537
1.00858
0.990723
1.00668
1.0158
1.0186
1.00968
1.01819
0.966685
0.92798
0.909659
0.909501
0.918746
0.946135
0.975016
1.06629
1.29161
1.42872
1.44093
1.38183
1.24224
1.12446
1.04118
0.961956
0.890843
0.847004
0.826794
0.818521
0.817941
0.821072
0.825272
0.830419
0.836222
0.842747
0.850839
0.862995
0.881044
0.904726
0.930024
0.952367
0.957649
0.966562
0.963388
0.967295
0.975552
0.97609
0.987501
1.02018
1.00234
1.02002
1.02505
1.03112
1.01242
1.02474
0.967224
0.92953
0.911734
0.912039
0.921735
0.949314
0.973609
1.04657
1.25336
1.41724
1.44849
1.40492
1.27287
1.1424
1.05421
0.976776
0.902495
0.852022
0.828341
0.819099
0.818315
0.821945
0.826948
0.832261
0.837864
0.844346
0.853271
0.868126
0.893265
0.930765
0.977717
1.017
0.988145
1.04548
0.979003
1.01195
0.980108
0.994846
0.987921
0.992441
1.00228
1.03477
1.01932
1.03671
1.03583
1.04578
1.01559
1.03239
0.967803
0.930988
0.913632
0.914483
0.924798
0.952604
0.973807
1.03267
1.21455
1.40334
1.45509
1.4229
1.30645
1.16316
1.06699
0.99111
0.915186
0.858186
0.829767
0.819529
0.81891
0.823838
0.830625
0.837123
0.843498
0.851791
0.865961
0.893285
0.945702
1.03619
1.17311
1.35162
1.18259
1.51989
1.10168
1.32468
1.04121
1.17585
1.01125
1.07532
1.00668
1.02909
1.02366
1.05154
1.04214
1.0595
1.04858
1.06199
1.01928
1.04123
0.968284
0.932157
0.91511
0.91664
0.927778
0.955955
0.975018
1.02332
1.17966
1.38864
1.46129
1.43844
1.33859
1.18735
1.08059
1.00498
0.928612
0.865484
0.831063
0.819391
0.81922
0.826232
0.836426
0.847142
0.857062
0.874269
0.910248
0.984192
1.12196
1.3662
1.75703
2.32023
2.11631
3.31346
1.82697
2.81627
1.51438
2.2407
1.27002
1.76353
1.11476
1.38484
1.04938
1.15749
1.07085
1.07294
1.09108
1.10638
1.06313
1.07858
1.02349
1.0516
0.968489
0.932797
0.915905
0.918245
0.930455
0.959277
0.977524
1.01744
1.15209
1.37525
1.46777
1.45245
1.36918
1.21491
1.09514
1.018
0.942906
0.874331
0.832719
0.818344
0.818939
0.828256
0.842839
0.86082
0.887322
0.933131
1.0403
1.25513
1.60662
2.1515
3.04309
4.31547
4.39788
5.53045
4.1939
5.37846
3.56863
5.02697
2.78974
4.38661
2.06889
3.44563
1.51799
2.42094
1.20244
1.65672
1.24256
1.11316
1.26925
1.27356
1.07629
1.10894
1.02827
1.06148
0.968202
0.932673
0.915796
0.918989
0.932549
0.962358
0.980239
1.01411
1.1332
1.36424
1.47479
1.46579
1.39608
1.24381
1.1124
1.03056
0.957838
0.884973
0.835831
0.817028
0.817469
0.829244
0.848946
0.877422
0.934069
1.07146
1.36825
1.90655
2.72274
3.70568
4.68339
5.67888
6.00001
6.48499
6.16431
6.56931
6.06294
6.65025
5.7964
6.64357
5.20473
6.47367
4.15991
5.96849
2.8047
4.87449
1.79239
3.17963
1.89941
1.24867
1.95172
1.92215
1.09234
1.20017
1.03321
1.0659
0.967413
0.931478
0.914392
0.918654
0.933753
0.964938
0.982772
1.01237
1.12154
1.3549
1.48383
1.48253
1.42021
1.27442
1.13175
1.04404
0.973387
0.897932
0.841138
0.816154
0.814904
0.829085
0.854487
0.89557
0.994669
1.28352
1.93789
2.95385
4.07975
4.94419
5.58001
6.24434
6.59369
6.75489
6.82536
6.92751
6.95799
7.13181
7.08743
7.3333
7.14668
7.50277
7.06516
7.60815
6.65263
7.58787
5.54144
7.25092
3.51235
6.11397
3.75502
1.79567
3.85379
3.74732
1.14277
1.5927
1.03396
1.08493
0.965359
0.928946
0.911022
0.916688
0.933822
0.966791
0.984738
1.01168
1.11412
1.34725
1.49594
1.50323
1.4438
1.30666
1.15359
1.05886
0.989757
0.913839
0.84951
0.816201
0.812491
0.827889
0.858782
0.912144
1.06191
1.54188
2.57187
3.97744
4.9964
5.52865
5.94172
6.35254
6.88229
6.98122
7.04491
7.22974
7.29171
7.48432
7.58838
7.71834
7.87226
7.91641
8.13022
8.05201
8.34459
8.06228
8.49019
7.76439
8.50363
6.57213
8.20443
6.90713
3.39511
7.07159
6.95191
1.36057
2.82226
1.02926
1.16771
0.963106
0.926549
0.905739
0.912383
0.93233
0.96767
0.98596
1.01162
1.10978
1.34266
1.51231
1.52827
1.46925
1.33897
1.17796
1.07534
1.00776
0.934
0.862292
0.818416
0.811509
0.826287
0.861172
0.924673
1.12142
1.80082
3.23295
4.77965
5.48581
5.75904
5.96878
6.30515
6.81401
7.37131
7.3801
7.33681
7.35841
7.66678
7.73126
7.99304
8.0917
8.29868
8.43991
8.57027
8.76071
8.79059
9.03796
8.9289
9.25376
8.92366
9.37218
8.58483
9.32515
8.91436
6.38452
9.1778
9.32471
2.12536
5.33315
1.04814
1.51911
0.970955
0.933572
0.906088
0.907887
0.928292
0.967339
0.986377
1.0118
1.10832
1.34317
1.53342
1.55851
1.49828
1.37216
1.2053
1.09405
1.02786
0.958338
0.881167
0.826612
0.812404
0.825547
0.86195
0.930482
1.15663
2.02265
3.78044
5.27411
5.71859
5.80016
5.92148
6.17964
6.73972
7.37786
7.35693
7.82031
7.81362
7.78092
7.80983
8.17037
8.22955
8.55596
8.64353
8.92164
9.05302
9.25356
9.44033
9.53455
9.78526
9.7373
10.0659
9.81946
10.2438
9.71276
10.2665
10.0814
9.23844
10.4089
10.6649
3.93219
8.53546
1.15453
2.52604
0.994293
0.974909
0.930273
0.910494
0.925971
0.964925
0.985777
1.012
1.1092
1.34657
1.55933
1.59465
1.53222
1.40778
1.23607
1.11564
1.05047
0.987383
0.908511
0.846767
0.818974
0.826621
0.862719
0.932737
1.16426
2.14648
4.18956
5.56513
5.8317
5.79413
5.82136
6.0856
6.65958
7.33339
7.2794
7.79225
7.74645
8.24644
8.20513
8.26381
8.26315
8.70069
8.72576
9.14787
9.2001
9.59005
9.69514
10.006
10.1856
10.3687
10.6383
10.6403
11.0157
10.769
11.2599
10.7141
11.3083
11.1457
10.8101
11.5419
11.8781
6.82061
10.7663
1.49878
4.5048
1.00611
1.0515
1.01141
0.942852
0.932272
0.965718
0.984848
1.01264
1.11161
1.35491
1.59026
1.63686
1.57222
1.44726
1.27089
1.14067
1.07747
1.02407
0.948997
0.881678
0.839881
0.83423
0.866441
0.937433
1.16047
2.16151
4.42246
5.74343
5.89672
5.78521
5.7837
6.07094
6.61766
7.2937
7.67886
7.60691
8.13504
8.03884
8.60641
8.50029
8.71769
8.68165
9.21038
9.18867
9.74621
9.74314
10.3088
10.3656
10.8599
11.0152
11.3557
11.6358
11.7348
12.1699
11.9142
12.5214
11.8544
12.5882
12.3815
12.1462
12.8553
13.2482
9.94201
12.2979
2.40757
7.48432
1.07389
1.12513
1.06311
0.976738
0.974303
0.986568
1.01445
1.11607
1.36758
1.62543
1.68527
1.61906
1.49222
1.31036
1.17024
1.11113
1.07014
1.00531
0.934548
0.88089
0.859685
0.882538
0.951513
1.1512
2.13771
4.46731
5.85163
5.93636
5.78611
5.78359
6.08484
6.58302
7.04604
7.57032
7.37096
7.90155
7.73147
8.36272
8.18333
8.86663
8.68506
9.12645
9.01359
9.70419
9.60945
10.3577
10.3002
11.0911
11.0843
11.8369
11.9454
12.5288
12.7884
13.0815
13.5421
13.3483
14.0723
13.2698
14.1868
13.9014
13.5417
14.4485
14.8537
12.1625
13.7324
4.45013
10.6906
1.13183
1.20246
1.12338
1.01652
0.995657
1.01923
1.12446
1.38216
1.66434
1.73876
1.67347
1.54376
1.35611
1.20499
1.15114
1.12378
1.07639
1.01201
0.954835
0.924029
0.933763
0.993735
1.16002
2.05615
4.43456
5.89882
5.96361
5.79055
5.79619
6.12058
6.52808
6.81704
7.17622
7.03252
7.54712
7.30624
7.97797
7.76527
8.46301
8.22149
9.03879
8.77771
9.45711
9.26506
10.1741
9.98417
11.0175
10.868
11.9531
11.886
12.9374
12.974
13.8721
14.065
14.6622
15.0774
15.0924
15.8642
15.0267
16.092
15.7494
15.1151
16.3674
16.7269
15.8456
13.7993
15.2303
8.32342
13.3782
1.20231
1.29788
1.15484
1.03186
1.03216
1.13666
1.40488
1.70406
1.7967
1.73482
1.6029
1.40926
1.24618
1.19729
1.1893
1.17354
1.14052
1.10618
1.07947
1.07578
1.11243
1.2324
1.98733
4.31063
5.90244
5.9777
5.78976
5.80774
6.10075
6.40598
6.66163
6.6555
7.07996
6.7858
7.41074
7.10924
7.97009
7.69803
8.48609
8.17841
9.16443
8.8278
9.74695
9.47207
10.6496
10.3781
11.7303
11.5036
12.919
12.7856
14.1372
14.1152
15.3297
15.4295
16.4185
16.6867
17.0714
17.7973
17.1261
17.981
17.391
16.9634
17.7839
16.8977
16.0168
16.956
17.5628
18.5096
18.2188
17.7725
15.2227
17.0147
16.9717
16.0197
12.5098
15.2453
1.31795
1.38968
1.142
1.06529
1.16008
1.432
1.74914
1.85677
1.8024
1.66901
1.47059
1.29469
1.24823
1.27382
1.32114
1.37617
1.44192
1.48418
1.4798
1.44812
1.47034
1.99893
4.07808
5.88591
5.97843
5.78468
5.80366
6.03156
6.22734
6.3514
6.23009
6.17244
5.9543
6.81437
6.49235
7.1458
6.7774
7.85168
7.50571
8.47355
8.09526
9.3449
8.94202
10.066
9.7208
11.227
10.9077
12.5905
12.3554
14.0417
13.9515
15.457
15.497
16.7942
16.8783
18.0892
17.7559
17.7849
18.3731
18.7384
18.9845
18.9027
18.6352
18.4471
19.1465
19.0257
18.9274
17.8998
17.9593
18.7381
19.6909
19.3497
18.9393
16.9484
15.9153
16.8658
17.9559
17.9033
15.9927
16.8442
17.0484
16.3041
1.48879
1.388
1.14846
1.19673
1.47491
1.79478
1.92083
1.87341
1.74151
1.53992
1.35078
1.30638
1.38528
1.54165
1.7621
1.98989
2.11843
2.12425
2.05001
1.98419
2.18334
3.87608
5.82938
5.97276
5.77058
5.79401
5.97634
6.06409
5.87444
5.40119
4.9861
5.69157
5.22741
6.40869
6.03533
6.80592
6.35253
7.68742
7.25602
8.51832
8.08179
9.76968
9.33506
10.5562
10.177
12.0901
11.794
13.8594
13.7516
15.6278
15.8505
17.1152
17.6521
17.8044
17.9415
18.1396
18.5074
18.9475
18.9637
18.473
18.4269
19.3405
19.4984
19.4643
19.5208
19.6421
19.609
20.1921
19.9487
20.1062
19.0661
19.1123
19.982
20.5524
20.9576
20.2098
17.8362
17.7563
19.0768
18.988
17.7228
16.1677
20.6049
17.7871
18.0833
1.62601
1.34123
1.25411
1.53267
1.84966
1.98431
1.94821
1.81832
1.61669
1.41464
1.37256
1.52951
1.83943
2.24666
2.57989
2.70321
2.68831
2.6011
2.50906
2.60175
3.7733
5.68576
5.95213
5.74793
5.77362
5.96978
5.98433
5.50887
4.55389
4.21489
4.53269
4.19762
5.13622
4.77104
5.91515
5.50594
6.65536
6.14979
7.62881
7.15295
8.87241
8.37796
10.7199
10.2846
11.4695
11.1132
13.6107
13.4136
16.1001
16.2378
18.4306
19.2319
18.9598
19.586
20.2499
21.0124
18.5571
18.8735
19.3614
20.0286
19.4017
19.4449
18.9785
19.1659
20.0621
20.0455
19.8317
19.9245
20.5167
20.7302
21.065
20.6134
21.2579
20.36
20.4156
21.3072
21.7465
22.2017
21.577
18.8781
18.7922
20.37
20.2424
19.5708
15.2499
23.8425
18.8567
19.3962
1.65157
1.37956
1.5925
1.90548
2.05207
2.02294
1.89936
1.69884
1.48558
1.44435
1.68569
2.17599
2.73972
3.09383
3.18176
3.13866
3.04239
2.9456
2.98748
3.76798
5.46891
5.89942
5.7165
5.75567
5.98066
5.97678
5.38629
4.08939
3.67972
3.77922
4.28532
4.03662
4.86275
4.54807
5.66485
5.23388
6.72723
6.1684
7.85096
7.29653
9.80608
9.28018
12.4496
11.9873
13.1593
12.8379
16.2345
16.07
19.8298
20.0026
21.6772
22.3294
22.7741
23.1742
20.843
21.7715
22.7336
23.6526
19.5682
20.2157
21.0835
22.1287
19.8774
19.7033
20.2012
20.2421
20.5474
20.3554
20.2853
20.2349
21.1464
21.6057
21.6714
21.0306
22.1346
21.7585
21.8295
22.6049
22.6383
23.1289
22.9331
20.0799
19.9709
21.7839
21.6264
22.2025
14.7984
28.3741
20.0951
21.1169
1.67677
1.64457
1.97915
2.11348
2.09952
1.9812
1.7859
1.56282
1.51448
1.83908
2.49315
3.17637
3.4941
3.54118
3.46945
3.36383
3.27135
3.29546
3.83532
5.23625
5.78264
5.66692
5.72552
6.01856
6.00618
5.40754
3.98775
3.37117
3.43421
3.82119
3.59122
4.2408
4.00559
4.81734
4.50308
5.65117
5.19767
7.41687
6.74233
8.70367
8.07891
11.4589
10.8643
14.8864
14.3042
15.7822
15.3808
19.8349
19.4083
24.4873
24.1428
24.4487
25.0715
25.4368
25.5243
23.2931
24.4814
25.6041
26.5775
21.0511
22.1256
23.4044
24.7971
20.6795
20.8686
21.4749
21.8657
20.7688
20.6216
21.1377
20.6776
21.5039
22.1968
21.9754
21.1796
22.7162
23.1591
23.2556
23.5916
23.234
23.7534
24.0029
21.4233
21.311
23.1992
23.0458
25.2721
15.0344
34.3077
21.5336
22.9857
1.80616
2.02392
2.18386
2.17167
2.06375
1.87555
1.6441
1.58067
1.96557
2.7778
3.52034
3.78616
3.79339
3.70231
3.58926
3.50136
3.52618
3.93684
5.03048
5.61449
5.59535
5.70841
6.07548
6.09709
5.54499
4.08768
3.20412
3.19087
3.39878
3.84716
3.66835
4.33914
4.07732
5.03801
4.65204
6.09607
5.5183
8.73728
7.94181
10.2062
9.49462
13.6509
12.9291
17.489
16.7178
18.8472
18.2072
23.3791
22.4624
27.8286
27.3585
26.0937
26.8183
27.3373
27.8497
28.0873
28.0767
26.2031
27.5196
28.6613
29.5553
23.1478
24.6529
26.2677
27.8766
22.064
22.6512
23.4162
24.1452
21.007
21.062
22.6317
21.5792
21.5951
22.4676
22.0216
21.3933
22.9876
24.3309
24.5317
24.2518
23.5344
24.1055
24.7097
22.8421
22.7329
24.5479
24.4112
28.9561
19.2182
42.6619
22.9774
24.7498
2.10537
2.23827
2.24221
2.14365
1.96511
1.72983
1.63785
2.05456
2.99134
3.77213
3.9912
3.96843
3.86631
3.74574
3.66216
3.69629
4.0269
4.86121
5.41484
5.49566
5.68463
6.12287
6.21083
5.78454
4.3928
3.14705
3.0061
3.16541
3.60528
3.39846
4.03804
3.78537
4.7046
4.33845
5.70288
5.15163
7.13581
6.37031
10.4673
9.5688
12.1494
11.3253
15.8986
15.032
19.6316
18.6805
21.4872
20.5745
25.4848
24.6822
23.9385
29.4913
28.7381
26.9809
27.8745
30.154
30.4088
30.3831
30.0676
29.3812
30.6908
31.7327
32.449
25.8672
27.6856
29.4857
31.1654
24.1593
25.1132
26.055
27.0388
21.4412
22.0188
24.8894
23.1828
21.7896
22.4943
22.2059
21.8226
23.0027
25.1196
25.4347
24.673
23.5447
24.1554
25.1925
24.1965
24.0615
25.6209
25.6022
31.8487
29.0062
47.6573
24.2197
25.8872
2.30034
2.30751
2.21802
2.05432
1.8168
1.69267
2.08953
3.12442
3.94122
4.13478
4.09567
3.97398
3.83759
3.76894
3.81611
4.09632
4.71931
5.21302
5.38457
5.64813
6.17488
6.3149
6.0031
4.74709
3.171
2.86784
2.97344
3.22037
3.72606
3.52416
4.36143
4.01317
5.35587
4.80624
6.80482
6.02046
8.63157
7.68974
12.284
11.3209
14.1365
13.2185
17.7231
16.75
20.7489
19.8404
22.7262
21.7013
26.0828
25.2648
24.5899
23.8183
30.728
29.6007
27.2269
28.4048
32.7668
32.7506
32.3977
31.6873
32.6428
33.8427
34.7074
35.1347
29.0473
31.0194
32.8662
34.5068
26.973
28.1679
29.2658
30.3494
22.4438
23.7328
27.8823
25.6109
22.2141
22.6495
22.6265
22.8589
23.1269
25.6583
26.0506
24.8037
23.6641
24.2613
25.4574
25.3912
25.1589
26.3578
26.4934
32.0182
54.1321
45.8048
24.9738
26.0236
2.36948
2.28838
2.13748
1.9072
1.74025
2.09144
3.1668
4.04557
4.22979
4.18139
4.02544
3.87753
3.82731
3.88711
4.13298
4.59402
5.02243
5.27069
5.64855
6.2175
6.40581
6.18336
5.07134
3.27141
2.7751
2.80386
2.98323
3.44299
3.22189
3.93129
3.63724
4.82286
4.30798
6.30097
5.48888
8.24208
7.23014
10.3219
9.28671
13.8318
12.8622
15.7779
14.8032
18.9173
17.9612
21.2354
20.4184
23.36
22.7276
22.0931
26.2009
25.3248
24.2941
23.7385
31.5271
30.0048
27.1237
28.4817
35.1808
34.8307
34.0635
32.9215
35.8817
36.9224
37.5341
37.6657
32.4846
34.4853
36.2975
37.8566
30.346
31.6077
32.8397
33.8916
24.2698
26.3276
31.433
28.7933
23.269
23.0543
23.6577
24.7807
23.5289
26.0419
26.5153
24.9148
24.0744
24.6833
25.5946
26.3743
25.8207
26.9049
27.1593
30.5364
56.5314
39.913
25.1859
25.7093
2.35862
2.21392
1.99671
1.79088
2.0625
3.15986
4.08648
4.29384
4.23572
4.03132
3.88464
3.84761
3.91511
4.14453
4.50773
4.88052
5.2048
5.66527
6.25793
6.47576
6.31901
5.3309
3.43115
2.71657
2.66995
2.79178
3.03315
3.50176
3.30129
4.17367
3.79371
5.46258
4.71624
7.52022
6.41947
9.79954
8.66861
11.8846
10.8713
14.9813
14.0195
16.9742
15.9718
19.5429
18.6542
21.6129
21.1016
20.6232
23.2697
22.8332
21.8865
22.2839
25.9616
25.0235
23.8054
23.3309
32.0427
30.099
26.6559
28.2348
37.488
36.7091
35.496
33.8998
39.1071
39.9725
40.2901
40.2681
36.0516
38.0304
39.791
41.2668
34.085
35.2766
36.6599
37.5844
27.0326
29.7005
35.3642
32.5351
25.2012
24.0786
25.6704
27.6322
24.5983
26.2999
26.9378
25.3319
25.1518
25.5918
26.0197
26.9995
26.1366
27.3764
27.6035
28.7726
62.9458
42.7936
25.0847
25.3921
2.29982
2.07447
1.85068
1.9952
3.08003
4.08916
4.32368
4.26118
4.01812
3.87778
3.84932
3.92744
4.15695
4.49019
4.84721
5.20535
5.70673
6.29712
6.5224
6.41001
5.52064
3.62191
2.68541
2.56561
2.63428
2.79313
3.17817
2.97874
3.61834
3.34884
4.50019
3.97396
6.30735
5.26423
8.86754
7.5623
11.1639
10.0806
13.0832
12.146
15.829
14.8709
17.7302
16.79
19.7981
18.937
21.514
21.2446
20.7364
20.352
22.9601
22.6216
21.7401
21.9104
25.3973
24.4675
23.1248
22.7007
32.545
30.1535
26.0845
27.9697
39.7353
38.5919
36.9577
34.8883
42.4038
43.0533
43.2017
43.0617
39.7457
41.7017
43.4141
44.8263
38.1173
39.1458
40.7747
41.4796
30.5543
33.626
39.6661
36.6835
28.3994
26.2947
29.3023
31.6734
26.8299
26.7052
27.3438
26.0827
26.8928
26.9552
26.6501
27.4067
26.2886
27.7503
28.0316
29.1955
73.2557
57.1843
25.0461
25.8633
2.17697
1.90529
1.91235
2.89736
4.05557
4.33122
4.26353
3.97416
3.85016
3.84496
3.95692
4.19072
4.50813
4.86424
5.23844
5.77687
6.32979
6.54421
6.45642
5.63341
3.77369
2.67181
2.48101
2.51232
2.61471
2.79323
3.17417
2.99767
3.73365
3.4158
4.92086
4.20733
7.30503
5.96278
10.0867
8.75853
12.1442
11.1933
13.9355
13.0336
16.2783
15.3932
18.0516
17.1645
20.1057
19.5306
18.9634
21.0261
20.9256
20.1828
20.1213
22.369
22.1025
21.1075
21.232
24.699
23.7553
22.5243
22.0408
33.4239
30.5031
25.8104
27.8905
42.2338
40.8036
38.8051
36.2909
45.8842
46.3907
46.4936
46.2262
43.6547
45.6175
47.3333
48.739
42.5565
43.3367
45.3663
45.7463
35.0585
38.3468
44.5872
41.5228
32.702
29.5912
32.8
36.0626
29.243
27.1996
27.7412
27.0235
28.9203
28.5104
27.2447
27.6381
26.4858
28.22
28.3003
34.3335
79.3263
69.6571
25.4974
27.7727
2.00637
1.8809
2.57898
3.96282
4.32103
4.26206
3.91298
3.80614
3.82735
4.00961
4.28771
4.57981
4.93046
5.3298
5.88237
6.34159
6.54392
6.46291
5.66988
3.83724
2.66
2.40843
2.40933
2.47062
2.58817
2.78327
3.21447
3.00736
3.87823
3.48177
5.4288
4.48739
8.30792
6.75259
10.9992
9.79558
12.7894
11.9424
14.5093
13.6373
16.3918
15.5541
18.1052
17.2428
19.9266
19.6519
18.3892
18.9701
20.2344
20.1976
19.3503
19.3379
21.6848
21.3954
20.2759
20.4123
24.2467
23.1993
22.3138
21.7307
35.0721
31.6144
25.8704
28.4353
45.2869
43.6093
41.2949
38.3942
49.7748
50.2509
50.3514
50.0236
48.0171
50.0861
51.8932
53.3643
47.638
48.0967
50.7042
50.7494
39.2803
42.4073
49.1445
45.6612
36.083
32.3618
35.8847
39.4019
31.9815
27.7106
28.2632
28.2864
31.4978
31.1013
28.4098
27.8771
27.0977
28.6212
28.6919
42.145
71.3605
67.4983
26.8521
32.3224
1.86752
2.38124
3.68823
4.28792
4.25708
3.87713
3.74014
3.79818
4.03321
4.39004
4.71508
5.06684
5.47977
5.97175
6.33379
6.5217
6.43613
5.64537
3.80973
2.63252
2.34434
2.31407
2.34937
2.42621
2.54567
2.86529
3.01602
2.67664
3.24761
4.04725
3.56604
5.96865
4.80933
9.13836
7.5082
11.4888
10.4876
13.11
12.3177
14.7301
13.9142
16.2881
15.4937
17.833
17.0896
19.3249
19.235
18.4095
18.5457
19.4461
19.3687
18.552
18.4607
21.2389
20.7399
19.6499
20.0059
24.1119
23.0203
22.3776
21.7067
37.3003
33.3167
26.5501
29.6019
48.9003
47.0144
44.3785
41.0752
54.473
54.9829
55.0952
54.717
53.3008
55.6189
57.6419
59.3101
52.9873
53.8602
57.0238
57.0786
43.047
47.2844
57.8941
52.1785
40.0515
36.0974
41.5839
45.0276
36.3546
28.7576
29.1629
30.9559
36.5328
36.8832
31.0291
28.4712
28.0458
29.4729
29.631
49.4623
53.3511
67.167
30.0096
37.4978
2.04795
3.4616
4.18268
4.24562
3.8744
3.6235
3.73992
4.02582
4.41838
4.79692
5.17806
5.58162
5.97347
6.29053
6.4577
6.33438
5.50237
3.63701
2.57063
2.28222
2.22838
2.24619
2.28887
2.36874
2.49677
3.02953
2.83563
2.67679
3.28758
4.23781
3.65919
6.48119
5.15246
9.56417
8.07293
11.6445
10.7375
13.2001
12.433
14.7305
13.9681
15.838
15.127
17.5033
16.9433
16.4439
18.4692
18.5316
17.6522
17.6276
19.0484
18.7254
18.2947
17.9579
21.1534
20.5447
19.4839
19.9415
24.4368
23.1275
22.88
22.0222
40.4134
35.8403
27.7873
31.4809
53.4099
51.3086
48.4012
44.6703
60.5912
61.1403
61.2875
60.8806
60.2452
63.1829
65.7348
67.787
64.1076
61.2914
70.1804
65.9364
51.0713
58.4806
77.6392
67.2296
48.7954
43.5484
53.8739
58.34
45.5915
31.1251
31.2921
37.2366
48.2766
50.9651
37.0501
29.4176
30.1741
31.5381
31.1315
54.4767
27.1674
69.2123
33.1837
42.9384
2.85682
4.07058
4.20115
3.88387
3.51777
3.59469
3.96602
4.39597
4.80129
5.1922
5.57221
5.91989
6.18758
6.32366
6.1215
5.11921
3.34294
2.47065
2.21595
2.15178
2.15389
2.16761
2.22515
2.30952
2.45505
3.04174
2.82969
2.65529
3.32925
4.40645
3.75229
6.74044
5.3965
9.65637
8.25832
11.6411
10.7645
13.1283
12.4077
14.448
13.8032
14.8892
14.4097
16.8468
16.8066
15.3008
15.8152
17.7007
17.5878
16.8059
16.9206
19.0384
18.5721
18.3346
17.9607
21.3618
20.6213
19.587
20.22
25.3057
23.7006
23.7788
22.7988
44.8898
39.6503
29.8393
34.5757
59.3517
57.0201
53.8321
49.6528
69.3156
69.9936
70.2244
69.7915
70.7216
75.0219
78.6531
81.4448
91.4338
76.6234
105.794
83.9202
69.4827
84.8632
148.958
108.981
66.9297
59.3005
78.223
82.7379
68.0675
36.6672
36.1922
51.1669
71.428
70.512
49.5573
31.8501
32.4209
34.5812
34.9768
62.868
11.3436
61.5798
37.5098
48.0536
3.69993
4.14359
3.88767
3.47584
3.39779
3.70176
4.18309
4.65763
5.07816
5.45269
5.77
5.99816
6.06278
5.71534
4.49693
3.02919
2.34653
2.14159
2.08099
2.06709
2.06223
2.1026
2.15484
2.24452
2.48808
2.62929
2.33757
3.04438
2.81381
3.34668
4.46068
3.79035
6.77018
5.45087
9.56805
8.23929
11.4627
10.6236
12.7821
12.173
13.8452
13.3077
15.0388
14.0636
13.6405
13.2475
16.0831
15.8791
15.1616
17.499
17.1267
16.3332
16.7435
19.5107
18.7468
18.9309
18.4777
21.9838
21.1891
20.2354
21.1763
26.8331
24.7542
25.1456
24.0699
51.4739
45.4125
33.4469
39.8286
67.8462
65.1071
61.4314
56.7545
83.4404
84.3794
84.8087
84.3937
92.5563
99.0995
104.696
108.002
181.65
123.917
187.574
151.62
106.593
142.073
176.044
178.428
106.073
90.9341
131.925
147.83
95.1053
46.5821
42.4525
68.2033
96.0195
95.1981
64.4993
34.1417
36.4992
42.6915
38.8621
65.236
4.84138
58.5975
41.5025
53.5668
3.94566
3.88521
3.47432
3.27717
3.38211
3.72525
4.20984
4.71124
5.13742
5.44588
5.61509
5.53529
4.95669
3.73271
2.69587
2.21961
2.05878
2.0115
1.98378
1.96983
1.99569
2.02445
2.08202
2.17217
2.60889
2.42565
2.31144
3.04188
2.78887
3.34971
4.45781
3.79534
6.65137
5.4134
9.24786
8.00907
11.0391
10.2469
12.1281
11.663
12.9478
12.5225
14.3875
13.727
13.3708
12.1253
12.5338
15.9271
15.4662
14.9066
17.8117
17.169
16.4101
17.2108
20.7757
19.7455
20.5592
19.7882
23.0013
22.3086
21.6896
22.9773
29.7103
26.4893
27.5051
26.1242
61.4321
53.8785
40.0422
48.53
81.6821
77.7314
72.5037
66.9924
110.328
111.603
112.44
111.573
188.146
185.063
195.637
192.803
469.071
209.777
482.068
223.249
180.032
196.442
484.878
475.096
176.014
139.371
187.158
170.635
142.25
58.682
60.1603
92.8032
143.529
145.306
87.4905
39.6899
40.6121
49.7915
48.4715
71.5857
5.5505
42.9416
45.9696
57.1062
3.82584
3.49223
3.24101
3.19948
3.35251
3.62893
3.99726
4.39368
4.70333
4.81851
4.62759
3.96378
3.03534
2.3919
2.0892
1.97537
1.9396
1.90341
1.8865
1.90014
1.91435
1.94946
2.01239
2.10323
2.5828
2.39841
2.28047
3.02227
2.75929
3.33864
4.39828
3.77565
6.35936
5.26344
8.69395
7.5628
10.3503
9.62232
11.2056
10.8672
11.7598
11.5164
14.3554
13.8432
13.0346
11.9011
12.3349
16.4628
15.5703
15.4824
19.0499
18.0012
17.4793
18.8117
23.0095
21.8942
23.5601
22.1069
24.6756
23.9419
24.2592
25.6234
35.1859
29.9413
32.157
29.7315
77.0455
66.3405
51.7718
61.4037
107.867
101.15
91.0961
81.684
189.903
184.778
176.897
167.351
430.498
449.604
441.93
444.817
874.675
481.077
880.42
481.517
494.344
502.248
883.086
881.274
488.949
193.97
492.695
493.478
198.661
94.6124
71.7657
144.894
205.158
212.536
154.173
43.677
44.0645
66.6391
54.2299
82.5412
152.393
98.5
48.5292
67.155
3.49737
3.24214
3.14903
3.15045
3.22985
3.36368
3.55246
3.72443
3.76412
3.5386
3.04013
2.50414
2.14131
1.96767
1.89358
1.86538
1.82648
1.80873
1.8132
1.81958
1.83909
1.87942
1.94026
2.01657
2.23078
2.53831
2.35484
2.99097
2.71975
3.29715
4.27224
3.71243
5.93539
5.01489
7.9451
6.95531
9.41978
8.77702
10.1092
9.83943
10.817
10.2829
15.4431
15.3703
13.3544
11.6578
12.7811
18.2759
16.7834
17.344
21.2986
19.9758
19.8638
21.5805
26.3079
25.1255
27.6157
25.544
27.6141
26.2787
27.8881
28.9034
44.1316
37.8894
41.1302
35.9379
102.348
86.0726
71.1555
78.8008
159.504
149.902
133.378
106.013
435.855
438.023
430.336
425.633
843.57
852.298
842.575
845.086
2457.52
856.13
2477.23
863.668
891.264
897.839
2443.35
2438.48
896.533
488.25
902.702
897.535
483.822
107.736
100.566