/*--------------------------------*- C++ -*----------------------------------*\
  =========                 |
  \\      /  F ield         | OpenFOAM: The Open Source CFD Toolbox
   \\    /   O peration     | Website:  https://openfoam.org
    \\  /    A nd           | Version:  dev
     \\/     M anipulation  |
\*---------------------------------------------------------------------------*/
FoamFile
{
    version     2.0;
    format      ascii;
    class       volScalarField;
    location    "2500";
    object      p_rgh;
}
// * * * * * * * * * * * * * * * * * * * * * * * * * * * * * * * * * * * * * //

dimensions      [1 -1 -2 0 0 0 0];

internalField   nonuniform List<scalar> 
9851
(
0.00406185
0.00548868
0.00487369
0.00547664
0.00858369
0.00380254
0.00552078
0.010543
0.00894324
0.00288056
0.00506687
0.0108986
0.0118079
0.00783785
0.00214084
0.0043983
0.01039
0.0135082
0.0112289
0.00616403
0.00176805
0.00387988
0.0100868
0.0144672
0.0139773
0.0102587
0.00488466
0.00101776
0.00372896
0.00882108
0.0142424
0.0157914
0.0131289
0.00838661
0.00437728
0.000807649
0.00342271
0.00804193
0.0139369
0.0168223
0.0156744
0.0119835
0.00693041
0.00356315
0.000401205
0.00269549
0.00772456
0.013006
0.0171135
0.0175608
0.0146896
0.0101557
0.00616093
0.00282762
-8.93084e-05
0.00276601
0.00741477
0.0122871
0.0170665
0.0184677
0.0170824
0.0130997
0.00892443
0.0054822
0.00249796
-0.00047389
0.00215685
0.00656537
0.0108737
0.0158346
0.018803
0.0184992
0.0157449
0.0113709
0.0079618
0.00487035
0.00194646
-0.000585606
0.00221885
0.00611589
0.00949268
0.0153777
0.0189905
0.019587
0.0177165
0.0140705
0.0100914
0.00716703
0.00427239
0.00150356
-0.000830456
0.00163509
0.00539578
0.00943377
0.0148331
0.0185747
0.0200625
0.0192653
0.0165077
0.0129267
0.00935338
0.0065094
0.0038724
0.00132501
-0.00120029
0.00150681
0.00499659
0.00844286
0.013075
0.0178608
0.020127
0.020324
0.0182269
0.015131
0.0114637
0.00852753
0.00581795
0.00338794
0.000971617
-0.00130746
0.00105892
0.00383362
0.00726712
0.0125102
0.0171637
0.0198349
0.0208755
0.0196994
0.0169392
0.0136021
0.0104778
0.00776205
0.00527566
0.00310681
0.000710662
-0.00152593
0.000877802
0.00312236
0.00723523
0.0115333
0.0159483
0.0195705
0.0212462
0.0207828
0.0188234
0.0156909
0.0126864
0.00988533
0.00729498
0.00490509
0.00284333
0.000502163
-0.00157352
0.00113284
0.00330156
0.00586721
0.01054
0.0152238
0.0189414
0.0211621
0.0215517
0.0201358
0.0173584
0.0145117
0.0117517
0.0092091
0.00696317
0.00450013
0.00258214
0.000458161
-0.00174246
0.00319619
0.00401925
0.00537521
0.00998339
0.0139832
0.0179059
0.0207972
0.0219425
0.0211242
0.0190551
0.0161905
0.0134535
0.0109739
0.00866842
0.00653472
0.00421716
0.00220539
0.000229422
-0.00173369
0.00185861
0.00739398
0.00645842
0.0092063
0.0130469
0.0170552
0.0204367
0.0220021
0.021923
0.0202979
0.0178084
0.0150861
0.0123393
0.0101803
0.00824868
0.00596388
0.00426111
0.00226778
0.000232388
-0.00183491
0.00147787
0.00656378
0.00905732
0.0098284
0.0121679
0.0161231
0.0196018
0.021796
0.0223751
0.0213775
0.0192469
0.0165443
0.01426
0.0120124
0.0098315
0.00794193
0.00583144
0.00403302
0.00208164
0.000104563
-0.00183126
0.00134684
0.00489623
0.00951794
0.0114228
0.0118123
0.0150485
0.0187762
0.0214185
0.0224788
0.0221298
0.0203728
0.0180618
0.0156893
0.0131377
0.0111504
0.00959089
0.00753593
0.00566202
0.00380323
0.00213523
0.000169496
-0.00178782
0.00158387
0.00423721
0.00770949
0.0120437
0.0129573
0.0147906
0.0180164
0.0207876
0.022432
0.0225887
0.0214096
0.0192117
0.0168007
0.0148608
0.0125788
0.0108062
0.00923719
0.00745803
0.00570435
0.00389671
0.00206923
0.000104352
-0.0018502
0.00162823
0.00400692
0.00707965
0.0115165
0.0136921
0.0147543
0.0169962
0.0200385
0.0220183
0.022751
0.0221219
0.0203981
0.0182857
0.0159147
0.0141206
0.0121785
0.010526
0.00903749
0.00732407
0.00547258
0.00392497
0.00215927
0.000165534
-0.00178578
0.0016519
0.00366194
0.00615645
0.0102064
0.0135472
0.0150417
0.0165613
0.0196291
0.0216652
0.0227746
0.0225683
0.0212834
0.0196083
0.0174623
0.0154591
0.0139351
0.0121157
0.0102741
0.00885931
0.00726881
0.0055962
0.00394257
0.00216185
0.000400833
-0.00157116
0.00160739
0.00377028
0.00590148
0.00925659
0.0126344
0.01513
0.0165732
0.0191445
0.02103
0.0225583
0.0228252
0.0220682
0.0204508
0.0185813
0.0166297
0.0148714
0.0133946
0.0117362
0.0100612
0.00869441
0.00708405
0.00547803
0.00406872
0.00232741
0.000544563
-0.00152408
0.00155309
0.00361718
0.00556905
0.00857933
0.0117502
0.0146019
0.0165092
0.0186431
0.020536
0.0223521
0.022828
0.02255
0.0210482
0.0195768
0.0177505
0.0159888
0.0145287
0.0131237
0.0115471
0.0099611
0.0085861
0.00714734
0.00563074
0.00405866
0.00248664
0.000617513
-0.00132058
0.00143595
0.00335557
0.00563364
0.00805759
0.0107714
0.01387
0.016522
0.0183734
0.0202179
0.0219629
0.0227538
0.0227312
0.0218509
0.020228
0.0184163
0.0171051
0.015367
0.0141875
0.012769
0.0114082
0.0100737
0.00880502
0.00732617
0.00578584
0.00414749
0.00268538
0.000989913
-0.000935251
0.00142632
0.00346253
0.00555435
0.00750708
0.0100324
0.012721
0.0160056
0.0178713
0.0197436
0.0214128
0.0225566
0.0228161
0.0222574
0.0211324
0.0195806
0.0176947
0.0166725
0.0150498
0.0140186
0.0126424
0.0113287
0.01019
0.0086699
0.00743693
0.00596254
0.00456509
0.00307491
0.00134926
-0.000627007
0.00138222
0.00327438
0.00518388
0.00699906
0.00924799
0.011769
0.0154226
0.017498
0.0192741
0.0210579
0.0222462
0.0227994
0.0225045
0.02162
0.020218
0.0188384
0.0174743
0.01625
0.0150314
0.0138237
0.0127594
0.0114569
0.010237
0.00890417
0.00769279
0.00637987
0.0049614
0.00339034
0.0017348
-0.000319631
0.00128704
0.00309549
0.00483589
0.00673489
0.00873189
0.0111023
0.0145492
0.016924
0.0188345
0.0205874
0.0218413
0.022627
0.0225211
0.0218318
0.0208914
0.0195604
0.0181848
0.0171853
0.0159038
0.0147987
0.0137664
0.0125897
0.0115065
0.0101296
0.00897791
0.00780313
0.00655721
0.00526069
0.00382803
0.00215902
7.62038e-05
0.00128788
0.00308893
0.00467745
0.00626809
0.00822338
0.010593
0.0135032
0.0162166
0.0181785
0.0200444
0.0213706
0.0222976
0.0226519
0.0222583
0.0212039
0.0202527
0.0188515
0.0177548
0.0169624
0.0158261
0.0146614
0.0134636
0.0124535
0.0113573
0.0102887
0.00924104
0.00813972
0.00704747
0.005841
0.00448116
0.00277511
0.000559821
0.00128254
0.00289328
0.00439
0.00585216
0.00759306
0.00949043
0.0121546
0.0153896
0.0175456
0.0195101
0.0208676
0.0220593
0.0224832
0.0222413
0.0217334
0.0207104
0.0196338
0.0185888
0.017624
0.016648
0.0156637
0.0144522
0.0134412
0.0124977
0.0115252
0.0105898
0.00960626
0.00865718
0.00765579
0.00656329
0.00524083
0.00351335
0.00112114
0.00125645
0.00268526
0.00406798
0.00545489
0.0071182
0.00904652
0.0113361
0.0144847
0.0168281
0.0187682
0.0203057
0.0214761
0.0222137
0.0223611
0.0218962
0.0211201
0.0202941
0.019272
0.0183197
0.0173778
0.0162589
0.0153593
0.0144112
0.013543
0.0126535
0.0118132
0.0109486
0.0101165
0.00928331
0.00842114
0.0074205
0.0060763
0.00423025
8.67198e-06
0.00195083
0.00114213
0.0025074
0.00384657
0.0051991
0.00661162
0.0084317
0.0105457
0.0134475
0.0161305
0.0180125
0.0197007
0.0210524
0.0217155
0.0221376
0.0219671
0.0213226
0.0205986
0.019703
0.0188462
0.0180304
0.0170518
0.0161798
0.0153209
0.014509
0.0136838
0.0129108
0.0121568
0.0114376
0.010751
0.0100639
0.00933517
0.00830277
0.00673079
0.00373938
0.00537919
0.000290174
0.00228953
0.00116286
0.00242369
0.00363646
0.00490376
0.0062536
0.00800122
0.0100294
0.0124875
0.0153418
0.0171694
0.0189693
0.0203963
0.0213017
0.021674
0.021892
0.0215482
0.0207646
0.0201193
0.019348
0.0185737
0.017763
0.0169899
0.0161623
0.0153958
0.0146225
0.0139012
0.0132252
0.0126143
0.0120573
0.0115393
0.0109854
0.0102449
0.00837003
0.00938756
0.00689245
0.00837122
0.00832269
0.00413647
0.00586236
0.000594251
0.00270588
0.00102443
0.00223265
0.00344221
0.00464829
0.00593999
0.00756954
0.00943215
0.011776
0.0145255
0.0164249
0.0182334
0.0196629
0.0208895
0.0214428
0.0216982
0.0214292
0.0209756
0.0203271
0.0196017
0.0190566
0.0184068
0.0176962
0.0169726
0.0162128
0.0154758
0.0147953
0.0141739
0.0136381
0.0132005
0.0128211
0.0124554
0.011909
0.0103516
0.0113137
0.00965435
0.0074755
0.00958568
0.00897074
0.00465653
0.00647562
0.000923808
0.00316886
0.000960982
0.00215217
0.00323286
0.00438872
0.00562267
0.00714553
0.0088925
0.0109672
0.0136165
0.0156622
0.0174014
0.0190034
0.0201996
0.0209869
0.0213682
0.0214334
0.0210083
0.0204794
0.0199526
0.0194816
0.0189383
0.0183386
0.0176857
0.0169927
0.0162657
0.0155973
0.0150172
0.0145316
0.0141693
0.0139217
0.0136997
0.0133377
0.0121564
0.0129721
0.0108183
0.0118516
0.0107634
0.00817319
0.0103391
0.00974183
0.00524079
0.00716865
0.00127152
0.00367229
0.000897143
0.0020175
0.00305483
0.00412182
0.0053121
0.00673052
0.00837871
0.0101688
0.0128745
0.0147381
0.0165627
0.0181938
0.0195087
0.0204693
0.0208727
0.0210622
0.0208904
0.0205869
0.0201991
0.0198345
0.0194017
0.0188987
0.0183336
0.017702
0.0170166
0.016348
0.0157644
0.0153162
0.014997
0.0148302
0.0147684
0.0145848
0.0136865
0.0144083
0.0127872
0.0136446
0.0118597
0.012866
0.0115899
0.0089626
0.0111798
0.0106163
0.00588416
0.00793682
0.00163803
0.0042147
0.000815588
0.00186966
0.00286576
0.00388242
0.00499689
0.00632628
0.00788384
0.00946221
0.0120439
0.0138812
0.0158428
0.01741
0.0187774
0.0197162
0.0203775
0.0207083
0.0207535
0.0205691
0.0203303
0.0201005
0.0197912
0.0193597
0.0188925
0.0183412
0.0177112
0.0170601
0.0164759
0.0160156
0.01574
0.0156176
0.0156826
0.0157475
0.0150493
0.0157621
0.0144441
0.0152202
0.0137922
0.0146664
0.0127427
0.013808
0.0124966
0.00983968
0.0121327
0.0115903
0.00658263
0.00877521
0.00202168
0.0047972
0.00073473
0.00173044
0.00267045
0.00364196
0.0046944
0.00593871
0.00740211
0.00884671
0.0112529
0.0131303
0.0149511
0.0165223
0.0179704
0.0189459
0.0197012
0.0201977
0.0204126
0.0204214
0.0203322
0.0202443
0.0201269
0.0198365
0.0193747
0.0188892
0.0183332
0.0177256
0.0171517
0.0167227
0.0164751
0.0164851
0.0167334
0.0171881
0.0165238
0.0176251
0.0160451
0.0170642
0.0155384
0.0165238
0.0148086
0.015827
0.013717
0.0148838
0.0135323
0.0108019
0.0132048
0.0126696
0.00733649
0.0096849
0.00242166
0.00542161
0.000650442
0.00158441
0.00247857
0.00340438
0.00440916
0.00557069
0.0069502
0.00826755
0.0105078
0.0122521
0.0139912
0.0156686
0.0171477
0.0181924
0.018995
0.0195882
0.0199663
0.0201331
0.0201987
0.0202546
0.0203261
0.0202489
0.0199309
0.0194176
0.018886
0.0183415
0.0178227
0.0174875
0.0174458
0.0177995
0.0187351
0.0204695
0.0193683
0.0228656
0.0186108
0.0213566
0.0178536
0.0200587
0.0170411
0.0188311
0.0160871
0.0176002
0.014869
0.016292
0.0147427
0.0118558
0.0144386
0.0138936
0.00815018
0.0106711
0.00284038
0.00609005
0.000558841
0.00142858
0.00227954
0.00317085
0.00412906
0.00522136
0.00651358
0.00775846
0.00963571
0.0113883
0.0131285
0.0148771
0.0163258
0.0173767
0.0182372
0.0189072
0.0193919
0.0197047
0.0199208
0.0201257
0.0203528
0.0205005
0.0204125
0.0200774
0.0195056
0.0189612
0.0186107
0.0185764
0.0191014
0.0205014
0.0231993
0.0283032
0.027958
0.0378166
0.0264657
0.0352988
0.024275
0.0322611
0.0220287
0.0282261
0.0200119
0.0246028
0.0181656
0.0213679
0.016387
0.0186551
0.0163276
0.0130306
0.0160347
0.0154358
0.0090284
0.0117518
0.00327355
0.00679772
0.000465549
0.00127343
0.00208458
0.00293775
0.00385456
0.00488906
0.00610615
0.00726341
0.00902982
0.0106933
0.0122811
0.0140505
0.015425
0.0165351
0.0174143
0.018147
0.0187067
0.019136
0.0194913
0.0198471
0.0202209
0.0205955
0.0207199
0.0206279
0.0203316
0.0199218
0.0197827
0.0206549
0.0227447
0.0263357
0.0326251
0.0434254
0.0470887
0.0600368
0.0466062
0.0589269
0.0440454
0.0576916
0.0397438
0.0546221
0.0335728
0.0487977
0.0277697
0.0402232
0.0227889
0.0313635
0.0189886
0.0240822
0.0190602
0.0144498
0.0187508
0.0179563
0.00997165
0.0129952
0.00371824
0.00754367
0.000371136
0.00110632
0.00188534
0.00269597
0.00358769
0.00456668
0.00570717
0.00683067
0.00833113
0.00989405
0.0114551
0.0132265
0.0145508
0.0156689
0.0165768
0.0173129
0.0179229
0.018435
0.0189089
0.0194062
0.0199381
0.0204859
0.020898
0.0210242
0.0209289
0.0211505
0.0222534
0.0249015
0.0304623
0.0382775
0.0490033
0.0647666
0.07077
0.080475
0.0714128
0.0841775
0.0716983
0.0852891
0.0704176
0.085941
0.066507
0.0843924
0.0591176
0.0793738
0.0477961
0.070102
0.0350747
0.0557002
0.0250756
0.0383964
0.0254986
0.016603
0.0251074
0.0236812
0.0110121
0.0147127
0.00417057
0.00834055
0.000282956
0.000931482
0.00165994
0.00243046
0.00331419
0.00425585
0.00533443
0.00639602
0.00782791
0.00931001
0.0107455
0.0124194
0.0137065
0.0148091
0.0157111
0.0164414
0.0170633
0.0176173
0.0181761
0.0187957
0.0194836
0.0201939
0.0209065
0.0214234
0.0216136
0.0221973
0.025083
0.0317076
0.0412447
0.0536885
0.0674723
0.084471
0.10993
0.0946952
0.110328
0.0980647
0.109993
0.100395
0.113405
0.101087
0.116105
0.0989028
0.11659
0.0927215
0.113565
0.081213
0.105884
0.063204
0.0917361
0.0409089
0.0693433
0.0420641
0.0211797
0.0413189
0.0380815
0.0123017
0.0179252
0.00461711
0.00922539
0.000207704
0.000762884
0.00143666
0.00219173
0.00303732
0.00394917
0.00497133
0.00601127
0.00724035
0.00862613
0.0100277
0.0116628
0.0129033
0.0139763
0.0148483
0.0155542
0.0161497
0.0167032
0.0173045
0.0180138
0.0188431
0.0197293
0.0206292
0.0213761
0.0222082
0.0235016
0.0281064
0.0386354
0.05354
0.0688948
0.0850519
0.104323
0.126911
0.136388
0.143548
0.120481
0.129796
0.124826
0.13467
0.129032
0.139766
0.131765
0.144331
0.131814
0.147015
0.127891
0.146497
0.118306
0.141382
0.100903
0.129477
0.0734926
0.107931
0.0750847
0.0323909
0.0732335
0.0668102
0.0142617
0.0253608
0.00503163
0.010303
0.000152225
0.00060528
0.0011926
0.00190611
0.00272265
0.00363064
0.00460739
0.00560067
0.00681463
0.00813862
0.00941413
0.0109617
0.0121563
0.0131914
0.0140187
0.0146696
0.0152193
0.0157216
0.016317
0.0170666
0.0180112
0.0190628
0.0201371
0.0211922
0.0220828
0.0243683
0.0309731
0.045204
0.0640672
0.0835495
0.102997
0.12189
0.138275
0.146603
0.149106
0.153132
0.15489
0.142671
0.148952
0.148408
0.155037
0.154181
0.161487
0.158966
0.167869
0.161532
0.172946
0.160423
0.17532
0.153722
0.173358
0.138808
0.164617
0.112547
0.145796
0.114277
0.0559276
0.111965
0.104286
0.0183043
0.04201
0.00540401
0.0119936
0.000104862
0.000460086
0.000965421
0.00161654
0.00242695
0.00329198
0.00424241
0.00518298
0.00634119
0.00758076
0.00882368
0.0103098
0.0114718
0.0124741
0.0132501
0.0138289
0.014295
0.0147129
0.0152408
0.0159813
0.0169855
0.0181765
0.019459
0.0206837
0.0218389
0.0243188
0.0327503
0.0504051
0.0730996
0.0950299
0.11435
0.12941
0.140606
0.148998
0.147286
0.154452
0.152819
0.161003
0.158805
0.159678
0.16142
0.166573
0.169029
0.173861
0.17729
0.180847
0.185732
0.186259
0.193448
0.188381
0.198952
0.185112
0.200512
0.173552
0.195407
0.150384
0.180307
0.151763
0.090048
0.148719
0.140098
0.0272858
0.0693956
0.00581728
0.0153969
3.93347e-05
0.000294157
0.000736171
0.00131967
0.00206912
0.00291003
0.00386387
0.00477403
0.00587718
0.00715579
0.00828455
0.00971681
0.0108557
0.0118351
0.0125632
0.0130652
0.0134051
0.0137042
0.0141179
0.0147862
0.0157694
0.0170807
0.0185622
0.0199907
0.0215364
0.0239041
0.0327612
0.0532865
0.0787425
0.101427
0.117625
0.129163
0.137392
0.143048
0.150374
0.146843
0.155926
0.152365
0.162908
0.15862
0.168753
0.166269
0.177574
0.175294
0.187237
0.185577
0.196994
0.196592
0.20554
0.207608
0.211121
0.216874
0.211434
0.222109
0.203795
0.220892
0.18455
0.209977
0.185469
0.125285
0.181974
0.173334
0.0451543
0.102603
0.00682084
0.0228971
8.58232e-05
0.000443021
0.000992502
0.00169011
0.00251902
0.00346433
0.00436182
0.00540302
0.00669942
0.00775406
0.00917165
0.0103125
0.0112797
0.0119731
0.0123941
0.0126264
0.0127531
0.0129835
0.0134986
0.0144242
0.0157942
0.0174266
0.0191016
0.0208139
0.0232803
0.0318791
0.0530054
0.081005
0.100853
0.114143
0.124721
0.132208
0.134986
0.135506
0.127673
0.147617
0.141711
0.152903
0.146123
0.16039
0.152711
0.171433
0.166666
0.181554
0.17655
0.193091
0.187999
0.205414
0.200427
0.217312
0.213717
0.226891
0.226258
0.231513
0.235341
0.228208
0.238764
0.213595
0.233238
0.213938
0.158202
0.210278
0.201731
0.0711458
0.134711
0.00870664
0.0363644
0.00011058
0.000575729
0.00125247
0.00208537
0.0030081
0.00390937
0.00491889
0.0062394
0.00732149
0.00865225
0.00982984
0.0108
0.0114873
0.0118508
0.0119523
0.0119208
0.0119204
0.0122294
0.0130258
0.0143179
0.0160366
0.0179355
0.0197539
0.0223318
0.0303788
0.0512363
0.0790715
0.0967053
0.107914
0.116764
0.122213
0.121729
0.120383
0.112284
0.121779
0.112902
0.138525
0.130338
0.143961
0.134494
0.152331
0.141762
0.170114
0.161857
0.181314
0.172807
0.194075
0.185658
0.207858
0.19969
0.221783
0.21465
0.234022
0.229234
0.242103
0.240714
0.243959
0.247159
0.235749
0.247209
0.235271
0.187137
0.231549
0.22512
0.210048
0.100011
0.163551
0.013105
0.0578575
0.000128978
0.000721334
0.00154594
0.00248983
0.00341293
0.00441106
0.00576291
0.00688174
0.00815604
0.0093728
0.0103775
0.0110975
0.01144
0.0114362
0.0112204
0.0109706
0.0110984
0.0116858
0.0127768
0.0144488
0.0164842
0.0185293
0.0210839
0.0279932
0.0484195
0.0754865
0.0907641
0.0987288
0.102561
0.102197
0.0986154
0.0889275
0.104189
0.0918239
0.104306
0.0943987
0.124559
0.114416
0.130487
0.118811
0.139753
0.126979
0.1629
0.151835
0.175218
0.16356
0.189043
0.176902
0.204446
0.191706
0.220521
0.208215
0.235143
0.22487
0.245419
0.238721
0.250545
0.248376
0.248301
0.251345
0.250399
0.241091
0.247188
0.220124
0.193922
0.212876
0.23677
0.244297
0.246473
0.232984
0.128325
0.20436
0.192656
0.168465
0.0196601
0.0792184
0.000153034
0.000900156
0.00188209
0.0028354
0.00392556
0.00523121
0.00638648
0.00765219
0.0089189
0.00998652
0.0107818
0.0111618
0.0111119
0.0107472
0.0102668
0.0100778
0.0105321
0.0114933
0.012904
0.0149146
0.017096
0.0194934
0.025351
0.043947
0.070912
0.0844449
0.0899479
0.087454
0.079128
0.0704005
0.0635272
0.0666207
0.0570875
0.0847992
0.0750492
0.0842419
0.0738831
0.107003
0.0953749
0.113858
0.100636
0.124057
0.11002
0.151111
0.137861
0.163585
0.149901
0.178175
0.164976
0.194931
0.182406
0.212338
0.200607
0.228093
0.217007
0.240024
0.234019
0.228882
0.250716
0.248108
0.240003
0.244659
0.251987
0.250695
0.251569
0.251056
0.250106
0.227999
0.221489
0.242022
0.247361
0.249026
0.238591
0.179
0.130143
0.160634
0.213076
0.202321
0.0211613
0.13969
0.111665
0.0748371
0.000195569
0.00112215
0.00218327
0.00332245
0.00456092
0.00581332
0.00712571
0.00843524
0.00959994
0.0104951
0.0109771
0.0109575
0.010521
0.00991989
0.0095654
0.00988258
0.0108968
0.0121534
0.0137987
0.0157536
0.0178858
0.0228809
0.0387437
0.06503
0.0787903
0.0825388
0.0759303
0.061974
0.0478209
0.0406163
0.0351378
0.0479329
0.0383907
0.0644181
0.0557524
0.0635106
0.0534311
0.0875946
0.075053
0.0960319
0.0822712
0.110061
0.097054
0.136414
0.123188
0.15236
0.140258
0.170627
0.15914
0.189641
0.179429
0.207554
0.199951
0.224416
0.220674
0.21733
0.215057
0.235453
0.231462
0.230238
0.226233
0.248499
0.244624
0.235894
0.24027
0.251004
0.251303
0.250654
0.248373
0.250531
0.234054
0.228125
0.245194
0.249436
0.247983
0.242253
0.188834
0.171719
0.220459
0.210645
0.0794147
0.00865517
0.0339433
0.150657
0.122664
0.000270565
0.00137116
0.00254344
0.00382247
0.00514766
0.00651844
0.00789536
0.00915952
0.0101944
0.010829
0.0109149
0.0105236
0.00999539
0.00992179
0.0106043
0.0118451
0.0132701
0.0143565
0.0154062
0.0166474
0.0205329
0.0337738
0.0584972
0.0734452
0.0767425
0.0686048
0.0527584
0.0367109
0.0287629
0.0245917
0.0241951
0.0205734
0.0321234
0.0272915
0.0449787
0.0379851
0.0461607
0.0374661
0.0690411
0.0568472
0.0841849
0.0715452
0.10426
0.0921665
0.12834
0.116336
0.148089
0.137608
0.170241
0.162276
0.193913
0.189429
0.213123
0.212423
0.211639
0.21152
0.223354
0.22128
0.22029
0.220392
0.232859
0.23083
0.228562
0.226573
0.244521
0.240176
0.234345
0.23666
0.24807
0.250093
0.247555
0.244213
0.249279
0.238374
0.233284
0.246104
0.248196
0.246839
0.243646
0.198128
0.182247
0.226583
0.217857
0.0842393
0.00692049
0.0327048
0.161569
0.133034
0.000395349
0.00164103
0.00300149
0.00437586
0.00579465
0.00725842
0.00862027
0.0098351
0.0106659
0.0109351
0.010702
0.0104439
0.0108903
0.0121889
0.0137742
0.0151885
0.0159338
0.0163305
0.0166395
0.0184675
0.0296035
0.0518132
0.0683301
0.0718906
0.0644698
0.0488292
0.032694
0.0237539
0.0199143
0.0169196
0.0182698
0.0166753
0.022553
0.0199859
0.0308729
0.0260599
0.0383379
0.030547
0.0593925
0.0481413
0.0800632
0.0680465
0.107104
0.0964452
0.127412
0.117348
0.155257
0.148794
0.185807
0.182492
0.210728
0.210047
0.2084
0.206645
0.221052
0.221992
0.222723
0.22287
0.225994
0.2267
0.228302
0.230361
0.233225
0.230187
0.233944
0.23118
0.240156
0.2374
0.235694
0.235764
0.243719
0.24686
0.243123
0.240231
0.246049
0.240513
0.236375
0.245063
0.245074
0.244051
0.242951
0.206628
0.192032
0.230947
0.223613
0.0878912
0.00489744
0.0313711
0.172242
0.14312
0.000555772
0.00197426
0.00341368
0.00492743
0.00647151
0.00797896
0.00936112
0.0104266
0.0109492
0.010983
0.0111131
0.0121984
0.0141447
0.0160762
0.0174107
0.0179473
0.0176219
0.0172053
0.0176185
0.0263736
0.0456851
0.0633081
0.0680013
0.0614782
0.0468243
0.0312687
0.0214556
0.0177122
0.0155114
0.0144495
0.0138373
0.0156534
0.0148271
0.018474
0.0167843
0.0248923
0.0210423
0.0360562
0.0284966
0.0563942
0.0455453
0.0852797
0.0736448
0.12716
0.117913
0.142315
0.135226
0.178451
0.173899
0.204233
0.195989
0.222222
0.220369
0.217001
0.212276
0.232344
0.233666
0.233958
0.23259
0.233362
0.23629
0.239413
0.241989
0.23758
0.236311
0.241125
0.239828
0.237994
0.236996
0.240675
0.237844
0.240227
0.242541
0.239974
0.238397
0.241939
0.240474
0.237225
0.242691
0.241204
0.24037
0.241088
0.213788
0.200632
0.232837
0.22696
0.0928939
0.000291899
0.0293295
0.182338
0.15376
0.000724045
0.00227506
0.00386211
0.00549849
0.00714612
0.00872605
0.0100425
0.0108759
0.0112559
0.0118483
0.0135711
0.0162066
0.0186053
0.0200634
0.0201158
0.0190806
0.0179346
0.0178427
0.0236862
0.0409401
0.0584212
0.0646896
0.059962
0.0473679
0.0330814
0.0206032
0.0160953
0.0144113
0.0129704
0.0132067
0.0127769
0.014297
0.0135887
0.0169096
0.0153517
0.0230142
0.0193155
0.0401043
0.0315009
0.0618254
0.0504312
0.107316
0.0953576
0.157694
0.150451
0.168903
0.163568
0.188314
0.180864
0.205947
0.199732
0.188563
0.19398
0.229191
0.224385
0.218708
0.212284
0.243423
0.243028
0.240145
0.235494
0.243817
0.247625
0.250429
0.251421
0.245313
0.245694
0.250778
0.250508
0.237998
0.239539
0.248813
0.243264
0.238532
0.239575
0.238373
0.238617
0.238974
0.238773
0.236026
0.239138
0.238138
0.237132
0.23781
0.218979
0.207615
0.232617
0.227787
0.101065
-0.00991029
0.0289358
0.191338
0.166025
0.000886769
0.00256016
0.00430552
0.00607707
0.0078578
0.00944824
0.0106212
0.0113935
0.0124573
0.0148009
0.0180809
0.0210568
0.0228261
0.0226489
0.0209
0.0189777
0.018334
0.0222273
0.0374735
0.0543863
0.0615865
0.059293
0.0490619
0.035826
0.0218865
0.0149692
0.0133826
0.0122619
0.0112974
0.0112577
0.0118662
0.0114997
0.0135328
0.0125659
0.0170857
0.0149511
0.0249543
0.0202718
0.0564155
0.0448123
0.0824106
0.069206
0.141412
0.129986
0.168012
0.164937
0.17575
0.171386
0.184177
0.180507
0.171286
0.198582
0.190433
0.176787
0.183075
0.229659
0.222859
0.215258
0.207139
0.249716
0.245829
0.240426
0.233579
0.254675
0.257307
0.25742
0.254693
0.254943
0.256128
0.260651
0.260401
0.240749
0.24531
0.258186
0.251574
0.238837
0.237919
0.238635
0.241434
0.237166
0.236061
0.233666
0.235838
0.236111
0.234738
0.23429
0.221202
0.211811
0.230426
0.226356
0.118106
-0.0258138
0.0350249
0.198175
0.178201
0.00102969
0.00283487
0.00476431
0.00670975
0.00858062
0.0101073
0.0112841
0.0127703
0.0156345
0.019541
0.0231292
0.0253799
0.0254338
0.0233759
0.0207813
0.0194432
0.0222982
0.0346793
0.0510993
0.0588182
0.0585805
0.0505566
0.0382794
0.0235999
0.0144792
0.0123409
0.0115663
0.0105878
0.0100987
0.00987718
0.0112154
0.0104839
0.0142293
0.0123586
0.0213746
0.0171303
0.0350355
0.0272573
0.0858816
0.0704863
0.116254
0.101404
0.161469
0.156607
0.164425
0.16393
0.167812
0.165707
0.171643
0.167961
0.149196
0.148033
0.184551
0.175213
0.160391
0.167079
0.225258
0.215547
0.205149
0.194656
0.250117
0.244022
0.236001
0.225983
0.262609
0.261598
0.258365
0.25338
0.264067
0.26479
0.267986
0.266221
0.246764
0.253561
0.26641
0.260522
0.241604
0.237977
0.241247
0.247512
0.236887
0.23248
0.229979
0.233066
0.235313
0.233339
0.231046
0.220655
0.212494
0.22695
0.222977
0.143507
-0.00870384
0.098089
0.201272
0.186069
0.00115623
0.0031356
0.00527049
0.00737997
0.00927438
0.0108468
0.0126974
0.0159149
0.020336
0.0245359
0.0273936
0.028045
0.0264083
0.0236335
0.021568
0.0234732
0.0331406
0.0482453
0.056479
0.0576641
0.051609
0.0403611
0.0253294
0.0142503
0.0116136
0.0107949
0.0101378
0.00881358
0.00899372
0.00937678
0.00897205
0.0114416
0.0100977
0.0180343
0.0139216
0.0325545
0.0241556
0.0560401
0.0432488
0.121919
0.104644
0.149004
0.137305
0.163499
0.162657
0.147703
0.152203
0.14796
0.148686
0.144303
0.155174
0.15141
0.132861
0.132332
0.168052
0.157921
0.142561
0.149349
0.214874
0.203146
0.191083
0.179241
0.246345
0.237236
0.226059
0.21426
0.264462
0.260639
0.255262
0.247099
0.269898
0.268388
0.26937
0.26608
0.254783
0.261973
0.270336
0.267883
0.247544
0.240228
0.246847
0.25518
0.238487
0.228586
0.225946
0.231
0.236105
0.233178
0.228252
0.217572
0.20996
0.222566
0.218254
0.163566
0.0433852
0.120448
0.199822
0.186552
0.00128727
0.00346043
0.00582447
0.00804446
0.0100208
0.0122018
0.0156191
0.0203401
0.0250421
0.0284407
0.0298745
0.0293811
0.0272245
0.0251005
0.0263018
0.0336872
0.0462845
0.0544494
0.0565386
0.052123
0.0419164
0.0268609
0.0143439
0.0110493
0.0102148
0.00959525
0.00861265
0.00812674
0.00791679
0.00911496
0.00844522
0.0133626
0.0105084
0.0266981
0.0185318
0.0522787
0.0380346
0.0866122
0.0687875
0.149562
0.13687
0.16102
0.157133
0.156483
0.159775
0.12769
0.131161
0.131493
0.132764
0.134299
0.124156
0.120741
0.137544
0.134454
0.116707
0.116641
0.151387
0.140613
0.12491
0.131697
0.201852
0.189066
0.176104
0.163387
0.237118
0.225839
0.214094
0.201725
0.261722
0.255956
0.246759
0.236198
0.269108
0.266584
0.265545
0.261956
0.262567
0.268294
0.267752
0.269632
0.254764
0.245131
0.253471
0.262291
0.242681
0.225033
0.221458
0.229713
0.239359
0.235171
0.225855
0.212492
0.204823
0.217469
0.212633
0.167017
0.0752823
0.140272
0.195159
0.183623
0.00143326
0.00384515
0.00639477
0.00871924
0.0112045
0.0147783
0.0195891
0.0245963
0.0282704
0.0304053
0.031282
0.0306663
0.0295598
0.0306314
0.0365033
0.0457658
0.0527833
0.0552737
0.0520591
0.0428089
0.0280437
0.014663
0.0107331
0.00982025
0.00921692
0.00858529
0.00724574
0.00740323
0.00765906
0.00743337
0.00942656
0.00820366
0.0176496
0.0121695
0.0410122
0.0271018
0.0787733
0.0587104
0.11939
0.0994804
0.159148
0.153688
0.161362
0.161232
0.140261
0.148264
0.113375
0.118326
0.107644
0.114283
0.117037
0.11845
0.109319
0.105939
0.12018
0.117703
0.100914
0.101075
0.135818
0.124298
0.108027
0.114918
0.188936
0.175731
0.162153
0.148673
0.225292
0.21386
0.202112
0.189883
0.254449
0.244748
0.234483
0.223902
0.263645
0.260604
0.258031
0.251607
0.267827
0.268258
0.261278
0.265773
0.261437
0.251446
0.259925
0.266469
0.248447
0.221623
0.217087
0.23015
0.244058
0.238453
0.224513
0.206361
0.198748
0.211971
0.206386
0.173353
0.0720398
0.164496
0.190764
0.184983
0.00161355
0.0042546
0.00695637
0.00963683
0.0132581
0.0181867
0.0232795
0.027062
0.0296159
0.0315759
0.0327344
0.0333953
0.0352483
0.0398078
0.0460702
0.0513661
0.0539516
0.0513583
0.0428687
0.0286971
0.0150797
0.0106824
0.00962745
0.00892744
0.00827637
0.00722758
0.0068517
0.00673127
0.00732848
0.00697991
0.0104518
0.00824324
0.0245842
0.0153079
0.059678
0.0395337
0.106156
0.0827216
0.143419
0.127242
0.159151
0.157066
0.154685
0.158276
0.120122
0.126067
0.128642
0.0976435
0.102207
0.0912329
0.0976076
0.101672
0.103415
0.0936618
0.0903653
0.103593
0.101554
0.0852387
0.0855633
0.121703
0.109254
0.092025
0.099218
0.177133
0.163737
0.149734
0.135509
0.213097
0.202097
0.19081
0.179013
0.241949
0.231796
0.221533
0.211283
0.255139
0.248105
0.244023
0.238189
0.266415
0.263406
0.251756
0.258418
0.264739
0.25731
0.262265
0.264242
0.253369
0.218633
0.212564
0.231789
0.247988
0.241206
0.224226
0.199951
0.193232
0.206391
0.199924
0.186178
0.0390819
0.162652
0.188961
0.191685
0.00181756
0.00465045
0.00760962
0.0111063
0.0158949
0.0209831
0.0249773
0.0279162
0.0304555
0.0327561
0.0350629
0.0377661
0.0414536
0.0459869
0.0502473
0.0522745
0.0497717
0.0419657
0.028584
0.0154106
0.010805
0.00957353
0.00890067
0.00815627
0.00741914
0.00589059
0.00629824
0.00628322
0.00709109
0.00652225
0.0121774
0.00858575
0.0335926
0.0198208
0.0791543
0.0540813
0.125857
0.104415
0.151634
0.141548
0.151768
0.153103
0.13906
0.147351
0.104616
0.112377
0.109673
0.102126
0.0812092
0.0858276
0.0727281
0.0787088
0.086278
0.0878496
0.0773107
0.0741129
0.0876228
0.0857115
0.0695234
0.0699815
0.108625
0.0953619
0.076714
0.0844853
0.166292
0.152543
0.138015
0.123114
0.200953
0.190451
0.179309
0.167415
0.227923
0.218007
0.208156
0.198335
0.23975
0.233716
0.22928
0.222971
0.260861
0.255387
0.235677
0.248412
0.261597
0.258965
0.258447
0.257975
0.254524
0.216193
0.208303
0.233168
0.249322
0.242431
0.223841
0.193639
0.18942
0.200835
0.193698
0.196996
0.026089
0.145656
0.190508
0.199373
0.00202792
0.00506676
0.00851834
0.0129654
0.0176503
0.0216013
0.0250633
0.0282312
0.0313273
0.0342236
0.0374953
0.0411786
0.0451605
0.0485997
0.0500127
0.0476064
0.0404265
0.0278065
0.0155508
0.010994
0.00965612
0.00888959
0.0081941
0.00738794
0.00610594
0.00502077
0.00559764
0.00519783
0.00575893
0.00695792
0.00607435
0.0143754
0.0091763
0.0429224
0.0250113
0.0921569
0.0668801
0.131729
0.114458
0.150749
0.143797
0.135188
0.139648
0.113231
0.125905
0.0857006
0.0934809
0.0926819
0.0820084
0.0636363
0.0677947
0.0535089
0.0586387
0.0707844
0.0718761
0.0601883
0.0574925
0.0719569
0.0699671
0.0536866
0.0540851
0.0949794
0.0806764
0.0608792
0.0690229
0.154692
0.140895
0.126071
0.110486
0.188422
0.177904
0.166955
0.155295
0.212928
0.203495
0.194007
0.184468
0.224345
0.217886
0.212214
0.207308
0.25237
0.245186
0.219766
0.231882
0.254799
0.254437
0.251062
0.248823
0.249902
0.213914
0.20416
0.233478
0.245206
0.238737
0.222708
0.188722
0.187523
0.195279
0.188569
0.198771
0.0138139
0.0998996
0.193244
0.202406