/*--------------------------------*- C++ -*----------------------------------*\
  =========                 |
  \\      /  F ield         | OpenFOAM: The Open Source CFD Toolbox
   \\    /   O peration     | Website:  https://openfoam.org
    \\  /    A nd           | Version:  dev
     \\/     M anipulation  |
\*---------------------------------------------------------------------------*/
FoamFile
{
    version     2.0;
    format      ascii;
    class       surfaceScalarField;
    location    "2500";
    object      phi;
}
// * * * * * * * * * * * * * * * * * * * * * * * * * * * * * * * * * * * * * //

dimensions      [1 0 -1 0 0 0 0];

internalField   nonuniform List<scalar> 
19533
(
1.66716e-07
1.1559e-07
1.45234e-07
2.89454e-07
4.72315e-07
1.03967e-07
1.20849e-07
3.98405e-07
4.69509e-07
2.92278e-07
6.82626e-07
8.57675e-08
1.01586e-07
4.77807e-07
4.3919e-07
4.28766e-07
7.09249e-07
2.65596e-07
8.45409e-07
7.1015e-08
8.58342e-08
5.38313e-07
3.89259e-07
5.27742e-07
7.18117e-07
4.19932e-07
8.82743e-07
2.28262e-07
9.84687e-07
6.11944e-08
7.23577e-08
5.87372e-07
3.32578e-07
5.9493e-07
7.0203e-07
5.43808e-07
9.21716e-07
3.80945e-07
1.01832e-06
1.94634e-07
1.11035e-06
5.39709e-08
6.21043e-08
6.31959e-07
2.7869e-07
6.41232e-07
6.61501e-07
6.35511e-07
9.46277e-07
5.19261e-07
1.06663e-06
3.32627e-07
1.13463e-06
1.70395e-07
1.22294e-06
4.76689e-08
5.47513e-08
6.74499e-07
2.35014e-07
6.75702e-07
6.04525e-07
6.98136e-07
9.46206e-07
6.35572e-07
1.11684e-06
4.6905e-07
1.17879e-06
2.88441e-07
1.24257e-06
1.50769e-07
1.32449e-06
4.21408e-08
4.91321e-08
7.14863e-07
2.05283e-07
7.04297e-07
5.41039e-07
7.39119e-07
9.20931e-07
7.23465e-07
1.15682e-06
5.95592e-07
1.23589e-06
4.11935e-07
1.27631e-06
2.54718e-07
1.34139e-06
1.33869e-07
1.41479e-06
3.74045e-08
4.5876e-08
7.52483e-07
1.88034e-07
7.32124e-07
4.78297e-07
7.66871e-07
8.74302e-07
7.85719e-07
1.17522e-06
7.05059e-07
1.29778e-06
5.33749e-07
1.32727e-06
3.60949e-07
1.36982e-06
2.26309e-07
1.42962e-06
1.19017e-07
1.49581e-06
3.29375e-08
4.3754e-08
7.90977e-07
1.77235e-07
7.63277e-07
4.21406e-07
7.88984e-07
8.12664e-07
8.28563e-07
1.16798e-06
7.92955e-07
1.35234e-06
6.50475e-07
1.39168e-06
4.69308e-07
1.41074e-06
3.20029e-07
1.45522e-06
2.00751e-07
1.5099e-06
1.04946e-07
1.56779e-06
2.91793e-08
4.26141e-08
8.30951e-07
1.68217e-07
7.99989e-07
3.75685e-07
8.09115e-07
7.465e-07
8.5511e-07
1.13764e-06
8.58943e-07
1.38943e-06
7.5587e-07
1.46289e-06
5.79309e-07
1.46691e-06
4.13143e-07
1.49126e-06
2.83985e-07
1.53275e-06
1.77901e-07
1.58015e-06
9.25755e-08
1.63321e-06
2.56584e-08
4.30339e-08
8.7362e-07
1.62585e-07
8.36592e-07
3.49353e-07
8.2625e-07
6.8372e-07
8.71645e-07
1.09021e-06
9.02568e-07
1.40398e-06
8.44399e-07
1.53199e-06
6.86772e-07
1.53688e-06
5.0929e-07
1.53951e-06
3.64962e-07
1.56527e-06
2.51472e-07
1.60133e-06
1.56665e-07
1.64449e-06
8.12935e-08
1.69105e-06
2.20729e-08
4.54901e-08
9.22217e-07
1.64369e-07
8.71842e-07
3.36711e-07
8.49122e-07
6.25847e-07
8.8416e-07
1.03327e-06
9.28691e-07
1.39564e-06
9.10919e-07
1.58855e-06
7.87849e-07
1.61578e-06
6.07903e-07
1.60114e-06
4.47581e-07
1.60761e-06
3.22615e-07
1.63081e-06
2.22074e-07
1.66354e-06
1.37614e-07
1.70158e-06
7.07664e-08
1.74094e-06
1.90206e-08
5.30717e-08
9.80618e-07
1.71033e-07
9.15538e-07
3.289e-07
8.79709e-07
5.81827e-07
8.93339e-07
9.74386e-07
9.43065e-07
1.36828e-06
9.56089e-07
1.62681e-06
8.72645e-07
1.69683e-06
7.06779e-07
1.67522e-06
5.33815e-07
1.66014e-06
3.95075e-07
1.66888e-06
2.84561e-07
1.69005e-06
1.95517e-07
1.71895e-06
1.20254e-07
1.75074e-06
6.0955e-08
1.78558e-06
1.61541e-08
7.13333e-08
1.04986e-06
1.85578e-07
9.66052e-07
3.3241e-07
9.12001e-07
5.57029e-07
9.044e-07
9.16994e-07
9.50614e-07
1.32824e-06
9.83149e-07
1.64493e-06
9.37992e-07
1.77161e-06
7.97877e-07
1.75957e-06
6.22414e-07
1.72518e-06
4.68784e-07
1.71691e-06
3.46967e-07
1.72544e-06
2.49278e-07
1.74382e-06
1.70684e-07
1.76764e-06
1.03374e-07
1.79493e-06
5.15799e-08
1.82375e-06
1.33879e-08
1.35554e-07
1.08245e-06
2.12959e-07
1.0224e-06
3.46068e-07
9.52365e-07
5.46304e-07
9.22574e-07
8.67521e-07
9.53899e-07
1.28217e-06
9.9665e-07
1.6431e-06
9.84924e-07
1.83309e-06
8.7653e-07
1.84968e-06
7.0777e-07
1.80239e-06
5.45176e-07
1.77487e-06
4.10874e-07
1.76871e-06
3.0365e-07
1.77606e-06
2.17026e-07
1.79138e-06
1.46912e-07
1.81069e-06
8.76299e-08
1.83288e-06
4.24914e-08
1.85686e-06
1.06337e-08
3.00559e-07
8.36422e-07
2.65077e-07
1.03031e-06
3.68983e-07
9.99413e-07
5.52555e-07
9.46091e-07
8.33345e-07
9.56862e-07
1.23419e-06
1.00182e-06
1.62482e-06
1.01492e-06
1.8769e-06
9.41133e-07
1.93807e-06
7.88149e-07
1.8904e-06
6.19729e-07
1.84296e-06
4.77105e-07
1.82049e-06
3.59102e-07
1.81584e-06
2.6386e-07
1.82193e-06
1.86503e-07
1.83276e-06
1.24831e-07
1.84747e-06
7.30591e-08
1.86528e-06
3.41472e-08
1.88362e-06
7.99452e-09
-3.45477e-07
1.46299e-08
2.53403e-07
8.4814e-07
3.99059e-07
1.00009e-06
5.73471e-07
9.78539e-07
8.17437e-07
9.6199e-07
1.1899e-06
1.00115e-06
1.5965e-06
1.03016e-06
1.90189e-06
9.89896e-07
2.01827e-06
8.60948e-07
1.98637e-06
6.92235e-07
1.9222e-06
5.40312e-07
1.88147e-06
4.16123e-07
1.86284e-06
3.12089e-07
1.85864e-06
2.27164e-07
1.86138e-06
1.57919e-07
1.86794e-06
1.04353e-07
1.88002e-06
5.83267e-08
1.89236e-06
2.54566e-08
1.90575e-06
5.39054e-09
-1.19729e-07
5.57214e-07
-7.83594e-08
3.46378e-07
3.59777e-07
8.87267e-07
5.96947e-07
9.76713e-07
8.23139e-07
9.72815e-07
1.15584e-06
9.96028e-07
1.56323e-06
1.03438e-06
1.90847e-06
1.02351e-06
2.08486e-06
9.23244e-07
2.08438e-06
7.62945e-07
2.01156e-06
6.03054e-07
1.95133e-06
4.7046e-07
1.91842e-06
3.60569e-07
1.90251e-06
2.68138e-07
1.89622e-06
1.92333e-07
1.89541e-06
1.30477e-07
1.90067e-06
8.37133e-08
1.90679e-06
4.39236e-08
1.91393e-06
1.72759e-08
1.92184e-06
2.72986e-09
-3.47223e-08
8.15078e-07
-6.82143e-08
5.4698e-07
1.4386e-07
5.62242e-07
5.69599e-07
9.14637e-07
8.33323e-07
9.66509e-07
1.13677e-06
9.91864e-07
1.52857e-06
1.03069e-06
1.90149e-06
1.04133e-06
2.13537e-06
9.7304e-07
2.179e-06
8.28508e-07
2.10916e-06
6.65332e-07
2.03153e-06
5.22885e-07
1.98275e-06
4.06113e-07
1.95294e-06
3.10199e-07
1.93682e-06
2.27547e-07
1.9293e-06
1.58452e-07
1.9264e-06
1.04788e-07
1.92654e-06
6.39816e-08
1.92793e-06
2.99475e-08
1.93063e-06
8.51744e-09
1.93334e-06
8.25932e-11
-2.52089e-09
8.45398e-07
3.23663e-09
7.43704e-07
9.88387e-08
5.91996e-07
4.08729e-07
7.23107e-07
8.16612e-07
9.31263e-07
1.12464e-06
9.78674e-07
1.49895e-06
1.02148e-06
1.88543e-06
1.0467e-06
2.16863e-06
1.00808e-06
2.26514e-06
8.86959e-07
2.21156e-06
7.2605e-07
2.1211e-06
5.75735e-07
2.05447e-06
4.51175e-07
2.01051e-06
3.48595e-07
1.98359e-06
2.63414e-07
1.96889e-06
1.87946e-07
1.95791e-06
1.26945e-07
1.9523e-06
7.90238e-08
1.94798e-06
4.39285e-08
1.94469e-06
1.58683e-08
1.94191e-06
-4.6951e-11
1.93955e-06
-2.47743e-09
1.18738e-08
8.27109e-07
4.41987e-08
8.04303e-07
1.3378e-07
7.08728e-07
3.34624e-07
6.66059e-07
7.11709e-07
8.27953e-07
1.10322e-06
9.5275e-07
1.47254e-06
1.005e-06
1.86527e-06
1.04163e-06
2.18618e-06
1.02912e-06
2.33822e-06
9.34975e-07
2.3154e-06
7.83173e-07
2.21878e-06
6.28284e-07
2.13472e-06
4.95567e-07
2.07599e-06
3.85664e-07
2.03725e-06
2.94954e-07
2.01355e-06
2.18717e-07
1.99518e-06
1.50652e-07
1.9834e-06
9.5862e-08
1.97316e-06
5.38572e-08
1.96417e-06
2.44634e-08
1.95645e-06
1.34033e-09
1.94766e-06
-8.13104e-09
1.93915e-06
-5.49125e-09
1.81666e-08
8.03655e-07
6.57162e-08
8.05559e-07
1.66333e-07
7.71861e-07
3.36707e-07
7.0664e-07
6.25976e-07
7.51799e-07
1.03709e-06
8.94116e-07
1.44275e-06
9.82501e-07
1.84084e-06
1.02947e-06
2.19184e-06
1.03596e-06
2.39655e-06
9.70794e-07
2.41527e-06
8.351e-07
2.32317e-06
6.78871e-07
2.22315e-06
5.39559e-07
2.14871e-06
4.22785e-07
2.09756e-06
3.2521e-07
2.06433e-06
2.44207e-07
2.03875e-06
1.75137e-07
2.01964e-06
1.14379e-07
2.00345e-06
6.55841e-08
1.98947e-06
2.85677e-08
1.9765e-06
4.41735e-09
1.96225e-06
-1.32622e-08
1.94832e-06
-1.73254e-08
1.93513e-06
-7.94959e-09
2.05819e-08
7.80423e-07
7.78431e-08
7.91464e-07
1.86224e-07
7.85663e-07
3.58378e-07
7.50184e-07
5.92486e-07
7.40141e-07
9.59431e-07
8.29456e-07
1.39367e-06
9.43105e-07
1.81376e-06
1.00961e-06
2.18671e-06
1.03454e-06
2.4385e-06
9.94009e-07
2.5066e-06
8.79468e-07
2.43125e-06
7.26926e-07
2.31913e-06
5.83025e-07
2.22884e-06
4.59467e-07
2.16424e-06
3.5607e-07
2.1206e-06
2.68902e-07
2.08754e-06
1.95423e-07
2.0612e-06
1.33577e-07
2.03903e-06
7.87999e-08
2.01981e-06
3.52548e-08
2.00174e-06
3.3426e-09
1.98301e-06
-1.63267e-08
1.96355e-06
-2.84919e-08
1.9446e-06
-2.6783e-08
1.92808e-06
-1.12827e-08
2.18628e-08
7.55442e-07
8.63748e-08
7.71873e-07
2.01969e-07
7.75751e-07
3.74516e-07
7.6956e-07
5.89993e-07
7.526e-07
9.05664e-07
7.93913e-07
1.32821e-06
8.94801e-07
1.77719e-06
9.79729e-07
2.17343e-06
1.02288e-06
2.46706e-06
1.00597e-06
2.58555e-06
9.1504e-07
2.53889e-06
7.71851e-07
2.42162e-06
6.24446e-07
2.31632e-06
4.95554e-07
2.23744e-06
3.86462e-07
2.18176e-06
2.94982e-07
2.14126e-06
2.15197e-07
2.10815e-06
1.48465e-07
2.07967e-06
9.30004e-08
2.05478e-06
4.38563e-08
2.03215e-06
4.8852e-09
2.00928e-06
-2.29062e-08
1.98513e-06
-3.78569e-08
1.96009e-06
-4.39639e-08
1.93883e-06
-3.75264e-08
1.90882e-06
-1.46634e-08
2.28206e-08
7.3085e-07
9.13645e-08
7.50351e-07
2.14779e-07
7.59063e-07
3.83385e-07
7.66917e-07
5.96316e-07
7.63275e-07
8.7875e-07
7.79703e-07
1.26885e-06
8.53205e-07
1.72743e-06
9.44521e-07
2.15155e-06
1.00158e-06
2.48297e-06
1.00693e-06
2.65077e-06
9.40775e-07
2.6421e-06
8.1179e-07
2.52938e-06
6.64099e-07
2.41037e-06
5.30374e-07
2.31695e-06
4.16013e-07
2.2485e-06
3.19608e-07
2.19979e-06
2.36453e-07
2.15939e-06
1.64012e-07
2.12536e-06
1.0275e-07
2.09481e-06
5.29014e-08
2.06779e-06
8.15382e-09
2.04086e-06
-2.67163e-08
2.01216e-06
-4.99217e-08
1.98198e-06
-5.97079e-08
1.95679e-06
-6.18963e-08
1.92073e-06
-4.94221e-08
1.88356e-06
-1.87777e-08
2.37267e-08
7.06497e-07
9.58556e-08
7.2635e-07
2.24862e-07
7.40366e-07
3.87027e-07
7.55466e-07
6.00626e-07
7.62678e-07
8.65878e-07
7.76056e-07
1.22551e-06
8.23e-07
1.67198e-06
9.08746e-07
2.12009e-06
9.76033e-07
2.48522e-06
9.9936e-07
2.70249e-06
9.55148e-07
2.73719e-06
8.45549e-07
2.63968e-06
7.01505e-07
2.51058e-06
5.63829e-07
2.40323e-06
4.44066e-07
2.32145e-06
3.43154e-07
2.26278e-06
2.56608e-07
2.21541e-06
1.80459e-07
2.17576e-06
1.13639e-07
2.13991e-06
5.76927e-08
2.10841e-06
1.22709e-08
2.07735e-06
-2.8295e-08
2.04466e-06
-5.91857e-08
2.01104e-06
-7.89644e-08
1.98145e-06
-8.43401e-08
1.94074e-06
-8.18485e-08
1.89668e-06
-6.25702e-08
1.84986e-06
-2.33494e-08
2.46403e-08
6.82238e-07
1.00644e-07
7.0177e-07
2.3072e-07
7.20509e-07
3.89491e-07
7.37953e-07
5.99956e-07
7.56198e-07
8.56237e-07
7.7232e-07
1.1978e-06
8.03894e-07
1.62035e-06
8.7469e-07
2.0804e-06
9.4842e-07
2.47619e-06
9.85113e-07
2.74008e-06
9.61733e-07
2.82257e-06
8.69914e-07
2.74964e-06
7.35585e-07
2.61653e-06
5.95577e-07
2.49551e-06
4.71541e-07
2.40069e-06
3.64936e-07
2.33178e-06
2.74153e-07
2.27699e-06
1.94995e-07
2.23039e-06
1.25799e-07
2.18967e-06
6.37998e-08
2.15363e-06
1.25245e-08
2.11825e-06
-2.86171e-08
2.08224e-06
-6.5815e-08
2.04523e-06
-9.33569e-08
2.01158e-06
-1.0909e-07
1.96817e-06
-1.11788e-07
1.91872e-06
-1.03814e-07
1.86462e-06
-7.73094e-08
1.807e-06
-2.86593e-08
2.53744e-08
6.58104e-07
1.04321e-07
6.78571e-07
2.32832e-07
6.99671e-07
3.90994e-07
7.19016e-07
5.95925e-07
7.42094e-07
8.49188e-07
7.63341e-07
1.17934e-06
7.90844e-07
1.5785e-06
8.45785e-07
2.03586e-06
9.19302e-07
2.45825e-06
9.66292e-07
2.76366e-06
9.61586e-07
2.89517e-06
8.89059e-07
2.8557e-06
7.63849e-07
2.72694e-06
6.25185e-07
2.5935e-06
4.97524e-07
2.48675e-06
3.85371e-07
2.40601e-06
2.90711e-07
2.34254e-06
2.0864e-07
2.28925e-06
1.3614e-07
2.24368e-06
7.19324e-08
2.20289e-06
1.45563e-08
2.16322e-06
-3.24217e-08
2.12419e-06
-7.06003e-08
2.08369e-06
-1.04287e-07
2.04688e-06
-1.2865e-07
2.00162e-06
-1.42506e-07
1.94875e-06
-1.41786e-07
1.88912e-06
-1.28262e-07
1.82361e-06
-9.38854e-08
1.75359e-06
-3.47983e-08
2.61548e-08
6.33209e-07
1.07762e-07
6.54668e-07
2.33744e-07
6.77641e-07
3.91199e-07
6.99554e-07
5.91587e-07
7.23525e-07
8.43149e-07
7.48186e-07
1.16286e-06
7.79854e-07
1.54671e-06
8.2267e-07
1.99161e-06
8.90005e-07
2.43285e-06
9.44658e-07
2.77502e-06
9.54902e-07
2.95417e-06
9.02609e-07
2.95468e-06
7.90046e-07
2.83914e-06
6.51616e-07
2.69843e-06
5.20316e-07
2.5785e-06
4.05766e-07
2.4852e-06
3.0621e-07
2.41255e-06
2.20668e-07
2.35299e-06
1.4483e-07
2.30121e-06
7.85445e-08
2.25514e-06
1.9709e-08
2.21117e-06
-3.33713e-08
2.16935e-06
-7.75702e-08
2.12629e-06
-1.13161e-07
2.0867e-06
-1.44046e-07
2.0409e-06
-1.67866e-07
1.98594e-06
-1.79647e-07
1.92321e-06
-1.75842e-07
1.85152e-06
-1.56141e-07
1.77256e-06
-1.12834e-07
1.68854e-06
-4.18433e-08
2.70843e-08
6.07822e-07
1.10658e-07
6.30277e-07
2.33803e-07
6.54654e-07
3.90201e-07
6.78765e-07
5.86505e-07
7.04715e-07
8.35317e-07
7.3137e-07
1.14466e-06
7.66497e-07
1.52233e-06
8.04281e-07
1.95213e-06
8.62261e-07
2.40155e-06
9.21304e-07
2.77562e-06
9.44038e-07
3.00008e-06
9.08969e-07
3.0446e-06
8.1268e-07
2.94938e-06
6.79807e-07
2.80561e-06
5.44388e-07
2.67586e-06
4.22771e-07
2.57012e-06
3.20761e-07
2.48791e-06
2.30843e-07
2.42118e-06
1.52516e-07
2.3624e-06
8.35471e-08
2.3104e-06
2.32382e-08
2.26195e-06
-3.10663e-08
2.21709e-06
-8.10907e-08
2.17282e-06
-1.24083e-07
2.1307e-06
-1.57138e-07
2.08556e-06
-1.88694e-07
2.0297e-06
-2.11596e-07
1.96532e-06
-2.21722e-07
1.89051e-06
-2.14776e-07
1.80501e-06
-1.8854e-07
1.71075e-06
-1.34996e-07
1.61033e-06
-4.97296e-08
2.77882e-08
5.82928e-07
1.12682e-07
6.05906e-07
2.33475e-07
6.30773e-07
3.88956e-07
6.55994e-07
5.81217e-07
6.84138e-07
8.27736e-07
7.124e-07
1.12769e-06
7.48433e-07
1.50086e-06
7.8802e-07
1.91944e-06
8.36997e-07
2.36762e-06
8.96138e-07
2.76749e-06
9.29377e-07
3.03415e-06
9.09971e-07
3.12301e-06
8.30542e-07
3.05613e-06
7.05914e-07
2.91566e-06
5.6976e-07
2.77674e-06
4.43643e-07
2.66145e-06
3.31408e-07
2.56891e-06
2.39795e-07
2.49321e-06
1.58832e-07
2.42797e-06
8.7116e-08
2.369e-06
2.5008e-08
2.31591e-06
-3.0726e-08
2.26757e-06
-8.15314e-08
2.22226e-06
-1.30513e-07
2.1784e-06
-1.71763e-07
2.13495e-06
-2.06502e-07
2.0792e-06
-2.38165e-07
2.01503e-06
-2.61264e-07
1.93872e-06
-2.69891e-07
1.84997e-06
-2.59682e-07
1.74849e-06
-2.26226e-07
1.63561e-06
-1.60228e-07
1.51748e-06
-1.754e-08
-4.07436e-08
2.84886e-08
5.58167e-07
1.14916e-07
5.80771e-07
2.3384e-07
6.05588e-07
3.88532e-07
6.31287e-07
5.77584e-07
6.59716e-07
8.22386e-07
6.89648e-07
1.11404e-06
7.26155e-07
1.4795e-06
7.69961e-07
1.89325e-06
8.1424e-07
2.33375e-06
8.70837e-07
2.75145e-06
9.12166e-07
3.05639e-06
9.07139e-07
3.18999e-06
8.42985e-07
3.15729e-06
7.29363e-07
3.0266e-06
5.94959e-07
2.88076e-06
4.65625e-07
2.75652e-06
3.48567e-07
2.65524e-06
2.45036e-07
2.57053e-06
1.62472e-07
2.49774e-06
8.89513e-08
2.43182e-06
2.42912e-08
2.37332e-06
-3.23916e-08
2.3209e-06
-8.40462e-08
2.2737e-06
-1.3297e-07
2.22822e-06
-1.80325e-07
2.18751e-06
-2.24306e-07
2.13365e-06
-2.60929e-07
2.07073e-06
-2.93839e-07
1.99586e-06
-3.18351e-07
1.90545e-06
-3.2531e-07
1.79956e-06
-3.10683e-07
1.68017e-06
-2.70708e-07
1.54435e-06
-8.28113e-08
-1.0422e-07
7.10218e-07
-1.38722e-08
7.17168e-07
-4.76794e-08
2.95722e-08
5.33752e-07
1.17623e-07
5.55493e-07
2.35404e-07
5.79306e-07
3.89251e-07
6.04955e-07
5.76087e-07
6.32851e-07
8.18132e-07
6.6404e-07
1.10377e-06
7.00059e-07
1.45793e-06
7.47799e-07
1.87056e-06
7.92637e-07
2.30216e-06
8.45883e-07
2.72979e-06
8.9251e-07
3.06785e-06
9.00765e-07
3.24523e-06
8.51923e-07
3.25015e-06
7.5014e-07
3.13696e-06
6.18998e-07
2.98858e-06
4.87159e-07
2.85537e-06
3.66794e-07
2.74573e-06
2.58055e-07
2.65292e-06
1.62531e-07
2.5735e-06
8.67638e-08
2.50059e-06
2.01837e-08
2.4349e-06
-3.72875e-08
2.37762e-06
-8.91053e-08
2.32702e-06
-1.37363e-07
2.28038e-06
-1.85118e-07
2.24205e-06
-2.34853e-07
2.19181e-06
-2.82449e-07
2.13246e-06
-3.22628e-07
2.06005e-06
-3.57999e-07
1.97127e-06
-3.84118e-07
1.8632e-06
-3.88877e-07
1.73487e-06
-1.72719e-07
-1.92593e-07
7.99282e-07
-1.4549e-07
7.87525e-07
-1.67589e-07
7.17811e-07
-8.34348e-08
7.30873e-07
-1.17259e-07
6.81463e-07
-1.33275e-08
6.84861e-07
-5.10619e-08
3.06103e-08
5.1106e-07
1.20419e-07
5.31012e-07
2.3798e-07
5.53006e-07
3.90894e-07
5.77747e-07
5.76875e-07
6.04267e-07
8.15624e-07
6.35431e-07
1.09754e-06
6.70409e-07
1.4371e-06
7.21007e-07
1.84905e-06
7.69431e-07
2.27448e-06
8.20333e-07
2.70486e-06
8.70861e-07
3.06951e-06
8.90833e-07
3.28876e-06
8.57174e-07
3.33382e-06
7.68233e-07
3.24393e-06
6.43152e-07
3.09828e-06
5.09304e-07
2.95818e-06
3.843e-07
2.84056e-06
2.71994e-07
2.74004e-06
1.70924e-07
2.65352e-06
8.25219e-08
2.57734e-06
1.00051e-08
2.50199e-06
-4.68988e-08
2.43772e-06
-9.73923e-08
2.38254e-06
-1.4462e-07
2.33391e-06
-1.90892e-07
2.2955e-06
-2.3856e-07
2.25101e-06
-2.94039e-07
2.19794e-06
-3.47908e-07
2.13144e-06
-3.93979e-07
2.04599e-06
-4.32676e-07
1.93889e-06
-4.59749e-07
1.8077e-06
-2.22364e-07
-2.39262e-07
8.15331e-07
-1.88746e-07
8.36323e-07
-2.13562e-07
7.3798e-07
-1.52573e-07
8.00562e-07
-2.0176e-07
7.55795e-07
-1.85376e-07
6.90579e-07
-8.9131e-08
7.00028e-07
-1.26682e-07
6.49576e-07
-1.40302e-08
6.53086e-07
-5.45531e-08
3.14922e-08
4.90439e-07
1.23788e-07
5.07758e-07
2.41673e-07
5.27415e-07
3.93837e-07
5.50169e-07
5.79516e-07
5.75215e-07
8.1445e-07
6.05526e-07
1.09402e-06
6.39037e-07
1.41711e-06
6.90495e-07
1.82702e-06
7.42969e-07
2.24966e-06
7.94243e-07
2.67834e-06
8.46884e-07
3.0631e-06
8.77259e-07
3.32097e-06
8.58651e-07
3.40726e-06
7.83653e-07
3.34516e-06
6.66949e-07
3.20806e-06
5.33346e-07
3.06386e-06
4.03688e-07
2.93902e-06
2.85823e-07
2.83207e-06
1.8007e-07
2.73896e-06
8.54802e-08
2.65566e-06
4.19371e-09
2.57653e-06
-6.45453e-08
2.50257e-06
-1.11749e-07
2.44097e-06
-1.55814e-07
2.38846e-06
-1.99165e-07
2.34776e-06
-2.43155e-07
2.30886e-06
-2.96401e-07
2.26415e-06
-3.60242e-07
2.20752e-06
-4.23974e-07
2.12965e-06
-4.77607e-07
2.0254e-06
-5.19139e-07
1.89363e-06
-2.65449e-07
-2.80166e-07
8.53316e-07
-2.39331e-07
8.7744e-07
-2.63363e-07
8.17558e-07
-2.30531e-07
7.11625e-07
-1.64142e-07
7.72456e-07
-2.1839e-07
7.27222e-07
-2.00942e-07
6.5959e-07
-9.56098e-08
6.69e-07
-1.36062e-07
6.14441e-07
-1.51855e-08
6.18367e-07
-5.84568e-08
3.27287e-08
4.7203e-07
1.2777e-07
4.86536e-07
2.46234e-07
5.03303e-07
3.97989e-07
5.23387e-07
5.83416e-07
5.46384e-07
8.14512e-07
5.75253e-07
1.09227e-06
6.07367e-07
1.39925e-06
6.57045e-07
1.80415e-06
7.13385e-07
2.22563e-06
7.67007e-07
2.6518e-06
8.20814e-07
3.04987e-06
8.60096e-07
3.34185e-06
8.56389e-07
3.46916e-06
7.96712e-07
3.43899e-06
6.89816e-07
3.3157e-06
5.59298e-07
3.17061e-06
4.26586e-07
3.04071e-06
3.01934e-07
2.9288e-06
1.89071e-07
2.83075e-06
8.82621e-08
2.74062e-06
5.10852e-10
2.65493e-06
-7.42108e-08
2.5742e-06
-1.36175e-07
2.50322e-06
-1.73997e-07
2.44445e-06
-2.11801e-07
2.39981e-06
-2.51209e-07
2.36445e-06
-2.98746e-07
2.32711e-06
-3.5936e-07
2.2832e-06
-4.35909e-07
2.21973e-06
-5.14028e-07
2.12378e-06
-5.75959e-07
1.99384e-06
-3.02499e-07
-3.16796e-07
8.98026e-07
-2.86015e-07
9.25285e-07
-3.07405e-07
8.37008e-07
-2.58753e-07
8.59366e-07
-2.85693e-07
7.92232e-07
-2.50275e-07
6.8179e-07
-1.76901e-07
7.45496e-07
-2.3663e-07
6.97809e-07
-2.16925e-07
6.25054e-07
-1.02268e-07
6.35128e-07
-1.46102e-07
5.76905e-07
-1.61e-08
5.81116e-07
-6.26421e-08
3.39467e-08
4.57131e-07
1.31699e-07
4.68193e-07
2.51539e-07
4.81351e-07
4.03409e-07
4.98012e-07
5.88634e-07
5.18292e-07
8.1618e-07
5.44833e-07
1.09162e-06
5.76007e-07
1.38484e-06
6.21929e-07
1.78047e-06
6.808e-07
2.20192e-06
7.37155e-07
2.62621e-06
7.92644e-07
3.03193e-06
8.38844e-07
3.35218e-06
8.49797e-07
3.51908e-06
8.06527e-07
3.5236e-06
7.1215e-07
3.41849e-06
5.87011e-07
3.27718e-06
4.5264e-07
3.14473e-06
3.22547e-07
3.02955e-06
2.01151e-07
2.92827e-06
9.15193e-08
2.83361e-06
-4.75041e-09
2.74095e-06
-8.55075e-08
2.65203e-06
-1.52042e-07
2.57122e-06
-2.04172e-07
2.50318e-06
-2.32714e-07
2.45186e-06
-2.63839e-07
2.41879e-06
-3.05541e-07
2.38669e-06
-3.58319e-07
2.35423e-06
-4.30388e-07
2.30783e-06
-5.24002e-07
2.22898e-06
-6.19212e-07
2.10594e-06
-3.36441e-07
-3.5159e-07
9.51005e-07
-3.28202e-07
9.82628e-07
-3.48403e-07
8.83761e-07
-3.10384e-07
9.11048e-07
-3.34667e-07
8.1467e-07
-2.81157e-07
8.39273e-07
-3.10264e-07
7.66486e-07
-2.7123e-07
6.48657e-07
-1.90392e-07
7.17092e-07
-2.55876e-07
6.65699e-07
-2.33927e-07
5.87888e-07
-1.09007e-07
5.98306e-07
-1.56483e-07
5.3626e-07
-1.73945e-08
5.40537e-07
-6.68891e-08
3.5078e-08
4.45871e-07
1.35813e-07
4.53114e-07
2.57586e-07
4.62279e-07
4.10008e-07
4.7489e-07
5.9513e-07
4.91658e-07
8.19683e-07
5.14926e-07
1.09224e-06
5.44335e-07
1.37425e-06
5.86751e-07
1.75632e-06
6.46206e-07
2.1781e-06
7.04663e-07
2.60117e-06
7.62184e-07
3.01051e-06
8.14077e-07
3.35347e-06
8.37533e-07
3.55713e-06
8.11768e-07
3.59777e-06
7.32328e-07
3.51519e-06
6.15445e-07
3.38175e-06
4.8241e-07
3.24899e-06
3.48344e-07
3.13312e-06
2.18956e-07
3.0307e-06
9.87048e-08
2.93399e-06
-8.90497e-09
2.83704e-06
-1.0085e-07
2.7392e-06
-1.72658e-07
2.64633e-06
-2.27136e-07
2.56588e-06
-2.6687e-07
2.50617e-06
-2.87023e-07
2.47131e-06
-3.16359e-07
2.44275e-06
-3.61607e-07
2.42304e-06
-4.27143e-07
2.38981e-06
-5.12378e-07
2.33183e-06
-6.26847e-07
2.22971e-06
-3.64261e-07
-3.78718e-07
1.01364e-06
-3.67439e-07
1.04901e-06
-3.86954e-07
9.4113e-07
-3.58263e-07
9.74333e-07
-3.81587e-07
8.6651e-07
-3.37591e-07
8.96863e-07
-3.64993e-07
7.90128e-07
-3.04764e-07
8.17152e-07
-3.37253e-07
7.38977e-07
-2.93076e-07
6.12438e-07
-2.04481e-07
6.85871e-07
-2.76006e-07
6.30176e-07
-2.5162e-07
5.47804e-07
-1.16236e-07
5.58424e-07
-1.67059e-07
4.93841e-07
-1.92948e-08
4.97682e-07
-7.06958e-08
3.61339e-08
4.38343e-07
1.39999e-07
4.41789e-07
2.64121e-07
4.46717e-07
4.17706e-07
4.54729e-07
6.03021e-07
4.67149e-07
8.25165e-07
4.86323e-07
1.09467e-06
5.12628e-07
1.36817e-06
5.50565e-07
1.73439e-06
6.08858e-07
2.15418e-06
6.70229e-07
2.57626e-06
7.29661e-07
2.98728e-06
7.85489e-07
3.34697e-06
8.20579e-07
3.58288e-06
8.11807e-07
3.65935e-06
7.50155e-07
3.60303e-06
6.44493e-07
3.4815e-06
5.15677e-07
3.35204e-06
3.79344e-07
3.23762e-06
2.43825e-07
3.13685e-06
1.12801e-07
3.04092e-06
-8.2551e-09
2.94241e-06
-1.14343e-07
2.83784e-06
-1.99498e-07
2.73252e-06
-2.5882e-07
2.63553e-06
-2.96759e-07
2.55993e-06
-3.20616e-07
2.52193e-06
-3.37639e-07
2.49261e-06
-3.66228e-07
2.48584e-06
-4.24435e-07
2.48193e-06
-5.19317e-07
2.45413e-06
-6.34721e-07
2.39682e-06
-3.80111e-07
-4.13852e-07
1.08808e-06
-4.03324e-07
1.13417e-06
-4.24786e-07
1.01098e-06
-4.04067e-07
1.05265e-06
-4.28598e-07
9.30985e-07
-3.92358e-07
9.69407e-07
-4.1998e-07
8.47875e-07
-3.68282e-07
8.82111e-07
-3.99195e-07
7.64269e-07
-3.30017e-07
7.9395e-07
-3.66895e-07
7.0909e-07
-3.1625e-07
5.72996e-07
-2.19005e-07
6.51319e-07
-2.97101e-07
5.9148e-07
-2.70052e-07
5.0471e-07
-1.23221e-07
5.15553e-07
-1.77853e-07
4.47802e-07
-2.07772e-08
4.5191e-07
-7.47633e-08
3.69822e-08
4.3448e-07
1.43784e-07
4.34667e-07
2.70851e-07
4.35202e-07
4.26323e-07
4.38256e-07
6.12226e-07
4.4568e-07
8.32881e-07
4.59595e-07
1.0991e-06
4.82047e-07
1.36595e-06
5.15024e-07
1.7142e-06
5.70939e-07
2.12932e-06
6.33841e-07
2.55221e-06
6.9438e-07
2.96395e-06
7.53051e-07
3.33475e-06
7.97727e-07
3.59835e-06
8.05091e-07
3.70863e-06
7.62525e-07
3.68129e-06
6.71869e-07
3.57429e-06
5.51679e-07
3.45081e-06
4.16879e-07
3.34058e-06
2.76355e-07
3.24457e-06
1.36093e-07
3.15292e-06
8.0441e-10
3.05677e-06
-1.22647e-07
2.94926e-06
-2.25829e-07
2.83336e-06
-3.00345e-07
2.71836e-06
-3.41611e-07
2.62213e-06
-3.58914e-07
2.56656e-06
-3.65229e-07
2.5502e-06
-3.95255e-07
2.56358e-06
-4.44044e-07
2.60179e-06
-5.44424e-07
2.65675e-06
-7.22109e-07
2.69112e-06
-4.32261e-07
-4.96883e-07
1.20381e-06
-4.49738e-07
1.29479e-06
-5.04804e-07
1.10858e-06
-4.59216e-07
1.18945e-06
-5.056e-07
1.0156e-06
-4.5022e-07
1.08067e-06
-4.93604e-07
9.22112e-07
-4.32319e-07
9.73649e-07
-4.71454e-07
8.28789e-07
-4.03079e-07
8.69602e-07
-4.39953e-07
7.36856e-07
-3.57737e-07
7.70689e-07
-4.00676e-07
6.76987e-07
-3.41867e-07
5.30506e-07
-2.33903e-07
6.14387e-07
-3.19951e-07
5.50261e-07
-2.89746e-07
4.58843e-07
-1.30105e-07
4.69473e-07
-1.88426e-07
4.00505e-07
-2.22322e-08
4.0428e-07
-7.84924e-08
3.74741e-08
4.33604e-07
1.46885e-07
4.3149e-07
2.77713e-07
4.27953e-07
4.35527e-07
4.26159e-07
6.22658e-07
4.27989e-07
8.42739e-07
4.35994e-07
1.10565e-06
4.53211e-07
1.36742e-06
4.80757e-07
1.6977e-06
5.31721e-07
2.10642e-06
5.94055e-07
2.53017e-06
6.55997e-07
2.94169e-06
7.16722e-07
3.31888e-06
7.68952e-07
3.60443e-06
7.91659e-07
3.74582e-06
7.67901e-07
3.74701e-06
6.96798e-07
3.65763e-06
5.88515e-07
3.54318e-06
4.59296e-07
3.43916e-06
3.18278e-07
3.3505e-06
1.7041e-07
3.2674e-06
2.16311e-08
3.17827e-06
-1.20717e-07
3.07332e-06
-2.46723e-07
2.95173e-06
-3.44257e-07
2.82188e-06
-4.03872e-07
2.70462e-06
-4.24064e-07
2.63236e-06
-4.24701e-07
2.63343e-06
-4.48529e-07
2.69628e-06
-5.28187e-07
2.82075e-06
-6.63418e-07
2.98443e-06
-8.72658e-07
3.16725e-06
-5.56829e-07
-6.41911e-07
1.42571e-06
-5.63184e-07
1.5703e-06
-6.41528e-07
1.30765e-06
-5.67844e-07
1.45167e-06
-6.48752e-07
1.1804e-06
-5.58831e-07
1.31592e-06
-6.4095e-07
1.05056e-06
-5.27016e-07
1.16656e-06
-6.09417e-07
9.25954e-07
-4.88578e-07
1.01542e-06
-5.6074e-07
8.12236e-07
-4.44553e-07
8.73473e-07
-5.01057e-07
7.08321e-07
-3.89009e-07
7.49458e-07
-4.41717e-07
6.42912e-07
-3.70321e-07
4.85411e-07
-2.49776e-07
5.75247e-07
-3.44859e-07
5.06575e-07
-3.10827e-07
4.10357e-07
-1.36126e-07
4.20813e-07
-1.98817e-07
3.51887e-07
-2.36789e-08
3.54834e-07
-8.13859e-08
3.74687e-08
4.34381e-07
1.48879e-07
4.31721e-07
2.84229e-07
4.2512e-07
4.44704e-07
4.18941e-07
6.34001e-07
4.14987e-07
8.54554e-07
4.16355e-07
1.11462e-06
4.27198e-07
1.37209e-06
4.48746e-07
1.68587e-06
4.92805e-07
2.08576e-06
5.52588e-07
2.50995e-06
6.14373e-07
2.92147e-06
6.7632e-07
3.3013e-06
7.3436e-07
3.60274e-06
7.70667e-07
3.77132e-06
7.66164e-07
3.79793e-06
7.1698e-07
3.72991e-06
6.24519e-07
3.62587e-06
5.05813e-07
3.52997e-06
3.68472e-07
3.45155e-06
2.17214e-07
3.38122e-06
5.65923e-08
3.30419e-06
-1.04273e-07
3.20794e-06
-2.55354e-07
3.08739e-06
-3.82384e-07
2.94953e-06
-4.71912e-07
2.81906e-06
-5.18332e-07
2.74663e-06
-5.3836e-07
2.78814e-06
-5.79618e-07
2.94581e-06
-6.98636e-07
3.18997e-06
-8.98489e-07
3.47915e-06
-1.15959e-06
3.77087e-06
-7.15564e-07
-7.62081e-07
1.73035e-06
-7.16997e-07
1.89426e-06
-8.05985e-07
1.61221e-06
-7.23661e-07
1.76848e-06
-7.97751e-07
1.47188e-06
-7.23608e-07
1.63272e-06
-8.09384e-07
1.31468e-06
-7.06666e-07
1.47448e-06
-8.00422e-07
1.14412e-06
-6.55403e-07
1.29661e-06
-7.61499e-07
9.72215e-07
-5.87061e-07
1.10791e-06
-6.9598e-07
8.14351e-07
-5.09263e-07
9.18793e-07
-6.05139e-07
6.8144e-07
-4.27423e-07
7.47521e-07
-5.0756e-07
6.09897e-07
-4.04839e-07
4.3767e-07
-2.66549e-07
5.361e-07
-3.7424e-07
4.61586e-07
-3.34596e-07
3.59813e-07
-1.4104e-07
3.70649e-07
-2.09571e-07
3.01661e-07
-2.45802e-08
3.03446e-07
-8.31093e-08
3.67642e-08
4.34428e-07
1.48922e-07
4.34447e-07
2.89187e-07
4.2691e-07
4.53127e-07
4.16861e-07
6.45754e-07
4.07363e-07
8.67934e-07
4.01796e-07
1.12577e-06
4.05403e-07
1.37944e-06
4.20055e-07
1.67891e-06
4.55948e-07
2.06834e-06
5.10427e-07
2.49281e-06
5.69874e-07
2.90444e-06
6.31516e-07
3.28433e-06
6.93348e-07
3.59639e-06
7.40748e-07
3.78714e-06
7.5486e-07
3.8351e-06
7.29005e-07
3.7891e-06
6.57794e-07
3.69518e-06
5.55203e-07
3.60902e-06
4.26749e-07
3.54366e-06
2.76345e-07
3.48979e-06
1.0864e-07
3.4303e-06
-6.94719e-08
3.35006e-06
-2.46394e-07
3.23914e-06
-4.07117e-07
3.10215e-06
-5.34963e-07
2.97181e-06
-6.24523e-07
2.92322e-06
-6.94907e-07
3.04297e-06
-7.93621e-07
3.32437e-06
-9.59418e-07
3.69325e-06
-1.20404e-06
4.07478e-06
-1.49662e-06
4.38303e-06
-1.77376e-06
2.0418e-06
-8.6331e-07
2.20421e-06
-9.24772e-07
1.9252e-06
-8.73718e-07
2.07121e-06
-9.52044e-07
1.78773e-06
-8.78489e-07
1.93196e-06
-9.41822e-07
1.63025e-06
-8.79034e-07
1.77611e-06
-9.54908e-07
1.45227e-06
-8.61853e-07
1.59813e-06
-9.45802e-07
1.25714e-06
-8.0408e-07
1.40134e-06
-9.05082e-07
1.05372e-06
-7.21383e-07
1.1935e-06
-8.35047e-07
8.52824e-07
-6.14093e-07
9.80759e-07
-7.32304e-07
6.72055e-07
-4.89294e-07
7.73286e-07
-6.08202e-07
5.9171e-07
-4.60124e-07
3.87893e-07
-2.83655e-07
5.07735e-07
-4.20041e-07
4.22461e-07
-3.68817e-07
3.08667e-07
-1.46182e-07
3.1904e-07
-2.19822e-07
2.51113e-07
-2.46725e-08
2.52388e-07
-8.43109e-08
3.5215e-08
4.28679e-07
1.46826e-07
4.36623e-07
2.92174e-07
4.31604e-07
4.60803e-07
4.19394e-07
6.57145e-07
4.05649e-07
8.82335e-07
3.93153e-07
1.13912e-06
3.88648e-07
1.38912e-06
3.95947e-07
1.67651e-06
4.22713e-07
2.05558e-06
4.68926e-07
2.4796e-06
5.23811e-07
2.89155e-06
5.82909e-07
3.27022e-06
6.45703e-07
3.58758e-06
7.02203e-07
3.79452e-06
7.334e-07
3.85984e-06
7.30138e-07
3.83211e-06
6.86011e-07
3.74998e-06
6.03011e-07
3.67389e-06
4.90339e-07
3.62317e-06
3.47229e-07
3.58787e-06
1.78246e-07
3.55122e-06
-1.22684e-08
3.49477e-06
-2.14152e-07
3.40303e-06
-4.1014e-07
3.27768e-06
-5.8261e-07
3.16156e-06
-7.24396e-07
3.16117e-06
-8.61936e-07
3.385e-06
-1.03686e-06
3.79179e-06
-1.26212e-06
4.25284e-06
-1.52146e-06
4.64865e-06
-1.78089e-06
4.8884e-06
-2.00452e-06
-2.31236e-06
4.91279e-06
-1.07061e-06
-1.10065e-06
2.20221e-06
-9.94423e-07
-1.03506e-06
2.06323e-06
-1.00489e-06
2.17819e-06
-1.06697e-06
1.90639e-06
-1.00848e-06
2.02025e-06
-1.05545e-06
1.72893e-06
-1.00939e-06
1.8433e-06
-1.06887e-06
1.53204e-06
-9.91948e-07
1.64605e-06
-1.05924e-06
1.32106e-06
-9.30906e-07
1.43302e-06
-1.01633e-06
1.10462e-06
-8.44404e-07
1.21337e-06
-9.42949e-07
8.89302e-07
-7.29184e-07
9.9421e-07
-8.36252e-07
6.80983e-07
-5.77882e-07
7.79605e-07
-7.05757e-07
5.82673e-07
-5.34297e-07
3.39087e-07
-3.03395e-07
4.80996e-07
-4.7776e-07
3.79135e-07
-4.08044e-07
2.57772e-07
-1.5146e-07
2.66944e-07
-2.28751e-07
2.02178e-07
-2.3737e-08
2.02851e-07
-8.48931e-08
3.35727e-08
4.06239e-07
1.43587e-07
4.32012e-07
2.92846e-07
4.36097e-07
4.65802e-07
4.26758e-07
6.66487e-07
4.10231e-07
8.96664e-07
3.91515e-07
1.15405e-06
3.78437e-07
1.40029e-06
3.77725e-07
1.67827e-06
3.94469e-07
2.04788e-06
4.30668e-07
2.47108e-06
4.77672e-07
2.88439e-06
5.31143e-07
3.26121e-06
5.92019e-07
3.57969e-06
6.53649e-07
3.79613e-06
7.00628e-07
3.87475e-06
7.18521e-07
3.85853e-06
7.03749e-07
3.78939e-06
6.46624e-07
3.72009e-06
5.56824e-07
3.6842e-06
4.29311e-07
3.67015e-06
2.64945e-07
3.66142e-06
6.8036e-08
3.63609e-06
-1.5352e-07