/*--------------------------------*- C++ -*----------------------------------*\
  =========                 |
  \\      /  F ield         | OpenFOAM: The Open Source CFD Toolbox
   \\    /   O peration     | Website:  https://openfoam.org
    \\  /    A nd           | Version:  dev
     \\/     M anipulation  |
\*---------------------------------------------------------------------------*/
FoamFile
{
    version     2.0;
    format      ascii;
    class       volScalarField;
    location    "2500";
    object      qr;
}
// * * * * * * * * * * * * * * * * * * * * * * * * * * * * * * * * * * * * * //

dimensions      [1 0 -3 0 0 0 0];

internalField   uniform 0;

boundaryField
{
    lowerOutlet
    {
        type            calculated;
        value           nonuniform List<scalar> 
144
(
1217.11
1221.11
1225.54
1230.37
1235.61
1241.26
1247.33
1253.85
1260.81
1268.24
1276.16
1284.58
1293.53
1303.05
1313.16
1323.89
1335.29
1347.41
1360.3
1374.01
1388.63
1404.23
1420.9
1438.76
1457.96
1478.65
1500.96
1525.12
1551.37
1580
1611.38
1645.94
1684.23
1716.64
1763.32
1816.09
1876.29
1945.55
2026.18
2121.27
2235.26
2374.27
2545.6
2760.39
2985.8
3252.14
3800.69
4274.47
-2876.87
3478.9
2860.97
2531.83
2316.4
2138.67
2018.67
1922.12
1842.58
1776.05
1719.26
1670.09
1626.97
1588.79
1554.71
1516.34
1489.22
1464.46
1441.72
1420.73
1401.28
1383.19
1366.32
1350.54
1335.75
1321.87
1308.81
1296.49
1284.85
1273.85
1263.43
1253.57
1244.22
1235.37
1226.97
1219.01
1211.47
1204.33
1197.57
1191.18
1185.15
1179.47
1174.12
1169.11
1164.41
1160.03
1155.97
1152.24
2071.68
2175.54
2301.26
2455.21
2647.03
2918.57
3208.37
3628.35
4158.79
3216.69
3647.69
2980.31
2599.7
2363.67
2210.84
2075.18
1967.98
1880.48
1807.93
1746.59
1984.26
3055.96
3346.18
3922.27
4388.07
4035.24
3324.02
2761.2
2470.53
2272.58
1693.83
2854.11
3129.63
3474.96
4041.86
4492.99
3830.96
3087.62
2675.37
2414.8
1739.29
1788.87
1845.17
1909.67
1647.85
1607.31
1571.28
1538.98
)
;
    }
    top
    {
        type            calculated;
        value           nonuniform List<scalar> 
100
(
1116.58
1118.13
1120.89
1123.98
1126.82
1129.17
1130.97
1132.39
1134.67
1136.57
1138.22
1139.8
1141.24
1142.52
1144.01
1145.63
1147.41
1149.37
1151.19
1151.73
1149.58
1145.53
1143.88
1145.77
1151.05
1158.59
1164.56
1168.54
1171.73
1175.24
1179.41
1183.94
1187.67
1190.26
1192.27
1193.98
1195.47
1196.79
1197.92
1198.81
1199.59
1200.18
1200.67
1200.98
1201.11
1201.08
1200.89
1200.57
1200.08
1199.5
1198.8
1197.94
1196.99
1195.93
1194.74
1193.46
1192.07
1190.6
1189.04
1187.39
1185.72
1183.93
1182
1180.07
1178.03
1175.91
1173.68
1171.34
1168.91
1166.36
1163.65
1160.92
1158.06
1155.07
1151.99
1148.78
1145.53
1142.29
1139.26
1136.5
1149.11
1145.7
1142.28
1138.85
1135.4
1131.95
1128.5
1125.04
1121.57
1118.12
1114.68
1111.26
1107.85
1104.44
1101.05
1097.69
1090.94
1087.14
1084.19
1082.63
)
;
    }
    sides
    {
        type            calculated;
        value           nonuniform List<scalar> 
100
(
1217.13
1220.39
1223.28
1225.78
1227.91
1229.67
1231.06
1232.09
1232.78
1233.13
1233.16
1232.87
1232.29
1231.42
1230.28
1228.89
1227.25
1225.39
1220.27
1221.05
1218.59
1215.97
1213.19
1210.28
1207.25
1204.1
1200.85
1197.51
1194.09
1190.61
1187.07
1183.48
1179.85
1176.2
1172.52
1168.83
1165.13
1161.43
1157.73
1154.05
1150.38
1146.73
1143.1
1139.5
1135.94
1132.41
1128.91
1125.45
1122.03
1118.7
1152.26
1155.41
1158.28
1160.84
1163.11
1165.09
1166.78
1168.19
1169.33
1170.19
1170.8
1171.15
1171.26
1171.14
1170.79
1170.22
1169.45
1168.48
1167.33
1166
1164.51
1162.86
1161.06
1159.13
1157.07
1154.9
1152.62
1150.23
1147.76
1145.2
1142.56
1139.85
1137.08
1134.25
1131.36
1128.43
1125.46
1122.45
1119.41
1116.34
1113.24
1110.11
1106.97
1103.81
1100.63
1097.44
1094.24
1091.03
1087.8
1084.61
)
;
    }
    front
    {
        type            empty;
    }
    back
    {
        type            empty;
    }
    roller
    {
        type            calculated;
        value           nonuniform List<scalar> 
144
(
4552.62
4175.13
3360.49
2804.93
1835.11
1528.19
1539.86
1475.93
1413.21
1383.48
5013.94
5328.9
5101.29
4426.88
4343.71
2873.69
2302.55
2266.32
1874.15
2075.19
1697.99
1625.31
1494.36
1557.12
1441.72
1435.5
1390.62
1408.08
4087.61
4720.19
2702.14
2199.71
2459.93
2392.29
1807.94
1658.43
1607.46
1591.43
1527.46
1380.43
1385.46
4891.61
5289.68
5214.17
3628.67
4251.24
3925.8
4570.36
3734.15
3023.19
2327.64
1915.61
2124.12
1638.87
1502.8
1434.63
1427.77
5124.89
5330.77
4960.91
2206.08
1754.4
1725.12
1646.08
1582.09
1680.83
1407.95
3776.48
3532.94
3351.63
3177.75
2532.6
2066.91
2025.51
1920.45
1664.6
1887.78
1799.64
1596.48
1774.15
1538.34
1514.7
1451.89
1486.39
1498.09
1419.01
1414.06
1382.03
5219.22
5292.22
4800.17
3944.21
3494.24
3202.54
2926.9
2691.46
2010.82
1961.01
2162.91
1704.08
1628.54
1568.83
1552.54
1473.01
1514.29
1462.68
1401.93
1397.66
1403.78
1395.81
1391.92
1389.3
1383.39
1382.15
1380.72
3059.05
2551.88
2419.19
2608.61
2128.67
1784.03
1989.33
1954.34
1683.94
1856.66
1827.31
1612.04
1750.82
1722.47
1483.06
1575.9
1463.28
1427.46
1443.91
1452.88
1420.67
1387.77
1393.88
1400.17
1385.02
1387
1380.74
1381.27
1381.22
)
;
    }
    burner
    {
        type            calculated;
        value           nonuniform List<scalar> 
16
(
-128314
-125768
-123739
-123030
-126520
-124135
-122900
-126134
-127804
-125029
-123317
-123483
-127185
-124517
-123006
-124415
)
;
    }
}


// ************************************************************************* //
