/*--------------------------------*- C++ -*----------------------------------*\
  =========                 |
  \\      /  F ield         | OpenFOAM: The Open Source CFD Toolbox
   \\    /   O peration     | Website:  https://openfoam.org
    \\  /    A nd           | Version:  dev
     \\/     M anipulation  |
\*---------------------------------------------------------------------------*/
FoamFile
{
    version     2.0;
    format      ascii;
    class       volScalarField;
    location    "2500";
    object      rAU;
}
// * * * * * * * * * * * * * * * * * * * * * * * * * * * * * * * * * * * * * //

dimensions      [-1 3 1 0 0 0 0];

internalField   nonuniform List<scalar> 
9851
(
0.00821089
0.00827935
0.00822894
0.00826233
0.00839698
0.00816376
0.00823447
0.00839097
0.00840298
0.0081096
0.00821144
0.00838815
0.00838758
0.0084159
0.00805984
0.00819489
0.00839149
0.00837914
0.00839864
0.00842507
0.00801511
0.00818092
0.00840029
0.00837864
0.00838362
0.00841426
0.00842925
0.00797516
0.00816804
0.00840881
0.00838253
0.00837479
0.00839884
0.00842449
0.00843157
0.00793945
0.0081532
0.00841742
0.00839144
0.00836946
0.00838442
0.00841531
0.00842953
0.00843273
0.00790748
0.0081368
0.00842175
0.00840311
0.00836983
0.00837304
0.00840233
0.00842534
0.0084324
0.00843339
0.00787889
0.00812244
0.00842266
0.0084133
0.00837459
0.0083664
0.00838766
0.00841794
0.00843071
0.0084341
0.008434
0.00785327
0.00810876
0.00842339
0.00842084
0.00838311
0.00836217
0.00837503
0.00840652
0.00842709
0.00843365
0.00843528
0.00843418
0.00783032
0.00809492
0.00842535
0.00842651
0.00839555
0.00836284
0.00836564
0.00839306
0.00842078
0.00843205
0.00843549
0.00843604
0.00843431
0.00780992
0.0080795
0.00842702
0.00843049
0.00840793
0.00836673
0.00836033
0.00837966
0.00841157
0.00842947
0.00843509
0.00843678
0.00843664
0.00843453
0.00779193
0.0080617
0.00843009
0.00843209
0.00841554
0.00837488
0.00835636
0.0083689
0.00839987
0.00842439
0.00843382
0.00843693
0.00843758
0.00843703
0.0084345
0.00777597
0.00803304
0.00843403
0.0084324
0.00842202
0.00838636
0.0083555
0.00836045
0.00838712
0.00841714
0.00843165
0.00843638
0.00843811
0.00843823
0.00843739
0.00843445
0.00776213
0.00799393
0.00843271
0.00843303
0.00842601
0.00839784
0.00835878
0.00835486
0.00837483
0.0084076
0.00842837
0.00843581
0.00843823
0.00843913
0.00843879
0.00843765
0.00843438
0.00775009
0.00794119
0.00840308
0.00841509
0.00842778
0.00840779
0.00836512
0.0083514
0.00836429
0.00839605
0.00842284
0.00843468
0.00843808
0.00843941
0.00843998
0.00843914
0.00843781
0.00843438
0.00774001
0.00830951
0.00824979
0.00837663
0.00841412
0.0084138
0.0083746
0.00834967
0.00835672
0.00838369
0.008415
0.00843246
0.00843807
0.0084396
0.00844033
0.00844052
0.00843945
0.00843781
0.00843422
0.00773167
0.00802991
0.00831919
0.00832241
0.0083639
0.0083468
0.0083853
0.00835164
0.00835108
0.00837239
0.00840485
0.0084281
0.00843771
0.00843993
0.00844056
0.00844103
0.00844075
0.00843991
0.00843808
0.00843419
0.00772521
0.0080123
0.00831713
0.00832107
0.00833821
0.00828871
0.00839655
0.00835558
0.00827205
0.00836234
0.00839405
0.00842158
0.00843585
0.00844077
0.0084417
0.00844152
0.00844159
0.0084412
0.00844008
0.0084381
0.00843402
0.00763293
0.00803007
0.00833276
0.00833987
0.00834521
0.00831327
0.00838865
0.00836333
0.00824086
0.00835514
0.00838308
0.0084134
0.00843235
0.00844035
0.00844242
0.0084425
0.00844228
0.00844189
0.00844152
0.00844017
0.00843826
0.00831862
0.00764097
0.00807059
0.00834626
0.00838303
0.0083529
0.00834901
0.00837166
0.00837426
0.00831655
0.00834946
0.00837275
0.00840435
0.00842737
0.00843841
0.00844294
0.00844387
0.00844336
0.00844272
0.00844232
0.00844192
0.00844045
0.0084239
0.00833598
0.00771628
0.008083
0.00838593
0.00840844
0.00836986
0.00836216
0.00837704
0.00838509
0.00834881
0.00824453
0.00836335
0.00839455
0.00842122
0.00843624
0.008442
0.00844463
0.00844495
0.00844402
0.00844311
0.00844261
0.00844201
0.00844061
0.00842866
0.00843368
0.00771734
0.0081037
0.00839161
0.00842774
0.00839942
0.00835869
0.00837471
0.00838695
0.00835582
0.00821039
0.00835549
0.00838465
0.00841391
0.00843287
0.00844123
0.00844445
0.00844619
0.008446
0.00844451
0.00844339
0.00844287
0.0084423
0.00844071
0.00843834
0.00843379
0.00772116
0.00811652
0.00840919
0.00843502
0.00842246
0.00837356
0.00835924
0.00837702
0.00836265
0.00831046
0.0083496
0.00837534
0.00840556
0.0084283
0.00843967
0.00844401
0.00844595
0.00844703
0.00844654
0.00844488
0.00844357
0.00844292
0.00844235
0.00844083
0.00843846
0.00843392
0.00772743
0.00812665
0.00841443
0.0084404
0.00843203
0.00839699
0.00835778
0.00836105
0.00836374
0.00834488
0.00834667
0.00836634
0.00839696
0.00842221
0.00843742
0.00844357
0.00844588
0.00844718
0.00844779
0.00844708
0.00844521
0.00844373
0.00844312
0.00844254
0.00844086
0.00843864
0.00843386
0.007736
0.00813504
0.00841624
0.00844173
0.008437
0.0083637
0.00836845
0.008351
0.00835702
0.00834574
0.00834431
0.00835959
0.00838799
0.00841552
0.00843382
0.00844236
0.00844591
0.00844705
0.00844803
0.00844824
0.00844749
0.0084456
0.00844404
0.00844331
0.0084427
0.00844104
0.00843863
0.00843395
0.00774734
0.00814371
0.00841698
0.00844211
0.00844101
0.00836226
0.00838577
0.00834963
0.00834646
0.00834429
0.00834212
0.00835332
0.00838045
0.00840807
0.00842949
0.00844094
0.00844533
0.00844758
0.00844807
0.00844871
0.00844875
0.00844784
0.00844594
0.00844399
0.00844343
0.008443
0.0084412
0.00843866
0.00843395
0.00776178
0.00815284
0.00841731
0.00844193
0.00844157
0.00842087
0.00840385
0.0083564
0.00833872
0.00833949
0.00834002
0.00834808
0.00837292
0.00840137
0.00842432
0.00843835
0.00844493
0.00844759
0.00844868
0.00844904
0.00844915
0.00844936
0.0084483
0.00844613
0.00844422
0.00844378
0.00844315
0.00844122
0.00843855
0.0084339
0.00777977
0.00816279
0.00841809
0.00844177
0.00844194
0.00843746
0.00841699
0.0083692
0.00833629
0.00833215
0.00833658
0.00834409
0.00836479
0.00839407
0.00841916
0.00843587
0.00844373
0.0084472
0.00844908
0.00844949
0.00844953
0.00844964
0.00844963
0.00844859
0.00844611
0.00844439
0.00844368
0.00844298
0.00844105
0.0084384
0.00843376
0.00780174
0.00817445
0.00841984
0.00844189
0.00844172
0.00843864
0.00842539
0.00838501
0.00833935
0.00832504
0.00833097
0.00833987
0.00835785
0.00838608
0.00841321
0.00843272
0.00844324
0.00844673
0.00844882
0.00845014
0.00845026
0.00844991
0.00844979
0.00844981
0.00844862
0.00844637
0.00844446
0.00844363
0.00844291
0.00844094
0.00843824
0.00843363
0.00782794
0.00818636
0.00842255
0.00844173
0.00844149
0.00843865
0.0084289
0.00839879
0.00834769
0.00832124
0.00832396
0.00833448
0.00835195
0.00837862
0.00840587
0.00842821
0.00844165
0.00844743
0.00844881
0.00845015
0.0084507
0.00845066
0.0084501
0.00845006
0.00845004
0.00844896
0.00844653
0.00844443
0.00844358
0.00844279
0.00844074
0.00843796
0.00843384
0.00785319
0.00819728
0.00842542
0.0084415
0.00844119
0.00843839
0.0084312
0.00840884
0.00835973
0.00832158
0.00831679
0.00832784
0.00834581
0.00837179
0.00839919
0.00842251
0.00843837
0.00844708
0.00845001
0.00845021
0.0084509
0.00845085
0.00845069
0.0084503
0.00845031
0.00845039
0.0084492
0.00844652
0.00844437
0.00844345
0.00844261
0.00844029
0.00843864
0.00842573
0.00717833
0.0082124
0.00820771
0.0084274
0.00844138
0.00844113
0.0084379
0.00843165
0.00841552
0.00837331
0.00832552
0.00831095
0.0083206
0.00833945
0.00836513
0.00839255
0.00841692
0.00843449
0.00844472
0.00845006
0.00845148
0.00845126
0.00845114
0.00845099
0.00845078
0.00845045
0.00845051
0.00845062
0.00844912
0.00844634
0.00844409
0.00844309
0.00844232
0.00842251
0.00847063
0.0082259
0.00823017
0.00721725
0.00821607
0.008218
0.00842949
0.00844125
0.00844092
0.00843761
0.00843172
0.00841992
0.0083859
0.00833345
0.00830714
0.00831315
0.00833218
0.00835868
0.00838596
0.00841127
0.00843075
0.00844227
0.00844858
0.00845191
0.00845254
0.0084522
0.00845134
0.00845103
0.00845082
0.00845047
0.00845063
0.00845035
0.00844868
0.00844574
0.00844336
0.00844324
0.0084246
0.00830971
0.0081995
0.00823533
0.008323
0.00824232
0.00823352
0.00824117
0.0072735
0.00824252
0.00822632
0.00843129
0.0084411
0.00844071
0.00843738
0.00843143
0.00842234
0.00839578
0.00834366
0.00830743
0.00830644
0.00832413
0.00835196
0.00837996
0.00840563
0.00842646
0.00844002
0.00844712
0.00845064
0.00845277
0.00845335
0.00845288
0.00845132
0.008451
0.00845077
0.00845055
0.00845027
0.00844974
0.00844785
0.00844479
0.00844402
0.00842731
0.008209
0.00821483
0.00821795
0.00824906
0.00824607
0.00825727
0.00825991
0.00826614
0.0073322
0.0082661
0.00823366
0.00843249
0.00844089
0.00844044
0.00843709
0.00843104
0.00842376
0.0084025
0.00835466
0.00830998
0.00830144
0.00831591
0.00834458
0.00837359
0.00839994
0.00842219
0.00843745
0.00844581
0.00844988
0.00845185
0.00845299
0.00845365
0.00845301
0.00845114
0.00845084
0.00845079
0.00845028
0.00844977
0.00844899
0.00844716
0.00844603
0.00842962
0.00821883
0.00822358
0.00823027
0.00823941
0.00825239
0.00827272
0.00826682
0.00827958
0.00828362
0.0082885
0.00739324
0.00828568
0.00824009
0.00843337
0.00844073
0.0084401
0.00843674
0.00843062
0.00842455
0.00840738
0.00836622
0.00831464
0.00829738
0.00830839
0.00833649
0.00836719
0.00839403
0.00841737
0.00843447
0.00844439
0.00844925
0.0084513
0.00845203
0.00845258
0.00845342
0.00845267
0.00845078
0.00845068
0.0084505
0.0084499
0.00844922
0.00844838
0.00844854
0.00843083
0.00822861
0.00823107
0.00824574
0.00825282
0.00826042
0.00826751
0.00827347
0.00829422
0.00828627
0.00829975
0.00830319
0.00830765
0.00745773
0.00830204
0.00824488
0.00843448
0.00844054
0.0084398
0.00843633
0.00843017
0.00842487
0.00841083
0.00837634
0.00832167
0.008295
0.00830185
0.00832782
0.00836022
0.00838823
0.00841244
0.00843129
0.00844274
0.0084485
0.00845099
0.00845156
0.00845143
0.00845173
0.00845264
0.00845192
0.00845055
0.00845035
0.00844996
0.00844933
0.00844869
0.00844876
0.008427
0.00822955
0.0082167
0.00825751
0.0082549
0.0082719
0.0082749
0.00828231
0.00829001
0.00829187
0.00831248
0.00830445
0.00831652
0.00831895
0.00832383
0.00752545
0.00831593
0.00824799
0.0084354
0.00844034
0.00843949
0.00843591
0.00842969
0.00842484
0.00841304
0.00838406
0.00832984
0.00829426
0.00829582
0.00831919
0.00835263
0.00838223
0.0084072
0.00842759
0.00844086
0.00844764
0.00845062
0.00845139
0.00845088
0.00845019
0.00845023
0.00845126
0.00845109
0.00845061
0.00844969
0.00844918
0.00844832
0.00844764
0.00842027
0.00819532
0.00817561
0.00823638
0.00821033
0.00826806
0.00824012
0.00829185
0.00828025
0.00829969
0.00830513
0.00830867
0.00832777
0.00831972
0.0083302
0.00833184
0.0083371
0.00759529
0.00832723
0.00824955
0.00843608
0.00844019
0.00843921
0.00843551
0.00842922
0.0084246
0.00841443
0.00838932
0.00833748
0.00829537
0.00829082
0.00831059
0.00834486
0.008376
0.00840184
0.00842352
0.00843866
0.0084467
0.00845024
0.00845123
0.00845053
0.00844916
0.0084479
0.00844781
0.00844937
0.0084503
0.00844992
0.00844755
0.00844564
0.00844326
0.00839581
0.00814926
0.00811508
0.00819206
0.00816978
0.00820489
0.00818572
0.00824611
0.00820479
0.00829053
0.00825082
0.00831117
0.00829628
0.00831946
0.00834053
0.0083285
0.00833832
0.00834241
0.00834786
0.00766914
0.00833693
0.00824641
0.00843656
0.00844009
0.008439
0.00843514
0.00842879
0.00842425
0.00841549
0.00839269
0.00834468
0.00829751
0.00828662
0.00830245
0.00833673
0.00836953
0.00839637
0.00841906
0.00843602
0.00844563
0.00844989
0.00845105
0.00845024
0.00844823
0.00844592
0.00844397
0.00844447
0.00844664
0.00844472
0.00841182
0.00843585
0.00842609
0.00835796
0.00805071
0.00793413
0.00811241
0.00800998
0.00815025
0.00806726
0.00817538
0.00812077
0.00820527
0.00816284
0.00825348
0.00820366
0.00829743
0.00825357
0.008302
0.00834891
0.00830927
0.00832193
0.00835148
0.00835507
0.00774489
0.00834478
0.00824255
0.00843683
0.00844012
0.0084389
0.00843486
0.00842844
0.00842394
0.00841619
0.00839587
0.00835164
0.0083003
0.0082825
0.00829507
0.00832803
0.00836278
0.00839065
0.00841423
0.00843289
0.00844433
0.00844952
0.00845093
0.00845002
0.00844734
0.00844381
0.00844003
0.00843725
0.00843716
0.00840696
0.00837762
0.00841424
0.00839245
0.00830652
0.00781243
0.00769657
0.00787807
0.00773918
0.00793912
0.00779764
0.00801124
0.00786729
0.00808222
0.00794795
0.00814417
0.00803949
0.00820188
0.00812468
0.00824925
0.00819714
0.00825062
0.00833786
0.00825835
0.00827656
0.00835828
0.00834979
0.00782095
0.00835061
0.00824211
0.00842377
0.00844029
0.0084389
0.00843472
0.00842819
0.00842369
0.00841676
0.00839811
0.0083573
0.00830313
0.00827877
0.00828818
0.00831907
0.00835552
0.00838462
0.00840893
0.00842913
0.00844251
0.00844906
0.00845091
0.00844986
0.00844663
0.00844164
0.00843537
0.00842814
0.00842027
0.00838389
0.00837468
0.00837107
0.00834032
0.00826098
0.00758779
0.00734413
0.00761804
0.00751633
0.00765997
0.00753761
0.00771628
0.0075825
0.00779241
0.00764175
0.00788205
0.00771559
0.00799122
0.007818
0.00810706
0.00794639
0.00818895
0.00808975
0.00818817
0.00829856
0.00819604
0.00821414
0.0083579
0.00831683
0.00789619
0.00835223
0.00824431
0.0084109
0.00844048
0.008439
0.00843471
0.00842809
0.00842358
0.00841711
0.0084001
0.00836203
0.00830573
0.00827521
0.00828142
0.00831018
0.00834771
0.00837822
0.00840266
0.00842459
0.00844001
0.00844815
0.00845084
0.00844974
0.00844608
0.00843992
0.00843079
0.00841771
0.00839838
0.00837339
0.00834339
0.00831671
0.00824602
0.00815075
0.00790443
0.00739372
0.00716706
0.00740922
0.0073128
0.00744416
0.00735544
0.00750305
0.00739251
0.00756611
0.00743488
0.00764095
0.00748965
0.00775247
0.00757298
0.00790987
0.0076961
0.008072
0.00787986
0.008066
0.00823508
0.00807478
0.00810089
0.00833296
0.00825408
0.00796539
0.00833717
0.00825298
0.00840985
0.00841476
0.00843943
0.00843494
0.00842818
0.00842363
0.00841749
0.00840115
0.00836509
0.00830757
0.00827161
0.00827451
0.00830114
0.00833954
0.00833836
0.00836719
0.00841859
0.00843651
0.00844654
0.00845031
0.00844957
0.00844558
0.00843821
0.00842686
0.00840763
0.00837519
0.00833391
0.00829365
0.00822516
0.00815234
0.00803914
0.0079774
0.00710081
0.00701307
0.00724144
0.00718165
0.00725656
0.0071778
0.0072754
0.00720417
0.00731798
0.00722843
0.00736423
0.00725708
0.00741751
0.00729449
0.0075067
0.0073559
0.00765576
0.00745507
0.00785299
0.00762204
0.00784528
0.00813578
0.00786308
0.00790722
0.0082869
0.00818322
0.00801648
0.00830756
0.00827463
0.0084161
0.00839748
0.00840216
0.00843521
0.00842851
0.00842386
0.00841775
0.00840213
0.00836744
0.00830904
0.00826779
0.00826698
0.00829154
0.00833084
0.00830399
0.00819699
0.00838256
0.00843142
0.00844367
0.00844886
0.00844887
0.00844516
0.00843724
0.00842335
0.00839843
0.00835354
0.00829408
0.00822049
0.0081497
0.00802845
0.00796471
0.00797415
0.00711309
0.00664447
0.0070683
0.00704565
0.00714796
0.0071076
0.00714873
0.00710429
0.00714979
0.00708468
0.0071646
0.00709548
0.00719684
0.00711551
0.00723236
0.0071407
0.00729904
0.00718417
0.00742365
0.00726177
0.00759371
0.00739063
0.00759046
0.00797129
0.00761692
0.00766779
0.00823487
0.00805632
0.00801047
0.00826203
0.00830843
0.00842488
0.00841391
0.00837137
0.00843533
0.00842902
0.00842435
0.00841797
0.00840254
0.00836849
0.0083097
0.00826361
0.00825827
0.00828134
0.00832151
0.00830031
0.0081512
0.00802415
0.0084244
0.00838445
0.00844563
0.00844708
0.00844425
0.00843659
0.00842175
0.00839174
0.00833415
0.00825804
0.00815727
0.00804471
0.00796162
0.00806903
0.00797075
0.00666052
0.0068332
0.00648805
0.00627119
0.00650616
0.00636386
0.00705569
0.00701458
0.00703903
0.00701359
0.00703802
0.00699404
0.0070481
0.00700398
0.00707242
0.00701893
0.00709445
0.00703467
0.00714284
0.00706319
0.00724034
0.00712254
0.00736842
0.0072117
0.00737243
0.00774686
0.00740138
0.00744656
0.00814855
0.00786735
0.00791181
0.00821109
0.00835133
0.00842731
0.00842321
0.0083914
0.00841465
0.00842887
0.008425
0.00841833
0.00836512
0.00836931
0.00830979
0.00825903
0.00824831
0.0082707
0.00831185
0.00829891
0.00824914
0.00783882
0.00841533
0.00837302
0.00837925
0.00844393
0.00844225
0.00843554
0.00842159
0.00838983
0.00832054
0.0082231
0.00811074
0.00796411
0.0079501
0.0080427
0.00782726
0.00793057
0.00652021
0.00666594
0.00682292
0.00699349
0.00681783
0.00699665
0.00653336
0.00638046
0.0065709
0.00640246
0.00697077
0.00660277
0.00697858
0.00666401
0.0069958
0.00696973
0.00700599
0.00697568
0.00703873
0.00699019
0.00710815
0.00703288
0.00719909
0.00708603
0.00721155
0.00752735
0.00723598
0.00727302
0.00800658
0.00765288
0.00791867
0.00812466
0.00843991
0.00842092
0.00841109
0.00839477
0.00842788
0.00842519
0.00841887
0.00836534
0.00833675
0.00830954
0.00825427
0.0082379
0.00825895
0.00830157
0.00829873
0.00826812
0.00813616
0.00834062
0.00841782
0.00835579
0.00843316
0.00843965
0.00843375
0.00842137
0.00839053
0.00831643
0.00818519
0.00808205
0.00792505
0.00802434
0.00808719
0.00782246
0.00810189
0.00706098
0.00708834
0.0069993
0.00701238
0.00700722
0.00701834
0.00700715
0.00704053
0.00676691
0.00697137
0.00657138
0.00694262
0.00652507
0.00682359
0.0069549
0.00696063
0.0069626
0.00696093
0.00696109
0.00695562
0.00698049
0.0069575
0.00702129
0.00698512
0.007084
0.00700787
0.00709903
0.00734222
0.00711566
0.00703695
0.00783087
0.00745428
0.00795439
0.00802015
0.00842572
0.00841285
0.00840019
0.00841647
0.00842435
0.00841901
0.00840324
0.00833736
0.00830944
0.00824913
0.00822701
0.00824634
0.00828896
0.00829755
0.00827423
0.00832328
0.00832712
0.00840962
0.00839927
0.00841164
0.00843774
0.00843243
0.00842115
0.00839274
0.00831767
0.00816942
0.00803312
0.00808296
0.00800929
0.00805535
0.00813066
0.00821946
0.00712152
0.00711771
0.00711327
0.00716196
0.00704014
0.00707192
0.00706751
0.00710031
0.00708808
0.00713902
0.00701011
0.00703989
0.00700609
0.00704643
0.00698228
0.00702387
0.0069713
0.0070024
0.00696657
0.00698994
0.00696023
0.00698153
0.00697477
0.00699271
0.00698974
0.0070187
0.0070145
0.00685663
0.00690425
0.0069602
0.00678344
0.00468373
0.00491789
0.00763643
0.00707826
0.00789541
0.00787039
0.00841503
0.0084012
0.00840432
0.00842059
0.00841809
0.00840329
0.00837128
0.00830914
0.00824312
0.00821472
0.00823186
0.00827446
0.00829426
0.00828906
0.00831721
0.00837479
0.0083957
0.00835995
0.00838487
0.00843179
0.0084328
0.00842225
0.00839659
0.0083224
0.00816933
0.00799996
0.0080494
0.00817519
0.00760059
0.00820848
0.00823076
0.00807623
0.00722177
0.0072417
0.00725758
0.00732393
0.00714502
0.00719783
0.00718813
0.00724515
0.00721621
0.00728499
0.00708757
0.00714447
0.00708264
0.00713874
0.00704687
0.00710782
0.00702562
0.00707705
0.00701223
0.00705896
0.00704922
0.00709265
0.00709345
0.00701786
0.00694457
0.00706275
0.00674404
0.00472646
0.00474659
0.00476645
0.004612
0.00465967
0.00501282
0.00474859
0.00462383
0.004671
0.00463938
0.00445606
0.00728006
0.00473234
0.00487608
0.00519739
0.00774747
0.00760798
0.00840463
0.00838743
0.0084106
0.00841459
0.00840288
0.00837196
0.00830892
0.00823663
0.00820067
0.00821446
0.00825753
0.00829511
0.00829978
0.00832083
0.00835738
0.00831654
0.00809785
0.00802714
0.00831646
0.0084309
0.00842432
0.00840027
0.00833229
0.00817947
0.00800134
0.0080178
0.0081558
0.0075772
0.00819825
0.00825046
0.00831085
0.00756216
0.0076022
0.00739584
0.00747624
0.00745449
0.00752873
0.00731048
0.00738053
0.00735548
0.00743291
0.00736475
0.00744249
0.00720173
0.00728029
0.00718256
0.00724962
0.00706677
0.00712201
0.00711367
0.00717944
0.00711048
0.00716577
0.00706372
0.00706655
0.00696492
0.00514358
0.00508675
0.00482535
0.00498702
0.00518511
0.00506956
0.00477844
0.00465431
0.004859
0.00474075
0.00453658
0.00446829
0.0045007
0.0044539
0.0045514
0.00456545
0.00448037
0.00490128
0.0055829
0.00519132
0.00454749
0.0046201
0.00754439
0.0053503
0.00591738
0.00636189
0.00837182
0.00836966
0.0084073
0.00840035
0.00837192
0.00830913
0.008231
0.0081864
0.00819481
0.00823778
0.00828653
0.00830612
0.00832074
0.00833765
0.00830608
0.00796408
0.00769537
0.00794694
0.00840645
0.00841559
0.00840142
0.00834108
0.00820032
0.00802268
0.00801027
0.00813315
0.00799223
0.00818231
0.00826576
0.00834628
0.00814258
0.00774901
0.0077826
0.00760098
0.00767313
0.00767313
0.00774203
0.00751376
0.00759478
0.00752105
0.00760424
0.0074802
0.00752559
0.00732118
0.00740246
0.00727186
0.0073561
0.00724986
0.00732617
0.0072342
0.00730666
0.00706203
0.00711472
0.00508257
0.00512078
0.00508534
0.0050849
0.00520671
0.00527124
0.00511799
0.00505201
0.00483919
0.00497444
0.00511586
0.00504226
0.00480947
0.00464371
0.00482318
0.00489646
0.00469761
0.00449764
0.00454509
0.00458602
0.00470852
0.00473251
0.00460569
0.00476808
0.00497045
0.00460743
0.00470863
0.00624915
0.00608424
0.00697879
0.00530689
0.0057255
0.00831774
0.00834886
0.00839483
0.00837056
0.00830957
0.00822738
0.00817334
0.00817463
0.00821606
0.00826896
0.00829949
0.00830778
0.00831264
0.00829384
0.00819
0.00787044
0.00776551
0.00826183
0.00837251
0.00838573
0.00834264
0.00822148
0.00805028
0.0080183
0.00810661
0.00812171
0.00810042
0.00825681
0.00836585
0.00829399
0.0076424
0.00785519
0.00790675
0.00771461
0.00780148
0.00785532
0.00784506
0.00789835
0.00768893
0.00777108
0.00755936
0.00759567
0.00749348
0.00746037
0.00742681
0.00747522
0.00739849
0.00745559
0.00737378
0.00743534
0.00717112
0.00722058
0.00509532
0.00514696
0.00520648
0.00524638
0.00502918
0.00502941
0.00501972
0.00506041
0.00513179
0.00515301
0.00511544
0.00511244
0.00500888
0.00509389
0.00517622
0.00515052
0.00495038
0.00484923
0.00498216
0.00505165
0.00489432
0.00463643
0.00468143
0.00477675
0.00490225
0.00493033
0.00479096
0.0048596
0.00507915
0.00474617
0.00484108
0.00630295
0.005696
0.00679667
0.00541103
0.00586386
0.00825713
0.00838535
0.00836735
0.00830864
0.00822467
0.00816263
0.00815452
0.00819337
0.00824958
0.00828383
0.00829339
0.00828654
0.00826938
0.00823283
0.00815294
0.00802459
0.00819514
0.00830882
0.00833685
0.00832926
0.00823444
0.00807696
0.00802972
0.00808126
0.00808445
0.00806889
0.00796104
0.00835803
0.00841629
0.00831453
0.00804691
0.00802977
0.00793896
0.00799201
0.00794623
0.00794713
0.00776421
0.00785562
0.00762189
0.00768541
0.00737331
0.00739786
0.00753485
0.00751036
0.00751196
0.00753881
0.00748377
0.00751933
0.00747928
0.00751528
0.00528295
0.00531868
0.0053424
0.00561374
0.0051207
0.00519055
0.00524596
0.00528396
0.0050875
0.00507338
0.00512456
0.0051988
0.00519685
0.00513818
0.00518572
0.00514941
0.00512786
0.00518638
0.0052264
0.00521648
0.00510166
0.00502471
0.00512061
0.00517129
0.0050644
0.00481186
0.0048392
0.00496348
0.00506322
0.00509883
0.00496624
0.00498047
0.0052052
0.00488549
0.00496314
0.0064483
0.00509338
0.00685392
0.00553631
0.00602004
0.00825874
0.00836096
0.00830465
0.00822218
0.00815324
0.00813601
0.00816974
0.00822886
0.00826751
0.00827623
0.00826051
0.0082275
0.00819595
0.00818895
0.00820143
0.00822461
0.00825302
0.00828239
0.00829363
0.0082342
0.00809784
0.00804035
0.00806072
0.00804561
0.00808014
0.00766747
0.00833408
0.00841768
0.00843711
0.00804859
0.00801136
0.00809034
0.00810006
0.00806859
0.00808027
0.00797258
0.00805003
0.00755882
0.00765077
0.00742491
0.00748504
0.00744765
0.00750081
0.00760164
0.00762947
0.00755288
0.00757962
0.00753462
0.00754852
0.00730182
0.00731037
0.00530978
0.00534088
0.00535099
0.00562077
0.00526722
0.00532097
0.00535755
0.0053743
0.00514146
0.00518689
0.0052731
0.00534407
0.00523399
0.00517936
0.00523165
0.00520809
0.00521202
0.00524601
0.00526274
0.00525763
0.00521084
0.00516094
0.00521633
0.00525742
0.00517833
0.0049703
0.00498294
0.00511226
0.00518407
0.00521809
0.00511092
0.00509496
0.00531766
0.0050116
0.00506706
0.00654253
0.00431694
0.00685692
0.00564827
0.00609899
0.00819552
0.00830161
0.00821775
0.00814599
0.00811902
0.00814687
0.00820669
0.00825126
0.00826099
0.00823534
0.00818662
0.00814826
0.00814606
0.00816303
0.00818747
0.00821389
0.00823996
0.00825572
0.00822036
0.0081065
0.00804974
0.00804402
0.008012
0.00803372
0.00786913
0.00809965
0.00840735
0.0084379
0.00833117
0.00812388
0.00809233
0.00810636
0.00811592
0.00808762
0.00809678
0.00781278
0.00799675
0.00769562
0.0077511
0.00756715
0.00763249
0.00741315
0.00743813
0.00756931
0.00758329
0.00755921
0.00756307
0.00730591
0.00753622
0.00539055
0.00539788
0.00537022
0.00539239
0.00538105
0.00539436
0.0053905
0.00537627
0.00539451
0.00542785
0.00544379
0.00544173
0.00526594
0.00534155
0.00541828
0.00547054
0.00528419
0.00526334
0.00533397
0.00534693
0.00527022
0.00528285
0.0053232
0.0052886
0.00527834
0.00525312
0.00528782
0.00531485
0.00526109
0.00510511
0.00511035
0.0052203
0.00527571
0.0053011
0.00521517
0.00519001
0.00540131
0.00511761
0.00515615
0.00659134
0.00410701
0.00683526
0.00568758
0.00608059
0.0081027
0.00821614
0.00813876
0.0081044
0.00812453
0.00818406
0.00823453
0.00824805
0.00821589
0.00815319
0.00811436
0.00811764
0.00814108
0.00816782
0.00819231
0.00821276
0.00822544
0.00819784
0.00810278
0.00805512
0.00803351
0.00798506
0.0079952
0.00808834
0.00797649
0.00836664
0.00843491
0.00844606
0.00807198
0.00803309
0.00813802
0.008144
0.00805348
0.00812873
0.00787588
0.0079588
0.0078469
0.00781905
0.00786356
0.00780647
0.00751778
0.00756145
0.0073579
0.00736939
0.00750378
0.00750668
0.0075237
0.00750899
0.0051328
0.00534948
0.00724705
0.00539792
0.00539273
0.0053396
0.00537104
0.00543326
0.00543385
0.00542093
0.00540188
0.00550029
0.00551439
0.00551385
0.00549834
0.00542723
0.00548755
0.0055454
0.00557825
0.0054041
0.00541537
0.00549919
0.00551264
0.005311
0.00531781
0.00546066
0.00536106
0.00533021
0.00532797
0.00535478
0.00535999
0.00533426
0.00520586
0.00520392
0.00529238
0.00535671
0.00536396
0.00528179
0.00525638
0.00542803
0.00519772
0.00521726
0.00657371
0.00364902
0.00681307
0.00561442
0.00593374
0.00798898
0.0081363
0.00809038
0.00810305
0.00815937
0.00821719
0.00823636
0.0082019
0.00812808
0.0080919
0.00810186
0.00813164
0.00816435
0.00818612
0.00820107
0.00820725
0.00815115
0.00808158
0.00805234
0.00802612
0.00796382
0.00796267
0.00805294
0.00810032
0.00821978
0.00842245
0.0084439
0.00833333
0.00815352
0.00811722
0.00814441
0.00815137
0.00777945
0.00797888
0.00784492
0.00771578
0.00772431
0.00771863
0.00753029
0.00747925
0.00743943
0.00724586
0.00752322
0.00755079
0.00740153
0.00739461
0.00721162
0.00742409
0.00530084
0.00555313
0.00523864
0.00518951
0.00541673
0.00539906
0.00532914
0.00536771
0.00547914
0.00547271
0.0054526
0.00542739
0.00559222
0.00559372
0.00558262
0.00555649
0.00557497
0.00561801
0.00566099
0.00568174
0.00557877
0.00558609
0.00567505
0.00566548
0.00535588
0.00539731
0.00564813
0.00551427
0.00537858
0.00539626
0.00542007
0.00541127
0.00540403
0.00527599
0.0052639
0.00535557
0.00543613
0.00544441
0.00535001
0.00528195
0.00535484
0.00524873
0.00523956
0.00637686
0.00384811
0.00635923
0.00537783
0.00564491
0.00787902
0.00808276
0.00808158
0.00813337
0.00819812
0.00822572
0.0081937
0.00811094
0.0080764
0.00809304
0.00813197
0.00817022
0.0081896
0.00820041
0.00818901
0.00809265
0.00802668
0.00803436
0.00801776
0.00794444
0.00793414
0.00802302
0.00812423
0.00811221
0.00827661
0.00831521
0.00844832
0.00806937
0.00803356
0.00815459
0.0081556
0.00810414
0.0081494
0.00781499
0.00767185
0.00799618
0.007812
0.00751592
0.00778475
0.00745203
0.00735903
0.00759057
0.0073963
0.00740757
0.00743793
0.00709523
0.00731704
0.00482711
0.00507189
0.00720378
0.00528186
0.00524996
0.00521379
0.00521691
0.00544228
0.00541394
0.0053208
0.00536972
0.0055294
0.00551796
0.00548953
0.00545824
0.00568704
0.0056806
0.00566065
0.00562527
0.00571167
0.00574492
0.00578187
0.0057981
0.00575705
0.00574911
0.00584337
0.0058133
0.00545479
0.00556309
0.00583701
0.00571316
0.00543355
0.00545052
0.00548714
0.00550193
0.00549183
0.00533714
0.00531831
0.00545531
0.00554525
0.00558622
0.00545094
0.0052413
0.00512245
0.00528157
0.00523226
0.00568189
0.00308904
0.00536617
0.00500135
0.00453833
0.00778862
0.00806864
0.00810604
0.0081774
0.00821613
0.00818991
0.00810311
0.00806629
0.00808807
0.00813655
0.00817819
0.0081961
0.00820379
0.00815493
0.00804461
0.007951
0.00800691
0.00800377
0.00792595
0.00790945
0.0079902
0.00809629
0.00808642
0.0080351
0.00818243
0.00844457
0.00833469
0.00816132
0.00812868
0.00815492
0.00816025
0.0080885
0.00814305
0.00804354
0.00778614
0.00766016
0.00776322
0.00706334
0.00732654
0.00757984
0.00763484
0.00748171
0.00753008
0.00731161
0.00732425
0.00503212
0.0052014
0.00727541
0.00524234
0.00559999
0.00540108
0.00547714
0.00526625
0.00523101
0.00536299
0.00543563
0.0054762
0.00543456
0.00531912
0.00537748
0.00559471
0.00557627
0.00553756
0.00549986
0.00579816
0.00578614
0.00575892
0.00571604
0.0058536
0.00588818
0.00592194
0.00593373
0.00593256
0.00591554
0.00601957
0.00597132
0.00562848
0.00577528
0.00602985
0.00591324
0.00553486
0.00554058
0.0056253
0.00566438
0.00563358
0.0054301
0.00539843
0.00560101
0.0057077
0.0057329
0.00559247
0.00509382
0.00479896
0.00531821
0.00519142
0.0059147
0.00303712
0.00636835
0.00436883
0.00516034
0.00772832
0.00807595
0.00815431
0.00820567
0.00818996
0.00810271
0.00806176
0.00808739
0.00814418
0.00818575
0.00820218
0.00816314
0.00810672
0.00798006
0.00789035
0.00797337
0.00798685
0.00791064
0.00789176
0.00796804
0.00808702
0.0080802
0.00808417
0.008129
0.00843905
0.00844834
0.00807147
0.00803121
0.00817187
0.00817
0.00815782
0.00816894
0.00810188
0.0081367
0.00799261
0.00805348
0.007499
0.00767594
0.00732458
0.00729425
0.00745256
0.00752171
0.00735473
0.00739703
0.00712063
0.00732221
0.00559217
0.00588998
0.00561715
0.00548649
0.00548561
0.0055116
0.0056342
0.00567464
0.00526787
0.00529091
0.00552728
0.00561163
0.00552051
0.00546525
0.00533466
0.00539897
0.00568098
0.00565231
0.00560195
0.00555568
0.00592957
0.00591262
0.00587774
0.00582903
0.00601392
0.00605334
0.00608166
0.00608873
0.00613219
0.00609841
0.00622745
0.00615198
0.00584378
0.00599254
0.00624717
0.00612197
0.00574158
0.00571097
0.00583786
0.00589955
0.00580001
0.00557281
0.00549537
0.00574102
0.00570547
0.00559008
0.00567527
0.00489352
0.00471285
0.00536718
0.00513426
0.00643711
0.00394779
0.00665603
0.00477798
0.00552798
0.00768414
0.00811666
0.00819402
0.00819437
0.00810905
0.00806099
0.00808817
0.00811638
0.00811748
0.00814548
0.00813583
0.00799709
0.00790004
0.00797134
0.00793262
0.00796835
0.00790172
0.00788382
0.007959
0.00807967
0.00814106
0.00822264