/*--------------------------------*- C++ -*----------------------------------*\
  =========                 |
  \\      /  F ield         | OpenFOAM: The Open Source CFD Toolbox
   \\    /   O peration     | Website:  https://openfoam.org
    \\  /    A nd           | Version:  dev
     \\/     M anipulation  |
\*---------------------------------------------------------------------------*/
FoamFile
{
    version     2.0;
    format      ascii;
    class       volScalarField;
    location    "2500";
    object      rDeltaT;
}
// * * * * * * * * * * * * * * * * * * * * * * * * * * * * * * * * * * * * * //

dimensions      [0 0 -1 0 0 0 0];

internalField   nonuniform List<scalar> 
9851
(
100
100
100
100
100
100
100
100
100
100
100
100
100
100
100
100
100
100
100
100
100
100
100
100
100
100
100
100
100
100
100
100
100
100
100
100
100
100
100
100
100
100
100
100
100
100
100
100
100
100
100
100
100
100
100
100
100
100
100
100
100
100
100
100
100
100
100
100
100
100
100
100
100
100
100
100
100
100
100
100
100
100
100
100
100
100
100
100
100
100
100
100
100
100
100
100
100
100
100
100
100
100
100
100
100
100
100
100
100
100
100
100
100
100
100
100
100
100
100
100
100
100
100
100
100
100
100
100
100
100
100
100
100
100
100
100
100
100
100
100
100
100
100
100
100
100
100
100
100
100
100
100
100
100
100
100
100
100
100
100
100
100
100
100
100
100
100
100
100
100
100
100
100
100
100
100
100
100
100
100
100
100
100
100
100
100
100
100
100
100
100
100
100
100
100
100
100
100
100
100
100
100
100
100
100
100
100
100
100
100
100
100
100
100
100
100
100
100
100
100
100
100
100
100
100
100
100
100
100
100
100
100
100
100
100
100
100
100
100
100
100
100
100
100
100
100
100
100
100
100
100
100
100
100
100
100
100
100
100
100
100
100
100
100
100
100
100
100
100
100
100
100
100
100
100
100
100
100
100
100
100
100
100
100
100
100
100
100
100
100
100
100
100
100
100
100
100
100
100
100
100
100
100
100
100
100
100
100
100
100
100
100
100
100
100
100
100
100
100
100
100
100
100
100
100
100
100
100
100
100
100
100
100
100
100
100
100
100
100
100
100
100
100
100
100
100
100
100
100
100
100
100
100
100
100
100
100
100
100
100
100
100
100
100
100
100
100
100
100
100
100
100
100
100
100
100
100
100
100
100
100
100
100
100
100
100
100
100
100
100
100
100
100
100
100
100
100
100
100
100
100
100
100
100
100
100
100
100
100
100
100
100
100
100
100
100
100
100
100
100
100
100
100
100
100
100
100
100
100
100
100
100
100
100
100
100
100
100
100
100
100
100
100
100
100
100
100
100
100
100
100
100
100
100
100
100
100
100
100
100
100
100
100
100
100
100
100
100
100
100
100
100
100
100
100
100
100
100
100
100
100
100
100
100
100
100
100
100
100
100
100
100
100
100
100
100
100
100
100
100
100
100
100
100
100
100
100
100
100
100
100
100
100
100
100
100
100
100
100
100
100
100
100
100
100
100
100
100
100
100
100
100
100
100
100
100
100
100
100
100
100
100
100
100
100
100
100
100
100
100
100
100
100
100
100
100
100
100
100
100
100
100
100
100
100
100
100
100
100
100
100
100
100
100
100
100
100
100
100
100
100
100
100
100
100
100
100
100
100
100
100
100
100
100
100
100
100
100
100
100
100
100
100
100
100
100
100
100
100
100
100
100
100
100
100
100
100
100
100
100
100
100
100
100
100
100
100
100
100
100
100
100
100
100
100
100
100
100
100
100
100
100
100
100
100
100
100
100
100
100
100
100
100
100
100
100
100
100
100
100
100
100
100
100
100
100
100
100
100
100
100
100
100
100
100
100
100
100
100
100
100
100
100
100
100
100
100
100
100
100
100
100
100
100
100
100
100
100
100
100
100
100
100
100
100
100
100
100
100
100
100
100
100
100
100
100
100
100
100
100
100
100
100
100
100
100
100
100
100
100
100
100
100
100
100
100
100
100
100
100
100
100
100
100
100
100
100
100
100
100
100
100
100
100
100
100
100
100
100
100
100
100
100
100
100
100
100
100
100
100
100
100
100
100
100
100
100
100
100
100
100
100
100
100
100
100
100
100
100
100
100
100
100
100
100
100
100
100
100
100
100
100
100
100
100
100
100
100
100
100
100
100
100
100
100
100
100
100
100
100
100
100
100
100
100
100
100
100
100
100
100
100
100
100
100
100
100
100
100
100
100
100
100
100
100
100
100
100
100
100
100
100
100
100
100
100
100
100
100
100
100
100
100
100
100
100
100
100
100
100
100
100
100
100
100
100
100
100
100
100
100
100
100
100
100
100
100
100
100
100
100
100
100
100
100
100
100
100
100
100
100
100
100
100
100
100
100
100
100
100
100
100
100
100
100
100
100
100
100
100
100
100
100
100
100
100
100
100
100
100
100
100
100
100
100
100
100
100
100
100
100
100
100
100
100
100
100
100
100
100
100
100
100
100
100
100
100
100
100
100
100
100
100
100
100
100
100
100
100
100
100
100
100
100
100
100
100
100
100
100
100
100
100
100
100
100
100
100
100
100
100
100
100
100
100
100
100
100
100
100
100
100
100
100
100
100
100
100
100
100
100
100
100
100
100
100
100
100
100
100
100
100
100
100
100
100
100
100
100
100
100
100
100
100
100
100
100
100
100
100
100
100
100
100
100
100
100
100
100
100
100
100
100
100
100
100
100
100
100
100
100
100
100
100
100
100
100
100
100
100
100
100
100
100
100
100
100
100
100
100
100
100
100
100
100
100
100
100
100
100
100
100
100
100
100
100
100
100
100
100
100
100
100
100
100
100
100
100
100
100
100
100
100
100
100
100
100
100
100
100
100
100
100
100
100
100
100
100
100
100
100
100
100
100
100
100
100
100
100
100
100
100
100
100
100
100
100
100
100
100
100
100
100
100
100
100
100
100
100
100
100
100
100
100
100
100
100
100
100
100
100
100
100
100
100
100
100
100
100
100
100
100
100
100
100
100
100
100
100
100
100
100
100
100
100
100
100
100
100
100
100
100
100
100
100
100
100
100
100
100
100
100
100
100
100
100
100
100
100
100
100
100
100
100
100
100
100
100
100
100
100
100
100
100
100
100
100
100
100
100
100
100
100
100
100
100
100
100
100
100
100
100
100
100
100
100
100
100
100
100
100
100
100
100
100
100
100
100
100
100
100
100
100
100
100
100
100
100
100
100
100
100
100
100
100
100
100
100
100
100
100
100
100
100
100
100
100
100
100
100
100
100
100
100
100
100
100
100
100
100
100
100
100
100
100
100
100
100
100
100
100
100
100
100
100
100
100
100
100
100
100
100
100
100
100
100
100
100
100
100
100
100
100
100
100
100
100
100
100
100
100
100
100
100
100
100
100
100
100
100
100
100
100
100
100
100
100
100
100
100
100
100
100
100
100
100
100
100
100
100
100
100
100
100
100
100
100
100
100
100
100
100
100
100
100
100
100
100
100
100
100
100
100
100
100
100
100
100
100
100
100
100
100
100
100
100
100
100
100
100
100
100
100
100
100
100
100
100
100
100
100
100
100
100
100
100
100
100
100
100
100
100
100
100
100
100
100
100
100
100
100
100
100
100
100
100
100
100
100
100
100
100
100
100
100
100
100
100
100
100
100
100
100
100
100
100
100
100
100
100
100
100
100
100
100
100
100
100
100
100
100
100
100
100
100
100
100
100
100
100
100
100
100
100
100
100
100
100
100
100
100
100
100
100
100
100
100
100
100
100
100
100
100
100
100
100
100
100
100
100
100
100
100
100
100
100
100
100
100
100
100
100
100
100
100
100
100
100
100
100
100
100
100
100
100
100
100
100
100
100
100
100
100
100
100
100
100
100
100
100
100
100
100
100
100
100
100
100
100
100
100
100
100
100
100
100
100
100
100
100
100
100
100
100
100
100
100
100
100
100
100
100
100
100
100
100
100
100
100
100
100
100
100
100
100
100
100
100
100
100
100
100
100
100
100
100
100
100
100
100
100
100
100
100
100
100
100
100
100
100
100
100
100
100
100
100
100
100
100
100
100
100
100
100
100
100
100
100
100
100
100
100
100
100
100
100
100
100
100
100
100
100
100
100
100
100
100
100
100
100
100
100
100
100
100
100
100
100
100
100
100
100
100
100
100
100
100
100
100
100
100
100
100
100
100
100
100
100
100
100
100
100
100
100
100
100
100
100
100
100
100
100
100
100
100
100
100
100
100
100
100
100
100
100
100
100
100
100
100
100
100
100
100
100
100
100
100
100
100
100
100
100
100
100
100
100
100
100
100
100
100
100
100
100
100
100
100
100
100
100
100
100
100
100
100
100
100
100
100
100
100
100
100
100
100
100
100
100
100
100
100
100
100
100
100
100
100
100
100
100
100
100
100
100
100
100
100
100
100
100
100
100
100
100
100
100
100
100
100
100
100
100
100
100
100
100
100
100
100
100
100
100
100
100
100
100
100
100
100
100
100
100
100
100
100
100
100
100
100
100
100
100
100
100
100
100
100
100
100
100
100
100
100
100
100
100
100
100
100
100
100
100
100
100
100
100
100
100
100
100
100
100
100
100
100
100
100
100
100
100
100
100
100
100
100
100
100
100
100
100
100
100
100
100
100
100
100
100
100
100
100
100
100
100
100
100
100
100
100
100
100
100
100
100
100
100
100
100
100
100
100
100
100
100
100
100
100
100
100
100
100
100
100
100
100
100
100
100
100
100
100
100
100
100
100
100
100
100
100
100
100
100
100
100
100
100
100
100
100
100
100
100
100
100
100
100
100
100
100
100
100
100
100
100
100
100
100
100
100
100
100
100
100
100
100
100
100
100
100
100
100
100
100
100
100
100
100
100
100
100
100
100
100
100
100
100
100
100
100
100
100
100
100
100
100
100
100
100
100
100
100
100
100
100
100
100
100
100
100
100
100
100
100
100
100
100
100
100
100
100
100
100
100
100
100
100
100
100
100
100
100
100
100
100
100
100
100
100
100
100
100
100
100
100
100
100
100
100
100
100
100
100
100
100
100
100
100
100
100
100
100
100
100
100
100
100
100
100
100
100
100
100
100
100
100
100
100
100
100
100
100
100
100
100
100
100
100
100
100
100
100
100
100
100
100
100
100
100
100
100
100
100
100
100
100
100
100
100
100
100
100
100
100
100
100
100
100
100
100
100
100
100
100
100
100
100
100
100
100
100
100
100
100
100
100
100
100
100
100
100
100
100
100
100
100
100
100
100
100
100
100
100
100
100
100
100
100
100
100
100
100
100
100
100
100
100
100
100
100
100
100
100
100
100
100
100
100
100
100
100
100
100
100
100
100
100
100
100
100
100
100
100
100
100
100
100
100
100
100
100
100
100
100
100
100
100
100
100
100
100
100
100
100
100
100
100
100
100
100
100
100
100
100
100
100
100
100
100
100
100
100
100
100
100
100
100
100
100
100
100
100
100
100
100
100
100
100
100
100
100
100
100
100
100
100
100
100
100
100
100
100
100
100
100
100
100
100
100
100
100
100
100
100
100
100
100
100
100
100
100
100
100
100
100
100
100
100
100
100
100
100
100
100
100
100
100
100
100
100
100
100
100
100
100
100
100
100
100
100
100
100
100
100
100
100
100
100
100
100
100
100
100
100
100
100
100
100
100
100
100
100
100
100
100
100
100
137.374
110.908
100
100
100
100
100
100
100
100
100
100
100
100
100
100
100
100
100
100
100
100
100
100
100
100
100
100
100
100
100
100
100
100
100
100
100
100
100
100
100
100
100
100
100
100
100
100
100
100
100
100
100
100
100
100
100
100
100
100
100
100
100
100
100
100
100
100
100
100
100
100
100
100
100
100
100
100
100
100
100
100
100
100
100
100
100
100
100
100
100
100
100
100
100
100
100
100
173.016
122.269
100
100
100
100
100
100
100
100
100
100
100
100
100
100
100
100
100
100
100
100
100
100
100
100
100
100
100
100
100
100
100
100
100
100
100
100
100
100
100
100
100
100
100
100
100
100
100
100
100
100
100
100
100
100
100
100
100
100
100
100
100
100
100
100
100
100
100
100
100
100
100
100
100
100
100
100
100
100
100
100
100
100
100
100
100
100
100
100
100
100
100
100
100
100
100
100
100
100
161.695
100
100
100
100
100
100
100
100
100
100
100
100
100
100
100
100
100
100
100
100
100
100
100
100
100
100
100
100
100
100
100
100
100
100
100
100
100
100
100
100
100
100
100
100
100
100
100
100
100
100
100
100
100
100
100
100
100
100
100
100
100
100
100
100
100
100
100
100
100
100
100
100
100
100
100
100
100
100
100
100
100
100
100
100
100
100
100
100
100
100
100
100
100.098
102.587
105.962
101.674
100
100
100
100
100
120.518
100
100
100
100
100
100
100
100
100
100
100
100
100
100
100
100
100
100
100
100
100
100
100
100
100
100
100
100
100
100
100
100
100
100
100
100
100
100
100
100
100
100
100
100
100
100
100
100
100
100
100
100
100
100
100
100
100
100
100
100
100
100
102.202
100.144
100
100
101.286
102.816
103.756
103.812
100
100
102.613
107.175
100
100
100
100
100
100
100
100
100
100
104.182
101.666
100
101.771
105.772
103.255
106.325
102.7
103.501
108.217
110.577
113.702
110.068
100
100
103.278
103.357
100
100
100
100
100
100
100
100
100
100
100
100
100
100
100
100
100
100
100
100
100
100
100
100
100
100
100
100
100
100
100
100
100
100
100
100
100
100
100
100
100
100
100
100
100
100
100
100
100
100
100
100
100
100
100
100
100
100
100
100
100
100
100
101.604
102.061
113.218
110.861
105.799
108.27
111.315
113.28
114.394
114.419
100.321
106.034
111.499
116.79
100
100
100
101.616
106.266
100
108.498
100
107.081
110.73
117.495
114.356
108.884
109.624
113.924
112.591
114.241
111.325
111.617
115.687
118.194
120.363
118.1
102.662
100
111.199
110.554
100
100
100
100
100
100
100
100
100
100
100
100
100
100
100
100
100
100
100
100
100
100
100
100
100
100
100
100
100
100
100
100
100
100
100
100
100
100
100
100
100
100
100
100
100
100
100
100
100
100
100
100
100
100
105.269
102.845
108.313
104.087
101.835
100.236
107.244
108.631
102.652
101.329
110.671
111.143
125.41
122.66
115.646
119.157
121.664
124.405
125.884
126.083
108.111
114.496
120.683
126.687
100
100
102.233
109.406
120.146
110.802
123.309
113.095
117.401
121.73
130.348
125.88
118.199
118.053
123.265
122.348
122.779
119.003
119.064
123.485
126.052
130.202
125.957
107.231
101.068
118.603
116.575
100
100
100
100
100
100
100
100
100
100
100
100
100
100
100
100
100
100
100
100
100
100
100
100
100
100
100
100
100
100
100
100
100
100
100
100
100
100
100
100
100
100
100
100
100
100
100
100
100
100
100
100
100
100
100
114.42
111.925
116.576
112.472
110.476
109.133
116.004
117.566
111.599
110.779
119.923
119.815
138.292
135.494
126.511
131.227
132.336
136.291
138.482
138.795
116.507
123.508
130.409
137.194
113.429
112.829
112.966
118.571
134.044
127.219
138.532
130.039
129.12
137.511
157.464
147.169
130.736
129.521
140.119
140.973
135.783
126.674
126.964
134.62
142.636
148.19
136.15
110.243
102.221
126.081
120.48
100
100
100
100
100
100
100
100
100
100
100
100
100
100
100
100
100
100
100
100
100
100
100
100
100
100
100
100
100
100
100
100
100
100
100
100
100
100
100
100
100
100
100
100
100
100
100
100
100
100
100
100
107.748
103.303
101.659
107.558
122.908
120.197
123.641
119.658
118.605
117.96
124.669
126.338
121.602
120.529
129.793
128.807
152.511
149.815
138.709
144.921
143.756
149.231
152.654
153.121
126.098
133.514
141.049
148.743
131.119
130.491
129.266
130.523
163.083
144.918
167.537
150.665
155.437
171.26
194.436
185.053
155.579
152.371
173.396
175.383
162.456
136.96
136.479
150.712
167.966
170.876
150.954
114.556
102.632
131.701
126.995
100
100
100
100
100
100
100
100
100
100
100
100
100
100
100
100
100
100
100
100
100
100
100
100
100
100
100
100
100
100
100
100
100
100
100
100
100
100
100
100
100
100
100
100
100
100
100
100
100
100
100
102.875
100
100
115.609
111.962
108.662
114.569
130.811
127.597
130.58
127.34
127.651
127.595
133.397
135.395
132.886
130.823
140.24
138.099
168.688
166.162
153.245
160.813
156.542
163.649
168.733
169.523
137.666
145.143
153.019
161.655
152.662
151.067
149.654
148.276
187.07
176.718
193.227
183.655
190.826
201.322
217.351
205.267
193.189
187.559
212.261
209.588
193.701
149.731
145.584
170.36
196.245
197.076
168.318
117.068
105.413
140.757
132.101
100
125.51
119.993
100
100
100
100
100
100
100
100
100
100
100
100
100
100
100
100
100
100
100
100
100
100
100
100
100
100
100
100
100
100
100
100
100
100
100
100
100
100
100
100
100
100
100
100
100
100
100
100
100
108.882
102.956
102.709
123.925
119.896
114.334
119.99
138.84
135.106
137.666
135.144
137.508
137.426
141.838
144.606
146.41
142.462
151.051
148.325
186.998
184.575
170.353
178.683
171.353
180.279
186.609
188.198
152.134
159.386
166.884
175.683
182.248
180.782
177.226
174.271
233.659
205.076
244.369
214.923
211.303
221.728
147.226
257.332
214.397
221.253
226.249
230.295
223.367
164.642
159.184
195.264
226.934
227.973
191.802
122.638
109.996
149.465
140.763
100.547
191.613
184.968
100
100
100
100
100
100
100
100
100
100
100
100
100
100
100
100
100
100
100
100
100
100
100
100
100
100
100
100
100
100
100
100
100
100
100
100
100
100
100
100
100
100
100
100
100
100
100
100
100
113.996
108.337
105.998
131.264
125.939
119.578
125.197
147.32
142.615
144.269
141.41
148.038
147.176
150.945
154.291
162.079
155.667
163.035
159.535
207.211
205.133
190.707
199.021
188.536
201.007
206.889
209.239
173.361
178.849
185.103
190.579
231.523
230.583
224.28
222.913
282.061
255.54
294.426
142.474
258.643
149.479
178.633
313.729
266.989
233.398
148.623
155.583
236.891
185.102
171.87
225.927
240.402
240.917
219.46
128.157
115.825
161.757
147.762
142.872
323.192
143.414
105.379
112.58
100
100
100
100
100
100
100
100
100
100
100
100
100
100
100
100
100
100
100
100
100
100
100
100
100
100
100
100
100
100
100
100
100
100
100
100
100
100
100
100
100
100
102.426
100
100
100
100
117.729
111.946
108.269
136.848
130.912
123.605
129.849
154.69
149.126
151.417
146.725
158.384
156.751
159.768
163.202
180.873
171.466
179.318
172.616
229.827
227.327
214.406
221.699
203.743
218.48
228.118
231.452
220.926
224.668
231.495
232.867
275.186
271.624
266.029
262.157
335.074
309.734
351.158
170.3
316.653
181.338
211.63
374.119
324.645
152.681
182.157
187.71
154.83
201.073
187.76
231.989
154.634
156.234
226.904
136.632
125.063
172.69
161.132
124.843
167.781
103.461
114.823
122.485
100
100
100
100
100
100
100
100
100
100
100
100
100
100
100
100
100
100
100
100
100
100
100
100
100
100
100
100
100
100
100
100
100
100
100
100
100
100
100
100
100
100
100
100
100
104.927
100.07
100
100
120.7
114.211
110.983
141.404
135.44
127.278
134.03
161.821
156.383
158.808
151.91
168.939
165.956
167.916
171.724
204.113
191.505
201.462
188.692
248.038
245.817
240.11
245.27
242.042
263.183
263.657
257.606
259.532
261.55
268.622
269.406
326.088
321.817
314.904
309.142
386.125
369.29
403.997
201.528
378.58
216.37
241.578
429.569
386.106
184.845
217.533
221.227
186.691
216.981
202.152
151.653
187.526
187.142
240.513
280.257
145.711
135.479
189.38
171.155
137.346
100
100
130.498
141.697
100
100
100
100
100
100
100
100
100
100
100
100
100
100
100
100
100
100
100
100
100
100
100
100
100
100
100
100
100
100
100
100
100
100
100
100
100
100
100
100
100
100
100
100
100
106.456
101.333
100
100
123.24
116.681
113.506
145.883
139.768
130.915
138.614
169.802
164.618
165.641
157.669
181.03
176.086
174.823
179.853
230.926
215.98
231.546
211.895
286.83
279.204
259.127
272.203
281.656
296.901
157.775
284.834
305.914
306.6
313.054
313.951
376.898
372.399
363.287
356.384
423.176
232.422
434.238
248.238
441.43
219.665
247.921
251.238
221.203
227.664
218.318
181.531
222.779
221.244
157.17
336.031
157.509
147.453
202.286
184.931
125.152
100
100
146.705
139.664
100
100
100
100
100
100
100
100
100
100
100
100
100
100
100
100
100
100
100
100
100
100
100
100
100
100
100
100
100
100
100
100
100
100
100
100
100
100
100
100
100
100
100
100
100
100
100
100
108.108
102.623
100
100
126.664
120.219
115.557
151.127
144.607
134.248
142.598
178.079
172.226
172.931
164.626
196.954
187.858
182.424
190.718
257.784
247.149
265.981
241.016
165.056
321.972
295.018
296.59
328.747
338.783
181.718
328.223
352.449
352.676
357.591
358.649
250.053
250.97
245.262
277.856
230.57
215.381
253.049
250.838
186.089
398.307
170.794
160.108
217.304
201.965
114.864
100
100
150.866
134.566
100
100
100
100
100
100
100
100
100
100
100
100
100
100
100
100
100
100
100
100
100
100
100
100
100
100
100
100
100
100
100
100
100
100
100
100
100
100
100
100
100
100
100
100
100
100
100
100
110.522
104.032
100
100
130.855
123.514
118.82
157.579
149.944
138.408
146.482
186.126
179.558
179.804
171.185
218.006
203.234
193.477
208.631
282.475
272.06
277.341
272.422
187.817
365.118
331.664
171.423
338.48
374.649
381.928
209.982
380.891
161.776
331.924
251.323
282.58
244.367
219.402
452.182
183.366
167.775
228.038
213.168
110.501
100
100
150.53
131.423
100
100
100
100
100
100
100
100
100
100
100
100
100
100
100
100
100
100
100
100
100
100
100
100
100
100
100
100
100
100
100
100
100
100
100
100
100
100
100
100
100
100
100
100
100
100
100
100
100
112.526
106.881
100
100
135.7
127.447
121.875
163.677
154.882
144.425
152.897
197.629
187.32
186.932
176.997
244.709
225.021
212.189
232.903
305.547
167.037
285.444
215.146
407.305
377.152
193.553
391.826
237.012
430.331
189.655
392.508
171.615
334.106
248.446
192.516
171.006
248.136
282.957
224.704
112.077
100
109.616
149.192
129.63
100
100
100
100
100
100
100
100
100
100
100
100
100
100
100
100
100
100
100
100
100
100
100
100
100
100
100
100
100
100
100
100
100
100
100
100
100
100
100
100
100
100
100
100
100
100
100
100
100
100
100
115.439
109.827
100.661
100
140.17
131.263
124.977
168.972
161.192
149.793
159.028
216.571
197.611
196.06
182.97
270.603
251.339
239.562
263.502
350.49
169.487
191.523
240.122
418.778
220.731
440.217
221.578
444.441
196.242
391.999
200.422
171.21
270.612
295.148
326.848
227.992
124.374
100
126.82
148.014
133.537
100
100
100
100
100
100
100
100
100
100
100
100
100
100
100
100
100
100
100
100
100
100
100
100
100
100
100
100
100
100
100
100
100
100
100
100
100
100
100
100
100
100
100
100
100
100
100
100
100
100
100
100
119.464
111.509
101.637
100
144.849
134.76
129.413
174.302
167.754
155.44
164.782
240.743
213.206
209.868
192.232
293.999
270.754
269.046
271.658
404.543
177.457
196.301
221.209
244.911
248.727
223.971
440.829
198.625
169.176
175.384
340.719
376.636
224.176
273.739
133.371
100
130.105
147.199
144.432
100
100
100
100
100
100
100
100
100
100
100
100
100
100
100
100
100
100
100
100
100
100
100
100
100
100
100
100
100
100
100
100
100
100
100
100
100
100
100
100
100
100
100
100
100
100
100
100
100
100
100
100
100
122.556
114.33
104.774
100
149.147
138.931
133.771
180.727
173.572
160.065
169.613
263.333
234.209
226.606
204.168
306.313
267.98
166.74
451.185
204.534
226.943
246.846
246.475
193.978
166.907
197.507
393.899
418.242
219.174
264.513
312.41
139.559
100
130.778
154.585
149.308
100
100
100
100
100
100
100
100
100
100
100
100
100
100
100
100
100
100
100
100
100
100
100
100
100
100
100
100
100
100
100
100
100
100
100
100
100
100
100
100
100
100
100
100
100
100
100
100
100
100
100
100
100
100
124.979
118.365
107.612
100
154.794
144.173
136.357
187.561
178.463
165.233
174.217
272.34
254.374
246.385
220.311
354.3
164.199
194.824
235.468
253.914
190.585
170.011
223.947
440.214
216.421
261.845
301.679
358.386
141.517
106.971
145.86
159.661
149.761
100
100
100
100
100
100
100
100
100
100
100
100
100
100
100
100
100
100
100
100
100
100
100
100
100
100
100
100
100
100
100
100
100
100
100
100
100
100
100
100
100
100
100
100
100
100
100
100
100
100
100
100
100
100
100
129.3
120.577
108.639
100.735
160.151
147.924
139.899
197.015
183.955
171.199
179.695
286.313
319.999
268.858
260.696
236.882
408.639
192.085
224.759
263.155
191.14
174.394
244.263
216.095
258.505
298.49
348.547
394.091
152.946
106.775
161.986
161.609
157.159
100
100
100
100
100
100
100
100
100
100
100
100
100
100
100
100
100
100
100
100
100
100
100
100
100
100
100
100
100
100
100
100
100
100
100
100
100
100
100
100
100
100
100
100
102.993
100
100
100
100
100
100
100
100
100
100
100
132.827
122.298
110.911
163.437
150.7
144.531
208.85
190.584
175.404
184.839
179.186
372.175
268.941
264.092
250.847
457.046
220.923
250.392
194.366
176.514
218.101
255.927
293.739
342.209
386.386
162.937
102.106
167.907
165.24
164.453
100
100
100
100
100
100
100
100
100
100
100
100
100
100
100
100
100
100
100
100
100
100
100
100
100
100
100
100
100
100
100
100
100
100
100
100
100
100
100
100
100
100
100
100
113.693
103.395
100
100
100
100
100
100
100
100
100
100
100
100
134.509
125.125
167.631
155.533
147.047
222.695
198.564
178.259
188.958
208.085
164.576
423.648
274.528
310.362
260.29
245.986
195.608
179.369
218.593
255.425
291.104
335.721
376.299
167.478
100
163.523
169.173
165.721
100
100
100
100
100
100
100
100
100
100
100
100
100
100
100
100
100
100
100
100
100
100
100
100
100
100
100
100
100
100
100
100
100
100
100
100
100
100
100
100
100
100
100
100
100
114.779
103.991
100
100
100
100
100
100
100
100
100
100
100
100
100
137.084
127.071
173.285
159.546
149.641
238.473
208.56
184.186
197.378
236.599
191.294
468.832
172.429
357.022
264.525
198.034
181.836
220.86
256.08
290.086
332.25
368.242
167.357
104.021
163.541
169.926
162.395
100
100
100
100
100
100
100
100
100
100
100
100
100
100
100
100
100
100
100
100
100
100
100
100
100
100
100
100
100
100
100
100
100
100
100
100
100
100
100
100
100
100
100
100
115.712
104.906
100
100
100
100
100
100
100
100
100
100
100
100
100
100
139.888
128.423
176.936
162.615
152.836
250.489
222.142
188.277
206.728
260.985
219.478
303.265
198.685
405.42
273.484
199.305
182.158
224.103
255.493
291.552
330.34
363.575
162.835
156.301
194.481
167.701
156.089
100
100
100
100
100
100
100
100
100
100
100
100
100
100
100
100
100
100
100
100
100
100
100
100
100
100
100
100
100
100
100
100
100
100
100
100
100
100
100
100
100
100
100
100
100
116.725
105.599
100
100
100
100
100
100
100
100
100
100
100
100
100
100
100
141.521
129.249
179.404
165.51
154.623
258.206
236.847
191.92
217.044
244.483
348.909
169.272
225.278
449.263
200.765
180.775
228.237
262.833
290.869
331.375
361.01
172.236
313.056
223.038
162.143
148.75
100
100
100
100
100
100
100
100
100
100
100
100
100
100
100
100
100
100
100
100
100
100
100
100
100
100
100
100
100
100
100
100
100
100
100
100
100
100
100
100
100
100
100
100
100
117.555
104.531
100
100
100
100
100
100
100
100
100
100
100
100
100
100
100
104.354
142.256
129.944
182.188
167.781
155.605
263.917
248.839
196.28
224.784
396.96
195.262
299.476
249.019
200.717
177.375
231.304
265.438
298.203
331.149
361.005
160.004
685.996
202.39
151.038
133.529
100
100
100
100
100
100
100
100
100
100
100
100
100
100
100
100
100
100
100
100
100
100
100
100
100
100
100
100
100
100
100
100
100
100
100
100
100
100
100
100
100
100
100
100
100
116.695
100
100
100
100
100
100
100
100
100
100
100
100
100
100
103.343
101.136
116.831
142.833
129.522
184.358
169.373
156.416
272.177
250.969
199.219
227.669
441.096
222.771
345.883
169.57
200.943
169.476
230.887
276.626
301.554
337.479
362.181
120.899
160.101
100
137.791
117.57
100
100
100
100
100
100
100
100
100
100
100
100
100
100
100
100
100
100
100
100
100
100
100
100
100
100
100
100
100
100
100
100
100
100
100
100
100
100
100
100
100
100
100
100
100
100
100
100
100
100
100
100
100
100
100
100
100
100
100
100
100.709
115.201
112.902
130.071
142.916
186.636
170.828
157.096
243.584
202.688
230.331
247.822
394.452
192.911
277.044
193.221
157.45
229.692
269.977
311.631
341.905
367.074
100
100
100
126.063
101.315
100
100
100
100
100
100
100
100
100
100
100
100
100
100
100
100
100
100
100
100
100
100
100
100
100
100
100
100
100
100
100
100
100
100
100
100
100
100
100
100
100
100
100
100
100
100
100
100
100
100
100
100
100
100
100
100
100
100
100
103.333
105.801
110.452
111.86
128.147
125.719
143.893
189.759
172.432
158.427
249.605
208.453
237.944
438.435
218.15
316.829
282.089
179.395
144.552
217.784
256.253
165.381
307.28
350.296
373.246
100
100
100
112.538
100
100
100
100
100
100
100
100
100
100
100
100
100
100
100
100
100
100
100
100
100
100
100
100
100
100
100
100
100
100
100
100
100
100
100
100
100
100
100
100
100
100
100
100
100
100
100
100
100
100
100
100
100
100
100
100
100
100
100
100.167
108.039
110.187
114.951
117.809
123.069
123.644
141.897
139.289
191.762
174.021
156.485
265.576
214.471
244.161
241.375
359.423
322.547
306.632
164.901
132.175
245.145
203.654
307.191
189.677
349.212
381.217
100
100
100
103.057
100
100
100
100
100
100
100
100
100
100
100
100
100
100
100
100
100
100
100
100
100
100
100
100
100
100
100
100
100
100
100
100
100
100
100
100
100
100
100
100
100
100
100
100
100
100
100
100
100
100
100
100
100
100
100
100
100
101.103
100.779
111.219
111.45
120.273
122.647
127.38
130.785
136.385
135.576
153.587
190.637
172.305
279.032
213.929
239.721
398.656
367.187
348.089
169.455
151.405
123.686
222.787
188.913
267.925
347.939
215.079
384.029
100
100
100
101.541
100
100
100
100
100
100
100
100
100
100
100
100
100
100
100
100
100
100
100
100
100
100
100
100
100
100
100
100
100
100
100
100
100
100
100
100
100
100
100
100
100
100
100
100
100
100
100
100
100
100
100
100
100
100
100
100.161
100
100.254
100.038
112.534
111.819
124.419
124.431
133.734
136.528
140.123
144.254
150.343
147.439
169.086
186.949
208.267
234.868
274.29
408.181
389.971
193.604
139.083
120.193
216.847
172.681
312.824
159.969
389.432
236.711
100
100
100
100
100
100
100
100
100
100
100
100
100
100
100
100
100
100
100
100
100
100
100
100
100
100
100
100
100
100
100
100
100
100
100
100
100
100
100
100
100
100
100
100
100
100
100
100
100
100
100
100
100
100
100
100
100
100
100
106.698
109.275
100
110.81
109.997
125.401
124.601
138.867
138.664
147.875
151.284
152.906
157.96
165.21
160.649
181.945
202.217
227.403
274.251
310.648
429.218
217.415
132.691
117.339
233.703
207.454
159.201
360.898
184.911
276.376
430.173
100
100
100
100
100
100
100
100
100
100
100
100
100
100
100
100
100
100
100
100
100
100
100
100
100
100
100
100
100
100
100
100
100
100
100
100
100
100
100
100
100
100
100
100
100
100
100
100
100
100
103.741
100
100
100
100
100
100
100
100
100
102.995
117.35
120.825
123.539
122.376
139.347
138.777
154.156
153.948
162.374
166.544
165.995
172.17
176.416
195.17
219.465
264.941
308.501
350.326
239.003
128.09
112.765
224.056
192.946
146.196
404.863
211.036
324.958
155.986
100
100
100
100
100
100
100
100
100
100
100
100
100
100
100
100
100
100
100
100
100
100
100
100
100
100
100
100
100
100
100
100
100
100
100
100
100
100
100
100
100
100
100
100
100
100
100
100
100
100
100
114.235
100
100
100
100
100
100
100
100
100
101.13
112.226
130.525
134.081
137.975
136.455
154.514
154.404
169.931
169.957
177.586
182.386
180.445
188.068
197.531
218.741
262.759
300.09
346.88
387.097
123.941
107.596
215.376
177.036
137.073
237.186
376.796
183.414
230.537
273.114
100
100
100
100
100
100
100
100
100
100
100
100
100
100
100
100
100
100
100
100
100
100
100
100
100
100
100
100
100
100
100
100
100
100
100
100
100
100
100
100
100
100
100
100
100
100
100
100
100
100
100
100
100
127.763
100
100
100
100
100
100
100
103.036
101.208
104.474
108.386
124.172
145.835
149.13
153.941
152.301
170.473
170.681
186.048
186.527
195.092
200.303
207.118
227.156
259.914
296.403
338.999
382.17
120.37
100.989
206.959
161.366
130.888
428.856