/*--------------------------------*- C++ -*----------------------------------*\
  =========                 |
  \\      /  F ield         | OpenFOAM: The Open Source CFD Toolbox
   \\    /   O peration     | Website:  https://openfoam.org
    \\  /    A nd           | Version:  dev
     \\/     M anipulation  |
\*---------------------------------------------------------------------------*/
FoamFile
{
    version     2.0;
    format      ascii;
    class       volScalarField;
    location    "2500";
    object      rho;
}
// * * * * * * * * * * * * * * * * * * * * * * * * * * * * * * * * * * * * * //

dimensions      [1 -3 0 0 0 0 0];

internalField   nonuniform List<scalar> 
9851
(
1.17169
1.17153
1.17159
1.17151
1.17119
1.17168
1.17148
1.17095
1.17112
1.17174
1.17151
1.17088
1.17079
1.17121
1.17179
1.17157
1.17091
1.17057
1.17083
1.17136
1.1718
1.17161
1.17091
1.17043
1.1705
1.1709
1.17146
1.17185
1.17161
1.17102
1.17041
1.17025
1.17056
1.17107
1.17149
1.17184
1.17162
1.17108
1.1704
1.17009
1.17024
1.17065
1.1712
1.17154
1.17185
1.17169
1.17108
1.17047
1.17001
1.16998
1.17032
1.17082
1.17125
1.17159
1.17188
1.17166
1.17109
1.17051
1.16996
1.16982
1.17
1.17046
1.17093
1.17129
1.1716
1.17189
1.17172
1.17116
1.17064
1.17005
1.16972
1.16979
1.17012
1.17063
1.171
1.17133
1.17163
1.17188
1.17169
1.17118
1.17077
1.17005
1.16963
1.1696
1.16985
1.17028
1.17074
1.17106
1.17137
1.17166
1.17189
1.17175
1.17124
1.17073
1.17006
1.16962
1.16947
1.16961
1.16996
1.17038
1.17079
1.17111
1.17139
1.17165
1.17191
1.17174
1.17126
1.17081
1.17023
1.16964
1.16939
1.16941
1.1697
1.17009
1.17052
1.17086
1.17116
1.17142
1.17167
1.1719
1.17176
1.17138
1.17092
1.17024
1.16966
1.16935
1.16927
1.16946
1.16982
1.17024
1.17061
1.17092
1.1712
1.17143
1.17168
1.17191
1.17174
1.17144
1.17088
1.17031
1.16974
1.16931
1.16914
1.16925
1.16954
1.16994
1.17032
1.17065
1.17095
1.17122
1.17144
1.17169
1.1719
1.17164
1.17136
1.17102
1.17038
1.16977
1.16931
1.16907
1.16908
1.16931
1.16969
1.17006
1.1704
1.1707
1.17096
1.17124
1.17145
1.17168
1.17191
1.17108
1.1712
1.17103
1.17039
1.16986
1.16936
1.16903
1.16894
1.16911
1.16942
1.1698
1.17016
1.17047
1.17074
1.17099
1.17126
1.17148
1.17169
1.1719
1.17155
1.17059
1.1708
1.17042
1.16991
1.16939
1.16898
1.16884
1.16892
1.16919
1.16955
1.16991
1.17027
1.17054
1.17077
1.17104
1.17124
1.17146
1.17169
1.17191
1.17166
1.17077
1.17033
1.17025
1.16995
1.16943
1.169
1.16876
1.16876
1.16897
1.1693
1.16968
1.16999
1.17029
1.17056
1.17079
1.17104
1.17125
1.17147
1.1717
1.17191
1.17169
1.17105
1.17026
1.16992
1.16991
1.16949
1.16901
1.16871
1.16865
1.16878
1.16908
1.16943
1.16976
1.17011
1.17037
1.17057
1.17082
1.17105
1.17127
1.17146
1.17169
1.1719
1.17165
1.17114
1.17054
1.16978
1.16965
1.16943
1.16901
1.16869
1.16855
1.16861
1.16885
1.16921
1.16956
1.16984
1.17015
1.17039
1.1706
1.17082
1.17104
1.17125
1.17147
1.17169
1.17191
1.17163
1.17115
1.1706
1.16982
1.16946
1.16934
1.16906
1.16869
1.16849
1.16848
1.16866
1.16897
1.1693
1.16966
1.16992
1.17019
1.17041
1.17061
1.17083
1.17106
1.17125
1.17146
1.17169
1.17191
1.17161
1.17119
1.17071
1.16999
1.16942
1.1692
1.16902
1.16863
1.16842
1.16837
1.1685
1.16876
1.16906
1.16939
1.1697
1.16992
1.17018
1.17043
1.17062
1.17083
1.17104
1.17125
1.17146
1.17167
1.1719
1.17161
1.17113
1.17071
1.17009
1.1695
1.1691
1.16892
1.16859
1.16839
1.16828
1.16835
1.16855
1.16886
1.16918
1.16949
1.16975
1.16997
1.17021
1.17044
1.17063
1.17084
1.17105
1.17124
1.17145
1.17167
1.17191
1.17161
1.17113
1.17072
1.17014
1.16958
1.1691
1.16882
1.16855
1.16834
1.16818
1.16823
1.16838
1.16868
1.16896
1.16927
1.16955
1.16978
1.16999
1.17022
1.17045
1.17064
1.17084
1.17104
1.17125
1.17145
1.17167
1.1719
1.17162
1.17115
1.17065
1.17017
1.16967
1.16913
1.16871
1.16847
1.16827
1.1681
1.16811
1.16823
1.16847
1.16879
1.16911
1.16934
1.16962
1.16981
1.17003
1.17023
1.17043
1.17061
1.17082
1.17103
1.17125
1.17144
1.17165
1.17188
1.17161
1.17109
1.17061
1.1702
1.16972
1.16924
1.16868
1.16843
1.16821
1.16805
1.168
1.1681
1.1683
1.16856
1.16886
1.16919
1.16938
1.16965
1.16982
1.17003
1.17023
1.17041
1.17063
1.17081
1.17102
1.17122
1.17142
1.17164
1.17187
1.1716
1.17109
1.17063
1.17023
1.16979
1.16932
1.16867
1.16837
1.16816
1.16797
1.16791
1.16796
1.16814
1.16839
1.16868
1.16896
1.16921
1.16943
1.16963
1.16983
1.17001
1.17021
1.1704
1.17061
1.17079
1.17099
1.1712
1.17141
1.17163
1.17187
1.17161
1.1711
1.17065
1.17021
1.1698
1.16934
1.16871
1.16834
1.16809
1.1679
1.16783
1.16785
1.16801
1.16824
1.16849
1.16877
1.16904
1.16924
1.16946
1.16965
1.16983
1.17002
1.1702
1.17042
1.17061
1.1708
1.171
1.17119
1.1714
1.17162
1.17186
1.17159
1.17105
1.17062
1.17024
1.16981
1.16933
1.16879
1.16833
1.16806
1.16784
1.16775
1.16775
1.16784
1.16805
1.16833
1.16857
1.16886
1.16909
1.16925
1.16946
1.16966
1.16986
1.17004
1.17022
1.17041
1.17059
1.17078
1.17097
1.17117
1.17137
1.1716
1.17185
1.17157
1.17106
1.17063
1.17026
1.16985
1.16946
1.16894
1.16834
1.16802
1.16778
1.16768
1.16763
1.16772
1.16791
1.16813
1.1684
1.16866
1.16889
1.16909
1.16928
1.16947
1.16968
1.16986
1.17003
1.1702
1.17038
1.17057
1.17075
1.17094
1.17113
1.17134
1.17157
1.17184
1.17156
1.17108
1.17065
1.17027
1.16987
1.16944
1.16898
1.16837
1.16799
1.16774
1.16761
1.16756
1.16761
1.16775
1.16797
1.16823
1.16846
1.16871
1.16892
1.16912
1.16933
1.1695
1.16967
1.16984
1.17001
1.17018
1.17036
1.17053
1.17072
1.1709
1.1711
1.17131
1.17156
1.17198
1.17181
1.17158
1.17108
1.17065
1.17026
1.16989
1.16947
1.16902
1.16844
1.16796
1.16771
1.16754
1.16746
1.16752
1.16763
1.16782
1.16807
1.16831
1.16855
1.16876
1.16895
1.16915
1.16932
1.16949
1.16965
1.16981
1.16998
1.17015
1.17032
1.1705
1.17068
1.17086
1.17107
1.17132
1.17165
1.1715
1.17197
1.1718
1.17154
1.17106
1.17064
1.17025
1.16988
1.16945
1.169
1.16849
1.16795
1.1677
1.16749
1.16739
1.16741
1.16754
1.16768
1.1679
1.16817
1.16839
1.1686
1.1688
1.16898
1.16914
1.16931
1.16946
1.16962
1.16978
1.16994
1.17011
1.17027
1.17045
1.17063
1.17083
1.17112
1.17101
1.17136
1.17117
1.17122
1.17164
1.17149
1.17197
1.17179
1.17157
1.17108
1.17064
1.17024
1.16987
1.16944
1.169
1.16849
1.16795
1.16766
1.16744
1.16733
1.16729
1.16739
1.16754
1.16777
1.168
1.16824
1.16847
1.16864
1.16881
1.16897
1.16913
1.16928
1.16943
1.16959
1.16974
1.1699
1.17006
1.17022
1.1704
1.1706
1.17089
1.17077
1.17103
1.17134
1.17109
1.1712
1.17163
1.17147
1.17196
1.17178
1.17157
1.17106
1.17064
1.17024
1.16986
1.16943
1.16899
1.16853
1.16797
1.16762
1.1674
1.16725
1.16722
1.16728
1.16741
1.1676
1.16785
1.1681
1.16831
1.16849
1.16866
1.16881
1.16896
1.1691
1.16925
1.1694
1.16954
1.16969
1.16984
1.17
1.17017
1.17036
1.17065
1.17053
1.17089
1.17076
1.17096
1.17132
1.17106
1.17117
1.17161
1.17144
1.17195
1.17176
1.17156
1.17106
1.17063
1.17024
1.16985
1.16943
1.16899
1.16857
1.16795
1.16763
1.16737
1.1672
1.16713
1.16716
1.16731
1.16748
1.16771
1.16794
1.16816
1.16834
1.1685
1.16866
1.1688
1.16893
1.16907
1.16921
1.16935
1.16949
1.16964
1.16978
1.16993
1.17012
1.17041
1.17028
1.17063
1.1705
1.17083
1.1707
1.17093
1.17128
1.17103
1.17113
1.17158
1.17141
1.17194
1.17174
1.17156
1.17106
1.17064
1.17024
1.16985
1.16943
1.16899
1.16859
1.16797
1.16762
1.1673
1.16714
1.16705
1.16708
1.16719
1.16735
1.16756
1.16779
1.168
1.16819
1.16835
1.16851
1.16865
1.16877
1.1689
1.16903
1.16916
1.1693
1.16943
1.16956
1.1697
1.16986
1.17015
1.17001
1.17037
1.17023
1.17058
1.17044
1.17079
1.17066
1.17089
1.17125
1.17099
1.17109
1.17155
1.17137
1.17193
1.17171
1.17157
1.17106
1.17064
1.17025
1.16986
1.16944
1.16899
1.16861
1.16799
1.1676
1.16729
1.1671
1.16698
1.167
1.16709
1.16723
1.16742
1.16764
1.16786
1.16804
1.1682
1.16836
1.1685
1.16863
1.16874
1.16886
1.16898
1.16909
1.16921
1.16932
1.16942
1.16954
1.16985
1.16963
1.17008
1.16989
1.1703
1.17013
1.17052
1.17037
1.17075
1.17061
1.17084
1.1712
1.17094
1.17104
1.17152
1.17133
1.17192
1.17169
1.17157
1.17107
1.17065
1.17025
1.16986
1.16945
1.169
1.16862
1.16801
1.16762
1.1673
1.16705
1.16691
1.16691
1.16699
1.16712
1.16729
1.1675
1.16771
1.1679
1.16806
1.1682
1.16835
1.16849
1.1686
1.1687
1.16879
1.16888
1.16895
1.169
1.16901
1.16895
1.16934
1.1688
1.16963
1.1692
1.16991
1.16957
1.17019
1.16992
1.17045
1.17024
1.1707
1.17052
1.17079
1.17115
1.17088
1.17098
1.17148
1.17128
1.1719
1.17165
1.17157
1.17108
1.17066
1.17026
1.16987
1.16946
1.16901
1.16863
1.16809
1.16765
1.16729
1.167
1.16684
1.16683
1.16689
1.167
1.16717
1.16736
1.16757
1.16776
1.16792
1.16806
1.16819
1.16832
1.16845
1.16854
1.1686
1.16862
1.16859
1.16848
1.16824
1.16773
1.16804
1.16665
1.16847
1.16723
1.16897
1.16788
1.16947
1.16863
1.16991
1.1693
1.17029
1.16988
1.17061
1.17034
1.17069
1.1711
1.17079
1.17089
1.17143
1.17123
1.17188
1.17162
1.17157
1.17108
1.17066
1.17027
1.16989
1.16948
1.16903
1.16865
1.1681
1.16765
1.1673
1.16696
1.1668
1.16675
1.1668
1.1669
1.16705
1.16724
1.16744
1.16763
1.16779
1.16792
1.16805
1.16817
1.16827
1.16835
1.16835
1.16821
1.16793
1.16748
1.16673
1.16544
1.16529
1.16342
1.16565
1.1639
1.16628
1.16441
1.16712
1.16514
1.16815
1.1662
1.16908
1.16753
1.16985
1.16881
1.1704
1.16982
1.17048
1.17102
1.17058
1.1707
1.17138
1.17116
1.17186
1.17158
1.17157
1.17108
1.17067
1.17029
1.1699
1.1695
1.16905
1.16866
1.16816
1.16771
1.16732
1.16693
1.16676
1.16669
1.16671
1.1668
1.16694
1.16711
1.16731
1.1675
1.16767
1.1678
1.16792
1.16803
1.16813
1.16811
1.16791
1.16746
1.16662
1.16555
1.16416
1.16217
1.1618
1.16027
1.16208
1.16018
1.16243
1.16046
1.163
1.16083
1.16389
1.16149
1.16516
1.16256
1.16683
1.16409
1.16854
1.16611
1.16982
1.16831
1.16987
1.17086
1.16998
1.17017
1.17132
1.17104
1.17184
1.17153
1.17156
1.17108
1.17068
1.17031
1.16991
1.16952
1.16908
1.16869
1.16818
1.16771
1.16732
1.16692
1.16672
1.16663
1.16663
1.16671
1.16683
1.167
1.16719
1.16737
1.16754
1.16768
1.16779
1.16788
1.16796
1.16791
1.1674
1.16629
1.1648
1.16301
1.16117
1.159
1.15582
1.15854
1.15617
1.15855
1.15671
1.15874
1.15679
1.15918
1.15701
1.15998
1.15754
1.16123
1.1585
1.16303
1.15997
1.16544
1.16207
1.16816
1.16494
1.16815
1.17045
1.16831
1.16871
1.17124
1.17076
1.17181
1.17147
1.17154
1.17106
1.17066
1.1703
1.16992
1.16954
1.16911
1.16871
1.16825
1.16778
1.16735
1.16692
1.16669
1.16657
1.16656
1.16662
1.16673
1.16689
1.16707
1.16725
1.16742
1.16757
1.16768
1.16778
1.16779
1.16764
1.16685
1.16506
1.16267
1.16039
1.15819
1.15567
1.15285
1.15224
1.15092
1.15502
1.15346
1.155
1.15338
1.15506
1.15334
1.15535
1.15344
1.15601
1.15382
1.15713
1.15461
1.15882
1.1559
1.16127
1.15785
1.16465
1.16073
1.16462
1.16933
1.16494
1.16571
1.17108
1.17004
1.17179
1.1714
1.17148
1.171
1.17064
1.1703
1.16994
1.16956
1.16915
1.16876
1.16828
1.16779
1.16737
1.16692
1.16667
1.16653
1.16649
1.16654
1.16664
1.16679
1.16696
1.16714
1.1673
1.16745
1.16758
1.16766
1.16772
1.16744
1.1663
1.16384
1.16074
1.15775
1.15502
1.15254
1.15061
1.15016
1.14947
1.14987
1.14928
1.15198
1.15079
1.15187
1.15063
1.15182
1.1505
1.15198
1.15047
1.15245
1.15067
1.15336
1.15124
1.15484
1.15228
1.15711
1.15397
1.16043
1.15662
1.16043
1.1669
1.16084
1.16178
1.17071
1.16836
1.17177
1.17126
1.1714
1.17087
1.17056
1.17027
1.16992
1.16958
1.16919
1.16882
1.16834
1.16786
1.16742
1.16693
1.16665
1.16648
1.16643
1.16646
1.16656
1.16669
1.16686
1.16703
1.16719
1.16733
1.16746
1.16757
1.16764
1.16737
1.1659
1.16278
1.15895
1.1555
1.15274
1.15085
1.14967
1.14916
1.14912
1.14899
1.14889
1.14872
1.14867
1.14963
1.14903
1.14944
1.14872
1.14929
1.14842
1.14928
1.14822
1.14953
1.14821
1.15018
1.14853
1.15136
1.14926
1.15333
1.15063
1.15638
1.15292
1.15646
1.16335
1.15697
1.15804
1.16983
1.16554
1.17175
1.17095
1.17131
1.17074
1.17042
1.17019
1.16991
1.1696
1.16922
1.16888
1.16842
1.16788
1.16747
1.16696
1.16665
1.16645
1.16637
1.16639
1.16648
1.16661
1.16676
1.16692
1.16708
1.16722
1.16734
1.16747
1.16752
1.16733
1.16578
1.16205
1.15763
1.15397
1.15169
1.15034
1.1496
1.14926
1.14891
1.14907
1.14872
1.14889
1.14839
1.14863
1.14836
1.14831
1.14796
1.14783
1.14757
1.14733
1.14731
1.14687
1.1473
1.14657
1.14765
1.14654
1.14851
1.14694
1.15011
1.14794
1.15276
1.1498
1.15292
1.1597
1.15351
1.15459
1.16802
1.16212
1.17167
1.17021
1.17076
1.17037
1.17009
1.16987
1.1696
1.16924
1.16893
1.16852
1.16794
1.16754
1.16699
1.16664
1.16641
1.16632
1.16632
1.1664
1.16652
1.16667
1.16682
1.16697
1.1671
1.16722
1.16735
1.16743
1.16728
1.16579
1.16183
1.1568
1.15354
1.15171
1.15052
1.14988
1.14995
1.15047
1.1514
1.14926
1.14982
1.14909
1.14974
1.14868
1.14939
1.14794
1.14819
1.1474
1.14761
1.14682
1.14699
1.14633
1.14643
1.14601
1.14594
1.14599
1.14562
1.14643
1.14565
1.14758
1.14615
1.14974
1.14743
1.14998
1.1563
1.15059
1.15167
1.16537
1.15882
1.1715
1.16887
1.17059
1.17015
1.16984
1.16957
1.16926
1.16899
1.16861
1.16801
1.16758
1.16704
1.16665
1.16639
1.16626
1.16625
1.16632
1.16644
1.16658
1.16671
1.16684
1.16696
1.16709
1.16721
1.16734
1.16723
1.16587
1.16185
1.15666
1.1537
1.15217
1.15127
1.15099
1.15156
1.15229
1.15339
1.15249
1.15362
1.15054
1.15147
1.1503
1.15136
1.14972
1.15086
1.14805
1.14878
1.14739
1.14805
1.14671
1.14727
1.14611
1.14657
1.14566
1.14597
1.14541
1.14552
1.14549
1.14532
1.14605
1.14548
1.1475
1.1461
1.14783
1.15332
1.14845
1.14925
1.15085
1.16243
1.15586
1.17108
1.16671
1.17052
1.16995
1.16959
1.16928
1.16904
1.16871
1.16807
1.16763
1.1671
1.16666
1.16637
1.16621
1.16619
1.16625
1.16636
1.16648
1.16659
1.16669
1.1668
1.16692
1.16705
1.1672
1.16717
1.16608
1.16204
1.15677
1.15415
1.15314
1.1531
1.15382
1.15493
1.1568
1.15476
1.1565
1.15508
1.1564
1.15253
1.15378
1.15215
1.15356
1.15139
1.15286
1.14896
1.15007
1.14814
1.14922
1.14736
1.14838
1.14665
1.14764
1.14603
1.14694
1.14557
1.14632
1.14542
1.14586
1.14559
1.14565
1.14633
1.14581
1.14594
1.14732
1.14665
1.14986
1.15265
1.15066
1.148
1.14717
1.14686
1.14847
1.15955
1.1516
1.15285
1.15537
1.17046
1.16458
1.17039
1.16971
1.1693
1.1691
1.16872
1.16814
1.16769
1.16717
1.16669
1.16637
1.16617
1.16612
1.16617
1.16627
1.16636
1.16642
1.16647
1.16655
1.16666
1.16682
1.167
1.1671
1.16629
1.16254
1.15706
1.15464
1.15403
1.15509
1.15727
1.15932
1.16072
1.16036
1.16185
1.15772
1.15911
1.15805
1.15948
1.15504
1.15655
1.15444
1.15611
1.15347
1.15514
1.15047
1.15189
1.14961
1.15095
1.14876
1.14989
1.14795
1.14886
1.14726
1.14805
1.14671
1.14753
1.14636
1.14668
1.14714
1.14581
1.14603
1.14675
1.14633
1.14595
1.14624
1.14611
1.14597
1.14642
1.14905
1.14978
1.14749
1.1469
1.14664
1.14791
1.15429
1.15937
1.15621
1.1507
1.15185
1.17037
1.15838
1.16128
1.16505
1.17011
1.1694
1.1691
1.16874
1.16827
1.16778
1.16723
1.16673
1.16637
1.16614
1.16606
1.16609
1.16616
1.1662
1.16615
1.16605
1.16603
1.16613
1.16636
1.16666
1.16692
1.16638
1.16317
1.15763
1.15501
1.15465
1.15646
1.15972
1.16285
1.16437
1.1653
1.16329
1.16478
1.16083
1.1621
1.16111
1.16255
1.15781
1.15951
1.15689
1.15867
1.15528
1.15684
1.15235
1.15378
1.15099
1.15211
1.1497
1.15055
1.14871
1.14925
1.14805
1.14827
1.14745
1.14766
1.14777
1.14776
1.14714
1.14746
1.14736
1.14758
1.14618
1.14654
1.14732
1.14694
1.14614
1.14626
1.1463
1.14636
1.14645
1.14844
1.1491
1.14719
1.14666
1.14688
1.14755
1.15327
1.15505
1.14993
1.15097
1.16459
1.17157
1.1692
1.15725
1.16015
1.16968
1.16909
1.16883
1.16839
1.16787
1.1673
1.16678
1.16639
1.16613
1.16602
1.16602
1.16605
1.16596
1.16566
1.16523
1.16495
1.16499
1.16537
1.16596
1.16653
1.16634
1.16373
1.15834
1.15533
1.15498
1.15707
1.16074
1.16436
1.16614
1.16694
1.16699
1.16757
1.16574
1.1665
1.16378
1.16483
1.16364
1.16491
1.16045
1.16213
1.15845
1.1601
1.15591
1.15735
1.15329
1.15455
1.15141
1.15228
1.14967
1.14997
1.14822
1.14792
1.14766
1.1474
1.14709
1.14669
1.14769
1.14768
1.14751
1.14719
1.14753
1.1476
1.14762
1.14763
1.14673
1.14713
1.14755
1.14742
1.14654
1.14647
1.1467
1.1469
1.14664
1.148
1.14856
1.14712
1.14682
1.14701
1.14742
1.15228
1.15393
1.14927
1.15018
1.16414
1.17175
1.1694
1.15609
1.15907
1.16914
1.16888
1.16841
1.16793
1.16738
1.16683
1.16643
1.16613
1.16598
1.16596
1.16593
1.16567
1.16501
1.16416
1.16357
1.16352
1.16399
1.16479
1.16571
1.16615
1.16404
1.15912
1.15564
1.15516
1.15708
1.16077
1.16453
1.16665
1.16754
1.16806
1.16787
1.16811
1.16718
1.16759
1.16589
1.16663
1.16472
1.16587
1.16174
1.16331
1.15887
1.16044
1.15529
1.15653
1.1532
1.15419
1.15023
1.15052
1.14748
1.14705
1.14632
1.14592
1.14562
1.14534
1.14677
1.14627
1.14576
1.14527
1.14746
1.14711
1.14662
1.14605
1.14752
1.14748
1.14726
1.14714
1.14727
1.14748
1.1474
1.14754
1.14707
1.14686
1.14721
1.14737
1.14701
1.14776
1.1482
1.14723
1.14716
1.14729
1.14747
1.15134
1.15286
1.14876
1.14951
1.16377
1.17185
1.16951
1.15492
1.15796
1.16888
1.16847
1.16804
1.16746
1.16689
1.16645
1.16614
1.16596
1.16591
1.16582
1.16535
1.16428
1.163
1.16209
1.1619
1.16243
1.16345
1.16462
1.16554
1.16408
1.15979
1.15596
1.1552
1.15691
1.16045
1.16419
1.16664
1.16764
1.16814
1.16835
1.16842
1.1682
1.16832
1.16774
1.16801
1.16672
1.16733
1.16494
1.16607
1.16203
1.16356
1.15791
1.15944
1.15222
1.15323
1.1509
1.15145
1.14682
1.14679
1.14474
1.14483
1.14484
1.14454
1.14439
1.14439
1.14544
1.14486
1.14436
1.14402
1.14663
1.14601
1.14534
1.14468
1.14701
1.14678
1.14641
1.14614
1.14752
1.14751
1.14678
1.14727
1.14745
1.14733
1.14753
1.14755
1.14743
1.14773
1.14805
1.14744
1.14752
1.14761
1.1476
1.15051
1.15185
1.14847
1.14904
1.16314
1.17188
1.16936
1.15374
1.15668
1.16853
1.16807
1.16754
1.16697
1.16649
1.16615
1.16595
1.16588
1.16573
1.16504
1.16359
1.16185
1.1606
1.16018
1.16075
1.162
1.16343
1.16456
1.16395
1.16013
1.15627
1.15516
1.15649
1.15961
1.16318
1.16632
1.16759
1.16811
1.16842
1.16847
1.1685
1.16832
1.16843
1.16789
1.16815
1.16691
1.16749
1.16418
1.16547
1.16105
1.16267
1.15449
1.15604
1.14761
1.1483
1.14691
1.14719
1.14503
1.14534
1.14442
1.14464
1.14507
1.14485
1.14389
1.14391
1.14402
1.14421
1.14411
1.14371
1.14356
1.14358
1.14541
1.14468
1.14402
1.14353
1.14606
1.14566
1.14523
1.14487
1.14747
1.14715
1.14574
1.14656
1.14758
1.1476
1.14761
1.14744
1.14767
1.14782
1.14806
1.14773
1.14775
1.14783
1.14783
1.14982
1.15094
1.14836
1.14878
1.16194
1.17178
1.16829
1.15256
1.15505
1.1681
1.16761
1.16705
1.16655
1.16617
1.16595
1.16586
1.16566
1.16481
1.16298
1.16081
1.15917
1.15849
1.15902
1.16046
1.16215
1.16348
1.16345
1.16015
1.15641
1.15511
1.15594
1.15857
1.16197
1.16554
1.16744
1.16803
1.16838
1.16863
1.16859
1.16861
1.16864
1.16835
1.16851
1.16775
1.16811
1.16648
1.16722
1.16153
1.16326
1.15779
1.15966
1.1493
1.15071
1.14575
1.14584
1.1455
1.14566
1.14525
1.1454
1.14593
1.14505
1.14548
1.1462
1.14587
1.14371
1.14393
1.14423
1.1446
1.14331
1.14331
1.14344
1.14369
1.14411
1.1435
1.14314
1.14308
1.14485
1.14439
1.14398
1.14364
1.14704
1.14636
1.14452
1.14547
1.14742
1.14766
1.14743
1.14697
1.14772
1.14796
1.14814
1.14792
1.14779
1.14789
1.14802
1.14937
1.15022
1.14838
1.14868
1.1594
1.17111
1.16562
1.15144
1.15317
1.16766
1.16713
1.16661
1.1662
1.16595
1.16584
1.16563
1.16467
1.16254
1.15996
1.15791
1.15691
1.15727
1.15878
1.16068
1.16226
1.16253
1.16001
1.15639
1.15502
1.15544
1.15763
1.16086
1.1647
1.16716
1.16795
1.1683
1.16857
1.16878
1.16877
1.16864
1.16874
1.16814
1.16846
1.16694
1.16765
1.16477
1.16599
1.15683
1.15912
1.15254
1.15459
1.14605
1.14649
1.14577
1.14554
1.146
1.14593
1.14645
1.14652
1.1484
1.14837
1.14647
1.14703
1.14791
1.14752
1.14409
1.14463
1.14524
1.14586
1.14318
1.14342
1.14384
1.14445
1.1431
1.1429
1.14293
1.14311
1.14364
1.14326
1.14296
1.14284
1.14619
1.14524
1.14337
1.14425
1.14693
1.14747
1.14692
1.14608
1.14753
1.14813
1.14829
1.14799
1.14764
1.14777
1.14812
1.14911
1.14971
1.14846
1.14869
1.15566
1.16397
1.157
1.15053
1.15144
1.1672
1.16665
1.16624
1.16595
1.16582
1.16562
1.16464
1.16232
1.15937
1.15693
1.15557
1.15563
1.15695
1.15893
1.16077
1.16133
1.15958
1.15627
1.15485
1.15501
1.15682
1.15987
1.16389
1.16687
1.16781
1.16823
1.16849
1.16885
1.16876
1.16884
1.16887
1.16853
1.16874
1.16742
1.16811
1.16504
1.16641
1.16133
1.16333
1.15112
1.15365
1.14739
1.14894
1.14533
1.14521
1.14764
1.14677
1.14827
1.1481
1.14832
1.14819
1.14835
1.15016
1.1501
1.14814
1.14879
1.14974
1.14933
1.14515
1.1459
1.14668
1.14743
1.14349
1.14407
1.14484
1.14564
1.14275
1.14286
1.14312
1.14366
1.14274
1.14266
1.14256
1.14265
1.14506
1.14404
1.14264
1.14315
1.14601
1.14697
1.14601
1.14494
1.14707
1.14826
1.14839
1.14791
1.14723
1.14743
1.14808
1.14899
1.14941
1.14855
1.14874
1.15203
1.15364
1.15151
1.14991
1.15025
1.16672
1.16629
1.16596
1.1658
1.16562
1.16466
1.16229
1.1591
1.15631
1.15463
1.15432
1.15518
1.15695
1.15885
1.15968
1.15857
1.15594
1.15459
1.15464
1.15615
1.15906
1.16316
1.16656
1.16768
1.16813
1.16843
1.16871
1.16893
1.16891
1.16883
1.16891
1.16814
1.16861
1.16591
1.16727
1.16174
1.16404
1.15637
1.15913
1.14664
1.14844
1.14525
1.14565
1.14593
1.14525
1.15011
1.1496
1.14926
1.14994
1.1496
1.15062
1.15113
1.15003
1.15015
1.1519
1.15185
1.14977
1.15048
1.1515
1.15107
1.14647
1.14731
1.14816
1.14899
1.14437
1.14518
1.14599
1.14682
1.14284
1.14316
1.14386
1.14466
1.14252
1.1426
1.14265
1.14283
1.14389
1.14301
1.14255
1.14261
1.14489
1.1461
1.14492
1.14381
1.14625
1.14827
1.14846
1.14768
1.14648
1.14679
1.14793
1.14899
1.14929
1.14863
1.14881
1.15017
1.15104
1.14987
1.14956
1.14969
1.16634
1.16598
1.16579
1.16563
1.16477
1.16235
1.15907
1.15605
1.15421
1.15355
1.15382
1.155
1.15659
1.15752
1.15686
1.15521
1.15424
1.1543
1.15564
1.15844
1.16258
1.16628
1.16755
1.16802
1.16834
1.16858
1.16894
1.16886
1.16897
1.16896
1.16873
1.16891
1.16735
1.16827
1.16344
1.16575
1.15734
1.16055
1.15105
1.15409
1.14489
1.14559
1.14483
1.1447
1.14787
1.14656
1.15177
1.151
1.15222
1.15127
1.15176
1.1515
1.15237
1.15286
1.15179
1.15189
1.15355
1.15353
1.15119
1.15199
1.15312
1.15264
1.14766
1.14852
1.14942
1.15032
1.14544
1.14623
1.147
1.14778
1.14337
1.14413
1.14491
1.14567
1.14272
1.14292
1.14305
1.14363
1.14293
1.14261
1.14278
1.1426
1.14376
1.14501
1.14377
1.14292
1.14517
1.14819
1.14843
1.14717
1.14548
1.14592
1.14758
1.14903
1.14926
1.14868
1.14888
1.14958
1.15517
1.15018
1.14943
1.1495
1.16603
1.16578
1.16564
1.16497
1.16265
1.15915
1.15608
1.15419
1.15334
1.15316
1.15358
1.15451
1.15516
1.15492
1.15422
1.15382
1.15396
1.1553
1.15806
1.16219
1.16605
1.16744
1.16793
1.16825
1.16851
1.16879
1.16898
1.16895
1.16898
1.169
1.1685
1.16886
1.1661
1.16768
1.16025
1.16358
1.15277
1.1565
1.14706
1.14949
1.14461
1.14482
1.14549
1.14484
1.15045
1.1496
1.14905
1.15366
1.15301
1.15423
1.15336
1.15345
1.15322
1.1542
1.15462
1.15342
1.15352
1.15512
1.15512
1.15235
1.15327
1.15457
1.15402
1.14859
1.14945
1.15038
1.15136
1.14639
1.14708
1.14776
1.14846
1.14437
1.14514
1.14586
1.14652
1.14314
1.14385
1.14404
1.14461
1.14262
1.14263
1.1432
1.14283
1.14292
1.14387
1.14297
1.14264
1.1441
1.14797
1.14834
1.14643
1.14447
1.145
1.14701
1.1491
1.14929
1.14867
1.14896
1.14955
1.16261
1.15248
1.14943
1.1495
1.16579
1.16565
1.16518
1.16315
1.15961
1.15645
1.1545
1.15346
1.15308
1.15302
1.15323
1.15348
1.15351
1.15339
1.15332
1.15371
1.1552
1.15796
1.16206
1.1659
1.16735
1.16784
1.16815
1.16842
1.16864
1.16897
1.16904
1.16899
1.16898
1.16904
1.16815
1.16875
1.16449
1.16684
1.1569
1.16105
1.14943
1.15281
1.14555
1.14703
1.14547
1.1452
1.14747
1.14619
1.15237
1.15124
1.15151
1.15255
1.15555
1.15496
1.15648
1.15572
1.15509
1.15492
1.15602
1.15638
1.15491
1.15506
1.15659
1.15663
1.15325
1.15429
1.15584
1.15518
1.14924
1.15013
1.15111
1.15216
1.14713
1.14771
1.14834
1.14901
1.14537
1.14604
1.14664
1.14717
1.14416
1.14481
1.1449
1.14559
1.14264
1.14285
1.1442
1.14322
1.14267
1.1431
1.14275
1.14266
1.14331
1.14761
1.14815
1.14563
1.14364
1.14418
1.14637
1.14919
1.1494
1.14862
1.149
1.14986
1.16672
1.15585
1.14954
1.14961
1.16565
1.16532
1.16377
1.16033
1.15737
1.1555
1.15407
1.15332
1.15304
1.15295
1.15289
1.15286
1.15287
1.15304
1.1537
1.15526
1.15805
1.16216
1.16586
1.16729
1.16777
1.16807
1.16832
1.16855
1.16884
1.16909
1.16908
1.16901
1.16909
1.16896
1.16908
1.16771
1.1686
1.16282
1.16588
1.15462
1.15879
1.14831
1.15102
1.14548
1.14648
1.14774
1.14706
1.15094
1.14911
1.1548
1.15373
1.15371
1.15518
1.15752
1.15707
1.15875
1.15818
1.15664
1.15659
1.15787
1.1581
1.15627
1.15648
1.15796
1.15807
1.15402
1.15523
1.15701
1.15625
1.14977
1.15065
1.15165
1.1528
1.14767
1.1482
1.14874
1.14935
1.14624
1.14676
1.14723
1.14765
1.14496
1.1457
1.14575
1.14635
1.14284
1.14318
1.14488
1.14415
1.14271
1.14288
1.14281
1.14292
1.14308
1.14714
1.14788
1.14487
1.14339
1.14381
1.14572
1.14929
1.14953
1.1485
1.14899
1.15071
1.17053
1.16166
1.14967
1.14984
1.16545
1.1642
1.16135
1.15818
1.1567
1.15551
1.15442
1.15362
1.1532
1.15295
1.15282
1.15284
1.1531
1.15389
1.1556
1.15849
1.16271
1.16594
1.16724
1.1677
1.16798
1.16823
1.16847
1.1687
1.16897
1.16912
1.16914
1.16909
1.16914
1.16893
1.1691
1.16733
1.16844
1.16196
1.16521
1.15408
1.158
1.14853
1.15083
1.14684
1.14724
1.1518
1.1504
1.15555
1.15438
1.15391
1.1574
1.1564
1.15707
1.15833
1.15947
1.15916
1.16096
1.16059
1.15812
1.15814
1.1597
1.15973
1.15751
1.15778
1.15935
1.15952
1.15441
1.15582
1.15818
1.15714
1.15005
1.15089
1.15189
1.15308
1.14806
1.1485
1.14897
1.14953
1.14686
1.14731
1.14769
1.14802
1.14576
1.14646
1.14655
1.147
1.14331
1.14434
1.14652
1.14545
1.14305
1.14295
1.14315
1.14352
1.14318
1.14665
1.14751
1.14435
1.14351
1.14389
1.14503
1.14938
1.14966
1.14831
1.14895
1.15261
1.17182
1.16735
1.14984
1.15027
1.1648
1.162
1.1592
1.15759
1.15697
1.15669
1.15573
1.1545
1.15374
1.15334
1.15327
1.15362
1.15459
1.1565
1.15961
1.16365
1.16621
1.16723
1.16762
1.16789
1.16813
1.16837
1.16858
1.16886
1.16908
1.16918
1.16921
1.16914
1.16919
1.16893
1.16914
1.16723
1.1684
1.16192
1.16509
1.15469
1.15819
1.15032
1.152
1.14981
1.14967
1.15774
1.15541
1.15884
1.15708
1.15813
1.15935
1.16005
1.15931
1.16024
1.16124
1.1614
1.16121
1.163
1.16283
1.15965
1.15971
1.16142
1.16141
1.15881
1.15911
1.16078
1.161
1.15454
1.15603
1.15888
1.15752
1.1502
1.15102
1.15201
1.15318
1.14838
1.14877
1.14923
1.14975
1.14749
1.14789
1.14821
1.14852
1.14768
1.14719
1.14814
1.14782
1.14418
1.14608
1.14821
1.1476
1.14365
1.14336
1.14404
1.14431
1.14368
1.14595
1.14704
1.14422
1.14386
1.14407
1.14469
1.14944
1.14977
1.14803
1.14886
1.15504
1.17203
1.17031
1.14995
1.15079
1.16326
1.15982
1.15852
1.15802
1.15861
1.15863
1.15771
1.1564
1.15535
1.15487
1.15514
1.15628
1.15837
1.16145
1.1646
1.16648
1.16722
1.16756
1.16781
1.16804
1.16826
1.16849
1.16874
1.16896
1.16918
1.16919
1.1691
1.16923
1.16924
1.16923
1.16895
1.16916
1.16733
1.16843
1.16261
1.16539
1.15666
1.15947
1.15365
1.15464
1.15415
1.15365
1.16097
1.16326
1.16213
1.16173
1.16236
1.16105
1.16286
1.16248
1.16195
1.16329
1.16392
1.16306
1.16309
1.16414
1.16427
1.1612
1.16134
1.16297
1.16279
1.15993
1.16049
1.16177
1.16211
1.15443
1.15596
1.15906
1.15757
1.15033
1.15105
1.15196
1.1531
1.14884
1.14917
1.1495
1.14987
1.14818
1.14847
1.1488
1.14906
1.14857
1.14862
1.14902
1.149
1.14632
1.14767
1.14855
1.14814
1.14495
1.14458
1.14567
1.14651
1.14454
1.1454
1.14646
1.14436
1.14454
1.14456
1.14476
1.1495
1.14986
1.14766
1.14875
1.15997
1.17207
1.17148
1.15012
1.15197
1.16121
1.15901
1.15882
1.15986
1.16078
1.16063
1.15991
1.15906
1.15841
1.15835
1.15917
1.16096
1.16338
1.16549
1.16671
1.16722
1.1675
1.16773
1.16795
1.16816
1.16839
1.16861
1.16885
1.16902
1.16921
1.16918
1.16912
1.16926
1.16926
1.16925
1.16901
1.1692
1.16768
1.16857
1.16401
1.16615
1.15966
1.16166
1.15814
1.1584
1.15963
1.15855
1.16492
1.16625
1.16472
1.16568
1.16655
1.16505
1.16425
1.16592
1.16439
1.16428
1.16538
1.16535
1.16365
1.1639
1.16424
1.16456
1.16236
1.16259
1.16339
1.16314
1.16034
1.16123
1.16194
1.16233
1.15373
1.1552
1.15863
1.15696
1.15026
1.15076
1.15149
1.15248
1.14932
1.14954
1.14973
1.14992
1.14935
1.14986
1.1501
1.15024
1.15475
1.14931
1.15474
1.14959
1.14844
1.1484
1.15435
1.15444
1.1465
1.14547
1.14619
1.14766
1.14537
1.14525
1.14604
1.14471
1.14535
1.14534
1.14497
1.14951
1.14998
1.14734
1.14857
1.16364
1.17197
1.1718
1.15034
1.15294
1.16003
1.15918
1.16045
1.162
1.16254
1.16247
1.16219
1.16183
1.16174
1.16227
1.16343
1.1649
1.16614
1.16685
1.16721
1.16744
1.16765
1.16786
1.16806
1.16827
1.16848
1.16873
1.1689
1.16907
1.16925
1.16922
1.16916
1.16929
1.1693
1.1693
1.16912
1.16926
1.16818
1.16881
1.16575
1.16716
1.16311
1.16426
1.16293
1.16265
1.16549
1.16378
1.16688
1.16759
1.16734
1.16738
1.16802
1.16619
1.16625
1.16696
1.16487
1.16518
1.16597
1.16562
1.16352
1.16389
1.16339
1.16402
1.16262
1.16288
1.16309
1.16276
1.1602
1.16129
1.16127
1.16177
1.1522
1.15339
1.15688
1.15514
1.15009
1.15029
1.15053
1.15118
1.15025
1.15029
1.15028
1.15022
1.15489
1.1548
1.15458
1.15453
1.15948
1.15455
1.15944
1.15464
1.15433
1.15428
1.15943
1.15944
1.15379
1.14613
1.15362
1.15376
1.14615
1.14547
1.14598
1.14537
1.14638
1.14645
1.14562
1.14956
1.15005
1.14702
1.14851
1.16814
0.927665
1.17041
1.15056
1.15593
1.15985
1.16067
1.1624
1.16346
1.16386
1.16408
1.16417
1.16422
1.16451
1.16511
1.16587
1.16651
1.16692
1.16719
1.16738
1.16758
1.16777
1.16796
1.16815
1.16837
1.16858
1.16877
1.16894
1.16915
1.1692
1.16928
1.16925
1.16934
1.16934
1.16935
1.16925
1.16933
1.16871
1.16906
1.16744
1.16816
1.16639
1.16674
1.16703
1.16657
1.16857
1.16785
1.16744
1.1679
1.16812
1.16857
1.16853
1.16635
1.16672
1.16715
1.16465
1.16516
1.16579
1.16497
1.16202
1.16273
1.16087
1.1619
1.16216
1.16241
1.16141
1.16096
1.15876
1.16033
1.15883
1.1596
1.15001
1.15053
1.15339
1.15185
1.15014
1.15008
1.14992
1.14979
1.15421
1.15413
1.15384
1.15359
1.15911
1.15901
1.15883
1.15867
1.16466
1.15922
1.16461
1.15927
1.15945
1.15951
1.16467
1.16469
1.15917
1.15329
1.15915
1.1592
1.15299
1.14559
1.14616
1.14619
1.15291
1.15277
1.14555
1.14956
1.15013
1.14692
1.14833
1.16786
0.609138
1.15728
1.15093
1.15681
1.1607
1.16242
1.16368
1.16435
1.16487
1.16529
1.16548
1.16567
1.16598
1.16635
1.16668
1.16693
1.16714
1.16732
1.1675
1.16768
1.16786
1.16804
1.16824
1.16844
1.16863
1.1688
1.16902
1.16919
1.16922
1.16926
1.16931
1.16928
1.16938
1.16937
1.1694
1.16937
1.1694
1.16916
1.16929
1.16876
1.16897
1.16862
1.1686
1.16903
1.16875
1.16917
1.16885
1.16927
1.16929
1.16738
1.16755
1.16828
1.16861
1.16548
1.16652
1.16638
1.16295
1.164
1.16419
1.16269
1.15874
1.15977
1.15661
1.15814
1.16019
1.16049
1.15796
1.15734
1.15524
1.15726
1.15386
1.15528
1.14911
1.14828
1.14847
1.14813
1.15323
1.15284
1.15001
1.14923
1.15844