/*--------------------------------*- C++ -*----------------------------------*\
  =========                 |
  \\      /  F ield         | OpenFOAM: The Open Source CFD Toolbox
   \\    /   O peration     | Website:  https://openfoam.org
    \\  /    A nd           | Version:  dev
     \\/     M anipulation  |
\*---------------------------------------------------------------------------*/
FoamFile
{
    version     2.0;
    format      ascii;
    class       volScalarField;
    location    "2500";
    object      T;
}
// * * * * * * * * * * * * * * * * * * * * * * * * * * * * * * * * * * * * * //

dimensions      [0 0 0 1 0 0 0];

internalField   nonuniform List<scalar> 
9851
(
300.105
300.147
300.131
300.151
300.234
300.109
300.157
300.294
300.25
300.092
300.148
300.311
300.334
300.227
300.08
300.133
300.304
300.39
300.325
300.19
300.078
300.122
300.303
300.426
300.41
300.306
300.163
300.065
300.122
300.273
300.43
300.471
300.393
300.262
300.157
300.067
300.117
300.258
300.432
300.512
300.475
300.369
300.23
300.143
300.063
300.098
300.256
300.414
300.534
300.541
300.455
300.326
300.217
300.13
300.057
300.105
300.254
300.403
300.545
300.581
300.535
300.417
300.299
300.206
300.128
300.053
300.09
300.234
300.369
300.521
300.606
300.59
300.504
300.375
300.279
300.196
300.12
300.056
300.097
300.228
300.335
300.52
300.628
300.638
300.574
300.463
300.346
300.264
300.186
300.114
300.055
300.082
300.212
300.345
300.518
300.631
300.669
300.636
300.546
300.437
300.332
300.253
300.181
300.114
300.05
300.084
300.207
300.322
300.474
300.625
300.689
300.685
300.611
300.512
300.401
300.316
300.24
300.174
300.11
300.051
300.076
300.174
300.293
300.47
300.62
300.698
300.72
300.673
300.579
300.474
300.379
300.3
300.23
300.171
300.107
300.049
300.081
300.159
300.305
300.451
300.596
300.709
300.752
300.725
300.652
300.548
300.454
300.369
300.293
300.225
300.168
300.105
300.051
300.107
300.178
300.268
300.432
300.59
300.709
300.771
300.769
300.711
300.614
300.519
300.432
300.355
300.289
300.218
300.165
300.107
300.049
300.249
300.221
300.263
300.43
300.566
300.694
300.781
300.804
300.762
300.683
300.584
300.494
300.415
300.344
300.281
300.215
300.158
300.104
300.051
300.129
300.374
300.322
300.419
300.552
300.686
300.793
300.83
300.81
300.741
300.649
300.556
300.465
300.397
300.337
300.269
300.219
300.162
300.106
300.049
300.1
300.328
300.441
300.464
300.541
300.676
300.788
300.848
300.849
300.798
300.713
300.615
300.536
300.461
300.391
300.332
300.269
300.216
300.159
300.104
300.05
300.091
300.255
300.46
300.547
300.55
300.659
300.783
300.861
300.878
300.846
300.769
300.68
300.594
300.506
300.44
300.388
300.324
300.267
300.211
300.162
300.106
300.051
300.102
300.232
300.388
300.582
300.617
300.675
300.782
300.866
300.904
300.887
300.826
300.736
300.644
300.573
300.494
300.434
300.382
300.325
300.27
300.215
300.161
300.104
300.049
300.105
300.228
300.372
300.57
300.664
300.698
300.769
300.866
300.917
300.919
300.874
300.796
300.71
300.62
300.554
300.486
300.429
300.379
300.323
300.265
300.217
300.163
300.105
300.049
300.108
300.219
300.341
300.528
300.675
300.731
300.778
300.88
300.934
300.949
300.916
300.849
300.773
300.687
300.61
300.553
300.488
300.425
300.376
300.324
300.27
300.217
300.162
300.109
300.052
300.109
300.232
300.342
300.501
300.653
300.757
300.804
300.89
300.94
300.972
300.954
300.902
300.823
300.743
300.664
300.595
300.539
300.48
300.421
300.373
300.319
300.266
300.22
300.165
300.111
300.05
300.109
300.232
300.338
300.487
300.633
300.757
300.828
300.9
300.953
300.996
300.984
300.947
300.868
300.797
300.718
300.646
300.588
300.534
300.477
300.42
300.371
300.321
300.27
300.217
300.166
300.109
300.052
300.105
300.226
300.355
300.479
300.608
300.748
300.857
300.918
300.972
301.015
301.014
300.983
300.923
300.841
300.759
300.7
300.63
300.581
300.526
300.475
300.425
300.378
300.326
300.272
300.217
300.168
300.114
300.057
300.108
300.241
300.365
300.47
300.594
300.719
300.862
300.928
300.985
301.027
301.041
301.017
300.966
300.899
300.821
300.737
300.689
300.623
300.579
300.525
300.474
300.429
300.374
300.327
300.274
300.224
300.173
300.118
300.059
300.108
300.239
300.359
300.461
300.577
300.697
300.866
300.944
300.999
301.048
301.064
301.051
301.006
300.943
300.867
300.798
300.733
300.678
300.625
300.575
300.531
300.479
300.431
300.379
300.332
300.282
300.23
300.175
300.12
300.059
300.106
300.238
300.353
300.466
300.573
300.691
300.854
300.952
301.016
301.064
301.084
301.08
301.04
300.98
300.917
300.845
300.777
300.727
300.669
300.621
300.576
300.527
300.481
300.427
300.379
300.331
300.281
300.23
300.178
300.122
300.061
300.11
300.248
300.359
300.459
300.569
300.692
300.834
300.953
301.023
301.079
301.103
301.105
301.081
301.029
300.957
300.895
300.821
300.764
300.722
300.67
300.619
300.568
300.524
300.477
300.43
300.383
300.335
300.287
300.237
300.185
300.128
300.063
300.113
300.245
300.356
300.454
300.557
300.66
300.795
300.949
301.032
301.096
301.122
301.135
301.112
301.063
301.008
300.938
300.873
300.814
300.763
300.714
300.668
300.615
300.569
300.526
300.481
300.436
300.389
300.343
300.295
300.246
300.193
300.135
300.066
300.116
300.241
300.351
300.449
300.554
300.664
300.783
300.94
301.038
301.103
301.139
301.151
301.141
301.105
301.048
300.983
300.923
300.861
300.806
300.757
300.704
300.66
300.616
300.575
300.531
300.488
300.443
300.398
300.351
300.305
300.255
300.2
300.138
300.032
300.074
300.112
300.239
300.351
300.452
300.547
300.657
300.772
300.922
301.045
301.111
301.156
301.178
301.162
301.136
301.087
301.022
300.962
300.9
300.846
300.798
300.748
300.704
300.663
300.622
300.581
300.539
300.496
300.452
300.408
300.362
300.316
300.263
300.199
300.115
300.153
300.033
300.076
300.119
300.243
300.351
300.452
300.548
300.66
300.777
300.908
301.048
301.114
301.168
301.194
301.19
301.158
301.123
301.067
300.998
300.942
300.887
300.837
300.791
300.75
300.708
300.669
300.629
300.589
300.548
300.506
300.464
300.42
300.374
300.323
300.249
300.277
300.189
300.237
300.225
300.117
300.156
300.034
300.079
300.112
300.238
300.352
300.454
300.552
300.662
300.776
300.907
301.048
301.123
301.181
301.209
301.22
301.195
301.157
301.099
301.04
300.978
300.92
300.876
300.833
300.792
300.754
300.715
300.676
300.638
300.599
300.559
300.519
300.477
300.433
300.382
300.307
300.338
300.273
300.194
300.258
300.23
300.121
300.162
300.036
300.083
300.112
300.243
300.351
300.454
300.554
300.664
300.776
300.898
301.042
301.132
301.189
301.229
301.239
301.224
301.189
301.142
301.077
301.015
300.96
300.915
300.873
300.834
300.797
300.76
300.722
300.685
300.649
300.611
300.573
300.534
300.492
300.441
300.368
300.399
300.307
300.341
300.291
300.2
300.265
300.238
300.127
300.169
300.039
300.088
300.113
300.243
300.352
300.453
300.555
300.664
300.777
300.887
301.045
301.129
301.198
301.242
301.26
301.253
301.216
301.171
301.113
301.055
301
300.953
300.911
300.873
300.838
300.803
300.768
300.732
300.697
300.662
300.626
300.59
300.551
300.503
300.43
300.463
300.373
300.406
300.323
300.356
300.299
300.209
300.274
300.247
300.133
300.177
300.041
300.093
300.111
300.24
300.351
300.452
300.554
300.662
300.777
300.879
301.04
301.13
301.213
301.258
301.28
301.272
301.247
301.205
301.152
301.093
301.038
300.992
300.949
300.91
300.876
300.844
300.811
300.778
300.745
300.711
300.679
300.645
300.611
300.569
300.495
300.532
300.44
300.475
300.388
300.422
300.333
300.367
300.309
300.218
300.284
300.258
300.141
300.186
300.044
300.099
300.11
300.239
300.348
300.451
300.552
300.66
300.775
300.875
301.034
301.136
301.217
301.267
301.298
301.292
301.271
301.235
301.186
301.13
301.076
301.028
300.988
300.949
300.911
300.88
300.851
300.822
300.792
300.763
300.734
300.707
300.68
300.651
300.573
300.627
300.514
300.562
300.458
300.501
300.402
300.44
300.344
300.38
300.32
300.229
300.296
300.27
300.15
300.197
300.048
300.107
300.109
300.238
300.346
300.448
300.549
300.657
300.773
300.87
301.029
301.129
301.213
301.277
301.315
301.315
301.297
301.264
301.219
301.166
301.112
301.064
301.025
300.989
300.951
300.916
300.888
300.863
300.839
300.818
300.8
300.786
300.785
300.8
300.703
300.839
300.629
300.737
300.557
300.643
300.487
300.555
300.421
300.474
300.358
300.401
300.335
300.242
300.311
300.285
300.16
300.209
300.052
300.115
300.108
300.235
300.343
300.445
300.546
300.653
300.769
300.867
301.008
301.12
301.214
301.291
301.332
301.336
301.322
301.292
301.251
301.2
301.147
301.099
301.059
301.025
300.991
300.957
300.925
300.902
300.889
300.884
300.892
300.919
300.981
301.111
301.03
301.386
300.923
301.236
300.796
301.072
300.67
300.882
300.558
300.712
300.462
300.565
300.381
300.448
300.359
300.256
300.335
300.308
300.171
300.223
300.057
300.124
300.107
300.233
300.34
300.442
300.542
300.648
300.764
300.862
301.005
301.12
301.212
301.3
301.342
301.355
301.344
301.319
301.281
301.233
301.181
301.133
301.091
301.059
301.026
300.996
300.97
300.952
300.951
300.988
301.06
301.173
301.364
301.692
301.73
302.209
301.638
302.085
301.478
301.956
301.266
301.769
301.005
301.5
300.768
301.161
300.574
300.835
300.432
300.58
300.413
300.277
300.388
300.357
300.183
300.241
300.062
300.135
300.106
300.231
300.339
300.437
300.538
300.642
300.756
300.858
300.987
301.105
301.206
301.306
301.353
301.371
301.366
301.344
301.309
301.264
301.214
301.166
301.123
301.089
301.06
301.03
301.006
301.011
301.064
301.178
301.391
301.664
302.018
302.526
302.623
303.016
302.55
303.038
302.46
302.965
302.316
302.871
302.089
302.702
301.763
302.427
301.34
302.038
300.904
301.523
300.58
300.963
300.568
300.317
300.54
300.491
300.199
300.271
300.068
300.147
300.108
300.231
300.336
300.431
300.534
300.636
300.748
300.85
300.982
301.104
301.205
301.308
301.361
301.386
301.386
301.367
301.335
301.293
301.245
301.198
301.155
301.119
301.092
301.07
301.049
301.063
301.191
301.475
301.855
302.311
302.784
303.34
304.161
303.461
304.072
303.457
303.933
303.408
303.911
303.297
303.855
303.091
303.718
302.769
303.47
302.308
303.094
301.692
302.555
301
301.82
301.005
300.422
300.963
300.862
300.22
300.341
300.074
300.161
300.113
300.236
300.339
300.433
300.53
300.63
300.739
300.844
300.962
301.086
301.196
301.309
301.368
301.399
301.404
301.389
301.36
301.32
301.275
301.228
301.186
301.149
301.12
301.096
301.093
301.13
301.331
301.787
302.398
302.982
303.551
304.2
304.932
305.091
305.434
304.37
304.775
304.374
304.794
304.36
304.804
304.283
304.78
304.113
304.681
303.825
304.476
303.388
304.143
302.758
303.638
301.894
302.899
301.902
300.704
301.821
301.624
300.26
300.523
300.08
300.18
300.126
300.252
300.343
300.432
300.524
300.624
300.729
300.831
300.955
301.082
301.19
301.308
301.373
301.411
301.421
301.409
301.383
301.346
301.302
301.257
301.216
301.178
301.146
301.124
301.11
301.183
301.472
302.098
302.894
303.662
304.37
305.012
305.515
305.634
305.813
305.708
305.862
305.159
305.469
305.188
305.511
305.2
305.545
305.16
305.554
305.036
305.5
304.8
305.352
304.417
305.082
303.83
304.642
302.974
303.956
302.974
301.32
302.87
302.629
300.354
300.951
300.085
300.215
300.148
300.283
300.364
300.439
300.529
300.619
300.719
300.814
300.938
301.064
301.178
301.303
301.377
301.421
301.436
301.428
301.404
301.369
301.328
301.285
301.244
301.207
301.174
301.147
301.13
301.2
301.574
302.368
303.354
304.243
304.96
305.452
305.76
305.895
305.904
305.937
305.965
306.009
306.023
305.771
305.929
305.821
306.01
305.861
306.087
305.864
306.14
305.799
306.142
305.63
306.06
305.32
305.868
304.808
305.511
304.018
304.914
303.998
302.225
303.864
303.59
300.577
301.667
300.091
300.295
300.169
300.316
300.4
300.458
300.531
300.611
300.71
300.798
300.917
301.056
301.164
301.296
301.378
301.43
301.45
301.446
301.425
301.392
301.352
301.311
301.272
301.236
301.204
301.173
301.161
301.209
301.604
302.556
303.693
304.639
305.235
305.585
305.778
305.868
305.96
305.917
306.008
305.963
306.094
306.032
306.105
306.117
306.209
306.241
306.31
306.374
306.378
306.492
306.382
306.573
306.29
306.58
306.063
306.474
305.647
306.214
304.956
305.726
304.914
303.162
304.761
304.48
301.036
302.541
300.111
300.48
300.309
300.411
300.483
300.541
300.612
300.705
300.784
300.892
301.04
301.144
301.287
301.378
301.438
301.464
301.463
301.444
301.413
301.376
301.337
301.3
301.267
301.236
301.204
301.184
301.222
301.601
302.611
303.906
304.752
305.227
305.538
305.706
305.686
305.55
305.307
305.868
305.722
305.911
305.742
306.019
305.832
306.213
306.147
306.355
306.298
306.505
306.461
306.635
306.608
306.718
306.738
306.723
306.82
306.608
306.813
306.308
306.682
305.743
306.347
305.679
304.038
305.519
305.239
301.709
303.388
300.154
300.82
300.355
300.467
300.549
300.619
300.698
300.768
300.866
301.023
301.134
301.273
301.376
301.444
301.477
301.48
301.462
301.434
301.398
301.363
301.332
301.301
301.269
301.238
301.206
301.234
301.579
302.605
303.943
304.71
305.109
305.342
305.416
305.267
305.076
304.79
305.023
304.732
305.533
305.291
305.594
305.319
305.745
305.448
306.182
305.992
306.357
306.182
306.535
306.386
306.691
306.569
306.811
306.727
306.876
306.847
306.856
306.9
306.707
306.857
306.329
306.694
306.242
304.808
306.08
305.87
305.452
302.46
304.151
300.26
301.369
300.372
300.519
300.613
300.692
300.755
300.841
301.007
301.122
301.257
301.371
301.448
301.489
301.496
301.481
301.454
301.423
301.396
301.37
301.341
301.311
301.278
301.241
301.248
301.525
302.557
303.913
304.593
304.855
304.867
304.678
304.391
303.907
304.434
303.985
304.352
304.012
305.014
304.689
305.111
304.746
305.311
304.927
305.945
305.653
306.159
305.876
306.361
306.094
306.549
306.288
306.711
306.471
306.832
306.635
306.874
306.756
306.829
306.811
306.634
306.771
306.737
306.375
306.551
305.71
304.983
305.502
306.197
306.414
306.494
306.074
303.2
305.256
304.932
304.277
300.417
301.911
300.407
300.582
300.688
300.739
300.838
300.989
301.104
301.24
301.363
301.448
301.499
301.513
301.501
301.476
301.453
301.438
301.425
301.406
301.377
301.338
301.292
301.266
301.472
302.429
303.837
304.466
304.624
304.349
303.786
303.258
302.898
302.99
302.609
303.67
303.311
303.585
303.216
304.362
303.971
304.516
304.084
304.769
304.333
305.549
305.178
305.773
305.422
305.994
305.699
306.206
305.966
306.386
306.178
306.53
306.316
306.623
306.539
306.417
306.769
306.712
306.521
306.633
306.734
306.657
306.69
306.728
306.61
305.921
305.73
306.33
306.484
306.552
306.219
304.556
303.246
304.06
305.491
305.192
300.439
303.5
302.755
301.791
300.477
300.662
300.738
300.832
300.953
301.081
301.223
301.352
301.447
301.505
301.527
301.52
301.502
301.494
301.507
301.531
301.538
301.513
301.453
301.377
301.312
301.449
302.266
303.692
304.37
304.464
303.996
303.155
302.353
301.965
301.726
302.24
301.859
302.87
302.544
302.798
302.43
303.645
303.209
303.882
303.423
304.297
303.894
305.059
304.686
305.41
305.119
305.746
305.524
306.005
305.862
306.176
306.117
306.336
306.279
306.249
306.25
306.418
306.333
306.359
306.3
306.671
306.576
306.371
306.472
306.684
306.651
306.64
306.624
306.602
306.081
305.909
306.407
306.548
306.49
306.313
304.823
304.36
305.692
305.421
301.907
300.135
300.735
303.793
303.044
300.588
300.739
300.808
300.923
301.057
301.203
301.339
301.441
301.508
301.539
301.538
301.531
301.553
301.631
301.739
301.813
301.803
301.706
301.557
301.41
301.458
302.125
303.506
304.286
304.378
303.838
302.893
301.967
301.513
301.308
301.297
301.149
301.614
301.421
302.114
301.845
302.148
301.826
302.967
302.536
303.478
303.054
304.133
303.761
304.813
304.484
305.3
305.073
305.752
305.671
306.129
306.205
306.277
306.342
306.422
306.526
306.27
306.272
306.315
306.397
306.316
306.296
306.29
306.286
306.528
306.421
306.309
306.345
306.577
306.597
306.534
306.482
306.551
306.196
306.05
306.425
306.503
306.453
306.348
305.08
304.65
305.865
305.627
302.023
300.091
300.683
304.091
303.323
300.726
300.794
300.917
301.04
301.182
301.326
301.43
301.507
301.546
301.553
301.56
301.628
301.796
302.012
302.163
302.177
302.058
301.854
301.62
301.507
302.044
303.305
304.206
304.33
303.834
302.885
301.922
301.382
301.156
301.024
301.073
301.011
301.247
301.142
301.575
301.387
301.874
301.581
302.633
302.232
303.371
302.966
304.291
303.971
304.833
304.576
305.602
305.527
306.318
306.428
306.622
306.724
306.802
306.876
306.506
306.635
306.769
306.895
306.33
306.42
306.544
306.693
306.314
306.325
306.381
306.413
306.383
306.328
306.346
306.311
306.438
306.493
306.4
306.357
306.453
306.257
306.143
306.396
306.415
306.38
306.334
305.323
304.929
305.997
305.802
302.115
300.065
300.656
304.395
303.608
300.793
300.901
301.012
301.163
301.308
301.423
301.505
301.551
301.564
301.588
301.709
301.981
302.309
302.542
302.593
302.457
302.196
301.897
301.661
302.034
303.133
304.123
304.32
303.878
302.966
302.01
301.386
301.131
301.003
300.949
300.932
300.989
300.958
301.105
301.035
301.363
301.21
301.816
301.53
302.559
302.168
303.614
303.222
305.083
304.822
305.427
305.283
306.487
306.497
307.031
307.006
307.005
307.085
307.122
307.122
306.851
307.001
307.131
307.219
306.543
306.703
306.879
307.05
306.446
306.505
306.602
306.671
306.317
306.319
306.506
306.38
306.336
306.368
306.316
306.309
306.342
306.267
306.182
306.341
306.318
306.295
306.299
305.54
305.19
306.071
305.922
302.276
300.056
300.695
304.7
303.938
300.885
301.003
301.14
301.289
301.412
301.502
301.553
301.572
301.612
301.786
302.158
302.603
302.925
303.032
302.887
302.566
302.199
301.91
302.068
303.046
304.042
304.329
303.986
303.182
302.267
301.465
301.142
301.01
300.93
300.919
300.91
300.957
300.929
301.068
301.001
301.316
301.168
302.01
301.681
302.807
302.394
304.494
304.095
306.281
306.103
306.463
306.392
306.955
306.874
307.114
307.055
306.942
307
307.252
307.246
307.218
307.167
307.198
307.302
307.339
307.332
306.859
307.05
307.221
307.348
306.692
306.795
306.908
307.002
306.329
306.411
306.774
306.563
306.302
306.298
306.293
306.337
306.279
306.242
306.178
306.265
306.258
306.237
306.238
305.719
305.427
306.101
305.99
302.585
300.083
300.966
305.006
304.359
300.995
301.122
301.267
301.395
301.496
301.553
301.578
301.628
301.845
302.313
302.868
303.293
303.468
303.331
302.96
302.527
302.186
302.193
303.041
304.004
304.342
304.128
303.449
302.576
301.664
301.18
301.029
300.941
300.876
300.888
300.882
300.874
300.949
300.909
301.102
301.011
301.424
301.235
302.684
302.241
303.642
303.162
305.841
305.473
306.768
306.744
306.833
306.79
306.896
306.856
306.718
306.946
306.832
306.644
306.729
307.297
307.239
307.16
307.063
307.403
307.403
307.369
307.301
307.198
307.357
307.449
307.464
307.007
307.127
307.233
307.32
306.437
306.614
307.092
306.846
306.34
306.28
306.338
306.456
306.265
306.204
306.158
306.213
306.245
306.221
306.186
305.837
305.617
306.095
306.017
303.236
300.251
301.643
305.296
304.847
301.107
301.245
301.379
301.486
301.553
301.581
301.634
301.879
302.424
303.088
303.616
303.874
303.783
303.393
302.903
302.498
302.43
303.075
304.009
304.365
304.257
303.693
302.862
301.877
301.25
301.05
300.961
300.891
300.839
300.842
300.874
300.848
301.001
300.921
301.304
301.126
301.858
301.546
303.889
303.299
304.999
304.467
306.692
306.575
306.761
306.823
306.7
306.72
306.581
306.561
306.072
306.078
306.571
306.425
306.198
306.298
307.196
307.054
306.894
306.73
307.435
307.373
307.262
307.1
307.46
307.51
307.502
307.453
307.321
307.419
307.497
307.529
306.658
306.906
307.391
307.162
306.468
306.328
306.469
306.688
306.311
306.158
306.118
306.193
306.284
306.251
306.161
305.906
305.747
306.073
306.014
304.2
302.063
303.855
305.535
305.296
301.225
301.368
301.475
301.552
301.586
301.637
301.886
302.48
303.237
303.869
304.22
304.206
303.864
303.352
302.879
302.737
303.186
304.041
304.407
304.368
303.901
303.114
302.084
301.325
301.084
300.979
300.91
300.82
300.842
300.822
300.814
300.901
300.847
301.182
301.007
301.788
301.44
302.734
302.222
305.368
304.71
306.341
305.934
306.879
306.911
306.272
306.501
306.107
306.15
306.094
306.125
306.084
305.613
305.628
306.133
305.966
305.72
305.826
306.914
306.717
306.515
306.318
307.352
307.199
306.994
306.785
307.551
307.519
307.45
307.305
307.553
307.573
307.6
307.575
306.952
307.217
307.579
307.447
306.704
306.457
306.704
306.982
306.43
306.124
306.091
306.212
306.388
306.336
306.168
305.935
305.825
306.05
306
305.142
304.725
305.278
305.697
305.607
301.351
301.462
301.547
301.591
301.636
301.881
302.488
303.308
304.029
304.464
304.544
304.323
303.864
303.374
303.16
303.444
304.126
304.474
304.464
304.072
303.323
302.269
301.402
301.118
301.003
300.927
300.854
300.799
300.803
300.824
300.803
301
300.879
301.566
301.221
302.628
302.04
304.007
303.298
306.538
306.065
306.902
306.797
306.722
306.902
305.63
305.762
305.851
305.671
305.761
305.495
305.362
305.646
305.615
305.161
305.174
305.708
305.525
305.262
305.374
306.568
306.348
306.127
305.911
307.117
306.902
306.69
306.473
307.523
307.436
307.252
307.039
307.608
307.586
307.572
307.523
307.256
307.483
307.598
307.585
306.994
306.681
306.988
307.276
306.642
306.119
306.072
306.273
306.583
306.502
306.207
305.936
305.858
306.028
305.981
305.627
305.4
305.707
305.786
305.753
301.448
301.541
301.593
301.634
301.852
302.471
303.315
304.094
304.572
304.744
304.673
304.367
303.956
303.717
303.886
304.314
304.566
304.551
304.203
303.482
302.419
301.473
301.149
301.029
300.95
300.888
300.795
300.816
300.789
300.791
300.85
300.804
301.2
300.965
302.193
301.604
303.757
302.932
305.387
304.595
306.998
306.813
307.011
307.046
306.216
306.559
305.198
305.398
305.082
305.328
305.199
305.266
305.041
304.915
305.189
305.163
304.733
304.741
305.339
305.134
304.844
304.966
306.253
306.03
305.798
305.564
306.832
306.625
306.424
306.221
307.38
307.178
306.972
306.772
307.551
307.5
307.463
307.31
307.503
307.584
307.535
307.586
307.287
306.965
307.285
307.506
306.921
306.141
306.077
306.404
306.84
306.727
306.298
305.925
305.864
306.015
305.96
305.782
304.325
305.625
305.821
305.802
301.529
301.593
301.631
301.8
302.394
303.293
304.087
304.577
304.798
304.846
304.734
304.494
304.326
304.389
304.569
304.674
304.639
304.291
303.58
302.518
301.532
301.177
301.054
300.971
300.905
300.834
300.787
300.794
300.785
300.78
300.907
300.816
301.516
301.116
303.01
302.156
304.939
303.974
306.428
305.791
307.072
307.016
306.841
307.01
305.542
305.765
305.909
304.709
304.878
304.561
304.787
304.759
304.822
304.569
304.459
304.768
304.741
304.33
304.329
305.038
304.802
304.469
304.609
306.01
305.787
305.546
305.293
306.582
306.402
306.225
306.043
307.112
306.91
306.72
306.547
307.439
307.249
307.199
307.048
307.58
307.576
307.421
307.521
307.504
307.259
307.491
307.576
307.198
306.195
306.099
306.593
307.101
306.964
306.442
305.906
305.855
306.015
305.939
305.788
302.411
305.024
305.818
305.8
301.59
301.629
301.747
302.265
303.175
303.991
304.497
304.766
304.865
304.88
304.826
304.762
304.753
304.785
304.803
304.704
304.318
303.606
302.551
301.57
301.201
301.075
300.998
300.928
300.872
300.786
300.771
300.782
300.785
300.77
300.995
300.843
301.924
301.327
303.87
302.805
305.81
304.928
306.823
306.436
306.845
306.916
306.322
306.658
305.044
305.338
305.267
304.999
304.221
304.374
303.981
304.176
304.338
304.38
304.099
304.006
304.382
304.344
303.951
303.94
304.806
304.539
304.142
304.311
305.84
305.61
305.358
305.085
306.387
306.235
306.073
305.896
306.847
306.671
306.514
306.374
307.164
306.995
306.969
306.788
307.572
307.514
307.152
307.416
307.567
307.457
307.545
307.567
307.4
306.287
306.147
306.798
307.314
307.174
306.607
305.879
305.827
306.027
305.928
305.707
301.362
304.149
305.789
305.772
301.628
301.711
302.107
302.99
303.751
304.235
304.606
304.802
304.874
304.898
304.914
304.923
304.921
304.875
304.706
304.301
303.579
302.524
301.579
301.216
301.093
301.017
300.953
300.894
300.82
300.757
300.761
300.776
300.757
300.79
300.76
301.106
300.881
302.351
301.571
304.46
303.384
306.101
305.394
306.842
306.58
306.252
306.429
305.417
305.894
304.415
304.691
304.698
304.316
303.712
303.83
303.397
303.542
303.939
303.95
303.622
303.563
304.032
303.978
303.598
303.569
304.605
304.296
303.839
304.033
305.701
305.474
305.215
304.92
306.244
306.107
305.966
305.809
306.616
306.48
306.357
306.248
306.951
306.758
306.741
306.586
307.516
307.425
306.97
307.165
307.552
307.511
307.526
307.494
307.458
306.406
306.214
306.994
307.376
307.266
306.774
305.852
305.79
306.054
305.927
305.485
300.398
302.653
305.756
305.711
301.678
301.997
302.727
303.542
303.924
304.233
304.515
304.722
304.833
304.899
304.931
304.928
304.859
304.655
304.212
303.468
302.383
301.558
301.227
301.111
301.039
300.976
300.915
300.857
300.787
300.748
300.745
300.757
300.745
300.797
300.754
301.204
300.921
302.571
301.742
304.599
303.587
306.044
305.444
306.487
306.382
305.192
305.556
304.221
304.524
304.645
303.743
304
303.83
303.503
303.21
303.291
302.83
302.923
303.556
303.552
303.153
303.143
303.712
303.644
303.241
303.196
304.504
304.144
303.539
303.805
305.627
305.41
305.153
304.846
306.139
306.027
305.906
305.759
306.45
306.335
306.235
306.147
306.738
306.553
306.528
306.413
307.388
307.113
306.532
306.818
307.459
307.488
307.432
307.332
307.428
306.532
306.308
307.124
307.34
307.239
306.948
305.827
305.755
306.101
305.937
304.99
300.071
301.203
305.709
305.599
301.842
302.559
303.279
303.695
303.854
303.928
304.177
304.494
304.693
304.796
304.814
304.726
304.474
303.98
303.177
302.142
301.49
301.23
301.129
301.061
301
300.939
300.885
300.813
300.759
300.732
300.727
300.742
300.732
300.797
300.745
301.229
300.933
302.581
301.772
304.44
303.537
305.577
305.141
305.71
305.747
303.657
304.257
303.372
303.825
303.554
303.243
303.062
303.251
303.014
302.756
302.716
302.766
302.308
302.351
303.164
303.148
302.712
302.714
303.379
303.301
302.874
302.818
304.47
304.089
303.36
303.708
305.586
305.375
305.121
304.819
306.056
305.953
305.836
305.701
306.282
306.18
306.095
306.016
306.224
306.359
306.105
306.192
307.155
306.646
306.081
306.244
307.295
307.375
307.189
307.118
307.291
306.709
306.428
307.151
307.243
307.19
307.03
305.812
305.726
306.17
305.958
304.36
300.02
300.452
305.68
305.464
302.236
303.118
303.455
303.584
303.431
303.427
303.665
304.002
304.274
304.399
304.33
304.035
303.496
302.705
301.899
301.419
301.231
301.144
301.081
301.022
300.966
300.907
300.846
300.789
300.734
300.731
300.754
300.722
300.719
300.722
300.792
300.738
301.202
300.924
302.405
301.695
303.934
303.21
304.711
304.454
304.583
304.712
302.826
302.239
302.529
302.631
302.471
302.805
302.343
302.44
302.576
302.234
302.072
302.292
302.284
302.016
301.983
302.767
302.731
302.313
302.361
303.091
302.948
302.62
302.534
304.498
304.106
303.312
303.694
305.551
305.367
305.133
304.84
305.932
305.845
305.761
305.667
306.099
306.024
305.938
305.87
305.987
305.979
305.868
305.878
306.582
306.221
305.99
306.097
306.945
307.044
306.75
306.527
307.053
306.847
306.572
307.114
307.055
307.054
307.007
305.795
305.702
306.264
305.984
303.088
300.008
300.156
305.635
305.154
302.76
303.328
303.376
303.109
302.872
302.911
303.097
303.317
303.484
303.499
303.288
302.829
302.209
301.672
301.362
301.232
301.159
301.1
301.046
300.991
300.934
300.878
300.815
300.774
300.726
300.732
300.747
300.713
300.712
300.715
300.776
300.729
301.113
300.887
302.048
301.502
303.162
302.648
303.55
303.484
303.17
303.445
301.818
301.478
301.866
301.623
301.402
301.785
301.988
301.563
301.952
301.98
301.7
301.708
302.14
302.076
301.989
301.908
302.47
302.411
302.208
302.27
302.986
302.758
302.578
302.477
304.677
304.298
303.421
303.849
305.567
305.439
305.252
304.998
305.803
305.745
305.696
305.648
305.786
305.652
305.589
305.553
304.342
305.792
304.347
305.719
306.013
306.025
304.449
304.422
306.529
306.804
306.609
306.22
306.829
306.88
306.675
307.017
306.836
306.84
306.95
305.79
305.67
306.342
306.027
302.148
300.033
300.077
305.578
304.903
303.063
303.284
302.957
302.561
302.421
302.44
302.513
302.605
302.628
302.494
302.195
301.821
301.505
301.324
301.234
301.174
301.12
301.067
301.018
300.963
300.91
300.847
300.803
300.76
300.716
300.723
300.738
300.706
300.702
300.704
300.748
300.713
300.986
300.828
301.604
301.247
302.277
301.984
302.324
302.394
301.672
302.106
301.318
301.137
301.202
301.191
301.03
301.493
301.478
301.297
301.828
301.75
301.55
301.639
302.174
302.08
302.206
302.046
302.403
302.338
302.284
302.366
303.021
302.743
302.747
302.621
305.069
304.763
303.869
304.316
305.606
305.555
305.495
305.33
305.55
305.541
305.544
305.564
304.306
304.331
304.389
304.402
303.096
304.398
303.107
304.373
304.449
304.465
303.11
303.107
304.591
306.625
304.636
304.6
306.619
306.818
306.687
306.832
306.558
306.54
306.772
305.774
305.65
306.42
306.04
301.002
377.453
300.425
305.52
304.126
303.111
302.901
302.457
302.187
302.084
302.028
302.005
301.993
301.919
301.767
301.574
301.41
301.307
301.238
301.189
301.139
301.091
301.042
300.993
300.938
300.884
300.835
300.792
300.741
300.728
300.707
300.714
300.693
300.693
300.691
300.715
300.695
300.852
300.763
301.175
300.992
301.442
301.354
301.279
301.396
300.89
301.073
301.176
301.059
301.003
300.89
300.899
301.452
301.358
301.249
301.884
301.754
301.594
301.804
302.555
302.374
302.849
302.586
302.521
302.457
302.713
302.826
303.388
302.987
303.371
303.173
305.631
305.499
304.765
305.16
305.587
305.603
305.647
305.685
304.486
304.506
304.583
304.65
303.192
303.219
303.265
303.307
301.745
303.164
301.757
303.15
303.104
303.089
301.743
301.737
303.176
304.721
303.181
303.169
304.801
306.785
306.637
306.613
304.821
304.858
306.789
305.771
305.628
306.443
306.084
301.071
568.598
303.78
305.424
303.899
302.892
302.453
302.131
301.958
301.828
301.721
301.671
301.622
301.545
301.452
301.368
301.304
301.249
301.204
301.158
301.112
301.068
301.021
300.97
300.92
300.87
300.828
300.773
300.729
300.721
300.713
300.699
300.706
300.682
300.685
300.677
300.685
300.677
300.739
300.705
300.841
300.788
300.877
300.882
300.773
300.844
300.738
300.819
300.712
300.706
301.191
301.146
300.963
300.88
301.674
301.409
301.445
302.319
302.051
302.001
302.384
303.396
303.13
303.944
303.55
303.023
302.948
303.595
303.754
304.291
303.772
304.649
304.285
305.859
306.078
306.037
306.122
304.744
304.847
305.617
305.829
303.366
303.423
303.494
303.582
301.821
301.845
301.872
301.903
300.544
301.783