/*--------------------------------*- C++ -*----------------------------------*\
  =========                 |
  \\      /  F ield         | OpenFOAM: The Open Source CFD Toolbox
   \\    /   O peration     | Website:  https://openfoam.org
    \\  /    A nd           | Version:  dev
     \\/     M anipulation  |
\*---------------------------------------------------------------------------*/
FoamFile
{
    version     2.0;
    format      ascii;
    class       volVectorField;
    location    "2500";
    object      U;
}
// * * * * * * * * * * * * * * * * * * * * * * * * * * * * * * * * * * * * * //

dimensions      [0 1 -1 0 0 0 0];

internalField   nonuniform List<vector> 
9851
(
(0.00480139 0.00743994 0)
(0.0114482 0.00669976 0)
(0.00478286 0.0197059 4.46849e-27)
(0.0159592 0.00560874 -5.22119e-28)
(0.0126565 0.0200976 -4.19676e-27)
(0.00408776 0.0284207 5.54305e-27)
(0.0195513 0.00471406 -5.1472e-28)
(0.017862 0.0195915 0)
(0.0120813 0.0296358 -1.07117e-26)
(0.00335382 0.0355355 0)
(0.0222817 0.00398119 0)
(0.0213655 0.0178019 -1.58208e-27)
(0.0184494 0.0306562 0)
(0.0105031 0.0367203 -6.04365e-27)
(0.00288503 0.0417093 -3.77565e-28)
(0.0244933 0.0033412 0)
(0.023822 0.015383 -1.6364e-27)
(0.0232084 0.0305932 0)
(0.0173058 0.0385811 0)
(0.00889646 0.0426264 -1.75832e-27)
(0.00254324 0.0472006 2.66389e-27)
(0.0265295 0.00283421 0)
(0.025789 0.0129486 0)
(0.0264765 0.0293337 2.02439e-27)
(0.0230553 0.040146 0)
(0.0151668 0.044453 -4.51583e-27)
(0.00773825 0.0478895 -4.7917e-27)
(0.00225733 0.0520655 3.34494e-27)
(0.0284677 0.00246075 0)
(0.0275526 0.0108538 3.9617e-29)
(0.0286264 0.0272057 2.10534e-27)
(0.0275378 0.0407769 0)
(0.0212346 0.0467703 0)
(0.0131097 0.0493538 -4.42048e-27)
(0.00685211 0.0526529 -9.93114e-28)
(0.00200429 0.0564497 3.96547e-28)
(0.0302628 0.00220935 0)
(0.0291653 0.00930586 1.18548e-28)
(0.0300275 0.0245362 -2.06839e-27)
(0.0307396 0.0402317 0)
(0.0266011 0.0488876 1.25034e-27)
(0.0186613 0.0515901 -8.08768e-28)
(0.0115113 0.053817 2.13991e-27)
(0.00608209 0.0569615 7.05401e-28)
(0.00178239 0.0603525 0)
(0.0319666 0.00204864 -2.64192e-29)
(0.0307214 0.00835529 1.54627e-28)
(0.0310848 0.0217686 -2.23321e-27)
(0.0328189 0.0386129 -1.52978e-28)
(0.030927 0.0502195 1.38543e-27)
(0.0241671 0.054296 -2.81573e-27)
(0.016305 0.0556284 -1.63034e-27)
(0.0102127 0.0579587 7.76503e-28)
(0.00541104 0.0608075 1.36906e-27)
(0.00158149 0.0638368 0)
(0.0336557 0.00194485 0)
(0.0322618 0.0078024 -3.60257e-29)
(0.0321466 0.0191798 3.25536e-36)
(0.0340948 0.0362632 0)
(0.0341532 0.0504787 -1.48719e-27)
(0.0292215 0.0569269 -2.24996e-27)
(0.0212677 0.0581456 -1.81216e-27)
(0.0143885 0.05946 -9.66925e-28)
(0.00907395 0.0616935 3.37838e-27)
(0.00479928 0.064262 0)
(0.00140287 0.06695 -1.17495e-27)
(0.0354019 0.00187494 -3.37209e-29)
(0.0339044 0.00741435 0)
(0.033306 0.0169813 2.03989e-27)
(0.0349175 0.0334652 -1.21906e-27)
(0.0363717 0.0496483 -1.40318e-27)
(0.0334785 0.0589943 -3.58495e-28)
(0.0262671 0.0611496 -9.56119e-29)
(0.0186779 0.0615521 -1.91987e-28)
(0.0127645 0.063028 -2.70879e-27)
(0.00804373 0.0650783 -5.7091e-28)
(0.00424008 0.0673253 0)
(0.00124061 0.0697596 7.08316e-32)
(0.0372879 0.00186458 0)
(0.0355834 0.00710773 -4.0538e-29)
(0.0345518 0.0154272 2.06138e-27)
(0.0355816 0.0306145 -1.30848e-27)
(0.0377547 0.0479121 0)
(0.0367772 0.0601494 0)
(0.0309902 0.0642927 -3.67649e-28)
(0.0231051 0.0642697 0)
(0.0164962 0.0648528 -1.71119e-27)
(0.0113035 0.0662868 -3.29135e-27)
(0.00710571 0.0680634 -1.21882e-27)
(0.00373672 0.0701094 -7.70321e-28)
(0.00108216 0.0722395 9.69266e-28)
(0.0394468 0.00193192 0)
(0.03731 0.00701914 0)
(0.035909 0.0146282 0)
(0.0362232 0.0279716 6.4116e-29)
(0.0385484 0.0456182 0)
(0.0391397 0.0602912 1.86919e-27)
(0.035137 0.0670878 7.01014e-28)
(0.0275747 0.0675398 0)
(0.0202944 0.0672148 0)
(0.0145824 0.067913 0)
(0.00998255 0.0691686 -2.43827e-27)
(0.00624514 0.0707844 -2.77008e-27)
(0.00326361 0.0725771 -8.4398e-28)
(0.00093613 0.0743967 1.88684e-27)
(0.042154 0.00210381 0)
(0.0393039 0.00719055 -4.49064e-29)
(0.0373702 0.0142545 0)
(0.0369457 0.0258023 -2.62669e-27)
(0.0389546 0.0431025 0)
(0.0406547 0.0594864 2.25639e-27)
(0.038487 0.0692113 6.66366e-28)
(0.0319254 0.0710767 7.04276e-28)
(0.0242019 0.0701392 1.07103e-27)
(0.0178863 0.0699713 0)
(0.0128704 0.0706406 0)
(0.00878291 0.0717858 -1.07885e-27)
(0.00545788 0.0732055 7.25915e-28)
(0.00282308 0.0747062 1.87062e-27)
(0.000799744 0.0763149 0)
(0.0455571 0.00257266 0)
(0.04164 0.00767752 0)
(0.0390394 0.0141748 -9.93462e-29)
(0.0378671 0.0243231 -2.6392e-27)
(0.0391591 0.0405526 0)
(0.0414631 0.0579951 3.3688e-27)
(0.0409481 0.0704289 6.33818e-28)
(0.0358726 0.0745287 6.64612e-28)
(0.0281721 0.073601 1.23675e-27)
(0.0212484 0.072491 -3.46517e-28)
(0.0157641 0.0725019 0)
(0.011323 0.0731254 0)
(0.00767944 0.0741264 1.05088e-27)
(0.00472888 0.0753015 4.90702e-28)
(0.0024121 0.0766109 4.20037e-28)
(0.000672272 0.0779582 0)
(0.0488744 0.00375747 0)
(0.0443309 0.00834705 -4.17585e-29)
(0.0409892 0.0144975 0)
(0.039008 0.0235517 -5.77143e-29)
(0.0393936 0.0382122 0)
(0.0417652 0.0560694 6.92861e-27)
(0.0425522 0.0707956 0)
(0.0391647 0.0775451 0)
(0.0320743 0.0774212 3.30067e-28)
(0.02467 0.0755618 0)
(0.0186621 0.0747767 -1.1531e-35)
(0.0138326 0.0748229 0)
(0.0098897 0.0753679 5.55817e-28)
(0.00664534 0.076185 1.04149e-27)
(0.00403725 0.0771694 4.31813e-28)
(0.00201845 0.0782335 0)
(0.000547622 0.0793771 -1.11266e-27)
(0.0423834 0.0106756 0)
(0.0449046 0.010261 0)
(0.0431258 0.0151181 -9.58738e-29)
(0.0404206 0.0234499 -5.61108e-29)
(0.0398225 0.0363779 0)
(0.0417908 0.0540167 3.53379e-27)
(0.0434472 0.0703147 0)
(0.0416767 0.0798401 -3.83528e-27)
(0.0356986 0.0813694 0)
(0.0281288 0.0791366 -9.69482e-28)
(0.0215906 0.0775077 -3.73294e-28)
(0.0163334 0.0768836 1.17574e-27)
(0.0120703 0.0769347 -1.45237e-27)
(0.00854058 0.0773674 2.22304e-27)
(0.00565992 0.0780045 0)
(0.00337651 0.0787736 3.70703e-28)
(0.00163889 0.0796485 7.56863e-29)
(0.00042417 0.0805316 1.04841e-28)
(-0.0259774 -0.00064079 3.79205e-26)
(0.0359707 0.0122937 6.1717e-30)
(0.0429533 0.0165762 -9.31269e-29)
(0.0421599 0.0239987 -5.3836e-29)
(0.0404627 0.035225 3.19606e-27)
(0.0416942 0.0520021 3.51652e-27)
(0.0437555 0.0692415 -6.90148e-29)
(0.043394 0.0813594 -1.91573e-42)
(0.0388411 0.0850479 -2.79948e-28)
(0.0315394 0.0831706 -8.55527e-28)
(0.0245432 0.080684 1.80513e-27)
(0.0188555 0.0793289 -9.56645e-29)
(0.0142366 0.0788083 -2.48984e-27)
(0.0104352 0.0788381 2.50195e-28)
(0.00727696 0.0791152 -2.98381e-32)
(0.00473629 0.0795629 0)
(0.00274105 0.0801699 2.05307e-27)
(0.00127271 0.0807924 5.97791e-29)
(0.000305077 0.0814741 -1.07505e-27)
(0.0329788 -0.0106865 -2.22901e-26)
(0.00444109 0.00506695 6.83458e-27)
(0.0362027 0.016982 -3.91007e-27)
(0.0420628 0.0251012 5.69991e-27)
(0.0414292 0.0350247 3.42409e-27)
(0.0415566 0.0502423 3.64918e-27)
(0.0437072 0.067866 -1.32709e-28)
(0.0444287 0.0820365 3.89334e-27)
(0.0413511 0.088277 6.34347e-29)
(0.0347688 0.0873938 0)
(0.0275038 0.0843471 1.34674e-27)
(0.0213923 0.0821501 -5.59105e-28)
(0.0163876 0.0810252 -9.38727e-28)
(0.012314 0.0805891 0)
(0.00889969 0.0804875 2.23209e-28)
(0.0060945 0.0806072 7.91431e-28)
(0.00385341 0.0809473 1.02391e-27)
(0.00211947 0.0813167 -3.93471e-28)
(0.000909328 0.0817348 -1.48043e-27)
(0.000180451 0.0821645 0)
(0.0382437 -0.00302805 4.13058e-28)
(0.0237552 -0.00494507 -6.56867e-28)
(0.0181713 0.0120029 -1.89181e-27)
(0.0385482 0.025493 5.33676e-27)
(0.0413289 0.0354512 -4.01915e-28)
(0.0416462 0.0489826 2.45361e-28)
(0.043392 0.0663852 0)
(0.0448053 0.0818985 -1.11728e-28)
(0.0432105 0.0908263 0)
(0.0376582 0.0916111 6.17952e-29)
(0.0304266 0.0883922 0)
(0.0239067 0.0853906 -5.59107e-28)
(0.0185602 0.0836174 5.34359e-28)
(0.0141452 0.0826286 -9.85672e-28)
(0.0105026 0.0821309 -1.21829e-27)
(0.00744991 0.0819247 1.16275e-27)
(0.00495864 0.0819658 1.18035e-27)
(0.00298239 0.0820908 1.00206e-27)
(0.00150943 0.0822434 -8.85086e-28)
(0.000539292 0.0824275 3.65537e-29)
(7.30978e-05 0.0826601 -1.08043e-27)
(0.0373478 -0.000494505 6.96417e-29)
(0.033946 -0.00198889 -1.38596e-27)
(0.0225829 0.00409888 0)
(0.0277801 0.0223499 0)
(0.0395497 0.0356339 7.16033e-28)
(0.04135 0.0484011 -8.25848e-28)
(0.0429389 0.0648909 1.14635e-28)
(0.0447423 0.0814258 0)
(0.0443661 0.0925736 -4.89298e-29)
(0.0401115 0.0955577 0)
(0.0332181 0.092741 -3.3079e-27)
(0.0263946 0.0890489 2.61082e-28)
(0.0206969 0.0865617 0)
(0.0159758 0.0849666 4.88847e-28)
(0.0120901 0.0840334 -2.64283e-27)
(0.00878712 0.0835124 -3.91349e-28)
(0.0060615 0.0832219 1.67528e-32)
(0.0038529 0.0830869 1.18598e-27)
(0.00212969 0.0829999 -3.11177e-28)
(0.000905796 0.0829516 9.01838e-32)
(0.000157098 0.0828982 -1.51184e-27)
(-6.61868e-05 0.0829265 0)
(0.0358348 0.000237549 -5.84805e-27)
(0.0357506 0.00125094 0)
(0.0298816 0.00408393 -2.64376e-27)
(0.0263094 0.0152803 -2.79296e-27)
(0.0338394 0.0340748 -5.17515e-27)
(0.0402161 0.0477594 -5.72832e-27)
(0.0421541 0.0637618 -3.95897e-28)
(0.0443924 0.08058 4.25526e-27)
(0.0449224 0.0937111 4.3082e-27)
(0.0420064 0.0989977 -9.02179e-29)
(0.0357991 0.097236 -3.48903e-27)
(0.0288369 0.0931008 -1.23527e-28)
(0.0227809 0.08984 2.46599e-28)
(0.0177932 0.0876216 0)
(0.0136449 0.086192 0)
(0.0101343 0.0853513 -7.88209e-28)
(0.00716562 0.0847126 0)
(0.00472186 0.084312 3.79402e-36)
(0.00276708 0.0839864 -3.76162e-28)
(0.00128841 0.0837153 -6.16784e-28)
(0.000282789 0.0834384 9.65359e-28)
(-0.000183922 0.0831564 -1.52364e-27)
(-0.000181691 0.0828919 -1.01555e-27)
(0.0345017 0.000721086 0)
(0.0350865 0.00250089 -5.13485e-27)
(0.033413 0.00629248 0)
(0.0293739 0.0136296 -3.95338e-27)
(0.0303516 0.0284948 4.02876e-31)
(0.037129 0.0468152 -6.77897e-27)
(0.0411533 0.062514 8.37593e-27)
(0.0436015 0.0796064 4.2827e-27)
(0.0447936 0.0941638 4.21295e-27)
(0.0432799 0.101888 0)
(0.0380716 0.101647 -8.78857e-29)
(0.0311868 0.0974815 2.10518e-28)
(0.0248438 0.0934747 -1.14144e-28)
(0.0195413 0.0905975 -2.28883e-28)
(0.0151423 0.0886503 0)
(0.0114409 0.0874349 0)
(0.00825815 0.0864474 6.76626e-28)
(0.0056014 0.0857774 -2.72211e-28)
(0.00341365 0.0851933 -9.85587e-29)
(0.00169308 0.0846922 -1.44249e-27)
(0.000433234 0.0842297 1.18872e-27)
(-0.000340118 0.0836745 -1.82955e-27)
(-0.000565689 0.08317 -1.51716e-27)
(-0.000326589 0.0826324 0)
(0.0333508 0.000852406 7.77394e-29)
(0.0341543 0.00314535 0)
(0.0339837 0.00768016 0)
(0.0319479 0.0146837 -1.1276e-27)
(0.0305122 0.02556 7.94813e-27)
(0.0339345 0.0430142 5.3201e-28)
(0.0393206 0.0613355 -6.56582e-28)
(0.042543 0.0784751 0)
(0.044439 0.0941291 0)
(0.0439418 0.104005 -4.44141e-27)
(0.0399097 0.105825 4.26854e-27)
(0.0334011 0.10208 3.46636e-27)
(0.026855 0.0974611 2.08854e-28)
(0.0212617 0.0939009 0)
(0.0165827 0.091408 2.13073e-27)
(0.012671 0.089752 0)
(0.0093152 0.0884506 3.38145e-28)
(0.00645912 0.0874739 5.64784e-28)
(0.00406654 0.0866248 -5.13079e-35)
(0.00212007 0.0858882 1.27494e-28)
(0.000618436 0.0852256 7.74704e-29)
(-0.000446062 0.0844998 1.08191e-27)
(-0.000979025 0.0837177 -1.20351e-27)
(-0.000990268 0.0829232 4.61323e-28)
(-0.000472013 0.0821262 -2.65113e-28)
(0.032242 0.000934832 -6.657e-27)
(0.0331933 0.00354186 0)
(0.0334749 0.00838909 0)
(0.0330633 0.0157421 2.97071e-27)
(0.0316124 0.0250964 3.26422e-27)
(0.0325806 0.0397146 0)
(0.0370376 0.0587561 -1.3346e-26)
(0.0411029 0.0773094 -2.8548e-28)
(0.0437626 0.093753 -8.33381e-28)
(0.0441114 0.105511 -7.03143e-32)
(0.0412713 0.109519 8.88794e-27)
(0.0354052 0.106773 4.22024e-27)
(0.0287933 0.101749 -3.60456e-28)
(0.0229537 0.0975207 9.93891e-29)
(0.0180099 0.0944261 2.74419e-27)
(0.0138734 0.0922799 3.72784e-28)
(0.0103376 0.0906847 0)
(0.0072939 0.0893904 2.89952e-28)
(0.00471317 0.0882839 0)
(0.00256075 0.0873125 2.97132e-28)
(0.000831509 0.0864282 1.47415e-27)
(-0.000483574 0.0855263 1.17916e-27)
(-0.00134672 0.0845624 -1.70052e-27)
(-0.00165261 0.0835219 -5.05543e-28)
(-0.00143941 0.0824227 6.64007e-28)
(-0.000624686 0.0813037 -3.51599e-28)
(0.0311823 0.000985785 0)
(0.0321599 0.00382758 -7.01781e-27)
(0.0326805 0.00900073 0)
(0.0329288 0.0163077 2.87214e-27)
(0.0323842 0.0254086 1.57654e-30)
(0.0323743 0.038003 -6.07667e-27)
(0.0352066 0.0556733 -6.91117e-27)
(0.0394228 0.0755521 -7.83125e-27)
(0.0426252 0.0930163 -9.239e-27)
(0.0438484 0.106491 4.12822e-27)
(0.0421076 0.112638 9.03574e-27)
(0.0371296 0.111355 1.06557e-28)
(0.0306437 0.106293 3.97348e-27)
(0.0245844 0.101428 -3.53009e-28)
(0.0194141 0.0977077 0)
(0.0150558 0.0950268 1.80603e-28)
(0.0113405 0.0931089 -3.28688e-35)
(0.00811661 0.0915132 0)
(0.00534428 0.0901569 0)
(0.00300385 0.0889523 -4.30092e-28)
(0.00105725 0.087856 1.74815e-27)
(-0.000486697 0.0867734 0)
(-0.00162651 0.0856323 0)
(-0.00227142 0.0844141 -3.02323e-27)
(-0.00238691 0.0830692 0)
(-0.00192429 0.0816116 8.85043e-28)
(-0.000794183 0.0801968 0)
(0.0301462 0.00102951 -3.53665e-27)
(0.0311027 0.00401865 -9.32139e-28)
(0.0318125 0.00946022 0)
(0.0322774 0.0165581 0)
(0.0324761 0.0257076 3.7846e-28)
(0.0325049 0.0373214 -9.1735e-27)
(0.0340373 0.0533432 0)
(0.0377526 0.0731079 -7.92829e-27)
(0.0412685 0.0919399 -8.59842e-27)
(0.0431968 0.106881 -4.66042e-31)
(0.0424772 0.115171 4.37718e-27)
(0.0384975 0.115654 4.36499e-27)
(0.0323605 0.111012 7.86152e-27)
(0.0261615 0.105619 4.30292e-32)
(0.0207511 0.101274 -1.64219e-28)
(0.0161846 0.0980382 0)
(0.0122977 0.0957328 0)
(0.0089071 0.0938287 -3.02025e-28)
(0.00596779 0.0922276 0)
(0.00343355 0.0907956 -4.70106e-28)
(0.00129356 0.0895103 0)
(-0.000473429 0.0882495 8.35717e-28)
(-0.00185224 0.0869172 0)
(-0.00280709 0.0855411 0)
(-0.00327707 0.0840389 -2.96289e-27)
(-0.00319781 0.0823307 1.94867e-27)
(-0.00245821 0.0805454 1.08722e-27)
(-0.000990033 0.0787416 0)
(0.0291108 0.00107135 0)
(0.0300554 0.00420809 -3.93847e-27)
(0.0308623 0.00977883 0)
(0.0314736 0.0166616 3.00817e-27)
(0.0322164 0.0257549 -2.62022e-27)
(0.0324714 0.0369462 -3.06301e-27)
(0.0334429 0.051849 -7.2789e-27)
(0.0362678 0.070618 -8.03208e-27)
(0.0398497 0.0903858 0)
(0.0422705 0.106761 -9.37166e-27)
(0.0424572 0.117084 1.02462e-28)
(0.0394701 0.119574 4.57781e-27)
(0.0338899 0.11579 4.17166e-27)
(0.0276562 0.110074 7.38759e-27)
(0.022052 0.105128 1.46454e-28)
(0.0172406 0.101328 0)
(0.0131792 0.0985811 2.52703e-27)
(0.00963723 0.0963543 -1.48835e-28)
(0.0065522 0.0944951 -2.15682e-27)
(0.00385559 0.0928382 0)
(0.00152729 0.0913743 1.35929e-28)
(-0.000429959 0.0899323 8.46872e-28)
(-0.00204655 0.0884337 1.648e-28)
(-0.00326942 0.0869007 2.17996e-28)
(-0.00408366 0.085265 1.45488e-27)
(-0.00438998 0.0834114 -1.42129e-28)
(-0.00409143 0.0813448 4.95275e-27)
(-0.0030627 0.0791269 0)
(-0.00121288 0.0768842 -1.33891e-27)
(0.0280765 0.00110951 -3.61829e-27)
(0.0290305 0.00438941 3.05117e-27)
(0.0298744 0.00994115 -7.56812e-28)
(0.0306525 0.0167362 2.04058e-27)
(0.0315503 0.025652 -2.5813e-27)
(0.0322447 0.0365844 -6.05642e-27)
(0.0330912 0.0509234 -7.36496e-27)
(0.0350974 0.0685535 -9.21664e-27)
(0.038436 0.0884645 -6.83063e-28)
(0.0412056 0.106164 -1.88326e-26)
(0.0420922 0.118419 -9.70537e-27)
(0.0400735 0.122985 -9.53479e-27)
(0.0351869 0.120485 -8.48398e-27)
(0.0290581 0.114744 7.87929e-27)
(0.0232946 0.109242 0)
(0.0182619 0.104887 7.62794e-32)
(0.0139889 0.10166 2.71351e-27)
(0.0103055 0.0991046 0)
(0.00707436 0.0969561 -2.57088e-27)
(0.00424335 0.0950746 2.3576e-28)
(0.00175789 0.0934222 3.42142e-28)
(-0.000373397 0.0917946 -2.48733e-34)
(-0.00218757 0.0901683 3.80469e-28)
(-0.00366585 0.0884851 9.21373e-28)
(-0.00477672 0.0867136 -3.36296e-28)
(-0.005463 0.0847508 1.83524e-27)
(-0.00560959 0.0825271 5.1539e-27)
(-0.00508103 0.0800214 6.73683e-32)
(-0.00374149 0.0773191 -1.00358e-29)
(-0.00146988 0.0745731 -1.59417e-27)
(0.0270207 0.00114557 -8.91076e-29)
(0.0280014 0.00454725 -8.08183e-27)
(0.0288943 0.00999926 -7.41656e-28)
(0.0298006 0.0167666 4.00992e-27)
(0.0307217 0.0254522 -2.54806e-27)
(0.0317195 0.036259 -2.98876e-27)
(0.0326813 0.0502367 -2.87384e-27)
(0.0342364 0.0669799 -8.26983e-27)
(0.0371097 0.0864564 -7.7132e-28)
(0.0400622 0.105178 -4.21365e-28)
(0.0414846 0.119163 -9.79994e-27)
(0.040344 0.125842 -1.95966e-26)
(0.0362257 0.124929 -9.26531e-27)
(0.0303599 0.119549 -7.64603e-28)
(0.0244769 0.113593 0)
(0.0192649 0.108714 -6.52866e-27)
(0.0147511 0.104968 -2.48034e-28)
(0.0109211 0.102048 2.75514e-27)
(0.00754387 0.0995995 -1.37059e-28)
(0.00459036 0.0974878 -1.27512e-28)
(0.00198495 0.0956194 2.07289e-28)
(-0.000303615 0.0938083 5.18917e-28)
(-0.00227435 0.0920647 -8.49726e-28)
(-0.00397721 0.0902522 1.27279e-27)
(-0.00535383 0.0883715 0)
(-0.00638054 0.0863143 -9.42104e-28)
(-0.00696187 0.083997 -1.87474e-28)
(-0.00696439 0.0813522 6.867e-27)
(-0.00619431 0.0783255 -4.0039e-27)
(-0.00450913 0.0750642 -2.53371e-29)
(-0.00176419 0.0717569 -1.8707e-27)
(0.0259472 0.00118343 -9.05231e-29)
(0.0269469 0.00468219 -4.67592e-28)
(0.0278899 0.0100139 -3.43601e-27)
(0.0288985 0.0167389 -1.35685e-27)
(0.0298981 0.0252331 0)
(0.0309948 0.0359548 0)
(0.0321057 0.0495192 0)
(0.033588 0.0658008 2.51947e-31)
(0.0359272 0.0846132 0)
(0.0388682 0.103896 9.19899e-27)
(0.0407279 0.119396 0)
(0.0403205 0.1281 -3.18478e-29)
(0.0370231 0.129015 -9.66467e-27)
(0.0315519 0.124368 0)
(0.0256123 0.118143 -8.05862e-28)
(0.0202316 0.112778 -1.95579e-26)
(0.0155232 0.10851 3.08118e-27)
(0.0114755 0.105176 2.77207e-27)
(0.00797755 0.102434 2.69072e-27)
(0.00488386 0.100056 -2.63127e-28)
(0.00218235 0.0979441 1.20422e-28)
(-0.000212846 0.0959458 0)
(-0.00232588 0.0940761 -3.07096e-27)
(-0.00420196 0.0921807 8.20579e-29)
(-0.00582057 0.0902364 -9.72652e-28)
(-0.00715678 0.0881184 -1.62637e-27)
(-0.00814076 0.0857343 0)
(-0.0086429 0.0830047 1.94143e-28)
(-0.00850463 0.0798549 -8.42394e-27)
(-0.00747384 0.076218 4.8627e-27)
(-0.00537984 0.0723096 0)
(-0.00210476 0.0683619 -2.16427e-27)
(0.0248776 0.00122072 0)
(0.02588 0.00478728 4.53458e-28)
(0.0268624 0.0100045 7.02786e-28)
(0.027932 0.016684 0)
(0.029016 0.0250008 0)
(0.0301835 0.0356325 0)
(0.0314258 0.0487295 0)
(0.0329657 0.0648434 8.32484e-27)
(0.0349126 0.0830471 0)
(0.0376697 0.102444 9.86169e-27)
(0.0398487 0.119191 -1.01945e-30)
(0.0400727 0.129807 1.03181e-26)
(0.0375752 0.132652 -2.01493e-26)
(0.032617 0.129076 1.46983e-29)
(0.0267242 0.122847 0)
(0.0211711 0.117035 -1.49212e-26)
(0.016277 0.112292 4.46283e-27)
(0.0120257 0.108524 7.77372e-28)
(0.00834878 0.105461 2.4367e-27)
(0.00512914 0.102793 0)
(0.0023262 0.1004 -3.01873e-32)
(-0.000148528 0.0982066 1.17261e-28)
(-0.00235942 0.09619 -3.32595e-32)
(-0.00436987 0.0942494 9.32607e-29)
(-0.00619298 0.092277 -3.76517e-29)
(-0.00780272 0.0901552 -2.55358e-27)
(-0.00914913 0.0877423 -2.51895e-27)
(-0.0101287 0.0849792 1.6336e-27)
(-0.0105574 0.0817234 4.30187e-27)
(-0.0102722 0.0780035 -1.09067e-26)
(-0.00897277 0.0736698 5.74542e-27)
(-0.00636603 0.0689704 0)
(-0.00248474 0.0643055 -1.23318e-27)
(0.023821 0.00125622 0)
(0.0248108 0.00487622 3.86502e-27)
(0.0258104 0.0100002 6.74084e-28)
(0.0269062 0.0166422 -9.07367e-28)
(0.0280158 0.0248058 2.3362e-27)
(0.0292648 0.0353409 -6.07496e-27)
(0.0305997 0.0480159 0)
(0.0322099 0.0639363 -4.14302e-27)
(0.0340411 0.081774 -6.77918e-27)
(0.0365101 0.100941 1.99409e-26)
(0.0388822 0.118628 0)
(0.039656 0.130999 -7.62272e-30)
(0.0378817 0.135779 -1.05287e-26)
(0.0335482 0.133573 -9.8894e-27)
(0.0278086 0.127641 -9.03389e-27)
(0.0221097 0.121464 8.06974e-27)
(0.0170174 0.116292 -7.05137e-27)
(0.0125493 0.112118 0)
(0.00868328 0.108682 1.54553e-27)
(0.00531819 0.105707 -2.4852e-28)
(0.00239931 0.103012 4.94398e-27)
(-0.000144731 0.100606 2.79201e-28)
(-0.00242553 0.0984305 2.61961e-27)
(-0.00451276 0.0964266 0)
(-0.00648314 0.0944431 7.70385e-30)
(-0.00831881 0.0923684 1.18397e-28)
(-0.00998338 0.0899961 -2.14629e-27)
(-0.0113826 0.0872459 0)
(-0.0123996 0.0840031 1.53774e-27)
(-0.012755 0.0801299 9.91346e-27)
(-0.0122874 0.0757054 -8.4893e-28)
(-0.0106954 0.0706 7.0744e-27)
(-0.0075408 0.0650068 -4.38835e-28)
(-0.00145616 0.0607435 -1.18557e-27)
(-0.00414809 0.0605588 0)
(0.022797 0.00129752 9.52416e-29)
(0.023744 0.00497556 3.28242e-27)
(0.0247202 0.0100387 6.05003e-27)
(0.0258178 0.0166431 -8.70325e-28)
(0.0269222 0.0246907 -3.35088e-27)
(0.0282117 0.0351269 -2.80848e-27)
(0.0295725 0.0474893 -3.0866e-27)
(0.0312681 0.0629969 -4.07349e-27)
(0.0331937 0.080737 2.35749e-27)
(0.0354256 0.0995037 8.51049e-27)
(0.0378509 0.11778 -1.06027e-26)
(0.0391008 0.131688 1.08954e-26)
(0.0380084 0.138406 0)
(0.0343197 0.137764 -2.07358e-26)
(0.0288598 0.132433 -1.9175e-26)
(0.0230761 0.126041 5.37069e-33)
(0.0177729 0.120478 -7.58017e-27)
(0.0130791 0.11593 3.17958e-28)
(0.00898967 0.112114 -5.8978e-27)
(0.00545728 0.108808 -9.82497e-27)
(0.00240085 0.105812 5.56279e-27)
(-0.000235514 0.103171 0)
(-0.00256382 0.100805 2.70126e-27)
(-0.00469214 0.0986947 2.37363e-28)
(-0.006721 0.0966911 0)
(-0.00871395 0.0946878 2.59547e-28)
(-0.0106374 0.092439 -7.9494e-29)
(-0.0124209 0.0897892 2.44048e-27)
(-0.0139266 0.0865972 -3.80152e-27)
(-0.0150175 0.0827718 -5.24788e-27)
(-0.0152958 0.0781517 -7.4831e-27)
(-0.0145497 0.0728049 -1.91633e-27)
(-0.012481 0.0667016 6.21008e-27)
(-0.00707574 0.0610632 3.46312e-27)
(-0.00978089 0.0618428 3.74524e-27)
(-0.00154318 0.05806 -3.94735e-27)
(-0.00444251 0.0579902 -3.65873e-27)
(0.0218286 0.00134496 9.66274e-29)
(0.022697 0.00509485 4.04965e-28)
(0.0236268 0.0101277 5.78117e-27)
(0.0246811 0.016693 3.2959e-27)
(0.0257604 0.0246762 -2.12511e-27)
(0.0270349 0.0349832 -5.51485e-28)
(0.0283865 0.0471461 6.43788e-27)
(0.0301583 0.0620716 2.96162e-27)
(0.0322339 0.0798002 2.10653e-27)
(0.0343689 0.0982076 -3.27445e-27)
(0.0367791 0.116736 -1.07517e-26)
(0.0384183 0.131942 1.36948e-28)
(0.0379748 0.140512 5.52585e-29)
(0.0349314 0.141568 -1.09625e-26)
(0.0298679 0.137131 -1.02009e-26)
(0.0240747 0.130732 -1.84321e-26)
(0.018577 0.124831 0)
(0.0136514 0.119925 -7.10543e-27)
(0.00931462 0.115752 -1.23928e-26)
(0.00556017 0.112136 -4.3349e-27)
(0.0023197 0.10885 -2.0466e-26)
(-0.000433595 0.105926 -6.30012e-28)
(-0.00282309 0.103327 5.11387e-27)
(-0.00494903 0.10105 0)
(-0.00697228 0.0989894 3.05208e-27)
(-0.00900345 0.0970496 7.8772e-28)
(-0.0111055 0.0949826 -8.30873e-28)
(-0.0132212 0.0925509 -2.01868e-28)
(-0.0152235 0.0895371 8.37658e-28)
(-0.0168587 0.085758 -4.83048e-27)
(-0.0180271 0.081178 -7.82984e-27)
(-0.0182029 0.0755973 -1.2284e-26)
(-0.0154819 0.0689436 -2.20364e-27)
(-0.0176482 0.0706058 -1.38223e-28)
(-0.0126341 0.0626799 8.13339e-32)
(-0.0166174 0.0678134 -2.39655e-27)
(-0.0153444 0.0638008 2.29087e-27)
(-0.00757621 0.0585601 3.78481e-27)
(-0.0105156 0.0593351 4.2494e-27)
(-0.00155417 0.055258 0)
(-0.00476263 0.0552262 0)
(0.0209446 0.0013913 -2.51434e-27)
(0.0217149 0.00523152 3.92438e-28)
(0.0225637 0.0102628 0)
(0.0235361 0.0167918 3.14717e-27)
(0.0245697 0.0247514 3.23414e-27)
(0.0257863 0.0349061 8.38322e-27)
(0.0271044 0.0469459 3.12747e-27)
(0.0288977 0.0611858 -8.38448e-28)
(0.0310999 0.0788754 5.36556e-27)
(0.033282 0.0970734 -7.03882e-27)
(0.0356607 0.115593 0)
(0.037609 0.131801 -1.15779e-26)
(0.0377728 0.142124 -4.8412e-29)
(0.0354038 0.144943 1.14222e-26)
(0.0308115 0.14163 -1.0924e-26)
(0.0251172 0.135468 -1.9757e-26)
(0.0194594 0.129323 -8.76892e-27)
(0.014291 0.124083 -1.53727e-26)
(0.00969098 0.119599 -1.31912e-26)
(0.00566397 0.115712 -6.01942e-28)
(0.00217843 0.112152 -2.99309e-26)
(-0.000765764 0.108908 0)
(-0.00321377 0.106016 3.51912e-27)
(-0.00534539 0.103512 0)
(-0.00730147 0.101325 5.91217e-27)
(-0.00926213 0.0994041 8.14924e-28)
(-0.0113866 0.0975237 -9.2942e-34)
(-0.0137298 0.0954126 -2.23385e-28)
(-0.016187 0.0927378 4.75405e-32)
(-0.0184996 0.0892009 -4.3596e-27)
(-0.020271 0.0846391 1.72222e-27)
(-0.0214651 0.0790225 6.77209e-28)
(-0.019697 0.0721357 8.71472e-27)
(-0.0216909 0.074044 4.65317e-27)
(-0.0189822 0.0690983 -1.54532e-28)
(-0.0136411 0.0602655 2.53321e-27)
(-0.0180903 0.065232 -2.57459e-27)
(-0.0165774 0.0614335 2.68878e-27)
(-0.00807268 0.0558524 3.85407e-28)
(-0.0113472 0.0566679 -9.298e-27)
(-0.00164407 0.0522545 -5.24819e-27)
(-0.00509522 0.052231 -1.04249e-30)
(0.0201747 0.00144116 0)
(0.0208213 0.00538459 -2.47204e-27)
(0.0215575 0.01044 -3.26629e-27)
(0.0224212 0.0169446 2.19981e-27)
(0.0233756 0.024894 -2.14264e-27)
(0.0245129 0.0348832 4.88209e-27)
(0.0258067 0.0468376 -3.04353e-27)
(0.0275181 0.060354 8.13495e-31)
(0.029802 0.0779014 0)
(0.0321294 0.0960352 2.20498e-27)
(0.0344924 0.114432 5.42577e-27)
(0.0366692 0.131345 0)
(0.0374018 0.143246 -8.85538e-31)
(0.0357297 0.147851 1.8076e-32)
(0.031671 0.145833 -2.25908e-26)
(0.0262039 0.140166 -1.0548e-26)
(0.0204524 0.133901 -9.47885e-27)
(0.0150471 0.128388 -1.66236e-26)
(0.0101552 0.123659 -7.17152e-27)
(0.00580335 0.119537 -1.22985e-26)
(0.00200714 0.115738 -1.12252e-26)
(-0.00120202 0.112171 1.98933e-27)
(-0.00379639 0.108927 -2.44896e-27)
(-0.00590525 0.1061 0)
(-0.00778343 0.103723 2.90132e-27)
(-0.00962005 0.101722 4.12459e-28)
(-0.0115854 0.0999814 6.77335e-28)
(-0.0139195 0.0982266 1.37703e-29)
(-0.0167212 0.0960433 1.42817e-27)
(-0.0196991 0.0929707 -6.70082e-28)
(-0.0222765 0.0886459 2.1483e-27)
(-0.0242072 0.0830264 3.84027e-27)
(-0.0234841 0.0757911 -2.33274e-27)
(-0.0253224 0.0780587 0)
(-0.0213319 0.0706811 2.03152e-26)
(-0.0234366 0.0724915 0)
(-0.0206592 0.0668499 -1.2961e-31)
(-0.0146597 0.0576618 4.22757e-27)
(-0.0195131 0.0628808 -2.82032e-27)
(-0.0179273 0.058906 4.26722e-32)
(-0.0086447 0.0529027 6.41159e-27)
(-0.0121983 0.0537608 -6.81142e-27)
(-0.00174963 0.0490335 -2.82244e-64)
(-0.00543417 0.0489991 1.13635e-26)
(0.0195395 0.00149661 -1.72124e-27)
(0.020032 0.00555178 3.79189e-28)
(0.0206412 0.0106523 -1.06118e-27)
(0.0213668 0.0171506 -2.6693e-27)
(0.0222127 0.0250913 8.93842e-28)
(0.0232428 0.0349188 -7.49237e-28)
(0.0245105 0.046786 -3.08072e-27)
(0.0260761 0.0596485 4.44879e-28)
(0.0283975 0.0768899 -1.01479e-26)
(0.03086 0.0950169 0)
(0.0332743 0.113292 5.39088e-27)
(0.0355965 0.130651 -6.25294e-27)
(0.0368567 0.143886 0)
(0.0358852 0.150258 -1.22445e-26)
(0.0324642 0.149676 -2.64757e-32)
(0.0273189 0.144708 9.57077e-29)
(0.0215688 0.138496 -2.88711e-29)
(0.0159699 0.132817 -1.80983e-26)
(0.0107623 0.12791 -7.81486e-27)
(0.00604851 0.123605 -1.3304e-26)
(0.00187038 0.119602 -5.66596e-27)
(-0.0016918 0.115755 0)
(-0.00455063 0.112121 -6.689e-27)
(-0.00672795 0.108896 0)
(-0.00846832 0.10619 5.52184e-27)
(-0.0101209 0.104057 0)
(-0.0118977 0.102343 1.86072e-31)
(-0.014006 0.100873 -2.30838e-28)
(-0.016743 0.0992677 1.22299e-27)
(-0.0202393 0.0968951 4.89257e-28)
(-0.0238667 0.0931346 0)
(-0.0267777 0.0878116 -1.60359e-27)
(-0.026867 0.0801099 -2.19494e-27)
(-0.0285497 0.0828289 5.55468e-28)
(-0.0255485 0.0745038 -2.60733e-27)
(-0.0274662 0.0767245 -1.02962e-28)
(-0.0231167 0.0686755 1.14222e-26)
(-0.0254657 0.0706928 2.28022e-28)
(-0.022341 0.0645879 3.28506e-29)
(-0.0157866 0.0548092 -1.2281e-30)
(-0.0211181 0.0604259 -3.22169e-27)
(-0.0193492 0.0561261 0)
(-0.00924301 0.0496963 5.02069e-27)
(-0.0130841 0.050587 -6.62518e-27)
(-0.00186182 0.0455967 6.85695e-27)
(-0.00577572 0.0455399 6.5125e-27)
(0.019057 0.00155179 0)
(0.0193866 0.00572614 -2.59e-27)
(0.0198441 0.0108959 -5.11989e-28)
(0.0204066 0.0174083 -1.1713e-35)
(0.0211106 0.0253424 2.63701e-27)
(0.0220072 0.0350265 -4.26491e-31)
(0.0232022 0.0467826 -2.9066e-28)
(0.0246436 0.0591102 3.03688e-27)
(0.0269211 0.0758584 -4.13014e-27)
(0.0294737 0.0939914 -2.58688e-27)
(0.0319783 0.112196 0)
(0.0344016 0.129772 -5.7584e-27)
(0.0361095 0.144114 -2.89911e-28)
(0.0358472 0.15213 0)
(0.0331339 0.153091 3.72506e-32)
(0.0284424 0.149015 8.98757e-29)
(0.0228097 0.143043 -1.08997e-26)
(0.0170767 0.137304 -9.93132e-27)
(0.0115795 0.132312 -8.59111e-27)
(0.00645785 0.127905 -7.27689e-27)
(0.00184307 0.123778 1.47849e-28)
(-0.0021696 0.119686 -5.11295e-27)
(-0.0054169 0.115669 -9.1238e-27)
(-0.00781549 0.11195 -8.43828e-27)
(-0.00947856 0.108784 5.07536e-27)
(-0.0108411 0.10637 -1.20827e-26)
(-0.0123278 0.104635 0)
(-0.0141686 0.103408 -2.88033e-27)
(-0.0166648 0.102247 2.14983e-28)
(-0.0200911 0.100658 0)
(-0.0243947 0.0977942 1.29908e-27)
(-0.0284834 0.0928539 7.61616e-29)
(-0.0297598 0.0852369 -3.12664e-27)
(-0.0313232 0.088429 1.91161e-27)
(-0.0293784 0.0791941 -1.26957e-28)
(-0.031106 0.0818889 -7.17637e-31)
(-0.0277296 0.0729215 -2.72638e-27)
(-0.0299234 0.0753951 -2.19864e-28)
(-0.0250351 0.0665423 -4.32158e-28)
(-0.0276202 0.0687297 -1.77276e-27)
(-0.0241763 0.0622133 2.34465e-28)
(-0.016975 0.0516846 -7.88219e-27)
(-0.0228104 0.0577238 -3.18222e-27)
(-0.0208437 0.0530693 -3.66546e-28)
(-0.00984071 0.0462529 9.46035e-27)
(-0.0139785 0.0471639 -1.11978e-26)
(-0.00197429 0.0419474 -7.78479e-27)
(-0.00611011 0.041868 -2.23412e-26)
(0.0187329 0.0016033 1.10094e-28)
(0.0188992 0.0059032 -1.54012e-32)
(0.0191903 0.0111654 -3.6836e-27)
(0.0195729 0.0177161 -1.25196e-27)
(0.0201006 0.0256503 -2.31079e-27)
(0.0208337 0.0352178 5.2278e-27)
(0.0219015 0.0468448 1.79486e-31)
(0.0232117 0.0587542 -5.93094e-27)
(0.025387 0.0748445 7.80308e-31)
(0.0280002 0.0929446 -4.53049e-27)
(0.0305762 0.111119 0)
(0.033095 0.128786 -5.67892e-27)
(0.0351536 0.143973 5.65057e-27)
(0.0355844 0.153484 1.70136e-28)
(0.0336464 0.156013 -1.27295e-26)
(0.0295136 0.152981 0)
(0.0241483 0.147449 -1.17017e-26)
(0.0183798 0.141777 0)
(0.0126606 0.136789 9.4971e-27)
(0.00714666 0.132393 0)
(0.00201864 0.128246 6.13827e-32)
(-0.00254026 0.124011 -1.06928e-26)
(-0.00632307 0.119649 -4.5027e-27)
(-0.00911871 0.115393 -3.31894e-27)
(-0.0108871 0.111611 -1.09496e-26)
(-0.0119658 0.108672 9.45795e-30)
(-0.0129577 0.10677 0)
(-0.0143387 0.105682 -5.45875e-28)
(-0.016629 0.105207 2.23415e-27)
(-0.0199805 0.104358 3.07423e-34)
(-0.0240896 0.102335 -2.13308e-28)
(-0.0290211 0.09871 3.69592e-28)
(-0.0320674 0.0912104 1.96139e-28)
(-0.0335963 0.0951888 -7.78983e-28)
(-0.0328016 0.0849023 -8.43922e-27)
(-0.0342973 0.0882383 5.88278e-33)
(-0.0320592 0.0781434 -2.7299e-27)
(-0.0341244 0.0812362 2.5543e-27)
(-0.0301625 0.0711896 3.44485e-28)
(-0.032673 0.073966 4.7125e-28)
(-0.0271013 0.0642743 -7.00813e-28)
(-0.0299759 0.066654 0)
(-0.0260976 0.0596009 3.45599e-28)
(-0.0182046 0.0483105 1.06212e-26)
(-0.0245725 0.0547407 -4.16239e-27)