/*--------------------------------*- C++ -*----------------------------------*\
  =========                 |
  \\      /  F ield         | OpenFOAM: The Open Source CFD Toolbox
   \\    /   O peration     | Website:  https://openfoam.org
    \\  /    A nd           | Version:  dev
     \\/     M anipulation  |
\*---------------------------------------------------------------------------*/
FoamFile
{
    version     2.0;
    format      ascii;
    class       volScalarField;
    location    "2500";
    object      a;
}
// * * * * * * * * * * * * * * * * * * * * * * * * * * * * * * * * * * * * * //

dimensions      [0 -1 0 0 0 0 0];

internalField   nonuniform List<scalar> 
9836
(
0.100011
0.100011
0.100011
0.100011
0.100011
0.100011
0.100011
0.100011
0.100011
0.100011
0.10001
0.100011
0.100011
0.100011
0.100011
0.10001
0.10001
0.100011
0.100011
0.100011
0.100011
0.10001
0.10001
0.10001
0.100011
0.100011
0.100011
0.100011
0.10001
0.10001
0.10001
0.10001
0.100011
0.100011
0.100011
0.100011
0.100009
0.10001
0.10001
0.10001
0.10001
0.100011
0.100011
0.100011
0.100011
0.100009
0.100009
0.10001
0.10001
0.10001
0.10001
0.100011
0.100011
0.100011
0.100011
0.100009
0.100009
0.100009
0.10001
0.10001
0.10001
0.10001
0.100011
0.100011
0.100011
0.100011
0.100009
0.100009
0.100009
0.100009
0.10001
0.10001
0.10001
0.10001
0.100011
0.100011
0.100011
0.100011
0.100009
0.100009
0.100009
0.100009
0.100009
0.10001
0.10001
0.10001
0.10001
0.100011
0.100011
0.100011
0.100011
0.100008
0.100009
0.100009
0.100009
0.100009
0.100009
0.10001
0.10001
0.10001
0.10001
0.100011
0.100011
0.100011
0.100011
0.100008
0.100008
0.100009
0.100009
0.100009
0.100009
0.100009
0.10001
0.10001
0.10001
0.10001
0.100011
0.100011
0.100011
0.100011
0.100008
0.100008
0.100008
0.100009
0.100009
0.100009
0.100009
0.100009
0.10001
0.10001
0.10001
0.10001
0.100011
0.100011
0.100011
0.100011
0.100008
0.100008
0.100008
0.100008
0.100009
0.100009
0.100009
0.100009
0.100009
0.10001
0.10001
0.10001
0.10001
0.100011
0.100011
0.100011
0.100011
0.100007
0.100008
0.100008
0.100008
0.100008
0.100009
0.100009
0.100009
0.100009
0.100009
0.10001
0.10001
0.10001
0.10001
0.100011
0.100011
0.100011
0.100011
0.100007
0.100007
0.100008
0.100008
0.100008
0.100008
0.100009
0.100009
0.100009
0.100009
0.100009
0.10001
0.10001
0.10001
0.10001
0.100011
0.100011
0.100011
0.100011
0.100007
0.100007
0.100007
0.100008
0.100008
0.100008
0.100008
0.100008
0.100009
0.100009
0.100009
0.100009
0.10001
0.10001
0.10001
0.10001
0.100011
0.100011
0.100011
0.100011
0.100007
0.100007
0.100007
0.100007
0.100008
0.100008
0.100008
0.100008
0.100008
0.100009
0.100009
0.100009
0.100009
0.10001
0.10001
0.10001
0.10001
0.100011
0.100011
0.100011
0.100011
0.100006
0.100007
0.100007
0.100007
0.100007
0.100008
0.100008
0.100008
0.100008
0.100008
0.100009
0.100009
0.100009
0.100009
0.10001
0.10001
0.10001
0.10001
0.100011
0.100011
0.100011
0.100011
0.100006
0.100006
0.100007
0.100007
0.100007
0.100007
0.100008
0.100008
0.100008
0.100008
0.100008
0.100009
0.100009
0.100009
0.100009
0.10001
0.10001
0.10001
0.10001
0.100011
0.100011
0.100011
0.100011
0.100006
0.100006
0.100006
0.100007
0.100007
0.100007
0.100007
0.100008
0.100008
0.100008
0.100008
0.100008
0.100009
0.100009
0.100009
0.100009
0.10001
0.10001
0.10001
0.10001
0.100011
0.100011
0.100011
0.100011
0.100006
0.100006
0.100006
0.100006
0.100007
0.100007
0.100007
0.100007
0.100008
0.100008
0.100008
0.100008
0.100008
0.100009
0.100009
0.100009
0.100009
0.10001
0.10001
0.10001
0.10001
0.100011
0.100011
0.100011
0.100011
0.100006
0.100006
0.100006
0.100006
0.100006
0.100007
0.100007
0.100007
0.100007
0.100008
0.100008
0.100008
0.100008
0.100008
0.100009
0.100009
0.100009
0.100009
0.10001
0.10001
0.10001
0.10001
0.100011
0.100011
0.100011
0.100011
0.100005
0.100006
0.100006
0.100006
0.100006
0.100006
0.100007
0.100007
0.100007
0.100007
0.100008
0.100008
0.100008
0.100008
0.100008
0.100009
0.100009
0.100009
0.100009
0.10001
0.10001
0.10001
0.10001
0.100011
0.100011
0.100011
0.100011
0.100005
0.100005
0.100006
0.100006
0.100006
0.100006
0.100006
0.100007
0.100007
0.100007
0.100007
0.100008
0.100008
0.100008
0.100008
0.100008
0.100009
0.100009
0.100009
0.100009
0.10001
0.10001
0.10001
0.10001
0.100011
0.100011
0.100011
0.100011
0.100005
0.100005
0.100005
0.100006
0.100006
0.100006
0.100006
0.100006
0.100007
0.100007
0.100007
0.100007
0.100008
0.100008
0.100008
0.100008
0.100008
0.100009
0.100009
0.100009
0.100009
0.10001
0.10001
0.10001
0.10001
0.100011
0.100011
0.100011
0.100011
0.100005
0.100005
0.100005
0.100005
0.100006
0.100006
0.100006
0.100006
0.100006
0.100007
0.100007
0.100007
0.100007
0.100008
0.100008
0.100008
0.100008
0.100008
0.100009
0.100009
0.100009
0.100009
0.10001
0.10001
0.10001
0.10001
0.100011
0.100011
0.100011
0.100011
0.100004
0.100005
0.100005
0.100005
0.100005
0.100006
0.100006
0.100006
0.100006
0.100006
0.100007
0.100007
0.100007
0.100007
0.100008
0.100008
0.100008
0.100008
0.100008
0.100009
0.100009
0.100009
0.100009
0.10001
0.10001
0.10001
0.10001
0.100011
0.100011
0.100011
0.100011
0.100004
0.100004
0.100005
0.100005
0.100005
0.100005
0.100006
0.100006
0.100006
0.100006
0.100006
0.100007
0.100007
0.100007
0.100007
0.100008
0.100008
0.100008
0.100008
0.100008
0.100009
0.100009
0.100009
0.100009
0.10001
0.10001
0.10001
0.10001
0.100011
0.100011
0.100011
0.100011
0.100004
0.100004
0.100004
0.100005
0.100005
0.100005
0.100005
0.100006
0.100006
0.100006
0.100006
0.100006
0.100007
0.100007
0.100007
0.100007
0.100008
0.100008
0.100008
0.100008
0.100008
0.100009
0.100009
0.100009
0.100009
0.10001
0.10001
0.10001
0.10001
0.100011
0.100011
0.100011
0.100011
0.100004
0.100004
0.100004
0.100004
0.100005
0.100005
0.100005
0.100005
0.100006
0.100006
0.100006
0.100006
0.100006
0.100007
0.100007
0.100007
0.100007
0.100008
0.100008
0.100008
0.100008
0.100008
0.100009
0.100009
0.100009
0.100009
0.10001
0.10001
0.10001
0.10001
0.100011
0.100011
0.100011
0.100011
0.100011
0.100004
0.100004
0.100004
0.100004
0.100004
0.100005
0.100005
0.100005
0.100005
0.100006
0.100006
0.100006
0.100006
0.100006
0.100007
0.100007
0.100007
0.100007
0.100008
0.100008
0.100008
0.100008
0.100008
0.100009
0.100009
0.100009
0.100009
0.10001
0.10001
0.10001
0.10001
0.100011
0.100011
0.100011
0.100011
0.100011
0.100011
0.100003
0.100004
0.100004
0.100004
0.100004
0.100004
0.100005
0.100005
0.100005
0.100005
0.100006
0.100006
0.100006
0.100006
0.100006
0.100007
0.100007
0.100007
0.100007
0.100008
0.100008
0.100008
0.100008
0.100008
0.100009
0.100009
0.100009
0.100009
0.10001
0.10001
0.10001
0.10001
0.100011
0.10001
0.100011
0.100011
0.100011
0.100011
0.100011
0.100011
0.100011
0.100003
0.100003
0.100004
0.100004
0.100004
0.100004
0.100004
0.100005
0.100005
0.100005
0.100005
0.100006
0.100006
0.100006
0.100006
0.100006
0.100007
0.100007
0.100007
0.100007
0.100008
0.100008
0.100008
0.100008
0.100008
0.100009
0.100009
0.100009
0.100009
0.10001
0.10001
0.10001
0.10001
0.10001
0.10001
0.100011
0.100011
0.100011
0.100011
0.100011
0.100011
0.100011
0.100003
0.100003
0.100003
0.100004
0.100004
0.100004
0.100004
0.100004
0.100005
0.100005
0.100005
0.100005
0.100006
0.100006
0.100006
0.100006
0.100006
0.100007
0.100007
0.100007
0.100007
0.100008
0.100008
0.100008
0.100008
0.100008
0.100009
0.100009
0.100009
0.100009
0.10001
0.10001
0.10001
0.10001
0.10001
0.10001
0.10001
0.100011
0.100011
0.100011
0.100011
0.100011
0.100011
0.100011
0.100003
0.100003
0.100003
0.100003
0.100004
0.100004
0.100004
0.100004
0.100004
0.100005
0.100005
0.100005
0.100005
0.100006
0.100006
0.100006
0.100006
0.100006
0.100007
0.100007
0.100007
0.100007
0.100008
0.100008
0.100008
0.100008
0.100008
0.100009
0.100009
0.100009
0.100009
0.10001
0.10001
0.10001
0.10001
0.10001
0.10001
0.10001
0.10001
0.100011
0.100011
0.100011
0.100011
0.100011
0.100011
0.100011
0.100002
0.100003
0.100003
0.100003
0.100003
0.100004
0.100004
0.100004
0.100004
0.100004
0.100005
0.100005
0.100005
0.100005
0.100006
0.100006
0.100006
0.100006
0.100006
0.100007
0.100007
0.100007
0.100007
0.100008
0.100008
0.100008
0.100008
0.100008
0.100009
0.100009
0.100009
0.10001
0.10001
0.100012
0.10001
0.100012
0.10001
0.100011
0.10001
0.100011
0.100011
0.100011
0.100011
0.100011
0.100011
0.100011
0.100011
0.100011
0.100002
0.100002
0.100003
0.100003
0.100003
0.100003
0.100004
0.100004
0.100004
0.100004
0.100004
0.100005
0.100005
0.100005
0.100005
0.100006
0.100006
0.100006
0.100006
0.100006
0.100007
0.100007
0.100007
0.100007
0.100008
0.100008
0.100008
0.100008
0.100008
0.100009
0.10001
0.100014
0.100016
0.100028
0.100016
0.100029
0.100014
0.100025
0.100012
0.100018
0.100011
0.100013
0.100011
0.100011
0.100011
0.100011
0.100011
0.100011
0.100011
0.100011
0.100002
0.100002
0.100002
0.100003
0.100003
0.100003
0.100003
0.100004
0.100004
0.100004
0.100004
0.100004
0.100005
0.100005
0.100005
0.100005
0.100006
0.100006
0.100006
0.100006
0.100006
0.100007
0.100007
0.100007
0.100007
0.100008
0.100008
0.100008
0.100008
0.100009
0.100012
0.100031
0.100054
0.100119
0.100065
0.100153
0.10006
0.100161
0.100043
0.100126
0.100024
0.100073
0.100014
0.100032
0.100015
0.100011
0.100015
0.100014
0.100011
0.100011
0.100011
0.100011
0.100002
0.100002
0.100002
0.100002
0.100003
0.100003
0.100003
0.100003
0.100004
0.100004
0.100004
0.100004
0.100004
0.100005
0.100005
0.100005
0.100005
0.100006
0.100006
0.100006
0.100006
0.100006
0.100007
0.100007
0.100007
0.100007
0.100008
0.100008
0.100008
0.100009
0.100013
0.100088
0.100224
0.10047
0.10035
0.100797
0.100417
0.101013
0.100376
0.101046
0.100251
0.100802
0.100116
0.100453
0.100039
0.100165
0.100042
0.100013
0.10004
0.100034
0.100011
0.100012
0.100011
0.100011
0.100001
0.100002
0.100002
0.100002
0.100002
0.100003
0.100003
0.100003
0.100003
0.100004
0.100004
0.100004
0.100004
0.100004
0.100005
0.100005
0.100005
0.100005
0.100006
0.100006
0.100006
0.100006
0.100006
0.100007
0.100007
0.100007
0.100007
0.100008
0.100008
0.100008
0.100021
0.100117
0.10074
0.101233
0.101505
0.102971
0.102301
0.10498
0.102638
0.106144
0.102329
0.106077
0.101547
0.104592
0.100721
0.102631
0.100209
0.101005
0.100228
0.100025
0.100212
0.100166
0.100012
0.100018
0.100011
0.100011
0.100001
0.100001
0.100002
0.100002
0.100002
0.100002
0.100003
0.100003
0.100003
0.100003
0.100004
0.100004
0.100004
0.100004
0.100004
0.100005
0.100005
0.100005
0.100005
0.100006
0.100006
0.100006
0.100006
0.100006
0.100007
0.100007
0.100007
0.100007
0.100008
0.100008
0.100023
0.10045
0.101921
0.100714
0.104606
0.107458
0.109115
0.115234
0.113253
0.124015
0.114238
0.129472
0.112262
0.128568
0.108068
0.121491
0.103948
0.112609
0.101243
0.105238
0.101333
0.100108
0.101239
0.100966
0.100014
0.10006
0.100011
0.100012
0.100001
0.100001
0.100001
0.100002
0.100002
0.100002
0.100002
0.100003
0.100003
0.100003
0.100003
0.100004
0.100004
0.100004
0.100004
0.100004
0.100005
0.100005
0.100005
0.100005
0.100006
0.100006
0.100006
0.100006
0.100006
0.100007
0.100007
0.100007
0.100007
0.100008
0.10002
0.10059
0.110476
0.109761
0.115584
0.122325
0.130774
0.137284
0.152258
0.14966
0.172097
0.154252
0.184375
0.149159
0.185621
0.133459
0.173722
0.117584
0.147125
0.106217
0.121918
0.106509
0.100619
0.106067
0.104885
0.100031
0.100318
0.100011
0.100018
0.100001
0.100001
0.100001
0.100001
0.100002
0.100002
0.100002
0.100002
0.100003
0.100003
0.100003
0.100003
0.100004
0.100004
0.100004
0.100004
0.100004
0.100005
0.100005
0.100005
0.100005
0.100006
0.100006
0.100006
0.100006
0.100006
0.100007
0.100007
0.100007
0.100007
0.100016
0.100468
0.1116
0.153576
0.159898
0.13914
0.147021
0.167151
0.181856
0.194447
0.215495
0.214942
0.243449
0.224093
0.261014
0.219933
0.265305
0.199234
0.253815
0.16005
0.222693
0.124733
0.169908
0.125208
0.103296
0.123504
0.119528
0.100133
0.101762
0.100013
0.100049
0.100001
0.100001
0.100001
0.100001
0.100001
0.100002
0.100002
0.100002
0.100002
0.100003
0.100003
0.100003
0.100003
0.100004
0.100004
0.100004
0.100004
0.100004
0.100005
0.100005
0.100005
0.100005
0.100006
0.100006
0.100006
0.100006
0.100006
0.100007
0.100007
0.100007
0.100012
0.100354
0.109951
0.163878
0.166058
0.213949
0.22069
0.194826
0.205561
0.234187
0.250936
0.268874
0.291025
0.294482
0.323675
0.307293
0.344797
0.305442
0.351836
0.285216
0.342338
0.242635
0.312285
0.175318
0.257456
0.175138
0.113846
0.169945
0.159641
0.100715
0.107998
0.100019
0.100221
0.1
0.100001
0.100001
0.100001
0.100001
0.100001
0.100002
0.100002
0.100002
0.100002
0.100003
0.100003
0.100003
0.100003
0.100004
0.100004
0.100004
0.100004
0.100004
0.100005
0.100005
0.100005
0.100005
0.100006
0.100006
0.100006
0.100006
0.100006
0.100007
0.100007
0.10001
0.100232
0.109725
0.165548
0.158137
0.225165
0.226912
0.283527
0.289534
0.264737
0.275497
0.3098
0.325933
0.348588
0.369437
0.377235
0.404453
0.392535
0.427371
0.392765
0.436119
0.374586
0.428359
0.334116
0.401084
0.266109
0.349535
0.266686
0.144571
0.257393
0.237995
0.103523
0.12833
0.100054
0.101097
0.1
0.1
0.100001
0.100001
0.100001
0.100001
0.100001
0.100002
0.100002
0.100002
0.100002
0.100003
0.100003
0.100003
0.100003
0.100004
0.100004
0.100004
0.100004
0.100004
0.100005
0.100005
0.100005
0.100005
0.100006
0.100006
0.100006
0.100006
0.100007
0.100007
0.100009
0.100129
0.107486
0.192026
0.226973
0.233324
0.293082
0.293685
0.354733
0.359142
0.338708
0.348111
0.386531
0.400433
0.426643
0.444472
0.456497
0.479665
0.473079
0.503038
0.474324
0.513035
0.457888
0.506607
0.420939
0.481334
0.357696
0.434529
0.357822
0.208788
0.349874
0.331058
0.113754
0.175186
0.100228
0.104416
0.1
0.1
0.100001
0.100001
0.100001
0.100001
0.100001
0.100002
0.100002
0.100002
0.100002
0.100003
0.100003
0.100003
0.100003
0.100004
0.100004
0.100004
0.100004
0.100004
0.100005
0.100005
0.100005
0.100005
0.100006
0.100007
0.100008
0.100008
0.100008
0.100009
0.100072
0.104095
0.174439
0.288082
0.282199
0.293019
0.291613
0.360713
0.360282
0.421547
0.422941
0.410674
0.417436
0.4582
0.468228
0.497589
0.511288
0.528318
0.545393
0.546366
0.569835
0.549011
0.583203
0.532685
0.579781
0.498348
0.554224
0.440912
0.509896
0.439727
0.297774
0.429637
0.408495
0.140983
0.250376
0.100931
0.114898
0.1
0.1
0.100001
0.100001
0.100001
0.100001
0.100001
0.100002
0.100002
0.100002
0.100002
0.100003
0.100003
0.100003
0.100003
0.100004
0.100004
0.100004
0.100004
0.100004
0.100005
0.100005
0.100006
0.100008
0.100013
0.100016
0.100016
0.100016
0.100015
0.100055
0.102031
0.151078
0.27404
0.25346
0.350506
0.344501
0.35904
0.356239
0.422409
0.421014
0.477224
0.476129
0.474257
0.477286
0.519715
0.524656
0.555218
0.557873
0.580318
0.580009
0.599103
0.599081
0.611522
0.61858
0.603962
0.632827
0.569365
0.624146
0.514331
0.580097
0.510849
0.376367
0.498875
0.483024
0.432677
0.193996
0.328532
0.103185
0.14162
0.1
0.1
0.100001
0.100001
0.100001
0.100001
0.100001
0.100002
0.100002
0.100002
0.100002
0.100003
0.100003
0.100003
0.100003
0.100004
0.100004
0.100004
0.100004
0.100004
0.100005
0.100007
0.100019
0.100047
0.100063
0.100072
0.100059
0.100047
0.100063
0.10098
0.131119
0.275164
0.331381
0.331518
0.406917
0.399711
0.418092
0.413587
0.473834
0.469769
0.521321
0.516784
0.525015
0.523842
0.55659
0.554219
0.576888
0.570837
0.594775
0.584761
0.613706
0.600757
0.632817
0.623078
0.650135
0.646981
0.636538
0.662231
0.583284
0.644732
0.614024
0.540998
0.58173
0.467236
0.394972
0.451918
0.522478
0.569106
0.574486
0.513148
0.264762
0.429196
0.407083
0.344547
0.117191
0.196195
0.1
0.1
0.100001
0.100001
0.100001
0.100001
0.100001
0.100002
0.100002
0.100002
0.100002
0.100003
0.100003
0.100003
0.100003
0.100004
0.100004
0.100004
0.100004
0.100005
0.100014
0.100062
0.100195
0.100363
0.100431
0.100329
0.100203
0.100132
0.100578
0.11598
0.23535
0.367999
0.343955
0.389019
0.378809
0.450617
0.442708
0.464437
0.458305
0.511185
0.504804
0.540929
0.535564
0.550287
0.545753
0.563946
0.557368
0.570496
0.555087
0.57706
0.547572
0.596542
0.55259
0.62819
0.582487
0.660913
0.656629
0.645533
0.623188
0.66151
0.672862
0.658465
0.663707
0.671486
0.643927
0.612868
0.648156
0.667036
0.612051
0.498179
0.479676
0.556585
0.598442
0.607074
0.543432
0.378069
0.282724
0.349174
0.458394
0.433913
0.149262
0.315987
0.281766
0.21838
0.1
0.1
0.100001
0.100001
0.100001
0.100001
0.100001
0.100002
0.100002
0.100002
0.100002
0.100003
0.100003
0.100003
0.100003
0.100004
0.100004
0.100004
0.100007
0.100035
0.100216
0.100839
0.10192
0.102427
0.101888
0.101088
0.100575
0.100548
0.106828
0.188963
0.352454
0.407582
0.403537
0.432032
0.423245
0.480577
0.471315
0.497477
0.489587
0.529426
0.52238
0.541373
0.536236
0.551509
0.546298
0.541763
0.532251
0.519465
0.49783
0.505899
0.466018
0.519892
0.458848
0.597525
0.562772
0.532019
0.493663
0.646196
0.622874
0.59304
0.675834
0.675405
0.64706
0.648395
0.66691
0.670132
0.644895
0.670182
0.679209
0.642031
0.526927
0.507503
0.587228
0.636432
0.628092
0.57264
0.406506
0.376236
0.48516
0.459984
0.245274
0.144334
0.192842
0.342618
0.305348
0.1
0.1
0.100001
0.100001
0.100001
0.100001
0.100001
0.100002
0.100002
0.100002
0.100002
0.100003
0.100003
0.100003
0.100003
0.100004
0.100004
0.100012
0.100097
0.100675
0.103051
0.108004
0.111139
0.10943
0.105803
0.102824
0.101126
0.103355
0.150491
0.31298
0.417052
0.396326
0.438601
0.427717
0.460538
0.450698
0.494778
0.484273
0.514192
0.505028
0.530295
0.52311
0.519115
0.515362
0.526195
0.522301
0.484543
0.478443
0.437694
0.422268
0.409821
0.377309
0.462744
0.42704
0.401217
0.374971
0.559343
0.52347
0.486335
0.448663
0.622099
0.591148
0.556218
0.678363
0.668944
0.622068
0.622806
0.649607
0.681566
0.669535
0.683327
0.681349
0.667117
0.554934
0.534145
0.616372
0.662409
0.654911
0.600917
0.431976
0.400592
0.510517
0.484176
0.255871
0.141144
0.190499
0.364956
0.320702
0.1
0.1
0.100001
0.100001
0.100001
0.100001
0.100001
0.100002
0.100002
0.100002
0.100002
0.100003
0.100003
0.100003
0.100003
0.100004
0.100018
0.1002
0.101743
0.108381
0.122978
0.136136
0.136426
0.12391
0.111278
0.104021
0.103266
0.1264
0.260055
0.391577
0.429455
0.423392
0.451043
0.441394
0.473054
0.462438
0.492205
0.479969
0.514259
0.50388
0.509791
0.501622
0.47332
0.469144
0.476301
0.475218
0.416178
0.414552
0.360139
0.352329
0.358598
0.343109
0.333548
0.322657
0.41372
0.381883
0.356856
0.337014
0.518868
0.479635
0.439532
0.4013
0.590257
0.554586
0.516001
0.671268
0.651385
0.590429
0.591651
0.624281
0.68401
0.684237
0.686607
0.674075
0.684058
0.58197
0.559656
0.643403
0.681901
0.676817
0.627724
0.454853
0.421703
0.534414
0.506442
0.26023
0.124223
0.179562
0.382123
0.330477
0.1
0.1
0.100001
0.100001
0.100001
0.100001
0.100001
0.100002
0.100002
0.100002
0.100002
0.100003
0.100003
0.100003
0.100004
0.10002
0.100265
0.102772
0.114759
0.141679
0.16857
0.176341
0.162526
0.136138
0.113367
0.105404
0.116071
0.206601
0.358433
0.413554
0.404062
0.428013
0.421855
0.44588
0.43723
0.467644
0.4565
0.464166
0.451042
0.490664
0.477816
0.461076
0.449165
0.403216
0.393034
0.412917
0.409668
0.34625
0.336833
0.297538
0.282311
0.323299
0.312623
0.304591
0.299305
0.367474
0.340171
0.319549
0.304707
0.474953
0.432689
0.391985
0.355948
0.554158
0.514848
0.472472
0.65404
0.626752
0.554899
0.556956
0.593977
0.677852
0.688771
0.682137
0.657787
0.690753
0.607765
0.583932
0.667288
0.691592
0.690381
0.652356
0.47523
0.439379
0.556872
0.52685
0.2585
0.109592
0.161784
0.394815
0.334988
0.100001
0.100001
0.100001
0.100001
0.100001
0.100001
0.100001
0.100002
0.100002
0.100002
0.100002
0.100003
0.100003
0.100003
0.100017
0.100265
0.103262
0.119335
0.157476
0.197558
0.21485
0.204985
0.174457
0.137009
0.112505
0.115181
0.170124
0.320645
0.394643
0.407557
0.403119
0.413126
0.410605
0.422231
0.417217
0.439331
0.429644
0.407648
0.397821
0.434942
0.420546
0.379624
0.3648
0.295643
0.27939
0.325128
0.311564
0.264474
0.249236
0.260488
0.253312
0.242883
0.249516
0.293564
0.284472
0.276037
0.267985
0.326896
0.305308
0.289882
0.2786
0.428497
0.385826
0.347829
0.317145
0.515138
0.472191
0.42702
0.630407
0.597718
0.516833
0.520311
0.560657
0.663024
0.687043
0.669687
0.635799
0.691641
0.631931
0.606789
0.685387
0.695318
0.697097
0.67394
0.493261
0.453904
0.577867
0.545531
0.251379
0.113518
0.15418
0.403736
0.335832
0.100002
0.100001
0.100001
0.100001
0.100001
0.100001
0.100001
0.100002
0.100002
0.100002
0.100002
0.100003
0.100003
0.10001
0.100207
0.103121
0.120916
0.167258
0.220398
0.247087
0.242914
0.215049
0.171093
0.129392
0.118589
0.155291
0.278995
0.377347
0.393952
0.392871
0.393199
0.394783
0.388364
0.390771
0.386282
0.386858
0.391114
0.387246
0.336041
0.336212
0.351361
0.341547
0.266765
0.258165
0.198655
0.18254
0.233501
0.218144
0.239479
0.233665
0.228839
0.250246
0.248069
0.244818
0.246751
0.269572
0.262084
0.256435
0.252802
0.29458
0.278922
0.268063
0.260406
0.382809
0.343086
0.310832
0.287232
0.473782
0.428228
0.382888
0.603153
0.566312
0.477258
0.483005
0.525942
0.643165
0.677785
0.65263
0.610825
0.686791
0.654112
0.628054
0.696451
0.69541
0.701102
0.690344
0.509194
0.465688
0.597388
0.562777
0.242035
0.105349
0.139258
0.409821
0.333615
0.100005
0.100002
0.100001
0.100001
0.100001
0.100001
0.100001
0.100002
0.100002
0.100002
0.100002
0.100003
0.100006
0.100113
0.102486
0.120278
0.1701
0.233604
0.266735
0.270573
0.253596
0.213618
0.159828
0.130354
0.155513
0.250486
0.353001
0.390108
0.388466
0.390562
0.379491
0.38458
0.366344
0.373332
0.351242
0.358888
0.338748
0.344076
0.26846
0.281478
0.256749
0.260367
0.174188
0.172814
0.175866
0.156063
0.215173
0.199308
0.24314
0.239768
0.278654
0.273931
0.255713
0.261244
0.272995
0.266631
0.255553
0.253007
0.252381
0.253748
0.271466
0.261566
0.256013
0.253815
0.341705
0.307863
0.283121
0.267111
0.431811
0.386074
0.343648
0.574277
0.53431
0.437928
0.447185
0.491645
0.621137
0.664307
0.634215
0.585381
0.677876
0.6739
0.64746
0.703332
0.692037
0.703138
0.701316
0.523266
0.475425
0.615601
0.578775
0.227533
0.101975
0.123498
0.413841
0.327614
0.100008
0.100002
0.100001
0.100001
0.100001
0.100001
0.100001
0.100002
0.100002
0.100002
0.100003
0.100005
0.100057
0.101349
0.116489
0.168511
0.237235
0.274368
0.284371
0.279708
0.257404
0.211651
0.158214
0.165595
0.246687
0.333969
0.383923
0.389713
0.391481
0.382969
0.387389
0.369811
0.377113
0.350928
0.361102
0.326039
0.339262
0.29637
0.311526
0.221091
0.243689
0.182355
0.19977
0.142406
0.138064
0.205088
0.163368
0.265768
0.254744
0.246865
0.277945
0.279546
0.340524
0.337637
0.282915
0.295956
0.32269
0.309401
0.254211
0.256499
0.262999
0.271616
0.258169
0.254761
0.25503
0.257673
0.308283
0.282089
0.265474
0.257111
0.392254
0.349125
0.312165
0.54612
0.504241
0.402041
0.416434
0.460612
0.599818
0.650187
0.617576
0.562159
0.668698
0.69033
0.665704
0.708744
0.688018
0.704332
0.709142
0.535851
0.483881
0.632677
0.593662
0.205686
0.100459
0.110262
0.415881
0.316756
0.100013
0.100003
0.100001
0.100001
0.100001
0.100001
0.100002
0.100002
0.100003
0.100004
0.100006
0.100031
0.100626
0.110371
0.160292
0.23572
0.274476
0.286432
0.288711
0.284202
0.26419
0.22489
0.198438
0.254271
0.331324
0.377963
0.391621
0.386271
0.388671
0.376582
0.382224
0.36081
0.369511
0.337857
0.350322
0.306319
0.323245
0.266035
0.287137
0.184969
0.209501
0.143031
0.162235
0.137163
0.126281
0.29536
0.255902
0.216176
0.326387
0.306418
0.326355
0.356938
0.333557
0.339365
0.406636
0.404904
0.323511
0.34264
0.380075
0.362011
0.26537
0.275969
0.289458
0.305355
0.255591
0.257378
0.264599
0.275365
0.284237
0.266185
0.258781
0.258241
0.358664
0.320461
0.290459
0.521651
0.479631
0.373698
0.39585
0.437169
0.582249
0.638991
0.606775
0.544935
0.66268
0.702574
0.682146
0.712972
0.686379
0.705633
0.715312
0.547618
0.491702
0.64861
0.60793
0.178477
0.100085
0.103343
0.416628
0.301678
0.100018
0.100003
0.100001
0.100001
0.100001
0.100002
0.100003
0.100005
0.100009
0.100015
0.100033
0.100318
0.105469
0.144241
0.227235
0.270897
0.284192
0.288055
0.289022
0.289314
0.281925
0.269522
0.285454
0.335895
0.377428
0.390539
0.381492
0.382915
0.376271
0.379755
0.364558
0.371176
0.34579
0.356197
0.318098
0.333125
0.280628
0.30062
0.234241
0.258271
0.143117
0.165297
0.122757
0.127681
0.151894
0.124203
0.345102
0.302988
0.307409
0.251776
0.395335
0.379277
0.380924
0.410413
0.394895
0.404344
0.465927
0.463364
0.369704
0.392747
0.435063
0.414933
0.289136
0.305625
0.325263
0.346884
0.261343
0.271596
0.285627
0.302499
0.270513
0.26249
0.262119
0.2661
0.335097
0.303789
0.281612
0.505709
0.465741
0.358254
0.392221
0.42721
0.572677
0.633796
0.604134
0.537456
0.662218
0.711723
0.696475
0.716881
0.687047
0.70706
0.720514
0.559369
0.499806
0.664607
0.622201
0.146682
0.10003
0.101267
0.41693
0.280503
0.10002
0.100003
0.100001
0.100001
0.100003
0.100007
0.100015
0.10003
0.100053
0.10008
0.100221
0.102484
0.128157
0.20678
0.262498
0.276273
0.278869
0.281844
0.288696
0.298989
0.310449
0.327628
0.352259
0.378176
0.387745
0.370953
0.361657
0.361317
0.355064
0.359372
0.340873
0.348921
0.317546
0.330479
0.283559
0.301906
0.239813
0.262733
0.189866
0.214935
0.116013
0.125077
0.11495
0.112658
0.207989
0.162685
0.134363
0.389194
0.350711
0.336975
0.289418
0.452011
0.434141
0.422723
0.451556
0.451841
0.463349
0.514942
0.510596
0.421819
0.446852
0.489099
0.469662
0.32237
0.345014
0.369677
0.395692
0.27942
0.297224
0.316319
0.339614
0.269122
0.267186
0.270524
0.285456
0.326805
0.301442
0.283184
0.502304
0.468516
0.360114
0.402138
0.435151
0.574111
0.636917
0.611678
0.544429
0.665865
0.719183
0.708535
0.720069
0.690087
0.709177
0.725803
0.571763
0.5085
0.680027
0.636661
0.128164
0.100034
0.10119
0.41719
0.263036
0.100019
0.100003
0.100003
0.100008
0.100023
0.100057
0.100121
0.100206
0.100276
0.100343
0.101412
0.115661
0.180862
0.250885
0.267472
0.258168
0.250317
0.266252
0.289157
0.310496
0.332965
0.354803
0.375989
0.380298
0.361909
0.294523
0.326242
0.327395
0.319062
0.323902
0.301245
0.311537
0.272287
0.288137
0.232541
0.253682
0.18629
0.20975
0.14101
0.16227
0.106234
0.108007
0.113105
0.107451
0.236252
0.181827
0.135077
0.166555
0.413733
0.378302
0.353001
0.312272
0.496458
0.476201
0.445194
0.474206
0.50409
0.513313
0.555112
0.544016
0.477988
0.503111
0.541632
0.524694
0.365294
0.393148
0.421832
0.450429
0.307952
0.332571
0.357793
0.387019
0.276055
0.277236
0.291306
0.316405
0.330805
0.307587
0.293001
0.514714
0.485162
0.371988
0.428035
0.456523
0.587419
0.64651
0.629439
0.565573
0.675355
0.725638
0.718323
0.723253
0.694955
0.713562
0.730181
0.584344
0.517215
0.694324
0.650625
0.127687
0.10088
0.104108
0.419709
0.26892
0.100018
0.100008
0.100023
0.100077
0.100205
0.100442
0.100732
0.100935
0.100947
0.101395
0.108487
0.155717
0.234236
0.259849
0.246356
0.214199
0.206943
0.237302
0.28198
0.31698
0.343061
0.361976
0.361168
0.33917
0.266546
0.193846
0.26929
0.191146
0.271907
0.265763
0.270578
0.245639
0.257483
0.213595
0.230833
0.172093
0.193643
0.132995
0.151166
0.112734
0.120737
0.103461
0.102783
0.116824
0.1063
0.265562
0.214985
0.142565
0.183233
0.42023
0.38844
0.35566
0.319277
0.526
0.501828
0.449963
0.479155
0.552989
0.556973
0.587501
0.567632
0.535782
0.558843
0.590229
0.577343
0.417596
0.448948
0.479795
0.508953
0.348277
0.379795
0.410808
0.444361
0.292009
0.299046
0.326666
0.362392
0.345463
0.326223
0.320437
0.543481
0.520079
0.402488
0.476488
0.497246
0.615657
0.663269
0.651338
0.59924
0.683497
0.732113
0.727478
0.727775
0.704253
0.720298
0.734502
0.59652
0.527429
0.706107
0.665548
0.149084
0.130277
0.134478
0.428901
0.305365
0.100033
0.100068
0.100246
0.100723
0.10155
0.102575
0.103139
0.103003
0.102484
0.106148
0.136365
0.211509
0.251326
0.242542
0.199619
0.167746
0.170226
0.202728
0.251882
0.293525
0.316862
0.314283
0.28714
0.218739
0.143945
0.198035
0.132456
0.131712
0.200915
0.195461
0.199807
0.17631
0.18741
0.147917
0.162782
0.12277
0.133899
0.108734
0.114412
0.103378
0.105221
0.103021
0.101642
0.129923
0.115778
0.107782
0.278421
0.232445
0.161204
0.201285
0.415939
0.387586
0.349343
0.318015
0.542372
0.510792
0.443805
0.47509
0.59583
0.594815
0.609646
0.582355
0.592324
0.611291
0.632026
0.624983
0.478041
0.510461
0.541091
0.568434
0.402791
0.439839
0.474767
0.510457
0.324108
0.34583
0.38289
0.42825
0.382289
0.375009
0.377633
0.583529
0.566614
0.46121
0.543688
0.551483
0.637402
0.672795
0.6613
0.623728
0.695051
0.738449
0.732778
0.733704
0.712242
0.730311
0.743631
0.610522
0.538123
0.716993
0.682908
0.218497
0.156451
0.230807
0.446948
0.355723
0.100238
0.100697
0.102242
0.105133
0.108167
0.109845
0.109094
0.106482
0.106614
0.125336
0.187654
0.240481
0.241744
0.199333
0.155774
0.136581
0.143146
0.170252
0.204227
0.230362
0.23528
0.213438
0.166703
0.123477
0.102998
0.133453
0.105451
0.105801
0.134341
0.130908
0.13338
0.121626
0.126663
0.11153
0.116345
0.104729
0.107563
0.101783
0.102841
0.101221
0.101256
0.103946
0.1016
0.137571
0.118629
0.107279
0.11303
0.281615
0.242203
0.171548
0.207408
0.400772
0.376298
0.334552
0.308526
0.548358
0.511011
0.42753
0.461741
0.632122
0.626509
0.622188
0.587171
0.644537
0.657967
0.666288
0.665593
0.544107
0.57479
0.602408
0.625544
0.473527
0.512749
0.548609
0.582743
0.396841
0.429262
0.471208
0.516787
0.458023
0.462099
0.487563
0.611065
0.60781
0.545276
0.61275
0.605982
0.651876
0.686042
0.675794
0.648343
0.705385
0.7439
0.738828
0.7446
0.726496
0.74226
0.751405
0.624143
0.55089
0.728634
0.697895
0.297234
0.149526
0.27711
0.470261
0.398418
0.101989
0.104967
0.11205
0.118373
0.120987
0.119818
0.115566
0.110402
0.122226
0.16886
0.227172
0.240614
0.203566
0.156868
0.129858
0.118637
0.123681
0.139314
0.154875
0.16058
0.149688
0.127587
0.109438
0.101422
0.100069
0.10053
0.105562
0.100528
0.105862
0.105276
0.10574
0.103463
0.104434
0.101712
0.102512
0.100716
0.10111
0.10044
0.100474
0.100843
0.100562
0.10866
0.106574
0.103895
0.10219
0.150451
0.125379
0.116418
0.27799
0.243494
0.178602
0.208903
0.379166
0.357205
0.315039
0.293209
0.54751
0.503464
0.407312
0.444029
0.662372
0.647574
0.626561
0.586653
0.689741
0.696436
0.692887
0.696483
0.612739
0.638203
0.660341
0.677327
0.559891
0.597043
0.629432
0.657917
0.51699
0.548561
0.584106
0.617258
0.553507
0.583681
0.599703
0.649881
0.646379
0.617314
0.632948
0.642647
0.668811
0.701317
0.702565
0.667561
0.726092
0.755918
0.747635
0.75529
0.742194
0.764063
0.762923
0.641091
0.566995
0.738202
0.711227
0.348525
0.108982
0.249131
0.494404
0.429986
0.110475