/*--------------------------------*- C++ -*----------------------------------*\
  =========                 |
  \\      /  F ield         | OpenFOAM: The Open Source CFD Toolbox
   \\    /   O peration     | Website:  https://openfoam.org
    \\  /    A nd           | Version:  dev
     \\/     M anipulation  |
\*---------------------------------------------------------------------------*/
FoamFile
{
    version     2.0;
    format      ascii;
    class       volScalarField;
    location    "2500";
    object      alphat;
}
// * * * * * * * * * * * * * * * * * * * * * * * * * * * * * * * * * * * * * //

dimensions      [1 -1 -1 0 0 0 0];

internalField   nonuniform List<scalar> 
9836
(
0.000149869
0.000154077
0.000145338
0.00014214
0.000182422
0.000129925
0.000130891
0.000193061
0.000172098
0.000123969
0.000126339
0.000187451
0.000197372
0.000147976
0.000121875
0.000122735
0.000170343
0.000212698
0.000182772
0.000134883
0.000120732
0.000120817
0.000151997
0.000212532
0.000207894
0.000156556
0.000129305
0.000119945
0.000120225
0.000140653
0.000204339
0.000222846
0.000186953
0.000141342
0.000126184
0.000119412
0.000119938
0.000132231
0.00018351
0.000230442
0.000213591
0.000160825
0.000134208
0.000123938
0.000119047
0.000119738
0.000127282
0.000160828
0.00022682
0.000229334
0.000187471
0.000145247
0.000130081
0.00012246
0.00011873
0.0001193
0.000124328
0.000147236
0.000214056
0.000240943
0.000215418
0.000162891
0.000137399
0.000126993
0.000121684
0.000118426
0.00011883
0.000122873
0.000137341
0.000188719
0.000242434
0.000235284
0.000185564
0.000148064
0.000132725
0.000124856
0.00012102
0.000118209
0.000118435
0.000122187
0.000131443
0.000165393
0.000236117
0.000245615
0.000213789
0.000162666
0.00014001
0.000129211
0.000123559
0.000120382
0.00011805
0.000118118
0.000121741
0.000128047
0.000151361
0.000219024
0.000253952
0.00023643
0.000183807
0.000149193
0.000134864
0.000126678
0.000122583
0.000119833
0.000117918
0.000117892
0.000121398
0.000126061
0.000141412
0.000191097
0.000252496
0.000251052
0.000209757
0.000162145
0.000141535
0.000130938
0.000125047
0.000121668
0.000119404
0.000117811
0.000117762
0.000121079
0.000124779
0.000135309
0.000168648
0.000243061
0.000260566
0.000235645
0.000181421
0.000149596
0.000136333
0.000128075
0.000123797
0.00012092
0.000119066
0.000117714
0.000117685
0.000120678
0.000123922
0.000131605
0.000154608
0.000221187
0.000265441
0.000254074
0.00020428
0.000161805
0.000142267
0.000132214
0.000126104
0.000122662
0.000120376
0.000118664
0.000117625
0.00011762
0.000120293
0.000123348
0.000129191
0.000145088
0.000191634
0.000261511
0.000264769
0.000231348
0.0001778
0.000150111
0.000137194
0.000129112
0.000124615
0.000121772
0.000119861
0.000118451
0.000117528
0.000117542
0.000120009
0.000122869
0.000127757
0.000138927
0.000171352
0.000248851
0.000273846
0.000253441
0.000199963
0.000160147
0.000142755
0.000133129
0.000126918
0.000123313
0.000121115
0.000119267
0.000118242
0.000117452
0.000117452
0.000119858
0.000122498
0.000126613
0.000135045
0.000157615
0.000222497
0.000275762
0.000269283
0.000224022
0.000174847
0.000149572
0.000137598
0.000129939
0.000125235
0.000122424
0.000120406
0.000118941
0.000118003
0.000117391
0.000117374
0.000119761
0.000122149
0.000125536
0.000132784
0.000148285
0.000192142
0.000269652
0.00027692
0.000250631
0.000193737
0.000158523
0.000142878
0.000133571
0.000127523
0.000123842
0.000121615
0.000119669
0.000118649
0.000117777
0.000117341
0.000117342
0.000119601
0.000121773
0.000124763
0.000131421
0.00014225
0.000173773
0.000253552
0.000285598
0.000268638
0.000217281
0.000170888
0.000148758
0.000138015
0.000130394
0.000125636
0.000122849
0.000120785
0.000119213
0.000118318
0.000117586
0.000117287
0.000117356
0.000119366
0.000121463
0.00012423
0.000130053
0.000138407
0.000160585
0.000224958
0.000284171
0.000282597
0.000242353
0.000187949
0.000156618
0.000142416
0.000134107
0.000127876
0.000124185
0.000121933
0.000119932
0.000118873
0.000117989
0.000117432
0.000117232
0.000117384
0.000119093
0.00012124
0.000123808
0.000128685
0.000135654
0.000151535
0.000194423
0.000276763
0.000288707
0.000267452
0.000209241
0.000167281
0.000148047
0.000137773
0.000130841
0.000125939
0.000123105
0.000121032
0.000119333
0.000118505
0.000117696
0.000117288
0.000117187
0.00011741
0.000118833
0.000121051
0.000123376
0.000127447
0.000133855
0.000145337
0.000176843
0.00025892
0.000296639
0.000282544
0.000233388
0.000182211
0.000154608
0.000142237
0.00013407
0.000128231
0.000124408
0.000122119
0.000120132
0.000118936
0.000118115
0.000117452
0.000117152
0.000117159
0.000117434
0.0001186
0.000120806
0.000122933
0.000126411
0.00013242
0.000140998
0.00016405
0.000229282
0.000293966
0.000295015
0.000258354
0.000201237
0.000164053
0.000146758
0.000137715
0.000130999
0.000126235
0.000123255
0.000121194
0.000119383
0.000118575
0.000117753
0.00011725
0.000117035
0.000117138
0.000117457
0.00011838
0.000120498
0.000122519
0.00012564
0.000131167
0.00013797
0.000154645
0.00019821
0.000285508
0.000301445
0.000282535
0.000223708
0.000176564
0.000152969
0.000141287
0.000134071
0.000128485
0.000124623
0.000122249
0.000120342
0.000118873
0.000118197
0.000117448
0.000117073
0.000116946
0.000117119
0.000117457
0.000118173
0.000120206
0.000122157
0.000124927
0.000130012
0.000135823
0.000148173
0.000180388
0.000266435
0.000308886
0.00029632
0.000247877
0.00019336
0.000160475
0.000145799
0.000137133
0.000131098
0.000126491
0.000123384
0.000121347
0.000119579
0.000118507
0.000117833
0.00011722
0.000116936
0.000116934
0.000117119
0.000117443
0.000118038
0.000119928
0.000121803
0.000124322
0.000128889
0.000134211
0.000143619
0.000167918
0.000235826
0.000305386
0.000308137
0.000273216
0.000213472
0.000171442
0.000150627
0.000140666
0.000133804
0.000128678
0.000124892
0.000122379
0.000120562
0.000118992
0.000118205
0.000117531
0.000117063
0.000116884
0.000116995
0.000117154
0.000117411
0.000117932
0.000119591
0.000121456
0.000123692
0.000127744
0.000132867
0.000140328
0.00015845
0.000205277
0.000296388
0.000314555
0.00029653
0.000236715
0.00018534
0.000157584
0.000144274
0.00013674
0.000131082
0.000126758
0.00012364
0.00012154
0.000119934
0.000118572
0.000117962
0.000117332
0.000116968
0.000116952
0.000117136
0.000117237
0.000117367
0.000117833
0.000119247
0.000121104
0.000123016
0.000126647
0.000131574
0.000137837
0.000151815
0.000185624
0.000277155
0.000321508
0.000309842
0.000261641
0.000203684
0.000166122
0.000148953
0.000139744
0.000133611
0.000128885
0.000125251
0.000122689
0.000120859
0.000119472
0.000118318
0.000117776
0.000117253
0.000117034
0.0001172
0.000117431
0.000117369
0.000117323
0.000117722
0.000118919
0.000120748
0.000122361
0.00012563
0.000130198
0.000135841
0.000146979
0.000174175
0.000248084
0.000318114
0.000320896
0.000286823
0.000224667
0.000178578
0.000154343
0.000143158
0.000136243
0.00013114
0.00012713
0.00012411
0.00012194
0.000120367
0.000119192
0.000118261
0.000117722
0.000117362
0.000117364
0.000117693
0.000117997
0.000117629
0.000117285
0.000117601
0.00011863
0.000120381
0.000121765
0.000124697
0.000128821
0.000134071
0.000143313
0.000164521
0.000218792
0.000310674
0.000327288
0.000309242
0.000248704
0.000193599
0.000162048
0.000146939
0.000138998
0.000133433
0.000129158
0.000125775
0.000123273
0.000121406
0.000120076
0.000119137
0.000118467
0.000118029
0.000117872
0.000118036
0.000118507
0.000118797
0.000118098
0.00011725
0.000117473
0.000118361
0.000119961
0.000121243
0.000123838
0.00012759
0.000132465
0.000140358
0.00015737
0.000195297
0.000293727
0.000333997
0.00032255
0.000272906
0.000213189
0.000171602
0.000151804
0.000141849
0.00013576
0.000131214
0.000127596
0.000124781
0.000122715
0.000121127
0.000120035
0.000119352
0.000118912
0.000118784
0.000119027
0.000119552
0.000120215
0.000120234
0.000117685
0.000119035
0.000117207
0.000117345
0.000118125
0.000119541
0.000120751
0.000123066
0.000126553
0.000131109
0.000137946
0.000152047
0.000182779
0.000268964
0.000335343
0.000333029
0.000298266
0.000233997
0.000184997
0.000157733
0.000145095
0.000138155
0.000133242
0.000129456
0.000126439
0.000124158
0.000122514
0.000121173
0.000120308
0.000119922
0.000119769
0.000120053
0.000120713
0.000121555
0.000122198
0.000120287
0.000121391
0.000107833
0.000107422
0.000117154
0.000117212
0.000117922
0.000119173
0.00012024
0.000122348
0.000125637
0.000129911
0.000136049
0.000147962
0.000174308
0.000241419
0.000328616
0.000340207
0.000320172
0.00025815
0.000200772
0.000165838
0.000149008
0.000140463
0.000135223
0.000131293
0.000128144
0.000125712
0.000123991
0.000122637
0.000121599
0.000121156
0.000121104
0.000121334
0.000121941
0.000123122
0.000123133
0.000123804
0.000119982
0.000123543
0.000111398
0.000105444
0.000104044
9.00088e-05
8.97907e-05
0.000117101
0.000117071
0.000117734
0.000118852
0.000119619
0.000121638
0.00012485
0.000128777
0.000134537
0.000144875
0.000166937
0.000217253
0.000317255
0.00034724
0.000334383
0.00028076
0.000220142
0.000176273
0.000153953
0.000143053
0.000137162
0.000133006
0.000129837
0.000127338
0.000125552
0.000124206
0.000123219
0.000122625
0.000122668
0.000123199
0.000124281
0.000125425
0.000124586
0.000125652
0.000124369
0.000100687
0.0001028
9.70409e-05
8.92088e-05
8.69848e-05
7.51188e-05
7.54088e-05
0.000117053
0.000116937
0.000117565
0.000118538
0.00011893
0.000120938
0.000124131
0.000127712
0.000133273
0.000142543
0.000161301
0.000198845
0.000298739
0.000351837
0.000344728
0.000306416
0.000240719
0.00018963
0.000160306
0.000146241
0.00013905
0.000134594
0.000131365
0.000128881
0.000127138
0.000125787
0.000125009
0.000124541
0.000124541
0.000125383
0.000126569
0.000127505
0.000122965
0.00011949
0.000119555
0.000116515
0.000101785
8.51233e-05
9.34126e-05
8.26813e-05
7.55183e-05
7.42213e-05
6.33495e-05
6.38396e-05
0.000117015
0.000116823
0.000117455
0.0001182
0.000118293
0.00012034
0.000123472
0.000126776
0.000132151
0.000140785
0.000157248
0.000188756
0.000278747
0.000351349
0.000353538
0.000326733
0.000263381
0.000205632
0.000168532
0.00015026
0.000140996
0.00013609
0.000132746
0.00013031
0.000128701
0.000127396
0.000126679
0.000126499
0.000126738
0.000127411
0.000128382
0.000129179
0.000117846
0.000116575
0.000110244
0.000110043
0.000101252
9.98904e-05
9.09329e-05
7.27576e-05
8.05995e-05
7.15469e-05
6.45823e-05
6.38461e-05
5.39344e-05
5.45602e-05
0.00011699
0.000116759
0.000117398
0.000117802
0.000117715
0.000119864
0.000122877
0.000125982
0.000131142
0.000139442
0.000154428
0.000182539
0.000257387
0.000345709
0.000360724
0.000344317
0.000285918
0.000223863
0.000179165
0.000155313
0.000143421
0.000137465
0.000133928
0.000131472
0.000130068
0.000128989
0.000128406
0.000128456
0.000128868
0.000129276
0.000129727
0.00013019
0.000115154
0.000113895
0.000105107
0.000108346
9.80464e-05
9.69442e-05
8.96485e-05
8.86343e-05
7.91416e-05
6.26955e-05
7.00719e-05
6.19291e-05
5.56185e-05
5.51726e-05
4.62425e-05
4.7057e-05
0.000116997
0.000116784
0.00011737
0.000117367
0.000117177
0.000119519
0.00012238
0.000125305
0.000130305
0.000138426
0.000152501
0.000178467
0.000238846
0.000336995
0.000367774
0.000356179
0.000307565
0.000244013
0.000192213
0.000161685
0.000146661
0.000138915
0.000134935
0.000132391
0.000131045
0.000130346
0.000130138
0.000130457
0.000130913
0.000130848
0.000130866
0.000130636
0.000117839
0.000116442
0.000103552
0.000108492
9.60772e-05
9.69756e-05
8.72405e-05
8.66172e-05
7.88764e-05
7.8537e-05
6.94059e-05
5.42064e-05
6.12027e-05
5.39068e-05
4.82415e-05
4.78835e-05
3.99642e-05
4.09718e-05
0.000117075
0.000116913
0.000117355
0.000116946
0.000116729
0.000119297
0.000122001
0.000124787
0.00012969
0.000137774
0.000151365
0.000175525
0.000224245
0.000325606
0.000373211
0.00036599
0.000329847
0.000264148
0.000207697
0.000170059
0.000150795
0.000140797
0.000135911
0.000133287
0.000131894
0.000131367
0.000131571
0.000132469
0.000132858
0.000132322
0.000131677
0.000130376
0.000126353
0.000123364
0.000105686
0.000114326
9.63545e-05
9.97986e-05
8.64392e-05
8.89381e-05
7.74843e-05
7.78575e-05
7.00806e-05
6.97753e-05
6.12594e-05
4.7164e-05
5.37886e-05
4.73134e-05
4.21303e-05
4.17092e-05
3.46742e-05
3.60273e-05
0.000117267
0.000117232
0.000117409
0.000116684
0.000116572
0.000119254
0.000121706
0.000124442
0.000129357
0.000137572
0.000151113
0.000173864
0.000214183
0.000313754
0.000376704
0.00037507
0.000348366
0.000285156
0.000224652
0.000180596
0.000156017
0.000143353
0.000136958
0.000133966
0.0001327
0.000132274
0.000132676
0.000134376
0.000134692
0.000133717
0.000132303
0.000129584
0.000124277
0.000120214
0.000120599
0.00011426
0.000106185
0.000111878
9.44872e-05
0.000112055
8.23772e-05
9.73629e-05
7.01596e-05
7.90086e-05
6.2034e-05
6.35464e-05
5.41294e-05
4.13854e-05
4.74147e-05
4.1637e-05
3.6971e-05
3.65951e-05
3.05188e-05
3.18586e-05
0.000117735
0.000117871
0.000117695
0.000116758
0.000116799
0.000119403
0.000121522
0.000124234
0.000129296
0.000137794
0.000151687
0.000173781
0.000208854
0.000303137
0.000377449
0.000382938
0.000364784
0.000305736
0.000242892
0.00019317
0.000162734
0.000147024
0.000138399
0.000134705
0.000133112
0.00013316
0.000133789
0.000135856
0.000136069
0.000133853
0.000132949
0.00012642
0.000115877
0.000113738
0.000108267
0.000112184
0.000105723
0.000112219
0.000107858
0.000111984
0.000108579
0.000112452
0.000106417
0.000110976
7.66668e-05
0.000107092
5.70014e-05
7.42176e-05
4.98829e-05
3.64129e-05
4.3523e-05
3.78145e-05
3.26674e-05
3.22599e-05
2.71736e-05
2.8539e-05
0.000118621
0.000119139
0.000118404
0.000117273
0.000117395
0.00011977
0.000121524
0.000124252
0.000129505
0.000138528
0.000153889
0.000174508
0.000207981
0.000295247
0.000376493
0.000391923
0.000377674
0.000324905
0.000261825
0.000207569
0.000171323
0.000151745
0.000140951
0.000135539
0.000133617
0.00013371
0.000134822
0.000137239
0.000130458
0.000122557
0.000125272
0.000119691
0.000112612
7.35128e-05
0.000115143
0.000132283
0.000130652
0.000160518
0.000139964
0.000181953
0.000134979
0.000188209
0.000126445
0.000173446
0.000117294
0.000144273
0.000106392
0.000123902
6.9774e-05
0.000106403
6.19302e-05
3.29347e-05
5.23393e-05
4.22588e-05
2.89459e-05
2.9283e-05
2.45412e-05
2.57063e-05
0.000120511
0.000122294
0.000119964
0.000118526
0.000118534
0.000120387
0.000121783
0.00012461
0.000130161
0.00013985
0.000156229
0.000176418
0.000208842
0.00029232
0.000375553
0.00040108
0.000388719
0.000345051
0.000280633
0.000223396
0.000181856
0.000157678
0.000144714
0.000136981
0.00013426
0.000134397
0.000135822
0.000137488
0.000121929
0.00011509
0.000118627
0.0001183
0.000162488
0.000145847
0.000171802
0.00019139
0.000229195
0.000232266
0.000288315
0.000255414
0.000329776
0.000253967
0.00034509
0.000224256
0.000329103
0.000165863
0.000280688
0.000129759
0.000194086
0.000105971
0.000133919
0.000103593
3.37676e-05
9.93679e-05
7.63468e-05
2.62126e-05
2.80246e-05
2.28105e-05
2.34103e-05
0.000124866
0.000128986
0.00012358
0.000120877
0.000120296
0.000121403
0.000122478
0.000125515
0.000131499
0.000142033
0.000158971
0.000181013
0.000212421
0.000292275
0.0003765
0.000410047
0.000399618
0.000363655
0.000299336
0.000240126
0.000194148
0.000165462
0.000149509
0.000140038
0.000135336
0.000135054
0.00013667
0.000131006
0.00011693
0.000109026
0.000110415
0.000117618
0.000174095
0.000336381
0.000370543
0.000265372
0.000304509
0.00034523
0.000405589
0.000406961
0.000477975
0.000433664
0.000510126
0.00042829
0.000509823
0.000394624
0.000485162
0.000327145
0.000437673
0.000217925
0.000358006
0.000134966
0.000230343
0.0001312
5.56741e-05
0.000124625
0.000117246
2.46179e-05
3.64878e-05
2.18675e-05
2.23444e-05
0.000134603
0.000142386
0.000130697
0.000124518
0.000122723
0.000122892
0.000123732
0.000127172
0.000133841
0.000145407
0.000163389
0.000189394
0.000222093
0.000293955
0.000378898
0.000419103
0.000410655
0.000380366
0.000317702
0.000257161
0.000207877
0.000174996
0.000155973
0.000144911
0.000138625
0.00013637
0.000137543
0.000129435
0.000115278
0.000103662
9.99543e-05
0.000117897
0.000164126
0.000392985
0.000419893
0.000546032
0.000577691
0.000460836
0.000507988
0.000539002
0.000586697
0.000567782
0.000608892
0.000566891
0.000605091
0.000548611
0.000589613
0.000515234
0.000565524
0.000460701
0.000528918
0.000372785
0.000471426
0.000230334
0.000375963
0.000216695
0.00010571
0.000193486
0.000169359
2.58176e-05
8.53363e-05
2.24112e-05
2.2227e-05
0.000150293
0.000169106
0.000145957
0.000131052
0.000125915
0.000124924
0.000125546
0.000129727
0.00013774
0.000150389
0.00017076
0.000200707
0.000236828
0.000299908
0.000382437
0.000428375
0.000422008
0.000395825
0.000335296
0.000274122
0.000222557
0.000186321
0.000164454
0.00015143
0.000144851
0.000140113
0.000139756
0.000126962
0.000107413
9.90202e-05
9.3759e-05
0.000120688
0.000168369
0.000426784
0.000409356
0.000600442
0.000621746
0.000667611
0.000683128
0.000622521
0.000648196
0.000639014
0.00065829
0.000630927
0.000645693
0.000615371
0.000630082
0.000594474
0.000608222
0.00056879
0.000587213
0.000533377
0.000565386
0.000474626
0.000533362
0.000372197
0.0004742
0.000358239
0.000144559
0.000332968
0.000291011
4.68935e-05
0.000119261
2.77918e-05
2.76367e-05
0.000154498
0.000192854
0.000176181
0.000145813
0.000131298
0.000127824
0.000128243
0.000133253
0.000143101
0.000157678
0.000182295
0.00021509
0.000253498
0.000312499
0.000388437
0.000437549
0.00043347
0.000410663
0.000351901
0.000290611
0.000237626
0.000199012
0.000174618
0.000160728
0.000152328
0.00014727
0.000145019
0.000119752
0.00010356
9.64222e-05
8.92186e-05
0.000114487
0.000158685
0.000547612
0.000632014
0.000669312
0.000696182
0.000708214
0.000695158
0.000703663
0.00067261
0.000684866
0.000656125
0.000661103
0.000636709
0.0006359
0.000611703
0.000609866
0.00059126
0.000587037
0.000574899
0.000570915
0.000559366
0.000560964
0.000532328
0.000553318
0.000469102
0.000530344
0.000456911
0.000235292
0.000439466
0.000411416
9.19723e-05
0.000181637
2.90371e-05
5.35338e-05
0.000173154
0.000197437
0.000175275
0.000143125
0.00013309
0.000132576
0.000138991
0.000150744
0.000169843
0.000198599
0.000232495
0.00027211
0.00032767
0.000397693
0.000446928
0.000445096
0.000424429
0.000367588
0.000306155
0.000252442
0.000212173
0.000186385
0.000173193
0.000163474
0.000157949
0.000153105
0.000121394
0.00010636
9.40585e-05
8.73991e-05
9.87776e-05
0.000136955
0.000515071
0.000738532
0.000743803
0.000718987
0.000733114
0.000711367
0.000719303
0.000668876
0.000670799
0.00066522
0.000667642
0.000635296
0.000633615
0.000604748
0.000598398
0.000579794
0.000572742
0.000560389
0.000550201
0.000548084
0.000533036
0.000546335
0.000524688
0.000547094
0.000531359
0.000526496
0.000542329
0.000520531
0.000363124
0.000511731
0.00049126
0.000130545
0.000288853
1.19315e-05
8.57955e-05
0.000168642
0.000197094
0.000169172
0.000144199
0.00014028
0.000148155
0.000163321
0.000187959
0.000218358
0.000252478
0.000292175
0.000344853
0.000409116
0.000456898
0.00045681
0.000437302
0.000382902
0.000320539
0.000266271
0.000225152
0.000199651
0.000187417
0.000178969
0.000176438
0.000160509
0.000129147
0.000104105
9.0855e-05
8.65116e-05
9.1449e-05
0.000132036
0.00041811
0.000744694
0.000739291
0.000746405
0.000758316
0.000727375
0.000737478
0.000674006
0.000678137
0.000631089
0.000632382
0.000631835
0.000630919
0.000595425
0.000592313
0.000567335
0.000564823
0.000545574
0.00054545
0.000523536
0.000525092
0.000505208
0.000501174
0.000500736
0.000479513
0.000516057
0.000478099
0.000538262
0.000504633
0.000535766
0.000457171
0.00053401
0.000526734
0.000506009
0.000207463
0.000398592
1.4409e-05
0.000113763
0.000171105
0.000194811
0.00016691
0.000154018
0.000163348
0.000183851
0.000211253
0.000240435
0.000274045
0.000313569
0.000363109
0.000422292
0.000467233
0.000468171
0.000449307
0.000397343
0.00033348
0.000278568
0.000237115
0.000211235
0.000199939
0.000193743
0.000190097
0.000155209
0.00012646
0.000102023
9.07687e-05
8.39455e-05
8.54765e-05
0.000136358
0.000343472
0.000773944
0.000767293
0.000786472
0.000703225
0.000716183
0.000684252
0.000693183
0.000634966
0.000638953
0.000590988
0.000593602
0.000590127
0.000589886
0.000566042
0.000567639
0.000551284
0.000562559
0.000537576
0.000557641
0.00051329
0.000545622
0.000482642
0.000511593
0.000456045
0.000469266
0.0004559
0.000435341
0.000497384
0.000440456
0.000469859
0.000520028
0.0004927
0.000520174
0.000473275
0.000514258
0.000522821
0.00049834
0.000494026
0.000524442
0.000312345
0.000499279
0.000481881
0.000419289
3.80838e-05
0.000159905
0.000186544
0.000202411
0.000177596
0.000186795
0.000210039
0.000235004
0.000263775
0.000296543
0.000335237
0.000382432
0.000436286
0.000477889
0.000478872
0.000460528
0.000410505
0.000345088
0.000288995
0.000246687
0.000219054
0.000206766
0.000202687
0.000183716
0.000178579
0.000175126
0.000152342
0.000115148
9.13175e-05
8.07988e-05
0.000143355
0.000290338
0.00076973
0.000766176
0.000781312
0.000731405
0.000751941
0.000663236
0.000675645
0.000644643
0.000652732
0.000597575
0.000603212
0.000577633
0.0005827
0.000570061
0.000573517
0.000574342
0.000583765
0.000589218
0.000621019
0.00059913
0.000650947
0.000576036
0.000635191
0.000517936
0.000592112
0.000447274
0.000464052
0.000489175
0.000525645
0.000427001
0.000420405
0.000459845
0.000450296
0.000429488
0.000437249
0.000464824
0.000430405
0.000418761
0.000462409
0.000525332
0.00052219
0.000505127
0.000471295
0.00046567
0.000511403
0.000454219
0.000312269
0.000421503
0.00051499
0.000500779
9.17332e-05
0.000366029
0.000268416
0.000129921
0.000216316
0.000215941
0.000214868
0.000235075
0.000259759
0.000286181
0.000319193
0.000356985
0.000401696
0.000451159
0.000488489
0.000488663
0.0004708
0.000421889
0.000355295
0.000297684
0.000254195
0.000224253
0.00021053
0.000196379
0.000206691
0.000210947
0.000212405
0.00020704
0.000193509
0.000175963
0.000108398
0.000121929
0.000241243
0.000723771
0.000779482
0.000723475
0.000741939
0.000688589
0.000704244
0.000633391
0.000647846
0.000611038
0.000621252
0.000589265
0.000597838
0.000612038
0.000619943
0.000594217
0.000604252
0.000649029
0.000671524
0.00069073
0.000720626
0.000676706
0.000660426
0.000610403
0.000577834
0.000556291
0.000575286
0.000599324
0.000521212
0.000487244
0.000520333
0.000555267
0.000413808
0.000422486
0.000478647
0.000469743
0.000441782
0.000411946
0.000430281
0.000407692
0.00040644
0.000430582
0.000516759
0.000519633
0.000479061
0.000433298
0.000438892
0.000488734
0.000479159
0.000449431
0.000518149
0.000509872
0.000151872
8.70148e-05
0.000117074
0.000415488
0.00037277
0.000279684
0.00025066
0.000262149
0.000281209
0.000309164
0.000339775
0.000378438
0.000420996
0.000465954
0.00049914
0.000497714
0.000479604
0.000431505
0.000364023
0.000304816
0.00025994
0.000227477
0.000212263
0.000199697
0.000217859
0.000236662
0.000263222
0.000250131
0.000222279
0.00020292
0.000189215
0.0001511
0.000208601
0.000540662
0.000803917
0.000739413
0.000762237
0.000699307
0.00071939
0.00066267
0.000680493
0.00063528
0.000650938
0.000608709
0.000621443
0.000629223
0.000640149
0.000708122
0.000716036
0.000687073
0.000699832
0.000741286
0.000756422
0.000656442
0.000661581
0.000550393
0.00052849
0.000546408
0.000479085
0.000498682
0.000445962
0.000565322
0.000546814
0.000509178
0.000487786
0.000511994
0.000546566
0.000538479
0.000414181
0.000432802
0.000501761
0.000489706
0.000458984
0.000399373
0.000404048
0.000392647
0.00040555
0.000402499
0.000498712
0.000507117
0.000447923
0.000403494
0.00040781
0.000459943
0.000493386
0.000468363
0.000511427
0.000509539
0.000243907
9.40954e-05
0.000122589
0.000436449
0.000396564
0.000313862
0.000288954
0.000306383
0.000327447
0.000361175
0.00039778
0.000439859
0.000481075
0.000509385
0.000506146
0.000487753
0.000438595
0.000371007
0.000310124
0.000263477
0.000228639
0.000212912
0.000217105
0.000257174
0.000328732
0.000423405
0.000472554
0.000433164
0.000317052
0.000226895
0.000193155
0.000203864
0.000384446
0.000807568
0.000789722
0.000742896
0.00076378
0.000703649
0.000722948
0.000667725
0.000685594
0.000680414
0.000695874
0.000652721
0.000666311
0.000725224
0.00073566
0.000783208
0.000790952
0.000767342
0.000775955
0.000670528
0.000682381
0.000532878
0.000536337
0.000465176
0.00042991
0.000455714
0.000417033
0.000453778
0.000437594
0.000413085
0.000405676
0.000505894
0.000473878
0.000443623
0.000417666
0.000535165
0.000514791
0.000477309
0.00042291
0.000447551
0.000521616
0.000506267
0.000476268
0.000396542
0.000387004
0.000387677
0.000412392
0.000382717
0.000473582
0.000486637
0.000416178
0.000380621
0.000381701
0.000428673
0.000499563
0.000480793
0.000496942
0.000502268
0.000229899
4.91143e-05
0.00011273
0.000453531
0.000413317
0.000344191
0.000327803
0.000349853
0.000377872
0.000416929
0.000457249
0.0004957
0.000519437
0.000513896
0.00049408
0.000444797
0.00037605
0.000314166
0.000264296
0.000229203
0.000213321
0.000224457
0.000297446
0.000434939
0.000626651
0.000774437
0.000758247
0.000611719
0.000392743
0.000234904
0.000213893
0.000316345
0.000784937
0.00080152
0.000819835
0.000823015
0.000787079
0.000803419
0.000750138
0.000769675
0.000712791
0.000730944
0.000771011
0.000783766
0.000747101
0.000758894
0.000799584
0.000808425
0.000737984
0.000744369
0.000703287
0.000723949
0.00055016
0.000565705
0.000424628
0.000446693
0.000392631
0.000397905
0.000404372
0.000428514
0.000393477
0.00037619
0.000360854
0.000354555
0.000442334
0.000413018
0.000387131
0.000364513
0.000494533
0.000456902
0.000420439
0.000435285
0.000461519
0.000483769
0.000480627
0.000489364
0.000401127
0.000379218
0.000389439
0.000422485
0.000371504
0.000443969
0.000460834
0.000387331
0.000365304
0.000361897
0.000398053
0.000500208
0.000490015
0.000477178
0.00049055
0.00021381
2.20264e-05
8.98551e-05
0.000468694
0.000409908
0.000375563
0.000367899
0.000397272
0.000432792
0.00047341
0.000509694
0.000529284
0.000521417
0.000499177
0.000447479
0.000379629
0.000315343
0.000264872
0.000229841
0.000212366
0.000225992
0.000321738
0.000508367
0.000798291
0.000995397
0.000987024
0.000867414
0.000674299
0.000425953
0.000253793
0.000305257
0.000689206
0.00080209
0.00087206
0.000907822
0.000930607
0.000875615
0.000893591
0.000833563
0.000853789
0.000798163
0.000814472
0.000841282
0.000858385
0.000817697
0.000828413
0.000758392
0.000777725
0.000586398
0.000565108
0.000589114
0.000602859
0.000476601
0.000453586
0.000430329
0.000438009
0.000419741
0.000433129
0.000348802
0.000351169
0.000357275
0.00036994
0.000347118
0.000335134
0.000329971
0.000331477
0.000390281
0.000365685
0.000344541
0.000328499
0.000443421
0.000406582
0.000376248
0.000446038
0.000471389
0.000439465
0.000443636
0.000483057
0.000408661
0.000377646
0.000394145
0.000430418
0.000366124
0.000413594
0.000433326
0.000362961
0.000355422
0.000346806
0.0003699
0.000498254
0.000497369
0.00045474
0.000475877
0.000234267
8.63917e-05
0.00015947
0.000481423
0.000390024
0.000410931
0.000412275
0.000449492
0.000487829
0.00052221
0.000539388
0.000528964
0.000503038
0.000448539
0.000380603
0.00031708
0.000264014
0.000228741
0.000209724
0.000223569
0.000326933
0.000543424
0.000913993
0.00112295
0.00110987
0.00101628
0.000855889
0.000647592
0.000413807
0.00032483
0.000592477
0.000775452
0.000873185
0.00105796
0.00104565
0.00103251
0.00105045
0.000985384
0.00101026
0.000931261
0.000958338
0.000880837
0.000905821
0.000863986
0.000893877
0.000798404
0.000827849
0.000559766
0.000562993
0.000397541
0.000393605
0.000433469
0.000418036
0.000413092
0.000400036
0.000380166
0.000412768
0.000403131
0.000389505
0.000396004
0.000342645
0.000363002
0.000392074
0.000422433
0.00031937
0.000317233
0.00032499
0.00034335
0.000351541
0.000331812
0.000317453
0.000310197
0.00040068
0.000370063
0.000345417
0.00045271
0.000475161
0.000404679
0.000416349
0.000454811
0.000414429
0.000378565
0.000397562
0.000433723
0.000362964
0.000384782
0.00040612
0.000342446
0.000347832
0.000333563
0.000345615
0.000494247
0.000503617
0.000431888
0.000460172
0.000306314
4.91803e-05
0.000122113
0.000490114
0.000410688
0.000446443
0.00046247
0.000502373
0.000535288
0.000548065
0.000537024
0.000507091
0.000449803
0.000382042
0.000318302
0.000263922
0.00022652
0.00020754
0.000214061
0.000319543
0.000546642
0.000969002
0.00119112
0.00117451
0.00106563
0.000916336
0.000745531
0.000573221
0.000418991
0.00055567
0.000710924
0.000856232
0.00114298
0.00121052
0.00125257
0.00116102
0.00118964
0.00109363
0.00112907
0.00101172
0.00105463
0.000930712
0.000969886
0.000656914
0.000714296
0.000579387
0.000609337
0.000353505
0.000340684
0.00029853
0.000268854
0.000358007
0.000335522
0.000382712
0.000377827
0.000378738
0.000368081
0.000392438
0.000391733
0.000390392
0.000391591
0.000368067
0.000396773
0.000398563
0.000394409
0.000310648
0.00032145
0.000340835
0.000363251
0.000326006
0.000312851
0.000305911
0.000306293
0.000371928
0.000347212
0.00032823
0.000454108
0.0004678
0.000383856
0.0004047
0.000435687
0.00041486
0.000378254
0.000395952
0.000432157
0.000358499
0.000358313
0.000380713
0.000324524
0.000338334
0.000320571
0.000324407
0.000487838
0.000506834
0.000409945
0.000444226
0.000261391
2.25121e-05
0.000102248
0.000494583
0.000375953
0.000490294
0.000514422
0.000547138
0.000561867
0.000543499
0.000511338
0.000450376
0.000382916
0.000320058
0.00026499
0.000224805
0.000205445
0.000204956
0.000286979
0.000527057
0.00097327
0.00121834
0.00120683
0.00105737
0.000936663
0.000820589
0.0006638
0.000511968
0.000579166
0.000693083
0.000830724
0.00113068
0.00138974
0.00138826
0.0013384
0.00137253
0.00126779
0.00130608
0.00117451
0.00122389
0.00097505
0.00107857
0.000788491
0.00087985
0.000478418
0.000547679
0.000365129
0.000415625
0.000270556
0.000252014
0.000268294
0.000231356
0.000355757
0.000337746
0.000315207
0.000388905
0.000384342
0.00040734
0.000398329
0.000396111
0.000401886
0.00041191
0.000407602
0.000390609
0.000388893
0.000388805
0.000391076
0.000318951
0.000336427
0.000353691
0.000377727
0.00031476
0.000305614
0.000303822
0.000315273
0.000357858
0.000339009
0.00032389
0.000452144
0.000455937
0.000379545
0.000411931
0.000433576
0.00040997
0.000373304
0.000387499
0.000426684
0.000348728
0.000334749
0.000357446
0.000308695
0.000326413
0.000307286
0.000305654
0.000480169
0.000505843
0.000389237