/*--------------------------------*- C++ -*----------------------------------*\
  =========                 |
  \\      /  F ield         | OpenFOAM: The Open Source CFD Toolbox
   \\    /   O peration     | Website:  https://openfoam.org
    \\  /    A nd           | Version:  dev
     \\/     M anipulation  |
\*---------------------------------------------------------------------------*/
FoamFile
{
    version     2.0;
    format      ascii;
    class       volScalarField;
    location    "2500";
    object      CO2;
}
// * * * * * * * * * * * * * * * * * * * * * * * * * * * * * * * * * * * * * //

dimensions      [0 0 0 0 0 0 0];

internalField   nonuniform List<scalar> 
9836
(
2.94387e-29
1.00694e-28
4.8586e-29
1.99086e-28
2.57312e-28
5.81387e-29
2.81812e-28
4.6934e-28
2.67018e-28
3.4027e-29
3.48823e-28
7.82728e-28
6.43214e-28
1.91144e-28
1.06026e-29
2.54567e-28
1.11956e-27
1.2332e-27
5.71643e-28
1.30532e-28
7.86227e-30
5.03036e-28
1.74894e-27
1.95115e-27
1.37195e-27
3.55153e-28
6.63529e-29
2.66476e-30
5.76572e-28
1.8934e-27
3.20573e-27
2.14927e-27
1.19347e-27
2.48794e-28
1.79381e-29
1.08757e-30
3.47049e-28
2.54211e-27
4.61078e-27
4.21026e-27
1.94535e-27
6.94848e-28
8.43294e-29
7.88899e-30
2.69105e-31
1.80318e-28
2.04976e-27
5.58866e-27
6.24309e-27
4.40151e-27
1.84178e-27
3.33908e-28
3.1965e-29
1.85116e-30
5.21242e-32
2.43881e-28
2.21026e-27
5.42858e-27
8.3373e-27
6.44162e-27
3.51022e-27
1.27828e-27
1.74852e-28
1.55138e-29
6.05898e-31
1.83854e-32
3.266e-28
2.17925e-27
5.01336e-27
1.19543e-26
1.11964e-26
6.26778e-27
2.22317e-27
7.31723e-28
5.76884e-29
5.48252e-30
1.41441e-31
4.22994e-33
3.42454e-28
1.71876e-27
6.70799e-27
1.46426e-26
1.53322e-26
1.13272e-26
4.99718e-27
1.64118e-27
2.00912e-28
1.70351e-29
1.58087e-30
2.99048e-32
1.44611e-33
6.2418e-28
2.20747e-27
7.95596e-27
1.68264e-26
2.10387e-26
1.76872e-26
8.71747e-27
3.52373e-27
9.56641e-28
7.3517e-29
5.69713e-30
3.02068e-31
1.52274e-32
1.65841e-34
9.65326e-28
4.18747e-27
9.71044e-27
1.78098e-26
2.67024e-26
2.51278e-26
1.76059e-26
7.05373e-27
2.32473e-27
3.80715e-28
2.65194e-29
2.68382e-30
1.35007e-31
3.22565e-33
4.86573e-35
1.23736e-27
5.61924e-27
1.41882e-26
2.43267e-26
3.49304e-26
3.51318e-26
2.43032e-26
1.34623e-26
4.85781e-27
1.35644e-27
1.26294e-28
1.13141e-29
9.94634e-31
3.96656e-32
1.18364e-33
4.00241e-35
2.93181e-27
1.37898e-26
2.17433e-26
3.41765e-26
4.56875e-26
4.73554e-26
3.91891e-26
2.2192e-26
9.4518e-27
2.95705e-27
5.61949e-28
4.78297e-29
4.63152e-30
3.01448e-31
1.31821e-32
1.12321e-33
1.71597e-34
6.11947e-27
3.0783e-26
3.41207e-26
5.57803e-26
5.89264e-26
6.6664e-26
5.60013e-26
3.53498e-26
1.85171e-26
6.29444e-27
1.67038e-27
2.21438e-28
1.97705e-29
1.62538e-30
1.03601e-31
7.21133e-33
4.39734e-33
2.79377e-33
1.25984e-26
6.2734e-26
9.37698e-26
1.30081e-25
1.04764e-25
1.02932e-25
7.60239e-26
5.82783e-26
2.81422e-26
1.27298e-26
3.70471e-27
8.36631e-28
1.08519e-28
5.77982e-30
5.96688e-31
4.2516e-32
3.45794e-32
1.98982e-32
1.44809e-32
7.94521e-27
7.22136e-26
2.03192e-25
2.54317e-25
2.28548e-25
1.631e-25
1.23661e-25
8.7442e-26
5.01082e-26
2.23297e-26
9.03402e-27
1.91714e-27
3.2522e-28
4.42693e-29
2.70606e-30
1.62422e-31
1.84999e-31
2.8343e-31
1.75251e-31
1.60379e-31
1.97325e-26
9.35983e-26
3.43988e-25
6.28862e-25
5.6333e-25
3.8549e-25
2.18444e-25
1.38629e-25
8.5966e-26
3.49506e-26
1.68473e-26
4.75071e-27
7.42345e-28
1.29093e-28
1.5684e-29
8.11174e-31
7.08315e-31
1.46138e-30
1.93647e-30
1.77522e-30
6.00867e-31
2.54495e-26
1.88557e-25
7.05802e-25
8.99185e-25
1.19565e-24
8.79381e-25
4.31068e-25
2.17906e-25
1.3926e-25
7.42445e-26
2.57603e-26
1.05405e-26
2.4861e-27
3.10134e-28
5.50749e-29
6.72321e-30
2.18374e-30
5.86735e-30
8.94816e-30
1.09702e-29
1.17999e-29
6.31424e-30
4.59114e-26
4.90831e-25
9.81857e-25
1.91553e-24
2.33546e-24
1.70476e-24
1.01439e-24
4.70412e-25
2.29745e-25
1.26206e-25
4.8321e-26
1.91071e-26
5.14927e-27
1.34047e-27
1.31712e-28
2.3543e-29
1.27831e-29
2.3649e-29
4.27167e-29
4.6397e-29
5.83363e-29
5.62076e-29
3.66949e-29
1.3577e-25
4.68478e-25
1.98524e-24
2.23314e-24
3.53865e-24
4.85831e-24
2.69574e-24
1.01227e-24
4.16824e-25
2.08417e-25
1.08017e-25
3.78094e-26
1.24083e-26
3.00361e-27
5.02827e-28
4.9271e-29
3.23357e-29
7.5535e-29
1.90721e-28
2.40384e-28
3.78748e-28
5.67088e-28
6.47429e-28
2.28136e-28
9.65148e-26
1.0166e-24
3.385e-24
5.20615e-24
5.68357e-24
9.04557e-24
5.40734e-24
3.17589e-24
9.87734e-25
4.36475e-25
1.69053e-25
7.64583e-26
2.42319e-26
7.64501e-27
1.31999e-27
2.65878e-28
8.52176e-29
2.81157e-28
7.56568e-28
1.37704e-27
2.59715e-27
4.82421e-27
4.78154e-27
6.07791e-27
6.8107e-27
3.83244e-25
1.99163e-24
5.50091e-24
8.74822e-24
1.22962e-23
1.92928e-23
1.21663e-23
5.69622e-24
2.93117e-24
9.54209e-25
3.69636e-25
1.29026e-25
5.28086e-26
1.64074e-26
2.91162e-27
7.18102e-28
4.34471e-28
7.8955e-28
2.20192e-27
6.19626e-27
8.75988e-27
1.78924e-26
4.06429e-26
4.71559e-26
6.93317e-26
1.08518e-25
8.54076e-25
4.75127e-24
1.62377e-23
2.07716e-23
1.79036e-23
3.17816e-23
3.01753e-23
1.45162e-23
6.23464e-24
2.18552e-24
8.12056e-25
2.71441e-25
1.02059e-25
3.40003e-26
8.36922e-27
2.01168e-27
1.26765e-27
3.27807e-27
6.01342e-27
2.22255e-26
7.28939e-26
1.21158e-25
2.29851e-25
6.64927e-25
1.03749e-24
1.78335e-24
1.44361e-24
1.09286e-24
8.21241e-24
2.14433e-23
5.13437e-23
4.60034e-23
4.49613e-23
4.97347e-23
4.86337e-23
1.43991e-23
6.1104e-24
1.9771e-24
6.56475e-25
1.98951e-25
5.66096e-26
1.93677e-26
4.21559e-27
3.36298e-27
8.63306e-27
3.50067e-26
8.6628e-26
2.47651e-25
8.29616e-25
1.37787e-24
4.47721e-24
9.57062e-24
1.68097e-23
3.46717e-23
1.23386e-23
4.37678e-25
8.8002e-24
3.45157e-23
8.0891e-23
1.06204e-22
9.41203e-23
1.11115e-22
9.92865e-23
5.66895e-23
1.30255e-23
5.0536e-24
1.49177e-24
4.56246e-25
1.52845e-25
4.10472e-26
1.208e-26
1.02987e-26
2.67556e-26
1.18408e-25
3.56335e-25
1.19466e-24
2.99776e-24
1.28628e-23
3.40775e-23
1.10909e-22
2.47292e-22
5.32337e-22
5.51585e-22
2.74749e-22
4.58474e-25
6.02952e-24
3.34472e-23
1.26363e-22
2.18001e-22
2.5865e-22
1.51713e-22
1.81157e-22
1.17952e-22
4.83983e-23
1.05648e-23
4.0671e-24
9.8625e-25
3.24022e-25
8.00152e-26
3.07803e-26
2.45143e-26
9.10896e-26
4.17141e-25
1.57404e-24
5.85733e-24
1.71501e-23
5.23041e-23
2.22999e-22
7.88126e-22
3.3962e-21
6.35568e-21
1.08235e-20
5.73482e-21
2.93494e-21
4.63779e-25
2.61985e-24
2.80225e-23
1.36668e-22
2.66789e-22
4.61548e-22
3.40456e-22
3.5682e-22
2.58068e-22
1.16803e-22
3.16073e-23
9.22367e-24
2.45108e-24
6.78009e-25
1.74613e-25
5.22697e-26
6.90205e-26
2.34256e-25
1.05713e-24
4.60559e-24
2.06996e-23
7.50427e-23
2.47451e-22
1.61162e-21
4.83392e-21
2.06113e-20
9.30812e-20
1.60322e-19
1.76616e-19
8.60715e-20
1.68209e-20
1.44404e-24
8.97613e-24
1.72465e-23
1.45081e-22
3.6703e-22
9.06934e-22
9.78118e-22
6.38146e-22
5.48645e-22
2.86044e-22
1.00372e-22
2.64191e-23
7.19815e-24
1.53924e-24
4.61682e-25
1.49812e-25
1.53201e-25
6.32197e-25
2.69358e-24
1.65815e-23
7.4771e-23
2.94825e-22
1.10603e-21
4.7965e-21
4.30048e-20
2.02699e-19
8.36881e-19
2.24703e-18
2.53785e-18
2.46303e-18
8.25818e-19
2.25183e-19
8.86814e-24
2.5706e-23
2.19168e-23
1.38483e-22
5.52657e-22
1.28605e-21
1.77417e-21
1.805e-21
9.33509e-22
6.36395e-22
2.14306e-22
7.36272e-23
2.01848e-23
4.36558e-24
1.10742e-24
3.93758e-25
3.38621e-25
1.78189e-24
9.02075e-24
5.49311e-23
2.14069e-22
1.28593e-21
4.37334e-21
2.11407e-20
1.6457e-19
1.35772e-18
6.53193e-18
2.17503e-17
4.50507e-17
5.26507e-17
2.55272e-17
7.01815e-18
7.07706e-19
1.35502e-23
6.15824e-23
7.00398e-23
9.49483e-23
5.57918e-22
1.57857e-21
2.14305e-21
2.87746e-21
2.51728e-21
1.24202e-21
5.23741e-22
1.41278e-22
5.47903e-23
1.22398e-23
2.61013e-24
1.0141e-24
1.10808e-24
4.68928e-24
2.6654e-23
1.47109e-22
9.23378e-22
3.46328e-21
2.4042e-20
1.29905e-19
6.83026e-19
6.25792e-18
4.61071e-17
2.2634e-16
6.25359e-16
9.01028e-16
8.17751e-16
2.52183e-16
1.59058e-17
9.97914e-19
1.68505e-17
5.78933e-23
7.48152e-23
2.75179e-22
3.21372e-22
5.68364e-22
1.55349e-21
3.32649e-21
4.73102e-21
4.69672e-21
2.47558e-21
1.37638e-21
4.14649e-22
1.24231e-22
3.07736e-23
8.30179e-24
2.43401e-24
3.1476e-24
1.45029e-23
7.95609e-23
3.70616e-22
2.88288e-21
1.29977e-20
5.57567e-20
3.86255e-19
3.09081e-18
2.47399e-17
2.52128e-16
1.60329e-15
6.21306e-15
1.39309e-14
1.72166e-14
9.07421e-15
0
1.40702e-16
1.35989e-15
4.05948e-18
7.66056e-17
2.81547e-22
3.42583e-22
6.56748e-22
9.44911e-22
1.02219e-21
1.74368e-21
3.67499e-21
6.75798e-21
7.76985e-21
5.71869e-21
2.28306e-21
1.16229e-21
3.14362e-22
9.39867e-23
2.39587e-23
6.07171e-24
7.22744e-24
2.46254e-23
1.59654e-22
1.10226e-21
6.96937e-21
4.36819e-20
2.53776e-19
1.27533e-18
9.27679e-18
1.00028e-16
1.2335e-15
9.45743e-15
6.05664e-14
1.93457e-13
3.26439e-13
2.80342e-13
2.78655e-14
1.6281e-13
1.14165e-14
1.44407e-13
1.25031e-13
6.81092e-16
8.01434e-15
1.34018e-17
3.90034e-16
5.29118e-22
3.53452e-21
1.96226e-21
2.08718e-21
2.77704e-21
2.12905e-21
3.89327e-21
8.67806e-21
1.11012e-20
1.0038e-20
5.17564e-21
2.17074e-21
7.27537e-22
2.05585e-22
6.41128e-23
1.81704e-23
1.66284e-23
8.07878e-23
3.20588e-22
2.41344e-21
1.97858e-20
1.06612e-19
6.56128e-19
3.72991e-18
2.3327e-17
3.24512e-16
3.67042e-15
4.77398e-14
4.11798e-13
1.95659e-12
4.88136e-12
6.0446e-12
1.02203e-12
6.2995e-12
1.03515e-12
9.6171e-14
1.11554e-12
1.02703e-12
4.42147e-15
6.20815e-14
1.08864e-16
1.86232e-15
4.30209e-21
1.32894e-20
1.65974e-20
1.20512e-20
7.35712e-21
6.35818e-21
4.42029e-21
9.00549e-21
1.38031e-20
1.50519e-20
1.21309e-20
4.73798e-21
1.7523e-21
4.62659e-22
1.21504e-22
5.24015e-23
3.64651e-23
1.85697e-22
9.92116e-22
4.99792e-21
4.55487e-20
3.19724e-19
1.44728e-18
8.5617e-18
6.00494e-17
5.9516e-16
1.55713e-14
1.78087e-13
2.08505e-12
1.45257e-11
5.12523e-11
9.76788e-11
2.82935e-11
1.36306e-10
7.153e-12
4.47984e-11
9.22075e-12
7.84449e-13
9.808e-12
8.64331e-12
3.29724e-14
4.90074e-13
4.18235e-16
1.36128e-14
4.31034e-21
4.97337e-20
7.02614e-20
5.31422e-20
2.45407e-20
1.50426e-20
1.06815e-20
1.34757e-20
1.96764e-20
2.3029e-20
1.82499e-20
1.03789e-20
3.19416e-21
1.39754e-21
2.98083e-22
1.16043e-22
1.3835e-22
3.4398e-22
2.48877e-21
1.9028e-20
1.08525e-19
6.79907e-19
4.67402e-18
2.32213e-17
1.19906e-16
9.47166e-16
2.36633e-14
7.90199e-13
7.89736e-12
7.84216e-11
4.00711e-10
1.08149e-09
5.66822e-10
2.23056e-09
2.48707e-10
1.19797e-09
6.54339e-11
4.08031e-10
8.13774e-11
6.39797e-12
8.335e-11
7.1865e-11
2.51091e-13
3.86018e-12
2.94829e-15
9.96617e-14
2.82863e-20
9.63099e-20
3.08938e-19
2.03012e-19
1.36227e-19
5.40128e-20
3.99615e-20
2.93377e-20
2.73983e-20
3.11562e-20
3.10904e-20
2.01816e-20
6.48821e-21
2.75556e-21
1.02331e-21
3.07508e-22
4.35915e-22
9.59215e-22
6.53911e-21
3.19851e-20
3.1679e-19
1.87698e-18
8.13201e-18
5.01226e-17
2.14456e-16
1.65727e-15
3.40229e-14
1.13538e-12
3.63261e-11
3.09888e-10
2.28098e-09
8.80408e-09
7.55036e-09
2.44154e-08
5.07705e-09
1.91868e-08
2.19893e-09
1.03396e-08
5.73598e-10
3.51261e-09
6.93119e-10
5.12903e-11
6.90045e-10
5.8097e-10
1.91288e-12
2.99752e-11
2.03891e-14
7.3629e-13
4.49447e-19
4.55063e-19
1.05281e-18
9.16074e-19
6.20283e-19
2.48886e-19
1.42928e-19
7.30836e-20
4.86329e-20
5.13635e-20
5.17206e-20
3.29936e-20
1.76117e-20
6.4877e-21
2.74221e-21
1.03317e-21
1.28634e-21
3.44071e-21
1.36546e-20
1.50798e-19
6.7498e-19
4.18897e-18
2.70116e-17
1.15747e-16
4.80419e-16
2.55708e-15
4.00924e-14
1.55034e-12
4.752e-11
1.3822e-09
9.42048e-09
5.30567e-08
6.99363e-08
1.91061e-07
6.48475e-08
2.01974e-07
4.27963e-08
1.56808e-07
1.84936e-08
8.44902e-08
4.83457e-09
2.87517e-08
5.68594e-09
4.01606e-10
5.51601e-09
4.54244e-09
1.43332e-11
2.26804e-10
1.45908e-13
5.38229e-12
1.5666e-18
3.46133e-18
3.25949e-18
3.51247e-18
2.63065e-18
1.02302e-18
5.68222e-19
2.46515e-19
1.1974e-19
1.26711e-19
9.70848e-20
7.36704e-20
3.70448e-20
1.52509e-20
9.76173e-21
4.56867e-21
3.59627e-21
9.89234e-21
6.29904e-20
2.96885e-19
2.84525e-18
1.36307e-17
5.98902e-17
3.14255e-16
1.67877e-15
6.60608e-15
4.80666e-14
1.63862e-12
7.41208e-11
1.79297e-09
3.84369e-08
2.28887e-07
4.71391e-07
1.14159e-06
5.69431e-07
1.48346e-06
5.16672e-07
1.55659e-06
3.38096e-07
1.19173e-06
1.47044e-07
6.478e-07
3.88401e-08
2.21898e-07
4.43827e-08
3.0441e-09
4.23401e-08
3.40442e-08
1.04681e-10
1.66045e-09
1.03956e-12
3.85905e-11
1.03832e-17
2.43141e-17
2.3162e-17
1.43968e-17
9.13441e-18
4.18871e-18
2.26937e-18
8.01544e-19
4.23545e-19
2.78519e-19
3.07e-19
2.2382e-19
1.03553e-19
4.05317e-20
3.01876e-20
1.47426e-20
1.57292e-20
3.33888e-20
1.54016e-19
1.32384e-18
6.75513e-18
5.02002e-17
2.29507e-16
7.59036e-16
3.45224e-15
1.54555e-14
8.41529e-14
1.46588e-12
7.80855e-11
3.34058e-09
5.37789e-08
8.42142e-07
2.24429e-06
4.82587e-06
3.52366e-06
8.14169e-06
4.19167e-06
1.03217e-05
3.76117e-06
1.06271e-05
2.47618e-06
8.12761e-06
1.09252e-06
4.5456e-06
2.93257e-07
1.59716e-06
3.28035e-07
2.2192e-08
3.08947e-07
2.43123e-07
7.47251e-10
1.17639e-08
7.26713e-12
2.67466e-10
3.94434e-17
9.72117e-17
9.01356e-17
5.21123e-17
3.16818e-17
2.00164e-17
7.89981e-18
3.30433e-18
1.94129e-18
1.27055e-18
1.02543e-18
7.01035e-19
4.93892e-19
1.58389e-19
7.14558e-20
4.97597e-20
5.70003e-20
1.57727e-19
6.23528e-19
3.88549e-18
2.72056e-17
1.28667e-16
6.70331e-16
2.73843e-15
1.08319e-14
4.6753e-14
1.8899e-13
1.45009e-12
6.51582e-11
3.73734e-09
1.40569e-07
1.16352e-06
7.69224e-06
1.29461e-05
1.55256e-05
3.09562e-05
2.36276e-05
5.14669e-05
2.7007e-05
6.32773e-05
2.37915e-05
6.2438e-05
1.57742e-05
4.70827e-05
7.30275e-06
2.69198e-05
2.05798e-06
1.02458e-05
2.26019e-06
1.55499e-07
2.11347e-06
1.64299e-06
5.15863e-09
8.04403e-08
4.94877e-11
1.77768e-09
1.52296e-16
3.79198e-16
2.96411e-16
2.67391e-16
1.90918e-16
9.1536e-17
3.86861e-17
1.36175e-17
5.41561e-18
4.38067e-18
3.5623e-18
3.14567e-18
1.91043e-18
1.02994e-18
2.57984e-19
1.97904e-19
1.54837e-19
4.83223e-19
2.63634e-18
1.53111e-17
1.04803e-16
4.72883e-16
2.28947e-15
9.33581e-15
4.03481e-14
1.59758e-13
5.76167e-13
2.17983e-12
4.31942e-11
3.18522e-09
1.70954e-07
4.8169e-06
2.05004e-05
7.22483e-06
4.83626e-05
7.90475e-05
9.50638e-05
0.000160102
0.000137409
0.000251257
0.000147112
0.000307412
0.000126466
0.000297036
8.29396e-05
0.000222525
4.05365e-05
0.000130067
1.27656e-05
5.40069e-05
1.37808e-05
1.0436e-06
1.29225e-05
1.01697e-05
3.42056e-08
5.30195e-07
3.27903e-10
1.13374e-08
5.48285e-16
1.81804e-15
1.27451e-15
9.27719e-16
7.28423e-16
3.71292e-16
1.50737e-16
6.00666e-17
1.86643e-17
1.11113e-17
1.35381e-17
8.15201e-18
5.74654e-18
4.54915e-18
1.25636e-18
7.73025e-19
5.5516e-19
1.51144e-18
8.09758e-18
5.30834e-17
3.82537e-16
1.82633e-15
9.47911e-15
4.20847e-14
1.71411e-13
6.10184e-13
1.95021e-12
5.69755e-12
3.80996e-11
1.97575e-09
1.47071e-07
6.56111e-06
0.000113687
0.00010409
0.000167732
0.000236221
0.00032748
0.000393064
0.000554605
0.000522766
0.000765804
0.000570377
0.000897121
0.000514885
0.000909355
0.000347893
0.00077883
0.000182148
0.000492918
6.44747e-05
0.000228195
6.79516e-05
6.55609e-06
6.39041e-05
5.2003e-05
2.18263e-07
3.35251e-06
2.11405e-09
6.94248e-08
4.15405e-15
9.7545e-15
7.92816e-15
5.22834e-15
3.01212e-15
1.46792e-15
5.53944e-16
2.11527e-16
9.9798e-17
4.00738e-17
3.74051e-17
2.94028e-17
2.29386e-17
1.45352e-17
7.33515e-18
2.80032e-18
1.62236e-18
5.41442e-18
3.2638e-17
2.23008e-16
1.30517e-15
8.11826e-15
4.64467e-14
2.19865e-13
8.4318e-13
2.69651e-12
7.38501e-12
1.85379e-11
5.42386e-11
1.19918e-09
9.91656e-08
5.30752e-06
0.000128132
0.000578168
0.000649017
0.00041858
0.000505557
0.000717246
0.00087949
0.00101182
0.00124726
0.00123601
0.00155926
0.00133666
0.00175846
0.00128876
0.00180663
0.00105767
0.00167275
0.000632335
0.00131916
0.000259059
0.000741209
0.000265733
3.55379e-05
0.000249357
0.000209249
1.33986e-06
1.92556e-05
1.32843e-08
4.09904e-07
2.4821e-14
6.36227e-14
5.5707e-14
3.29612e-14
1.75407e-14
7.70342e-15
2.26898e-15
6.84494e-16
2.90623e-16
1.48525e-16
1.01059e-16
9.80591e-17
5.5437e-17
3.78486e-17
2.08516e-17
1.03115e-17
5.98293e-18
1.43927e-17
1.01553e-16
6.79059e-16
5.26615e-15
3.90182e-14
2.44498e-13
1.23917e-12
4.83102e-12
1.43554e-11
3.34747e-11
6.86309e-11
1.43603e-10
9.45398e-10
5.89553e-08
4.08399e-06
0.00011165
0.000695203
0.000723812
0.0012417
0.00131947
0.00102423
0.00114576
0.00145982
0.00165309
0.00185389
0.00211588
0.00215174
0.00250401
0.00230282
0.00276075
0.00227916
0.00284628
0.00203798
0.00272724
0.00154701
0.00236195
0.000803768
0.00172139
0.000806574
0.000150217
0.000753464
0.000647239
7.83821e-06
8.81919e-05
8.11387e-08
2.33396e-06
8.52378e-14
3.0724e-13
3.45353e-13
2.14074e-13
1.1607e-13
3.9341e-14
9.93506e-15
2.68276e-15
1.1677e-15
4.88559e-16
3.78078e-16
2.38248e-16
1.72676e-16
1.15766e-16
7.76132e-17
3.34569e-17
1.28755e-17
3.53758e-17
3.09509e-16
2.4271e-15
2.08663e-14
1.79344e-13
1.28541e-12
7.03226e-12
2.96725e-11
8.99708e-11
1.92849e-10
3.13249e-10
5.16748e-10
1.24096e-09
3.29702e-08
2.72238e-06
0.00010996
0.000719879
0.000642872
0.00137331
0.00139792
0.00203969
0.00211281
0.00181473
0.00194285
0.00234201
0.00253964
0.00281211
0.00307578
0.00316962
0.00352175
0.00336374
0.00382118
0.00336484
0.00393484
0.00313131
0.00383054
0.00263084
0.00347429
0.00182773
0.00282739
0.00184422
0.000487831
0.001747
0.00153472
3.92645e-05
0.00031328
4.71295e-07
1.21873e-05
1.56435e-13
7.22894e-13
1.26578e-12
1.2105e-12
6.39476e-13
1.83596e-13
4.50712e-14
1.15716e-14
3.95943e-15
1.99855e-15
1.2226e-15
7.49423e-16
4.27857e-16
3.45631e-16
1.6173e-16
9.12902e-17
4.24041e-17
7.12997e-17
7.3526e-16
7.58208e-15
7.70429e-14
7.47912e-13
6.19472e-12
3.97973e-11
1.80087e-10
6.04503e-10
1.32889e-09
1.94875e-09
2.34775e-09
3.458e-09
2.34329e-08
1.49192e-06
8.71849e-05
0.00101787
0.00140155
0.00147688
0.00215899
0.00217073
0.00290328
0.00296113
0.0026988
0.0028182
0.00329586
0.00347819
0.00381691
0.00405912
0.00421675
0.0045362
0.00444158
0.00486749
0.00445793
0.00499913
0.00422935
0.00490899
0.00373905
0.00455582
0.00293692
0.00392688
0.00294751
0.00121186
0.00285926
0.00263989
0.000154115
0.000838641
2.40784e-06
4.96886e-05
8.22852e-13
2.44908e-12
3.96465e-12
2.77908e-12
7.8863e-13
1.95616e-13
5.16348e-14
1.70148e-14
8.00489e-15
4.88179e-15
2.73068e-15
1.48295e-15
8.30089e-16
4.87204e-16
3.16738e-16
1.37838e-16
1.5527e-16
1.50361e-15
2.13259e-14
2.591e-13
2.8161e-12
2.64624e-11
1.98942e-10
1.10324e-09
3.90696e-09
9.54795e-09
1.45124e-08
1.35105e-08
1.49251e-08
2.86928e-08
7.85704e-07
4.84814e-05
0.000837368
0.00211468
0.00204995
0.00216464
0.00215113
0.00298568
0.00298225
0.00376476
0.00378772
0.00361484
0.00370757
0.00424825
0.00438957
0.00479636
0.00499236
0.0052293
0.0054732
0.00548586
0.00581292
0.0055273
0.00601549
0.00528286
0.0059742
0.00479907
0.00559659
0.0040207
0.00497047
0.00401604
0.00225401
0.00389414
0.00362852
0.000461508
0.00170701
1.00133e-05
0.000168339
2.17312e-12
6.41734e-12
7.85162e-12
3.01651e-12
8.1714e-13
2.27686e-13
8.23034e-14
4.03487e-14
2.28199e-14
1.26726e-14
6.25374e-15
2.88304e-15
1.49898e-15
6.69423e-16
4.06285e-16
2.82127e-16
2.26437e-15
5.00864e-14
7.04012e-13
9.46895e-12
1.01269e-10
8.61028e-10
5.62073e-09
2.53381e-08
6.92175e-08
9.61292e-08
9.67306e-08
8.33099e-08
7.69394e-08
5.32895e-07
2.43225e-05
0.000581257
0.0019586
0.00172576
0.00287242
0.00280146
0.00296925
0.00293805
0.00378229
0.00376649
0.00452782
0.0045141
0.00447636
0.0045243
0.005114
0.00518677
0.00560446
0.00563434
0.00594838
0.00593513
0.00621949
0.00619527
0.00639592
0.00647305
0.00632982
0.00669533
0.00582198
0.00662219
0.00504364
0.00598698
0.00500739
0.00322699
0.00485177
0.00464222
0.00395804
0.00106777
0.00264386
3.39063e-05
0.000476756
4.80329e-12
1.26192e-11
9.67539e-12
3.3215e-12
1.04535e-12
4.16252e-13
2.10685e-13
1.15234e-13
6.08147e-14
2.91859e-14
1.28412e-14
5.24148e-15
2.01922e-15
9.06011e-16
6.44397e-16
2.88205e-15
7.41921e-14
1.68946e-12
2.57275e-11
3.38385e-10
3.35648e-09
2.41599e-08
1.34542e-07
4.023e-07
5.36122e-07
5.95831e-07
4.82033e-07
3.60747e-07
5.77841e-07
1.13386e-05
0.000358678
0.00198681
0.00264586
0.00265107
0.00359254
0.00350276
0.00373189
0.00367601
0.00448439
0.00443271
0.00514653
0.00508686
0.00519561
0.00518029
0.00561581
0.005579
0.00588998
0.00579744
0.00612887
0.00597493
0.00639744
0.00618869
0.0066675
0.00650295
0.0069381
0.00686223
0.00680492
0.00710268
0.00604595
0.00691928
0.0064841
0.00544545
0.00603342
0.00442986
0.00347423
0.00422735
0.0051956
0.00586562
0.00593274
0.00507007
0.00189796
0.0039282
0.00364325
0.00284987
0.000201248
0.0011358
1.26718e-11
2.51239e-11
1.36449e-11
5.31355e-12
2.29089e-12
1.13693e-12
5.92066e-13
2.97679e-13
1.39276e-13
5.9857e-14
2.29249e-14
7.98044e-15
2.90695e-15
1.71855e-15
3.67538e-15
8.54957e-14
2.77911e-12
6.44114e-11
9.36081e-10
1.11123e-08
9.81662e-08
5.8049e-07
1.83957e-06
3.31869e-06
3.83403e-06
2.8597e-06
1.73797e-06
1.18443e-06
6.52589e-06
0.000187882
0.0015419
0.00310907
0.00281514
0.00336876
0.00324221
0.00418024
0.00407655
0.00436254
0.00428181
0.0050125
0.00492702
0.00539861
0.00532873
0.00552319
0.00546227
0.00569503
0.00559972
0.00575225
0.00552042
0.0058081
0.00537075
0.0060701
0.00540735
0.0065289
0.00580952
0.00707082
0.00697982
0.00677605
0.0064031
0.00713442
0.00724711
0.00699199
0.00705622
0.00720994
0.00691557
0.00647843
0.00697943
0.00721925
0.00647558
0.00486552
0.00461339
0.00569139
0.00629566
0.00641292
0.00550897
0.00327694
0.00212775
0.0029245
0.00432706
0.00400348
0.000626805
0.00253726
0.00215901
0.00144229
4.63188e-11
5.92163e-11
3.04385e-11
1.38957e-11
6.47815e-12
3.10769e-12
1.47076e-12
6.6783e-13
2.76815e-13
1.02377e-13
3.32589e-14
1.11528e-14
5.50279e-15
7.22518e-15
8.33098e-14
2.94828e-12
1.06518e-10
2.41922e-09
3.21925e-08
3.2516e-07
2.18171e-06
8.24097e-06
1.81004e-05
2.20881e-05
1.68021e-05
9.5403e-06
5.00736e-06
5.58123e-06
8.12146e-05
0.00101888
0.00292418
0.00361832
0.00356892
0.00393604
0.00382208
0.00459915
0.00447414
0.00482819
0.00472142
0.00524902
0.00515734
0.00538191
0.00531608
0.00551717
0.00544642
0.00532566
0.00519053
0.00497108
0.00467317
0.00474981
0.00421596
0.00490902
0.00408906
0.00600813
0.00549781
0.00506096
0.00452947
0.00676306
0.00638334
0.00592692
0.00729411
0.00725741
0.00675758
0.00675983
0.00708343
0.00725869
0.00693989
0.00727446
0.00734102
0.00690763
0.00527887
0.00500899
0.00614157
0.00683685
0.00672752
0.00593754
0.00365077
0.00327428
0.00470175
0.00436195
0.00178395
0.000601013
0.00119684
0.00287481
0.00245364
2.12478e-10
1.76018e-10
8.93768e-11
3.94391e-11
1.70522e-11
7.41856e-12
3.1797e-12
1.26416e-12
4.52895e-13
1.42984e-13
4.57648e-14
2.16378e-14
2.22197e-14
9.04212e-14
2.71476e-12
1.17673e-10
4.32203e-09
8.52142e-08
9.9575e-07
7.01008e-06
3.08717e-05
7.80547e-05
0.000104459
8.57663e-05
5.17739e-05
2.5021e-05
1.03673e-05
3.7089e-05
0.00058046
0.00245573
0.00374792
0.00348032
0.00403349
0.00388786
0.00432852
0.00419562
0.0047939
0.00465348
0.00504998
0.00492935
0.00524035
0.00514836
0.00502185
0.00497813
0.00510819
0.00505907
0.00449443
0.00441338
0.00385038
0.00365439
0.00346862
0.00307179
0.00411412
0.00365529
0.00333493
0.00302071
0.00543445
0.00492387
0.0044105
0.00390678
0.00635524
0.00588391
0.00537407
0.00729446
0.00709884
0.00633797
0.00633191
0.00676224
0.00737649
0.00727414
0.00740664
0.00733229
0.00725059
0.00568793
0.00539463
0.00656894
0.00719798
0.00710623
0.006354
0.00399396
0.00359551
0.00506391
0.00470149
0.00189689
0.000534798
0.00114397
0.00315995
0.00263695
7.75804e-10
5.44159e-10
2.50035e-10
9.93648e-11
3.90136e-11
1.53089e-11
5.73931e-12
1.98195e-12
6.11342e-13
1.90437e-13
8.99097e-14
9.17815e-14
1.98391e-13
2.13637e-12
1.06791e-10
4.94044e-09
1.70189e-07
2.24414e-06
1.89484e-05
8.77687e-05
0.000234037
0.000357436
0.000348152
0.000219925
0.000102365
3.57372e-05
3.33622e-05
0.000301062
0.00183823
0.00341839
0.00391066
0.00382652
0.00420367
0.00407181
0.00450248
0.0043586
0.00474503
0.00458368
0.00503382
0.00489866
0.00491078
0.00480905
0.00435198
0.00430157
0.004386
0.00437401
0.00357239
0.00354073
0.00286322
0.0027571
0.00282926
0.00264768
0.00253234
0.00239734
0.00346392
0.0030778
0.00278687
0.00256157
0.00484193
0.00429768
0.00376678
0.00328702
0.00585464
0.00533407
0.00478339
0.00711982
0.00677388
0.00583938
0.00583764
0.00633632
0.00736908
0.00742664
0.00740925
0.00715127
0.00743742
0.00608615
0.00576856
0.00695957
0.00742895
0.00738581
0.00674526
0.00430838
0.00387808
0.00541038
0.00501904
0.00193901
0.000279683
0.000965468
0.00338082
0.00275473
2.6143e-09
1.51636e-09
6.07134e-10
2.17147e-10
7.61096e-11
2.61847e-11
8.59022e-12
2.58631e-12
7.8857e-13
3.75576e-13
4.02621e-13
7.687e-13
2.84548e-12
6.35974e-11
4.59861e-09
2.04355e-07
3.12928e-06
3.14679e-05
0.000160801
0.00044167
0.000712621
0.000777842
0.000616888
0.000339621
0.000121422
5.11169e-05
0.00017422
0.00121411
0.00300056
0.00368719
0.0035648
0.00388444
0.00379985
0.00412742
0.00400992
0.00441985
0.00427057
0.00433257
0.00416467
0.00467027
0.00450678
0.00420307
0.00405667
0.00338506
0.0032621
0.0035125
0.00346678
0.00265934
0.00251772
0.00209561
0.00191554
0.00240667
0.00228339
0.00218847
0.00212273
0.00288487
0.00257516
0.00234841
0.00218639
0.00421395
0.00365727
0.00315162
0.00273034
0.00531057
0.00474909
0.00416158
0.00679891
0.00635568
0.00530246
0.0053109
0.00585132
0.00720131
0.00744887
0.00726563
0.00684255
0.00748659
0.00646656
0.00612648
0.00728365
0.00751975
0.00752728
0.00710016
0.0045924
0.00411642
0.00573917
0.00531314
0.00190112
0.000108443
0.00074117
0.00354315
0.00280509
7.75884e-09
3.65277e-09
1.27309e-09
3.99656e-10
1.22702e-10
3.71013e-11
1.07392e-11
3.22224e-12
1.54884e-12
1.77791e-12
3.42338e-12
8.51539e-12
5.18689e-11
2.47481e-09
1.80009e-07
3.22046e-06
3.81516e-05
0.000216114
0.000623607
0.00104191
0.00120984
0.0010816
0.000741878
0.000348996
0.000115704
0.000155146
0.000778902
0.00253446
0.00343289
0.00359777
0.00353479
0.00367019
0.00363618
0.00379147
0.00372446
0.00401414
0.00388873
0.0035512
0.00343348
0.00388256
0.00370724
0.00310583
0.00293637
0.00203698
0.0018583
0.0023737
0.00221735
0.00173316
0.00160015
0.00174524
0.00168835
0.00160246
0.00166293
0.00206363
0.0019624
0.00187335
0.00180061
0.00240885
0.0021796
0.00201932
0.00190319
0.00358386
0.00305742
0.00261906
0.00228711
0.00473588
0.00414033
0.00354721
0.00639354
0.00588602
0.00474216
0.00477021
0.00533975
0.00691232
0.00734776
0.00700899
0.00645918
0.00744294
0.00681912
0.00646387
0.00749366
0.00752891
0.00758978
0.00738552
0.00484575
0.00431266
0.00604746
0.00558381
0.00180301
0.000187355
0.000680416
0.00365555
0.00280883
1.97185e-08
7.6163e-09
2.25668e-09
6.13543e-10
1.64714e-10
4.41827e-11
1.28197e-11
6.27267e-12
7.70503e-12
1.56328e-11
3.62623e-11
9.26942e-11
1.28794e-09
9.60645e-08
2.65506e-06
3.73707e-05
0.000238337
0.000742922
0.00131135
0.00158547
0.00151569
0.00118417
0.000702027
0.000276846
0.000183435
0.000585337
0.00202921
0.00321542
0.003403
0.00339274
0.0033905
0.0034127
0.00332647
0.00335793
0.00329766
0.00330594
0.00335323
0.00330768
0.00262477
0.00263432
0.00278726
0.00268041
0.00172912
0.00164703
0.00102185
0.000838361
0.00142657
0.00124704
0.00156552
0.00151369
0.0014853
0.00170163
0.00170286
0.00172024
0.00171164
0.00181704
0.00176004
0.00172738
0.00171441
0.00205636
0.00190344
0.00180558
0.0017506
0.0030036
0.00254917
0.00220669
0.00197429
0.0041457
0.00354668
0.002989
0.00594672
0.00539635
0.00417647
0.00423605
0.00482389
0.00655805
0.00713671
0.00669478
0.00604337
0.00729253
0.0071415
0.00677379
0.00761052
0.00746241
0.00760616
0.00757291
0.00507031
0.00447139
0.0063348
0.00583356
0.00169203
7.20403e-05
0.00049938
0.00373235
0.00277509
4.32926e-08
1.35516e-08
3.38557e-09
7.90494e-10
1.86831e-10
5.01853e-11
2.4458e-11
3.26173e-11
6.97774e-11
1.64551e-10
3.38647e-10
1.379e-09
4.06939e-08
1.469e-06
3.11934e-05
0.000234207
0.000784266
0.00147608
0.00182753
0.00184863
0.00162516
0.00115156
0.000570712
0.000290913
0.000575576
0.00165629
0.00290793
0.00334994
0.0033195
0.00335008
0.00319901
0.00326642
0.00302748
0.0031182
0.00283286
0.00293121
0.00266968
0.00274069
0.00180496
0.00196213
0.00165013
0.00170091
0.000746056
0.000731594
0.000816862
0.000582537
0.00131324
0.00110055
0.00171323
0.00167284
0.00223451
0.00215504
0.00188429
0.00198368
0.00217923
0.00208123
0.00172813
0.00173028
0.0017508
0.00180653
0.00183214
0.00175707
0.00173399
0.00174288
0.00251951
0.0021643
0.00192793
0.00179334
0.00357792
0.00301338
0.00252872
0.00548956
0.00491437
0.00364135
0.00374361
0.00432971
0.00618427
0.00687467
0.00637393
0.00563337
0.00709821
0.00740749
0.00706127
0.00768694
0.00735227
0.00758706
0.00769856
0.00526842
0.0046023
0.00660006
0.00606413
0.00152217
3.08702e-05
0.000317461
0.00378203
0.00270225
8.08831e-08
2.05337e-08
4.28611e-09
8.57707e-10
1.99503e-10
9.22212e-11
1.32278e-10
3.03721e-10
7.39364e-10
1.47102e-09
3.57637e-09
2.34922e-08
7.13706e-07
1.7756e-05
0.000198259
0.000772952
0.00152895
0.00192868
0.00202865
0.00195152
0.00165514
0.00110665
0.00054916
0.000660429
0.00157983
0.0026431
0.00327236
0.0033304
0.00335439
0.00323845
0.00329793
0.00306485
0.00316051
0.00282138
0.00295189
0.00250701
0.00267315
0.00214194
0.0023272
0.00126247
0.00151839
0.00083136
0.0010247
0.000430213
0.000380176
0.00118171
0.000673
0.00202871
0.00185561
0.00172241
0.00224159
0.00225682
0.00303495
0.00296031
0.00231487
0.00250454
0.00286271
0.00269152
0.00177771
0.00186878
0.00198897
0.00213791
0.00174356
0.00174563
0.00177956
0.00187888
0.00215914
0.00191389
0.0017816
0.00175158
0.00307482
0.0025787
0.00219008
0.0050575
0.00447513
0.00318005
0.00334232
0.00389766
0.0058339
0.00661851
0.00609362
0.00526934
0.00691673
0.00760455
0.00731603
0.00774047
0.0072508
0.00756519
0.00778641
0.00544515
0.00471609
0.00684467
0.00627842
0.00128175
7.85308e-06
0.000150187
0.00381066
0.00257667
1.27522e-07
2.62798e-08
4.52803e-09
8.50018e-10
3.39206e-10
5.13857e-10
1.275e-09
3.25654e-09
6.50489e-09
1.42669e-08
3.53015e-08
3.68135e-07
8.18386e-06
0.000129263
0.000697263
0.00151895
0.00193597
0.00206393
0.00208038
0.00200241
0.0017221
0.00122262
0.000963423
0.00164915
0.002585
0.00318199
0.00335536
0.0032799
0.00331324
0.00314984
0.00322458
0.00294336
0.00305663
0.00264993
0.00280834
0.00225815
0.00246676
0.00177683
0.00202635
0.000864822
0.00113078
0.000426062
0.00062277
0.000379775
0.000261118
0.00223136
0.00173491
0.00124208
0.00278006
0.00249639
0.00263331
0.00305126
0.00299134
0.00303769
0.00386633
0.00379182
0.00288526
0.00314532
0.00362044
0.00339803
0.00201535
0.00218879