/*--------------------------------*- C++ -*----------------------------------*\
  =========                 |
  \\      /  F ield         | OpenFOAM: The Open Source CFD Toolbox
   \\    /   O peration     | Website:  https://openfoam.org
    \\  /    A nd           | Version:  dev
     \\/     M anipulation  |
\*---------------------------------------------------------------------------*/
FoamFile
{
    version     2.0;
    format      ascii;
    class       volScalarField;
    location    "2500";
    object      G;
}
// * * * * * * * * * * * * * * * * * * * * * * * * * * * * * * * * * * * * * //

dimensions      [1 0 -3 0 0 0 0];

internalField   nonuniform List<scalar> 
9836
(
4047.46
4053.33
4054.83
4058.45
4060.71
4062.98
4062.81
4065.84
4068.87
4071.92
4066.44
4070.21
4074.01
4077.82
4081.66
4069.34
4073.84
4078.38
4082.96
4087.57
4092.22
4071.53
4076.74
4082
4087.32
4092.7
4098.14
4103.61
4073.02
4078.92
4084.87
4090.91
4097.04
4103.26
4109.55
4115.88
4073.84
4080.39
4087.02
4093.75
4100.6
4107.57
4114.65
4121.82
4129.04
4074
4081.19
4088.46
4095.86
4103.39
4111.08
4118.92
4126.9
4134.98
4143.13
4073.54
4081.33
4089.22
4097.24
4105.43
4113.8
4122.37
4131.12
4140.04
4149.07
4158.19
4072.47
4080.83
4089.31
4097.93
4106.74
4115.76
4125
4134.49
4144.19
4154.09
4164.13
4174.27
4070.83
4079.73
4088.76
4097.94
4107.33
4116.96
4126.85
4137.02
4147.46
4158.16
4169.1
4180.2
4191.42
4068.64
4078.06
4087.6
4097.31
4107.25
4117.44
4127.93
4138.73
4149.86
4161.32
4173.08
4185.11
4197.34
4209.71
4065.94
4075.83
4085.86
4096.07
4106.51
4117.23
4128.27
4139.66
4151.43
4163.58
4176.1
4188.99
4202.18
4215.61
4229.19
4062.75
4073.09
4083.57
4094.23
4105.14
4116.35
4127.9
4139.83
4152.17
4164.96
4178.18
4191.85
4205.92
4220.36
4235.07
4249.97
4059.11
4069.87
4080.76
4091.84
4103.19
4114.83
4126.85
4139.27
4152.14
4165.49
4179.35
4193.72
4208.6
4223.95
4239.72
4255.82
4272.12
4055.05
4066.19
4077.46
4088.93
4100.67
4112.72
4125.15
4138.01
4151.35
4165.21
4179.63
4194.64
4210.23
4226.41
4243.14
4260.34
4277.93
4295.75
4050.6
4062.08
4073.71
4085.53
4097.62
4110.04
4122.84
4136.09
4149.85
4164.16
4179.08
4194.64
4210.87
4227.77
4245.34
4263.55
4282.31
4301.51
4321
4045.79
4057.59
4069.53
4081.67
4094.08
4106.83
4119.96
4133.56
4147.68
4162.38
4177.73
4193.76
4210.54
4228.07
4246.38
4265.46
4285.27
4305.72
4326.68
4347.99
4040.65
4052.74
4064.96
4077.39
4090.09
4103.12
4116.55
4130.45
4144.88
4159.92
4175.63
4192.06
4209.29
4227.36
4246.3
4266.13
4286.84
4308.39
4330.69
4353.59
4376.89
4035.21
4047.55
4060.03
4072.71
4085.67
4098.95
4112.64
4126.8
4141.5
4156.81
4172.82
4189.59
4207.19
4225.7
4245.16
4265.62
4287.08
4309.57
4333.02
4357.35
4382.39
4407.9
4029.5
4042.07
4054.77
4067.68
4080.85
4094.36
4108.26
4122.64
4137.57
4153.11
4169.37
4186.4
4204.3
4223.14
4243.01
4263.97
4286.06
4309.32
4333.74
4359.29
4385.86
4413.26
4441.23
4023.55
4036.31
4049.21
4062.32
4075.68
4089.37
4103.46
4118.02
4133.13
4148.86
4165.3
4182.54
4200.67
4219.77
4239.94
4261.27
4283.84
4307.72
4332.92
4359.47
4387.33
4416.39
4446.44
4477.14
4017.38
4030.31
4043.38
4056.65
4070.18
4084.03
4098.28
4112.98
4128.23
4144.11
4160.69
4178.07
4196.36
4215.64
4236.02
4257.6
4280.51
4304.84
4330.65
4357.99
4386.88
4417.31
4449.15
4482.15
4516.03
4011.01
4024.09
4037.31
4050.72
4064.39
4078.37
4092.73
4107.56
4122.91
4138.89
4155.57
4173.05
4191.42
4210.81
4231.32
4253.07
4276.18
4300.78
4327.01
4354.94
4384.63
4416.13
4449.42
4484.37
4520.79
4558.27
4004.49
4017.69
4031.03
4044.56
4058.33
4072.41
4086.87
4101.78
4117.21
4133.25
4149.98
4167.51
4185.93
4205.36
4225.92
4247.73
4270.94
4295.68
4322.13
4350.43
4380.68
4412.97
4447.36
4483.86
4522.4
4562.71
4604.24
3997.82
4011.12
4024.55
4038.17
4052.04
4066.2
4080.72
4095.69
4111.16
4127.23
4143.99
4161.52
4179.93
4199.35
4219.88
4241.68
4264.88
4289.65
4316.16
4344.6
4375.16
4407.97
4443.14
4480.78
4520.95
4563.58
4608.3
4654.49
3991.03
4004.41
4017.92
4031.61
4045.53
4059.75
4074.32
4089.31
4104.81
4120.88
4137.62
4155.12
4173.49
4192.83
4213.29
4234.99
4258.1
4282.78
4309.22
4337.63
4368.25
4401.29
4436.93
4475.31
4516.64
4561
4608.25
4658.03
4709.62
3984.14
3997.57
4011.14
4024.88
4038.85
4053.09
4067.69
4082.69
4098.18
4114.23
4130.92
4148.36
4166.64
4185.88
4206.2
4227.75
4250.68
4275.18
4301.43
4329.67
4360.14
4393.12
4428.89
4467.67
4509.69
4555.22
4604.31
4656.87
4712.54
4770.45
3977.16
3990.64
4004.24
4018.01
4032
4046.26
4060.86
4075.85
4091.31
4107.31
4123.93
4141.28
4159.44
4178.53
4198.68
4220.02
4242.72
4266.95
4292.91
4320.85
4351.01
4383.71
4419.27
4458.06
4500.36
4546.51
4596.76
4651.27
4710
4772.61
4837.96
3970.12
3983.63
3997.25
4011.03
4025.02
4039.27
4053.85
4068.81
4084.22
4100.16
4116.69
4133.92
4151.94
4170.85
4190.79
4211.88
4234.28
4258.18
4283.77
4311.29
4341.02
4373.26
4408.36
4446.76
4488.9
4535.19
4585.96
4641.59
4702.36
4768.32
4839.14
4913.31
3963.03
3976.54
3990.18
4003.95
4017.93
4032.16
4046.7
4061.61
4076.95
4092.8
4109.22
4126.31
4144.17
4162.88
4182.58
4203.38
4225.45
4248.96
4274.11
4301.13
4330.3
4361.94
4396.4
4434.13
4475.65
4521.56
4572.28
4628.27
4690.09
4758.13
4832.69
4913.31
4998
3955.91
3969.41
3983.04
3996.8
4010.75
4024.94
4039.43
4054.27
4069.53
4085.26
4101.56
4118.5
4136.16
4154.66
4174.1
4194.59
4216.3
4239.38
4264.03
4290.49
4319.01
4349.92
4383.59
4420.45
4461.03
4506.03
4556.11
4611.79
4673.74
4742.69
4819.26
4904.23
4996.57
5068.5
5070.14
3948.79
3962.25
3975.86
3989.6
4003.51
4017.65
4032.07
4046.82
4061.98
4077.59
4093.74
4110.5
4127.96
4146.22
4165.38
4185.55
4206.87
4229.5
4253.63
4279.46
4307.27
4337.36
4370.1
4405.93
4445.37
4489.1
4537.93
4592.61
4653.91
4722.68
4799.93
4886.51
4984.6
5068.75
5063.92
5119.78
5121.16
3941.67
3955.09
3968.65
3982.35
3996.21
4010.29
4024.63
4039.29
4054.33
4069.81
4085.8
4102.37
4119.62
4137.61
4156.47
4176.3
4197.22
4219.38
4242.96
4268.15
4295.2
4324.4
4356.13
4390.79
4428.92
4471.16
4518.33
4571.33
4631.16
4698.82
4775.44
4862.48
4949.18
4936.19
5056.36
4989.11
5045.19
5119.03
5113.36
5174.81
5175.81
3934.57
3947.93
3961.44
3975.08
3988.88
4002.88
4017.13
4031.69
4046.6
4061.93
4077.75
4094.13
4111.14
4128.88
4147.42
4166.89
4187.39
4209.07
4232.08
4256.62
4282.89
4311.18
4341.83
4375.24
4411.92
4452.51
4497.78
4548.64
4606.23
4671.83
4746.73
4832.49
4922
4905.45
4974.98
5104.33
5031.61
5091.85
5172.89
5166.12
5233.98
5234.53
3927.5
3940.79
3954.24
3967.81
3981.53
3995.45
4009.61
4024.04
4038.82
4053.99
4069.63
4085.8
4102.57
4120.03
4138.26
4157.37
4177.45
4198.63
4221.07
4244.93
4270.42
4297.79
4327.34
4359.46
4394.61
4433.41
4476.61
4525.1
4579.95
4642.6
4714.66
4797.87
4888.22
4868.98
4958.77
4940.6
5015.67
5155.59
5076.47
5141.41
5230.68
5222.6
5297.76
5297.83
3920.48
3933.69
3947.06
3960.55
3974.19
3988.01
4002.06
4016.37
4031
4046.01
4061.46
4077.41
4093.93
4111.11
4129.02
4147.75
4167.42
4188.12
4209.98
4233.17
4257.86
4284.3
4312.75
4343.57
4377.18
4414.13
4455.14
4501.08
4552.95
4612.13
4680.35
4759.68
4849.36
4827.92
4921.12
4900.2
4997.43
4977.21
5058.5
5210.4
5123.98
5194.23
5292.87
5283.23
5366.69
5366.24
3913.5
3926.62
3939.91
3953.31
3966.85
3980.57
3994.5
4008.68
4023.17
4038.01
4053.26
4068.99
4085.26
4102.14
4119.72
4138.09
4157.33
4177.54
4198.85
4221.39
4245.32
4270.83
4298.18
4327.69
4359.75
4394.86
4433.66
4476.94
4525.69
4581.16
4644.98
4719.28
4806.41
4783.43
4878.25
4855.12
4955.51
4932.44
5038.03
5015.48
5103.7
5269.08
5174.45
5250.6
5359.99
5348.48
5441.33
5440.37
3906.59
3919.61
3932.8
3946.11
3959.54
3973.15
3986.96
4001
4015.33
4030
4045.05
4060.54
4076.56
4093.15
4110.41
4128.4
4147.22
4166.95
4187.72
4209.62
4232.81
4257.45
4283.75
4311.98
4342.49
4375.76
4412.37
4453
4498.55
4550.19
4609.42
4678.17
4760.89
4737.38
4831.24
4806.61
4908.21
4882.9
4991.35
4965.84
5080.75
5055.57
5151.52
5332.01
5228.09
5310.79
5432.7
5418.93
5522.52
5520.97
3899.74
3912.67
3925.76
3938.95
3952.28
3965.76
3979.44
3993.34
4007.51
4021.99
4036.84
4052.1
4067.85
4084.16
4101.08
4118.71
4137.11
4156.38
4176.61
4197.9
4220.37
4244.18
4269.49
4296.52
4325.56
4357.02
4391.45
4429.47
4471.85
4519.66
4574.26
4637.34
4714.66
4691.39
4781.79
4756.72
4856.74
4829.99
4939.12
4911.34
5028.71
5000.44
5125.79
5097.64
5202.13
5399.68
5285.1
5375.21
5511.6
5495.17
5611.14
5608.8
3892.97
3905.79
3918.77
3931.86
3945.07
3958.43
3971.96
3985.71
3999.71
4014.01
4028.65
4043.68
4059.17
4075.17
4091.77
4109.03
4127.02
4145.83
4165.55
4186.25
4208.05
4231.05
4255.43
4281.34
4309.02
4338.8
4371.13
4406.59
4445.88
4489.9
4539.91
4597.4
4669.08
4646.44
4731.9
4707.23
4803
4775.99
4882.74
4853.67
4970.96
4940.45
5067.64
5036.29
5173.23
5141.7
5255.65
5472.62
5345.86
5444.35
5597.45
5577.96
5708.35
5705.05
3886.28
3898.99
3911.86
3924.83
3937.92
3951.14
3964.54
3978.13
3991.96
4006.07
4020.49
4035.29
4050.51
4066.22
4082.49
4099.38
4116.97
4135.33
4154.55
4174.69
4195.85
4218.12
4241.61
4266.47
4292.88
4321.11
4351.53
4384.6
4420.92
4461.29
4506.75
4558.8
4624.79
4602.96
4683.06
4659.2
4749.23
4722.89
4824.47
4795.44
4909.25
4877.83
5003.8
4970.4
5108.21
5073.51
5223.11
5187.78
5312.41
5551.47
5410.79
5518.7
5691.44
5668.34
5815.55
5811.04
3879.68
3892.27
3905.03
3917.88
3930.84
3943.93
3957.18
3970.61
3984.26
3998.18
4012.39
4026.95
4041.91
4057.32
4073.26
4089.78
4106.96
4124.88
4143.61
4163.22
4183.78
4205.36
4228.05
4251.95
4277.19
4304
4332.65
4363.56
4397.17
4434.15
4475.33
4521.89
4582.12
4561.64
4635.93
4613.02
4697.09
4671.83
4766.84
4738.83
4846.51
4815.53
4936.65
4903.02
5037.95
5001.82
5150.58
5112.54
5275.67
5236.25
5372.77
5637.03
5480.26
5598.81
5794.7
5767.25
5934.37
5928.29
3873.17
3885.64
3898.28
3911.01
3923.84
3936.79
3949.89
3963.16
3976.64
3990.35
4004.35
4018.67
4033.36
4048.48
4064.09
4080.25
4097.03
4114.5
4132.75
4151.83
4171.83
4192.78
4214.74
4237.78
4261.99
4287.51
4314.55
4343.46
4374.62
4408.56
4445.9
4487.54
4535.09
4590.83
4569.24
4647.14
4622.98
4711.45
4684.74
4785.08
4755.37
4869.57
4836.6
4965.63
4929.69
5074.1
5035.35
5195.38
5154.27
5331.42
5287.92
5437.2
5730.15
5554.8
5685.56
5908.49
5875.86
6066.94
6058.8
3866.75
3879.11
3891.63
3904.23
3916.92
3929.73
3942.68
3955.79
3969.09
3982.61
3996.39
4010.47
4024.9
4039.73
4055
4070.8
4087.18
4104.21
4121.98
4140.55
4159.99
4180.34
4201.64
4223.93
4247.24
4271.64
4297.28
4324.38
4353.31
4384.47
4418.4
4455.76
4497.82
4555.7
4534.72
4599.58
4577.14
4658.7
4633.3
4726.48
4698.42
4804.44
4773.21
4894.25
4859.57
4996.77
4958.9
5113.08
5071.98
5243.72
5199.81
5391.28
5344.21
5506.75
5832.06
5635.87
5780.68
6034.56
5995.63
6215.98
6205.15
3860.43
3872.66
3885.06
3897.54
3910.1
3922.77
3935.57
3948.51
3961.63
3974.95
3988.52
4002.36
4016.53
4031.06
4046.02
4061.45
4077.43
4094.03
4111.32
4129.38
4148.27
4168.05
4188.74
4210.35
4232.88
4256.33
4280.78
4306.34
4333.29
4361.96
4392.78
4426.3
4463.68
4515.04
4495.89
4562.94
4541.35
4608.79
4585.37
4671.13
4644.54
4742.91
4713.48
4825.8
4792.98
4921.64
4885.12
5031.4
4991.46
5156.32
5112.96
5297.2
5250.85
5457.05
5407.34
5583.74
5944.49
5726.38
5887.57
6175.07
6128.46
6384.89
6370.6
3854.21
3866.32
3878.6
3890.95
3903.38
3915.91
3928.55
3941.32
3954.26
3967.39
3980.74
3994.35
4008.26
4022.51
4037.14
4052.22
4067.81
4083.97
4100.78
4118.33
4136.68
4155.89
4176
4197
4218.85
4241.52
4264.97
4289.26
4314.54
4341.06
4369.14
4399.19
4432.16
4477.96
4460.95
4520.76
4501.04
4571.04
4548.6
4618.92
4594.45
4684.84
4656.94
4761.09
4730.05
4849.46
4814.74
4952.03
4913.25
5069.94
5027.39
5204.75
5158.42
5357.78
5308.17
5531.54
5479.28
5671.92
6071.05
5830.95
6011.92
6333.08
6278.66
6577.79
6559.15
3848.16
3860.07
3872.23
3884.46
3896.76
3909.14
3921.63
3934.24
3947
3959.94
3973.08
3986.45
4000.1
4014.07
4028.39
4043.12
4058.32
4074.05
4090.39
4107.42
4125.22
4143.87
4163.4
4183.83
4205.1
4227.12
4249.77
4273.03
4296.94
4321.67
4347.43
4374.52
4403.48
4436.95
4482.31
4464.09
4527.17
4506.72
4579.87
4556.45
4630.04
4604.39
4699.8
4670.33
4780.93
4747.95
4875.29
4838.28
4985.22
4943.7
5112.18
5066.32
5258.34
5207.98
5426
5371.63
5617.17
5560.54
5774.48
6218.76
5954.13
6160.13
6513.1
6454.36
6799.81
6775.79
3854
3865.97
3878.07
3890.24
3902.49
3914.82
3927.27
3939.85
3952.6
3965.52
3978.67
3992.07
4005.76
4019.77
4034.17
4048.98
4064.29
4080.16
4096.68
4113.92
4131.99
4150.94
4170.81
4191.55
4213.03
4235.09
4257.55
4280.37
4303.63
4327.49
4352.13
4377.83
4406.44
4450.67
4433.74
4487.2
4468.46
4534.11
4512.83
4589.2
4564.65
4641.99
4614.97
4715.73
4684.44
4802.19
4766.89
4903.02
4863.31
5020.87
4976.04
5157.65
5107.71
5316.61
5261.07
5501.62
5440.76
5714.73
5651.04
5892.36
6396.46
6097.94
6335.03
6722.92
6666.86
7058.14
7027.88
3859.88
3871.78
3883.83
3895.94
3908.13
3920.42
3932.82
3945.37
3958.09
3971.01
3984.17
3997.58
4011.3
4025.36
4039.81
4054.71
4070.12
4086.11
4102.8
4120.27
4138.61
4157.9
4178.13
4199.16
4220.78
4242.7
4264.73
4286.83
4309.14
4331.77
4354.89
4379.52
4417.92
4403.3
4454.79
4437.47
4492.51
4473.12
4541.32
4519.12
4598.71
4572.91
4654.45
4625.89
4732.38
4699.01
4824.51
4786.47
4932.11
4889.24
5058.22
5009.57
5205.58
5150.7
5378.89
5316.74
5584.27
5514.92
5824.51
5750.36
6026.64
6611.03
6264.89
6468.98
6508.75
6975.34
6926.16
7363.12
7329.18
3865.68
3877.52
3889.51
3901.55
3913.68
3925.91
3938.28
3950.79
3963.49
3976.4
3989.55
4002.98
4016.72
4030.81
4045.31
4060.27
4075.76
4091.88
4108.74
4126.45
4145.11
4164.78
4185.39
4206.71
4228.34
4249.89
4271.16
4292.22
4313.23
4334.28
4355.84
4382.85
4421.23
4405.72
4459.18
4441.48
4497.99
4478
4548.46
4525.27
4608.03
4580.83
4667.13
4636.81
4749.37
4713.65
4847.34
4806.21
4962
4915.53
5096.62
5043.57
5255.04
5194.43
5444.09
5374.04
5673.34
5593.23
5947.88
5810.04
5854.93
6163.86
6118.63
6618.69
6819.09
6781.1
6429.03
6382.16
6244.91
6577.93
7286.93
6954.11
7142.16
7175.86
7738.99
7708.11
3871.41
3883.18
3895.09
3907.07
3919.13
3931.31
3943.62
3956.1
3968.77
3981.67
3994.81
4008.24
4022
4036.11
4050.64
4065.64
4081.21
4097.44
4114.48
4132.45
4151.49
4171.63
4192.69
4214.24
4235.66
4256.48
4276.64
4296.32
4315.72
4334.96
4357.46
4394.33
4380.67
4424.85
4409.14
4463.57
4445.53
4503.36
4482.81
4555.15
4530.95
4616.69
4587.95
4679.59
4647.25
4766.17
4727.75
4870.05
4825.43
4991.77
4941.26
5134.95
5076.96
5304.97
5237.62
5515.71
5474.72
5437.37
5397.46
5767.74
5721.18
5549.1
5629.03
5677.08
5912.45
6074.23
6023.94
5865.34
6197.36
6740.93
6917.1
6532.18
6481.58
6333.08
6695.26
7342.19
7591.81
7561.84
7107.02
7312.25
8235.6
7798.87
8065.46
8095.93
3877.06
3888.76
3900.58
3912.48
3924.48
3936.59
3948.85
3961.29
3973.93
3986.8
3999.94
4013.37
4027.12
4041.23
4055.77
4070.79
4086.41
4102.76
4119.99
4138.3
4157.83
4178.57
4200.16
4221.78
4242.58
4262.24
4280.9
4298.93
4316.5
4335.38
4361.8
4397.56
4383.21
4428.6
4412.63
4467.65
4449.36
4508.32
4487.25
4560.98
4535.83
4624.08
4593.7
4691.19
4656.58
4782.08
4740.59
4891.83
4843.38
5020.58
4965.72
5172.28
5109.12
5361.2
5323
5287.84
5251.26
5507.53
5466.56
5425.54
5817.66
5768.44
5584.33
5668.96
5719.02
5973.79
6147.06
6093.38
5921.95
6280.3
6872.71
7064.79
6643.82
6426.83
6587.2
6821.46
7534.03
7777.3
7272.89
7498.37
8362.5
8725.29
8710.13
8045.16
8344.69
3882.65
3894.23
3905.96
3917.78
3929.7
3941.75
3953.96
3966.35
3978.95
3991.8
4004.92
4018.32
4032.05
4046.14
4060.66
4075.68
4091.34
4107.79
4125.27
4144.04
4164.27
4185.81
4207.8
4229.07
4248.74
4266.78
4283.69
4299.97
4316.34
4338.1
4372.77
4360.17
4400.83
4386.41
4432.21
4416.07
4471.21
4452.76
4512.55
4491.08
4565.47
4539.49
4629.51
4597.46
4701.2
4664.11
4796.36
4751.4
4911.98
4859.31
5047.95
4988.51
5217.25
5182.48
5149.41
5116.18
5386.01
5346.95
5309.13
5271.84
5539.95
5496.1
5452.89
5869.4
5815.92
5620.15
5708.46
5762.04
6037.51
6224.34
6165.21
5980.12
6367.98
7014.61
7224.51
6763.48
6526.01
6699.56
6956.67
7744.59
8015.78
7452.81
7701.43
8686.13
9072.08
9058.75
8315.46
8652.41
3888.13
3899.59
3911.23
3922.96
3934.8
3946.77
3958.92
3971.26
3983.83
3996.65
4009.73
4023.09
4036.78
4050.81
4065.28
4080.27
4095.94
4112.53
4130.35
4149.82
4171.01
4193.21
4215.15
4235.51
4253.6
4269.77
4284.97
4299.77
4317.5
4342.74
4375.63
4362.42
4403.95
4389.43
4435.5
4419.27
4474.04
4455.56
4515.74
4494
4568.12
4541.57
4632.26
4598.65
4708.87
4669.07
4808.19
4759.34
4929.93
4872.5
5083.85
5051.87
5020.06
4989.3
5235.76
5200.2
5165.48
5131.17
5411.02
5370.27
5330.63
5292
5572.36
5525.59
5479.95
5922.32
5863.94
5655.87
5747.76
5805.45
6103.27
6305.53
6239.83
6039.94
6460.18
7167.32
7397.07
6891.31
6630.7
6819.24
7101.55
7974.75
8275.19
7647.54
7921.75
9024.26
9418.79
9406.21
8608.39
8976.79
3893.5
3904.83
3916.37
3928.01
3939.76
3951.66
3963.74
3976.03
3988.56
4001.33
4014.35
4027.65
4041.26
4055.2
4069.57
4084.5
4100.17
4116.93
4135.34
4155.76
4177.73
4200.15
4221.54
4240.52
4256.73
4271.16
4284.99
4299.88
4320.82
4352.41
4340.83
4378.24
4364.97
4406.74
4392.16
4438.3
4422.08
4475.99
4457.65
4517.59
4495.85
4568.5
4541.74
4631.76
4596.98
4713.37
4670.72
4816.85
4763.8
4945.17
4882.71
5097.46
5064.05
5030.9
4997.93
5254.43
5217.62
5181.48
5145.86
5435.93
5393.4
5352.13
5312.09
5604.61
5554.89
5506.81
5976.33
5912.61
5691.29
5787.1
5849.27
6171.4
6390.29
6317.21
6101.55
6556.94
7331.43
7582.8
7027.71
6741.38
6946.47
7256.23
8223.09
8553.51
7857.24
8158.59
9366.46
9747.94
9742.13
8917.73
9308.97
3898.73
3909.95
3921.39
3932.92
3944.59
3956.41
3968.42
3980.65
3993.12
4005.83
4018.78
4031.99
4045.48
4059.29
4073.51
4088.29
4103.96
4121.12
4140.39
4161.64
4183.97
4206.07
4226.44
4243.73
4258.14
4271.33
4284.63
4301.68
4324.61
4354.48
4342.36
4380.48
4367.16
4409.07
4394.46
4440.52
4424.38
4477.02
4458.99
4517.92
4496.51
4566.57
4540.1
4628.32
4592.98
4714.36
4669
4822.7
4765.6
4972.38
4939.45
4873.99
4905.9
5110.72
5075.87
5041.26
5006.8
5273.11
5234.92
5197.35
5160.34
5460.75
5416.5
5373.72
5332.24
5636.61
5584.02
5533.58
6031.53
5962.04
5726.55
5826.51
5893.52
6241.7
6478.82
6397.51
6164.76
6658.44
7507.1
7781.47
7172.46
6858.32
7080.78
7421
8487.63
8847.46
8081.73
8410.11
9706.14
10077.9
10076.4
9237.17
9643.84
3903.84
3914.94
3926.26
3937.69
3949.26
3961
3972.95
3985.12
3997.52
4010.15
4023.01
4036.1
4049.42
4063.01
4076.98
4091.59
4107.46
4125.37
4145.54
4167.16
4189.25
4210.66
4229.71
4245.21
4258.27
4270.8
4285.07
4304.23
4332.38
4321.63
4356.15
4343.96
4382.22
4368.89
4410.79
4396.18
4442.08
4426.06
4477.15
4459.51
4516.85
4496.09
4562.84
4537.09
4623.13
4587.57
4712.92
4665.11
4841.88
4811.89
4766.2
4980.42
4945.77
4877.77
4911.41
5123.77
5087.49
5051.55
5015.85
5291.8
5252.14
5213.1
5174.68
5485.6
5439.72
5395.43
5352.46
5668.43
5613.05
5560.38
6087.78
6012.07
5761.74
5865.96
5937.98
6314.13
6571.18
6480.88
6229.44
6764.87
7694.22
7993.05
7325.93
6981.58
7222.55
7596.22
8766.37
9153.01
8320.15
8674.43
10044.7
10409.5
10410.5
9562.49
9980.21
3908.81
3919.77
3930.98
3942.3
3953.77
3965.43
3977.31
3989.42
4001.75
4014.3
4027.04
4039.94
4053.01
4066.29
4079.92
4094.52
4111.08
4129.96
4150.46
4171.79
4193.34
4213.88
4231.43
4245.31
4257.55
4270.28
4286.16
4306.19
4333.28
4322.08
4357.21
4344.97
4383.31
4369.99
4411.73
4397.2
4442.83
4426.93
4476.28
4458.99
4514.69
4494.67
4557.82
4532.78
4616.2
4580.14
4710.2
4659.61
4844.77
4812.91
4780.93
4750.5
4988.14
4952.16
4881.57
4916.61
5136.7
5099.01
5061.74
5024.76
5310.5
5269.28
5228.71
5188.82
5510.58
5463.11
5417.27
5372.72
5700.2
5642.12
5587.31
6145.1
6062.73
5797.03
5905.73
5982.75
6388.93
6667.5
6567.64
6296.14
6876.87
7892.78
8217.61
7488.71
7111.78
7372.73
7781.83
9057.27
9466.59
8570.68
8950.3
10383
10728.1
10733.3
9891.64
10317.6
3913.63
3924.45
3935.53
3946.73
3958.1
3969.69
3981.51
3993.57
4005.83
4018.27
4030.82
4043.46
4056.19
4069.03
4082.42
4097.63
4115.27
4134.53
4154.6
4175.25
4196.12
4215.68
4231.63
4244.25
4256.21
4269.9
4287.03
4312.02
4302.02
4333.75
4322.61
4357.58
4345.4
4383.57
4370.31
4411.75
4397.37
4442.53
4426.79
4473.89
4456.93
4511.18
4491.84
4550.62
4526.19
4606.72
4570.04
4720.41
4693.29
4651.4
4847.26
4813.84
4780.43
4748.28
4995.36
4957.97
4884.63
4921.06
5149.37
5110.26
5071.64
5033.34
5329.14
5286.28
5244.06
5202.58
5535.74
5486.64
5439.16
5392.91
5732.13
5671.35
5614.39
6204.15
6114.61
5832.76
5946.12
6028.33
6466.58
6768.82
6658.82
6365.36
6995.49
8103.18
8454.08
7660.96
7249.68
7531.57
7977.93
9357.83
9785.84
8831.89
9236.78
10714.6
11037.6
11043.8
10223.4
10652
3918.29
3928.96
3939.9
3950.99
3962.27
3973.8
3985.57
3997.57
4009.74
4022.01
4034.32
4046.62
4058.88
4071.28
4085.05
4101.54
4119.72
4138.44
4157.58
4177.36
4197.4
4215.77
4230.1
4242
4254.46
4269.39
4287.07
4311.94
4301.58
4333.7
4322.61
4357.26
4345.23
4382.9
4369.82
4410.65
4396.51
4440.78
4425.38
4469.3
4452.93
4505.34
4486.67
4540.91
4517.17
4608.49
4587.89
4557.17
4717.68
4689.28
4631.52
4656.25
4848.97
4814.24
4778.28
4745.04
5001.41
4962.43
4886.23
4924.04
5161.61
5120.94
5080.78
5040.95
5347.55
5302.89
5258.9
5215.6
5561
5510.18
5460.91
5412.74
5764.46
5700.78
5641.51
6265.34
6168.21
5869.01
5987.58
6075.3
6548.07
6876.09
6755.29
6437.85
7121.28
8324.9
8700.93
7842.94
7395.77
7699.89
8184.53
9666.06
10109.6
9103.39
9532.73
11035.8
11339.7
11343.8
10555.4
10979.6
3922.78
3933.29
3944.09
3955.06
3966.27
3977.75
3989.49
4001.42
4013.46
4025.51
4037.5
4049.35
4061.08
4073.55
4088.7
4106.07
4123.71
4141.23
4159.19
4178
4196.89
4213.58
4226.78
4238.96
4252.58
4268.51
4291.45
4281.93
4311.55
4301.3
4333.11
4322.15
4356.27
4344.48
4381.28
4368.52
4408.3
4394.55
4437.38
4422.55
4462.78
4447.28
4497.05
4479.21
4528.88
4506.21
4602.05
4581.35
4555.62
4539.05
4713.65
4684.14
4625.04
4650.18
4849.22
4813.19
4774.1
4740.04
5005.63
4964.91
4885.69
4924.91
5172.82
5130.42
5088.52
5046.93
5365.42
5318.74
5272.65
5227.24
5586.17
5533.44
5482.15
5431.92
5797.13
5730.34
5668.51
6329.31
6224.28
5905.88
6030.9
6124.53
6634.32
6990
6857.99
6514.45
7255.32
8557.02
8957.63
8034.94
7551.27
7878.13
8401.59
9980.93
10436.6
9385.57
9837.55
11341.3
11638.6
11638.9
10884.6
11296.1
3927.08
3937.43
3948.08
3958.95
3970.11
3981.56
3993.27
4005.12
4016.99
4028.76
4040.34
4051.65
4063.15
4076.84
4093.42
4110.44
4126.71
4142.66
4159.42
4177.11
4194.4
4209.5
4222.65
4235.93
4250.77
4267.3
4290.79
4281.1
4310.8
4300.66
4332.03
4321.26
4354.64
4343.16
4378.79
4366.5
4404.75
4391.53
4432.54
4418.4
4454.98
4440.5
4487.23
4470.42
4525.4
4512.82
4493.91
4594.79
4574.12
4548.27
4532.24
4707.97
4677.95
4617.63
4642.67
4847.35
4810.02
4767.67
4732.97
5007.45
4964.9
4882.55
4923.21
5182.45
5138.08
5094.16
5050.62
5382.38
5333.27
5284.76
5236.97
5610.88
5555.97
5502.52
5449.97
5830.04
5759.87
5695.17
6396.96
6283.68
5943.77
6075.98
6176.4
6726.37
7112.06
6968.25
6596.17
7398.53
8799.28
9225.26
8237.36
7716.41
8066.41
8629.71
10301.6
10765.7
9678.68
10150.8
11632.8
11941.9
11937.5
11210.1
11600.1
3931.18
3941.34
3951.85
3962.64
3973.78
3985.25
3996.94
4008.69
4020.33
4031.73
4042.8
4053.71
4066.05
4081.61
4098.35
4114.13
4128.56
4142.92
4158.51
4174.95
4190.77
4205.19
4218.98
4233.44
4249.25
4266.28
4290
4280.47
4309.74
4299.75
4330.51
4319.99
4352.43
4341.32
4375.59
4363.84
4400.25
4387.7
4426.65
4413.25
4446.72
4433.15
4476.45
4461.02
4518.31
4506.21
4480.16
4489.54
4586.65
4566.36
4540.75
4525.18
4700.42
4670.26
4609.1
4633.74
4842.94
4804.47
4758.98
4723.84
5006.35
4962.01
4876.59
4918.65
5189.87
5143.25
5097.04
5051.4
5397.77
5345.87
5294.6
5244.12
5634.86
5577.47
5521.49
5466.08
5863.29
5789.44
5721.47
6469.11
6347.06
5982.7
6123.13
6231.46
6825.36
7242.83
7086.72
6684.52
7550.78
9052.76
9505.42
8451.04
7890.71
8265.36
8869.42
10628.2
11097.2
9982.83
10472.4
11923.3
12258.3
12249.9
11533.1
11904.1
3935.05
3945.01
3955.38
3966.15
3977.34
3988.86
4000.53
4012.12
4023.45
4034.39
4045
4056.3
4070.57
4087.01
4102.92
4116.93
4129.64
4142.7
4157.08
4172.31
4187.28
4201.72
4216.32
4231.83
4248.48
4270.46
4279.84
4261.82
4289.12
4308.4
4298.64
4328.62
4318.4
4349.76
4339.07
4371.91
4360.7
4395.21
4383.4
4420.07
4407.41
4438.21
4425.58
4465.34
4451.32
4511.48
4499.6
4474.01
4482.87
4577.78
4558.22
4532.9
4517.88
4691.05
4660.95
4599.52
4623.55
4835.82
4796.46
4748.04
4712.7
5001.88
4955.89
4867.71
4911.07
5194.41
5145.29
5096.64
5048.8
5410.76
5355.69
5301.34
5247.85
5657.89
5597.28
5538.12
5479.18
5896.9
5818.7
5746.66
6547.22
6415.31
6022.7
6172.93
6290.22
6932.07
7382.12
7212.93
6779.79
7711.02
9319.29
9798.52
8676.21
8074.52
8475.04
9121.65
10962.4
11435.1
10297.8
10805.3
12234.2
12634.9
12612
11864.4
12236.9
3938.64
3948.38
3958.68
3969.51
3980.84
3992.43
4004.04
4015.39
4026.3
4036.77
4047.43
4060.35
4076.17
4092.33
4106.73
4119.1
4130.62
4142.7
4156.06
4170.33
4184.91
4199.77
4215.27
4231.79
4249.23
4279.29
4270.45
4262.13
4288.28
4306.95
4297.5
4326.49
4316.61
4346.8
4336.56
4367.85
4357.22
4389.87
4378.71
4413.28
4401.37
4429.57
4417.85
4460.97
4453.84
4441.62
4504.55
4492.9
4468.26
4476.72
4568.29
4549.65
4524.84
4510.49
4679.98
4650.22
4589.05
4612.26
4825.91
4785.89
4734.96
4699.68
4993.68
4946.27
4856
4900.32
5195.26
5143.54
5092.49
5042.43
5420.25
5361.65
5303.95
5247.27
5678.97
5614.21
5550.84
5487.76
5930.68
5846.97
5769.63
6631.09
6487.84
6064.19
6225.07
6352.14
7045.26
7528.48
7345.01
6879.97
7879.56
9599.54
10104.3
8913.29
8268.32
8695.83
9387.5
11309.3
11789.1
10626.2
11155.2
12609.3
13150.6
13101.1
12226.5
12639.1
3941.89
3951.45
3961.78
3972.81
3984.31
3995.93
4007.39
4018.4
4028.85
4039.2
4050.99
4065.81
4081.96
4096.97
4109.77
4121.02
4131.89
4143.46
4156.26
4170.1
4184.75
4200.16
4216.51
4233.64
4250.59
4278.93
4270.36
4262.29
4287.59
4305.52
4296.46
4324.21
4314.77
4343.57
4333.8
4363.62
4353.51
4384.47
4373.93
4406.41
4395.28
4420.97
4410.06
4455.23
4448.39
4431.74
4437.58
4497.71
4486.47
4462.49
4470.75
4558.41
4540.79
4516.68
4503.12
4667.36
4638.24
4578.03
4600.17
4813.42
4772.94
4720.16
4685.22
4981.67
4933.07
4841.48
4886.34
5191.69
5137.35
5084.08
5032.05
5424.8
5362.46
5301.28
5241.39
5696.6
5626.39
5557.81
5490.05
5964.36
5873.56
5789.27
6718.35
6562.38
6105.9
6270.75
6414.19
7162.7
7681.3
7480.92
6983.35
8057.36
9893.32
10425.2
9163.32
8472.14
8928.05
9667.53
11676.8
12174.1
10974.2
11529.1
13107.1
13775.6
13737.1
12647.9
13138.6
3944.71
3954.2
3964.75
3976.04
3987.66
3999.25
4010.49
4021.09
4031.31
4042.37
4056
4071.72
4087.2
4100.7
4112.32
4122.95
4133.61
4145.2
4157.99
4171.92
4186.86
4202.73
4219.27
4235.71
4251.15
4262.31
4278.55
4270.13
4286.91
4304.11
4295.43
4321.92
4312.94
4340.31
4331.04
4359.3
4349.73
4378.95
4369.03
4399.43
4389.08
4426.91
4417.26
4412.13
4402.22
4449.94
4443.47
4432.67
4490.96
4480.19
4457.05
4465.05
4548.28
4531.7
4508.54
4495.82
4653.5
4625.23
4566.7
4587.56
4798.53
4757.97
4703.95
4669.63
4965.88
4916.51
4824.35
4869.37
5182.93
5126.12
5070.94
5017.41
5422.93
5356.83
5292.24
5229.32
5709.06
5632.18
5557.78
5485.19
5995.37
5889.43
5795.95
6798.96
6627.07
6139.9
6336.04
6472.48
7281.78
7842.14
7618.23
7088.35
8244.77
10202.7
10765.7
9428.2
8684.88
9175.35
9962.17
12075.9
12608.8
11347.1
11933.9
13714.5
14331.5
14353.9
13145.6
13723.5
3947.02
3956.69
3967.58
3979.12
3990.83
4002.34
4013.29
4023.58
4034.25
4046.83
4061.73
4077.28
4091.46
4103.7
4114.58
4124.98
4135.88
4147.8
4160.88
4175.07
4190.2
4205.92
4221.7
4236.92
4254.69
4262.24
4262.02
4247.9
4278.07
4269.8
4286.14
4302.67
4294.35
4319.65
4311.1
4337.04
4328.29
4354.87
4345.9
4373.27
4363.98
4392.35
4382.73
4422.52
4412.91
4407.76
4394.37
4444.87
4438.55
4428.04
4484.35
4474.12
4451.81
4459.55
4538
4522.55
4500.5
4488.63
4638.76
4611.47
4555.17
4574.65
4781.52
4741.32
4686.64
4653.19
4946.32
4896.78
4804.96
4849.66
5168.25
5109.29
5052.68
4998.32
5413.99
5344.36
5276.66
5211.13
5711.11
5629.93
5551.6
5475.72
6025.79
5926.16
5786.48
6898.8
6643.79
6145.59
6314.65
6495.14
7400.6
8010.86
7776.33
7210.56
8441.09
10531.2
11131
9707.42
8902.59
9445.72
10274.2
12518.6
13107.4
11749.8
12377.7
14354.5
14783.1
14921.8
13717.5
14367.3
3948.8
3958.97
3970.29
3982.06
3993.82
4005.18
4015.84
4026.34
4038.19
4052.13
4067.3
4081.9
4094.81
4106.17
4116.64
4127.24
4138.58
4150.91
4164.28
4178.55
4193.41
4208.49
4223.33
4237.55
4261.75
4254.55
4269.38
4247.77
4277.48
4285.27
4301.12
4293.15
4317.31
4309.18
4333.74
4325.5
4350.4
4342.04
4367.45
4358.86
4385.12
4376.2
4418.13
4408.68
4403.76
4399.4
4390.51
4386.22
4440.04
4433.84
4423.57
4477.9
4468.23
4446.8
4454.25
4527.78
4513.5
4492.59
4481.6
4623.38
4597.23
4543.64
4561.64
4762.8
4723.31
4668.37
4636.12
4923.23
4873.98
4783.47
4827.35
5148.02
5087.43
5029.94
4975.29
5401.58
5329.4
5259.4
5191.71
5703.06
5622.62
5544.17
5467.78
6037.21
5906.08
5782.44
6873.8
6639.58
6141.77
6309.98
6491.57
7450.44
8197.63
7755.03
7191.63
8650.25
10884.2
11526
10000.7
9002.51
9726.48
9311.88
10610.5
13016.7
13670.8
12187.5
12869.1
15017.5
15338.2
15686.4
14355.9
15072.2
3950.32
3961.17
3972.91
3984.87
3996.62
4007.8
4018.45
4029.87
4042.98
4057.5
4072.09
4085.52
4097.44
4108.2
4118.72
4129.71
4141.46
4154.09
4167.54
4181.59
4195.98
4210.36
4224.4
4237.85
4268.89
4261.41
4254.34
4276.81
4247.71
4284.32
4299.51
4291.89
4314.9
4307.19
4330.37
4322.63
4345.89
4338.13
4361.54
4353.68
4377.7
4369.53
4413.83
4404.41
4395.25
4386.44
4382.11
4435.43
4429.31
4419.24
4471.61
4462.51
4442
4449.17
4517.71
4504.6
4484.92
4474.82
4607.52
4582.71
4532.21
4548.66
4742.38
4703.93
4649.22
4618.54
4896.98
4848.07
4759.82
4802.37
5126.49
5062.92
5004.08
4949.3
5392.93
5320.07
5249.62
5181.63
5698.78
5618.17
5539.61
5463.17
6033.59
5901.81
5778.57
6868.84
6635.32
6137.89
6305.59
6487.7
7446.61
8182.1
7748.82
7185.86
8634.41
11276
11953.8
10317.6
8997.73
9727.58
9301.77
10973
13572
14298.1
12665.8
13412.6
15840.6
17965.5
17010.3
15064.1
15891.9
3951.87
3963.38
3975.48
3987.56
3999.25
4010.37
4021.63
4034.15
4047.99
4062.28
4075.93
4088.33
4099.51
4110.1
4120.9
4132.25
4144.28
4157.02
4170.35
4184.07
4197.95
4211.69
4225.07
4237.91
4247.57
4276.08
4268.34
4261.03
4254.09
4283.32
4297.89
4290.6
4312.49
4305.2
4327
4319.76
4341.34
4334.2
4355.58
4348.46
4370.17
4362.77
4409.58
4400.19
4391.03
4382.25
4378.08
4430.99
4424.95
4415.01
4465.55
4457.02
4437.42
4444.33
4507.87
4495.91
4477.6
4468.36
4591.39
4568.11
4521.02
4535.91
4720.18
4683.23
4629.21
4600.53
4870.17
4820.14
4733.79
4774.6
5116.04
5031.82
4978.86
4923.86
5388.3
5315.45
5245.01
5177.11
5694.84
5614.18
5535.59
5459.19