/*--------------------------------*- C++ -*----------------------------------*\
  =========                 |
  \\      /  F ield         | OpenFOAM: The Open Source CFD Toolbox
   \\    /   O peration     | Website:  https://openfoam.org
    \\  /    A nd           | Version:  dev
     \\/     M anipulation  |
\*---------------------------------------------------------------------------*/
FoamFile
{
    version     2.0;
    format      ascii;
    class       volScalarField;
    location    "2500";
    object      H2O;
}
// * * * * * * * * * * * * * * * * * * * * * * * * * * * * * * * * * * * * * //

dimensions      [0 0 0 0 0 0 0];

internalField   nonuniform List<scalar> 
9836
(
2.80573e-29
9.5969e-29
4.63062e-29
1.89744e-28
2.45238e-28
5.54107e-29
2.68588e-28
4.47317e-28
2.54489e-28
3.24304e-29
3.32455e-28
7.46e-28
6.13032e-28
1.82175e-28
1.01051e-29
2.42622e-28
1.06703e-27
1.17533e-27
5.44819e-28
1.24407e-28
7.49335e-30
4.79432e-28
1.66687e-27
1.8596e-27
1.30758e-27
3.38489e-28
6.32394e-29
2.53972e-30
5.49518e-28
1.80456e-27
3.05531e-27
2.04842e-27
1.13747e-27
2.3712e-28
1.70964e-29
1.03654e-30
3.30764e-28
2.42282e-27
4.39443e-27
4.0127e-27
1.85407e-27
6.62243e-28
8.03724e-29
7.51882e-30
2.56478e-31
1.71857e-28
1.95358e-27
5.32642e-27
5.95015e-27
4.19497e-27
1.75536e-27
3.1824e-28
3.04651e-29
1.76429e-30
4.96783e-32
2.32437e-28
2.10654e-27
5.17386e-27
7.94609e-27
6.13935e-27
3.34551e-27
1.2183e-27
1.66648e-28
1.47859e-29
5.77467e-31
1.75227e-32
3.11274e-28
2.07699e-27
4.77812e-27
1.13933e-26
1.06711e-26
5.97368e-27
2.11885e-27
6.97388e-28
5.49815e-29
5.22526e-30
1.34804e-31
4.03146e-33
3.26385e-28
1.63811e-27
6.39323e-27
1.39555e-26
1.46127e-26
1.07957e-26
4.7627e-27
1.56417e-27
1.91485e-28
1.62358e-29
1.50669e-30
2.85016e-32
1.37825e-33
5.94891e-28
2.10389e-27
7.58264e-27
1.60369e-26
2.00515e-26
1.68573e-26
8.30842e-27
3.35838e-27
9.11753e-28
7.00674e-29
5.4298e-30
2.87894e-31
1.45129e-32
1.58059e-34
9.2003e-28
3.99098e-27
9.25479e-27
1.69741e-26
2.54494e-26
2.39487e-26
1.67798e-26
6.72274e-27
2.21564e-27
3.62851e-28
2.52751e-29
2.55788e-30
1.28672e-31
3.07429e-33
4.63742e-35
1.1793e-27
5.35557e-27
1.35225e-26
2.31852e-26
3.32914e-26
3.34833e-26
2.31628e-26
1.28306e-26
4.62987e-27
1.29279e-27
1.20367e-28
1.07832e-29
9.47963e-31
3.78043e-32
1.1281e-33
3.8146e-35
2.79424e-27
1.31427e-26
2.0723e-26
3.25728e-26
4.35437e-26
4.51334e-26
3.73502e-26
2.11507e-26
9.00829e-27
2.8183e-27
5.35581e-28
4.55854e-29
4.41419e-30
2.87303e-31
1.25636e-32
1.07051e-33
1.63545e-34
5.83232e-27
2.93386e-26
3.25197e-26
5.31629e-26
5.61613e-26
6.35359e-26
5.33736e-26
3.36911e-26
1.76482e-26
5.99909e-27
1.592e-27
2.11047e-28
1.88428e-29
1.54911e-30
9.87398e-32
6.87295e-33
4.19101e-33
2.66268e-33
1.20072e-26
5.97904e-26
8.93698e-26
1.23977e-25
9.98479e-26
9.81023e-26
7.24566e-26
5.55437e-26
2.68217e-26
1.21325e-26
3.53088e-27
7.97374e-28
1.03427e-28
5.50861e-30
5.6869e-31
4.05211e-32
3.29568e-32
1.89646e-32
1.38014e-32
7.57239e-27
6.88251e-26
1.93657e-25
2.42384e-25
2.17824e-25
1.55447e-25
1.17859e-25
8.33389e-26
4.7757e-26
2.12819e-26
8.61011e-27
1.82718e-27
3.0996e-28
4.2192e-29
2.57909e-30
1.54801e-31
1.76318e-31
2.70131e-31
1.67028e-31
1.52854e-31
1.88066e-26
8.92063e-26
3.27847e-25
5.99354e-25
5.36897e-25
3.67402e-25
2.08194e-25
1.32124e-25
8.19322e-26
3.33106e-26
1.60568e-26
4.52779e-27
7.07512e-28
1.23036e-28
1.49481e-29
7.73111e-31
6.75079e-31
1.3928e-30
1.8456e-30
1.69192e-30
5.72673e-31
2.42553e-26
1.79709e-25
6.72683e-25
8.56993e-25
1.13955e-24
8.38117e-25
4.10841e-25
2.07681e-25
1.32726e-25
7.07607e-26
2.45515e-26
1.00459e-26
2.36944e-27
2.95582e-28
5.24906e-29
6.40773e-30
2.08127e-30
5.59204e-30
8.52829e-30
1.04555e-29
1.12462e-29
6.01796e-30
4.37571e-26
4.67799e-25
9.35785e-25
1.82565e-24
2.22588e-24
1.62477e-24
9.66791e-25
4.48339e-25
2.18965e-25
1.20284e-25
4.60536e-26
1.82106e-26
4.90765e-27
1.27757e-27
1.25531e-28
2.24383e-29
1.21833e-29
2.25393e-29
4.07123e-29
4.42199e-29
5.5599e-29
5.35701e-29
3.4973e-29
1.294e-25
4.46496e-25
1.89209e-24
2.12835e-24
3.3726e-24
4.63034e-24
2.56925e-24
9.64774e-25
3.97265e-25
1.98638e-25
1.02948e-25
3.60352e-26
1.18261e-26
2.86267e-27
4.79233e-28
4.6959e-29
3.08184e-29
7.19907e-29
1.81772e-28
2.29105e-28
3.60976e-28
5.40479e-28
6.17049e-28
2.17432e-28
9.1986e-26
9.68901e-25
3.22617e-24
4.96186e-24
5.41688e-24
8.62112e-24
5.15361e-24
3.02687e-24
9.41386e-25
4.15995e-25
1.6112e-25
7.28707e-26
2.30949e-26
7.28628e-27
1.25805e-27
2.53402e-28
8.12189e-29
2.67964e-28
7.21067e-28
1.31242e-27
2.47529e-27
4.59784e-27
4.55717e-27
5.79271e-27
6.49112e-27
3.65261e-25
1.89817e-24
5.24279e-24
8.33773e-24
1.17192e-23
1.83876e-23
1.15954e-23
5.42894e-24
2.79363e-24
9.09435e-25
3.52292e-25
1.22971e-25
5.03307e-26
1.56375e-26
2.775e-27
6.84407e-28
4.14084e-28
7.52502e-28
2.0986e-27
5.90552e-27
8.34884e-27
1.70528e-26
3.87358e-26
4.49432e-26
6.60785e-26
1.03426e-25
8.14e-25
4.52832e-24
1.54758e-23
1.97969e-23
1.70635e-23
3.02903e-23
2.87594e-23
1.38351e-23
5.94209e-24
2.08297e-24
7.73952e-25
2.58704e-25
9.72705e-26
3.24049e-26
7.97651e-27
1.91728e-27
1.20817e-27
3.12425e-27
5.73125e-27
2.11826e-26
6.94735e-26
1.15473e-25
2.19066e-25
6.33726e-25
9.88811e-25
1.69967e-24
1.37587e-24
1.04158e-24
7.82706e-24
2.04371e-23
4.89345e-23
4.38448e-23
4.28516e-23
4.7401e-23
4.63516e-23
1.37235e-23
5.82368e-24
1.88433e-24
6.25671e-25
1.89615e-25
5.39533e-26
1.84589e-26
4.01778e-27
3.20517e-27
8.22797e-27
3.3364e-26
8.25631e-26
2.3603e-25
7.90688e-25
1.31322e-24
4.26713e-24
9.12154e-24
1.6021e-23
3.30448e-23
1.17596e-23
4.17141e-25
8.38727e-24
3.28962e-23
7.70953e-23
1.01221e-22
8.97039e-23
1.05901e-22
9.46277e-23
5.40295e-23
1.24143e-23
4.81647e-24
1.42177e-24
4.34838e-25
1.45673e-25
3.91212e-26
1.15132e-26
9.81543e-27
2.55002e-26
1.12852e-25
3.39615e-25
1.1386e-24
2.85709e-24
1.22592e-23
3.24785e-23
1.05705e-22
2.35688e-22
5.07359e-22
5.25703e-22
2.61857e-22
4.36961e-25
5.7466e-24
3.18778e-23
1.20433e-22
2.07771e-22
2.46514e-22
1.44594e-22
1.72656e-22
1.12417e-22
4.61273e-23
1.0069e-23
3.87626e-24
9.39972e-25
3.08818e-25
7.62607e-26
2.9336e-26
2.3364e-26
8.68154e-26
3.97567e-25
1.50018e-24
5.58248e-24
1.63453e-23
4.98498e-23
2.12535e-22
7.51144e-22
3.23684e-21
6.05746e-21
1.03156e-20
5.46572e-21
2.79723e-21
4.42017e-25
2.49692e-24
2.67076e-23
1.30255e-22
2.5427e-22
4.39891e-22
3.24481e-22
3.40076e-22
2.45959e-22
1.11323e-22
3.01242e-23
8.79087e-24
2.33607e-24
6.46195e-25
1.6642e-25
4.98171e-26
6.57819e-26
2.23264e-25
1.00752e-24
4.38949e-24
1.97283e-23
7.15214e-23
2.3584e-22
1.53599e-21
4.6071e-21
1.96441e-20
8.87136e-20
1.52799e-19
1.68329e-19
8.20328e-20
1.60317e-20
1.37628e-24
8.55494e-24
1.64372e-23
1.38273e-22
3.49807e-22
8.64378e-22
9.32222e-22
6.08202e-22
5.22901e-22
2.72622e-22
9.56621e-23
2.51795e-23
6.86039e-24
1.46702e-24
4.40018e-25
1.42782e-25
1.46013e-25
6.02532e-25
2.56719e-24
1.58034e-23
7.12625e-23
2.80991e-22
1.05413e-21
4.57143e-21
4.09869e-20
1.93188e-19
7.97612e-19
2.1416e-18
2.41877e-18
2.34745e-18
7.87068e-19
2.14616e-19
8.45202e-24
2.44998e-23
2.08884e-23
1.31985e-22
5.26725e-22
1.2257e-21
1.69092e-21
1.72031e-21
8.89706e-22
6.06533e-22
2.0425e-22
7.01723e-23
1.92376e-23
4.16074e-24
1.05546e-24
3.75282e-25
3.22732e-25
1.69828e-24
8.59747e-24
5.23535e-23
2.04024e-22
1.22559e-21
4.16813e-21
2.01487e-20
1.56848e-19
1.29401e-18
6.22543e-18
2.07297e-17
4.29368e-17
5.01802e-17
2.43294e-17
6.68884e-18
6.74499e-19
1.29144e-23
5.86927e-23
6.67533e-23
9.0493e-23
5.31739e-22
1.5045e-21
2.04249e-21
2.74244e-21
2.39916e-21
1.18374e-21
4.99165e-22
1.34649e-22
5.22194e-23
1.16655e-23
2.48766e-24
9.66517e-25
1.05608e-24
4.46925e-24
2.54033e-23
1.40206e-22
8.80051e-22
3.30077e-21
2.29138e-20
1.23809e-19
6.50976e-19
5.96428e-18
4.39437e-17
2.15719e-16
5.96015e-16
8.58749e-16
7.7938e-16
2.4035e-16
1.51595e-17
9.51089e-19
1.60598e-17
5.51767e-23
7.13047e-23
2.62267e-22
3.06292e-22
5.41695e-22
1.4806e-21
3.17041e-21
4.50902e-21
4.47633e-21
2.35942e-21
1.3118e-21
3.95193e-22
1.18402e-22
2.93296e-23
7.91224e-24
2.3198e-24
2.9999e-24
1.38223e-23
7.58277e-23
3.53226e-22
2.74761e-21
1.23878e-20
5.31405e-20
3.6813e-19
2.94578e-18
2.35791e-17
2.40297e-16
1.52806e-15
5.92152e-15
1.32772e-14
1.64087e-14
8.64842e-15
0
1.341e-16
1.29608e-15
3.86899e-18
7.30111e-17
2.68335e-22
3.26508e-22
6.25931e-22
9.00573e-22
9.7423e-22
1.66186e-21
3.50255e-21
6.44087e-21
7.40526e-21
5.45035e-21
2.17593e-21
1.10775e-21
2.99611e-22
8.95766e-23
2.28345e-23
5.7868e-24
6.8883e-24
2.34699e-23
1.52162e-22
1.05054e-21
6.64234e-21
4.16322e-20
2.41868e-19
1.21548e-18
8.84149e-18
9.53347e-17
1.17562e-15
9.01366e-15
5.77245e-14
1.8438e-13
3.11121e-13
2.67187e-13
2.65579e-14
1.5517e-13
1.08808e-14
1.37631e-13
1.19164e-13
6.49133e-16
7.63828e-15
1.27729e-17
3.71733e-16
5.0429e-22
3.36867e-21
1.87018e-21
1.98924e-21
2.64674e-21
2.02915e-21
3.71059e-21
8.27086e-21
1.05803e-20
9.56698e-21
4.93279e-21
2.06888e-21
6.93399e-22
1.95938e-22
6.11044e-23
1.73177e-23
1.58482e-23
7.6997e-23
3.05545e-22
2.30019e-21
1.88574e-20
1.01609e-19
6.2534e-19
3.55489e-18
2.22324e-17
3.09285e-16
3.49819e-15
4.54997e-14
3.92475e-13
1.86478e-12
4.65231e-12
5.76097e-12
9.74071e-13
6.00391e-12
9.86579e-13
9.16584e-14
1.06319e-12
9.78843e-13
4.214e-15
5.91684e-14
1.03756e-16
1.77493e-15
4.10022e-21
1.26658e-20
1.58186e-20
1.14857e-20
7.0119e-21
6.05984e-21
4.21288e-21
8.58292e-21
1.31554e-20
1.43456e-20
1.15617e-20
4.51565e-21
1.67008e-21
4.4095e-22
1.15803e-22
4.99427e-23
3.4754e-23
1.76984e-22
9.45563e-22
4.7634e-21
4.34114e-20
3.04722e-19
1.37937e-18
8.15996e-18
5.72317e-17
5.67233e-16
1.48407e-14
1.6973e-13
1.98721e-12
1.38441e-11
4.88474e-11
9.30955e-11
2.69659e-11
1.2991e-10
6.81736e-12
4.26963e-11
8.78809e-12
7.4764e-13
9.34778e-12
8.23774e-12
3.14252e-14
4.67078e-13
3.9861e-16
1.29741e-14
4.10808e-21
4.74e-20
6.69646e-20
5.06486e-20
2.33891e-20
1.43367e-20
1.01803e-20
1.28434e-20
1.87531e-20
2.19484e-20
1.73936e-20
9.89194e-21
3.04428e-21
1.33196e-21
2.84096e-22
1.10598e-22
1.31858e-22
3.27839e-22
2.37198e-21
1.81351e-20
1.03432e-19
6.48004e-19
4.4547e-18
2.21317e-17
1.1428e-16
9.02722e-16
2.2553e-14
7.53121e-13
7.5268e-12
7.47419e-11
3.81909e-10
1.03075e-09
5.40225e-10
2.1259e-09
2.37037e-10
1.14176e-09
6.23635e-11
3.88885e-10
7.75589e-11
6.09776e-12
7.94389e-11
6.84929e-11
2.39309e-13
3.67905e-12
2.80995e-15
9.49853e-14
2.6959e-20
9.17907e-20
2.94442e-19
1.93486e-19
1.29835e-19
5.14784e-20
3.80863e-20
2.7961e-20
2.61127e-20
2.96943e-20
2.96316e-20
1.92346e-20
6.18376e-21
2.62626e-21
9.75292e-22
2.93079e-22
4.15461e-22
9.14206e-22
6.23228e-21
3.04843e-20
3.01925e-19
1.7889e-18
7.75043e-18
4.77707e-17
2.04394e-16
1.57951e-15
3.24264e-14
1.0821e-12
3.46216e-11
2.95347e-10
2.17395e-09
8.39096e-09
7.19608e-09
2.32698e-08
4.83882e-09
1.82865e-08
2.09575e-09
9.85448e-09
5.46683e-10
3.34779e-09
6.60596e-10
4.88836e-11
6.57666e-10
5.53709e-10
1.82312e-12
2.85687e-11
1.94324e-14
7.01741e-13
4.28357e-19
4.3371e-19
1.00341e-18
8.73089e-19
5.91177e-19
2.37207e-19
1.36221e-19
6.96543e-20
4.63509e-20
4.89534e-20
4.92937e-20
3.14454e-20
1.67853e-20
6.18327e-21
2.61354e-21
9.84691e-22
1.22598e-21
3.27926e-21
1.30139e-20
1.43722e-19
6.43308e-19
3.99241e-18
2.57441e-17
1.10316e-16
4.57876e-16
2.4371e-15
3.82111e-14
1.4776e-12
4.52902e-11
1.31735e-09
8.97844e-09
5.05671e-08
6.66547e-08
1.82096e-07
6.18047e-08
1.92497e-07
4.07882e-08
1.49451e-07
1.76258e-08
8.05257e-08
4.60772e-09
2.74026e-08
5.41913e-09
3.82761e-10
5.25718e-09
4.3293e-09
1.36607e-11
2.16162e-10
1.39061e-13
5.12974e-12
1.49309e-18
3.29891e-18
3.10655e-18
3.34766e-18
2.50721e-18
9.75013e-19
5.4156e-19
2.34948e-19
1.14121e-19
1.20765e-19
9.25293e-20
7.02136e-20
3.53066e-20
1.45352e-20
9.30368e-21
4.35429e-21
3.42752e-21
9.42816e-21
6.00347e-20
2.82955e-19
2.71174e-18
1.29911e-17
5.70799e-17
2.99509e-16
1.6e-15
6.2961e-15
4.58111e-14
1.56173e-12
7.06428e-11
1.70884e-09
3.66333e-08
2.18147e-07
4.49271e-07
1.08802e-06
5.42711e-07
1.41385e-06
4.92428e-07
1.48355e-06
3.22232e-07
1.13581e-06
1.40144e-07
6.17403e-07
3.70176e-08
2.11486e-07
4.23001e-08
2.90126e-09
4.03534e-08
3.24467e-08
9.97687e-11
1.58254e-09
9.90778e-13
3.67797e-11
9.89599e-18
2.31732e-17
2.20752e-17
1.37213e-17
8.70579e-18
3.99217e-18
2.16288e-18
7.63933e-19
4.03671e-19
2.6545e-19
2.92595e-19
2.13317e-19
9.86941e-20
3.86298e-20
2.87711e-20
1.40509e-20
1.49911e-20
3.18221e-20
1.46789e-19
1.26172e-18
6.43816e-18
4.78446e-17
2.18738e-16
7.23419e-16
3.29025e-15
1.47303e-14
8.02042e-14
1.3971e-12
7.44215e-11
3.18383e-09
5.12554e-08
8.02626e-07
2.13898e-06
4.59942e-06
3.35831e-06
7.75966e-06
3.99498e-06
9.8374e-06
3.58468e-06
1.01284e-05
2.35999e-06
7.74624e-06
1.04125e-06
4.33231e-06
2.79497e-07
1.52221e-06
3.12643e-07
2.11507e-08
2.94451e-07
2.31715e-07
7.12188e-10
1.12119e-08
6.92613e-12
2.54916e-10
3.75926e-17
9.26502e-17
8.59062e-17
4.9667e-17
3.01952e-17
1.90771e-17
7.52913e-18
3.14928e-18
1.8502e-18
1.21093e-18
9.77314e-19
6.6814e-19
4.70717e-19
1.50957e-19
6.81028e-20
4.74248e-20
5.43257e-20
1.50326e-19
5.9427e-19
3.70317e-18
2.5929e-17
1.22629e-16
6.38877e-16
2.60993e-15
1.03237e-14
4.45592e-14
1.80122e-13
1.38204e-12
6.21008e-11
3.56197e-09
1.33973e-07
1.10892e-06
7.3313e-06
1.23386e-05
1.47971e-05
2.95036e-05
2.25189e-05
4.90519e-05
2.57398e-05
6.03081e-05
2.26751e-05
5.95083e-05
1.5034e-05
4.48734e-05
6.96008e-06
2.56566e-05
1.96142e-06
9.76502e-06
2.15414e-06
1.48202e-07
2.0143e-06
1.5659e-06
4.91657e-09
7.66658e-08
4.71656e-11
1.69427e-09
1.45149e-16
3.61405e-16
2.82503e-16
2.54844e-16
1.8196e-16
8.72408e-17
3.68708e-17
1.29785e-17
5.16149e-18
4.17512e-18
3.39515e-18
2.99806e-18
1.82079e-18
9.81615e-19
2.45879e-19
1.88618e-19
1.47571e-19
4.60548e-19
2.51264e-18
1.45927e-17
9.98853e-17
4.50694e-16
2.18204e-15
8.89775e-15
3.84549e-14
1.52262e-13
5.49131e-13
2.07754e-12
4.11674e-11
3.03576e-09
1.62932e-07
4.59088e-06
1.95384e-05
6.88582e-06
4.60932e-05
7.53384e-05
9.06031e-05
0.00015259
0.000130961
0.000239467
0.000140209
0.000292988
0.000120532
0.000283098
7.90478e-05
0.000212083
3.86344e-05
0.000123964
1.21666e-05
5.14727e-05
1.31342e-05
9.94629e-07
1.23162e-05
9.69254e-06
3.26006e-08
5.05317e-07
3.12516e-10
1.08054e-08
5.22557e-16
1.73273e-15
1.2147e-15
8.84188e-16
6.94243e-16
3.5387e-16
1.43664e-16
5.72481e-17
1.77885e-17
1.059e-17
1.29028e-17
7.76949e-18
5.47689e-18
4.33569e-18
1.19741e-18
7.36752e-19
5.2911e-19
1.44052e-18
7.71761e-18
5.05926e-17
3.64587e-16
1.74063e-15
9.03432e-15
4.011e-14
1.63368e-13
5.81553e-13
1.8587e-12
5.43021e-12
3.63119e-11
1.88304e-09
1.4017e-07
6.25324e-06
0.000108352
9.92054e-05
0.000159861
0.000225137
0.000312114
0.000374621
0.000528581
0.000498236
0.00072987
0.000543613
0.000855025
0.000490725
0.000866685
0.000331568
0.000742285
0.000173601
0.000469789
6.14493e-05
0.000217487
6.47631e-05
6.24846e-06
6.09055e-05
4.95629e-05
2.08021e-07
3.1952e-06
2.01485e-09
6.61672e-08
3.95912e-15
9.29679e-15
7.55615e-15
4.98301e-15
2.87078e-15
1.39904e-15
5.27951e-16
2.01602e-16
9.51152e-17
3.81934e-17
3.565e-17
2.80231e-17
2.18623e-17
1.38531e-17
6.99096e-18
2.66892e-18
1.54624e-18
5.16036e-18
3.11065e-17
2.12544e-16
1.24393e-15
7.73732e-15
4.42673e-14
2.09548e-13
8.03615e-13
2.56998e-12
7.03848e-12
1.76681e-11
5.16935e-11
1.14291e-09
9.45125e-08
5.05847e-06
0.000122119
0.000551039
0.000618563
0.000398939
0.000481834
0.00068359
0.000838221
0.000964339
0.00118874
0.00117802
0.0014861
0.00127394
0.00167595
0.00122828
0.00172186
0.00100804
0.00159426
0.000602664
0.00125726
0.000246903
0.000706429
0.000253264
3.38704e-05
0.000237656
0.00019943
1.27699e-06
1.83521e-05
1.26609e-08
3.9067e-07
2.36563e-14
6.06373e-14
5.3093e-14
3.14145e-14
1.67176e-14
7.34195e-15
2.16251e-15
6.52375e-16
2.76986e-16
1.41556e-16
9.6317e-17
9.34578e-17
5.28358e-17
3.60726e-17
1.98732e-17
9.82769e-18
5.70219e-18
1.37173e-17
9.67881e-17
6.47196e-16
5.01905e-15
3.71874e-14
2.33026e-13
1.18103e-12
4.60434e-12
1.36818e-11
3.19039e-11
6.54105e-11
1.36865e-10
9.01037e-10
5.61889e-08
3.89235e-06
0.000106411
0.000662582
0.000689849
0.00118343
0.00125755
0.000976171
0.001092
0.00139132
0.00157552
0.0017669
0.00201659
0.00205077
0.00238652
0.00219476
0.00263121
0.00217221
0.00271272
0.00194235
0.00259927
0.00147442
0.00225112
0.000766053
0.00164062
0.000768727
0.000143168
0.000718109
0.000616868
7.47041e-06
8.40536e-05
7.73315e-08
2.22445e-06
8.12382e-14
2.92824e-13
3.29148e-13
2.04029e-13
1.10623e-13
3.7495e-14
9.46887e-15
2.55688e-15
1.11291e-15
4.65634e-16
3.60337e-16
2.27069e-16
1.64574e-16
1.10334e-16
7.39713e-17
3.1887e-17
1.22713e-17
3.37159e-17
2.94986e-16
2.31321e-15
1.98872e-14
1.70929e-13
1.22509e-12
6.70229e-12
2.82802e-11
8.57491e-11
1.838e-10
2.9855e-10
4.92501e-10
1.18273e-09
3.14231e-08
2.59464e-06
0.0001048
0.0006861
0.000612707
0.00130887
0.00133233
0.00194398
0.00201367
0.00172957
0.00185168
0.00223212
0.00242047
0.00268016
0.00293145
0.00302089
0.00335649
0.00320591
0.00364188
0.00320695
0.0037502
0.00298438
0.0036508
0.0025074
0.00331127
0.00174197
0.00269472
0.00175768
0.000464941
0.00166503
0.00146271
3.74221e-05
0.00029858
4.4918e-07
1.16154e-05
1.49094e-13
6.88973e-13
1.20639e-12
1.1537e-12
6.0947e-13
1.74981e-13
4.29563e-14
1.10286e-14
3.77365e-15
1.90477e-15
1.16523e-15
7.14257e-16
4.0778e-16
3.29413e-16
1.54141e-16
8.70066e-17
4.04143e-17
6.79541e-17
7.0076e-16
7.2263e-15
7.34278e-14
7.12818e-13
5.90405e-12
3.79299e-11
1.71637e-10
5.76138e-10
1.26653e-09
1.85731e-09
2.23758e-09
3.29574e-09
2.23333e-08
1.42191e-06
8.30939e-05
0.000970108
0.00133579
0.00140758
0.00205768
0.00206887
0.00276705
0.00282219
0.00257216
0.00268596
0.00314121
0.00331498
0.00363781
0.00386866
0.00401889
0.00432334
0.00423317
0.00463909
0.00424875
0.00476455
0.00403089
0.00467865
0.00356361
0.00434205
0.00279911
0.00374262
0.0028092
0.00115499
0.00272509
0.00251602
0.000146884
0.000799289
2.29486e-06
4.7357e-05
7.84241e-13
2.33417e-12
3.77861e-12
2.64868e-12
7.51625e-13
1.86437e-13
4.92119e-14
1.62164e-14
7.62927e-15
4.65272e-15
2.60255e-15
1.41337e-15
7.91138e-16
4.64343e-16
3.01876e-16
1.3137e-16
1.47984e-16
1.43305e-15
2.03252e-14
2.46943e-13
2.68396e-12
2.52207e-11
1.89607e-10
1.05148e-09
3.72364e-09
9.09993e-09
1.38314e-08
1.28765e-08
1.42248e-08
2.73465e-08
7.48837e-07
4.62065e-05
0.000798076
0.00201546
0.00195376
0.00206307
0.00205019
0.00284559
0.00284232
0.00358811
0.00360999
0.00344522
0.0035336
0.00404891
0.0041836
0.0045713
0.0047581
0.00498392
0.00521638
0.00522844
0.00554016
0.00526794
0.00573323
0.00503498
0.00569387
0.00457388
0.00533398
0.00383203
0.00473724
0.0038276
0.00214824
0.00371142
0.00345825
0.000439853
0.00162691
9.54342e-06
0.00016044
2.07115e-12
6.11622e-12
7.4832e-12
2.87496e-12
7.78797e-13
2.17003e-13
7.84415e-14
3.84554e-14
2.17491e-14
1.20779e-14
5.9603e-15
2.74776e-15
1.42865e-15
6.38012e-16
3.8722e-16
2.68889e-16
2.15812e-15
4.77362e-14
6.70977e-13
9.02463e-12
9.65175e-11
8.20626e-10
5.35699e-09
2.41492e-08
6.59696e-08
9.16185e-08
9.21917e-08
7.94007e-08
7.33292e-08
5.0789e-07
2.31812e-05
0.000553983
0.00186669
0.00164478
0.00273764
0.00267001
0.00282992
0.00280019
0.00360482
0.00358976
0.00431536
0.00430229
0.00426632
0.00431201
0.00487403
0.00494339
0.00534148
0.00536996
0.00566927
0.00565663
0.00592765
0.00590457
0.0060958
0.00616932
0.0060328
0.00638116
0.00554879
0.00631145
0.00480698
0.00570605
0.00477243
0.00307557
0.00462411
0.00442439
0.00377232
0.00101767
0.0025198
3.23153e-05
0.000454385
4.57791e-12
1.20271e-11
9.22139e-12
3.16565e-12
9.96302e-13
3.9672e-13
2.00799e-13
1.09827e-13
5.79611e-14
2.78164e-14
1.22387e-14
4.99553e-15
1.92448e-15
8.63498e-16
6.1416e-16
2.74682e-15
7.07108e-14
1.61019e-12
2.45203e-11
3.22507e-10
3.19898e-09
2.30263e-08
1.28229e-07
3.83422e-07
5.10965e-07
5.67873e-07
4.59415e-07
3.4382e-07
5.50727e-07
1.08066e-05
0.000341848
0.00189358
0.00252171
0.00252668
0.00342397
0.0033384
0.00355677
0.00350352
0.00427397
0.00422471
0.00490504
0.00484817
0.00495182
0.00493722
0.0053523
0.00531722
0.00561361
0.0055254
0.00584128
0.00569457
0.00609725
0.0058983
0.00635464
0.00619781
0.00661254
0.00654023
0.00648561
0.0067694
0.00576225
0.00659461
0.00617985
0.00518993
0.00575031
0.004222
0.00331121
0.00402899
0.0049518
0.00559039
0.00565436
0.00483216
0.0018089
0.00374387
0.00347229
0.00271615
0.000191804
0.0010825
1.20772e-11
2.3945e-11
1.30046e-11
5.06422e-12
2.18339e-12
1.08358e-12
5.64285e-13
2.83711e-13
1.32741e-13
5.70483e-14
2.18492e-14
7.60597e-15
2.77054e-15
1.63791e-15
3.50292e-15
8.1484e-14
2.64871e-12
6.1389e-11
8.92157e-10
1.05908e-08
9.35599e-08
5.53252e-07
1.75325e-06
3.16297e-06
3.65412e-06
2.72551e-06
1.65642e-06
1.12885e-06
6.21967e-06
0.000179066
0.00146955
0.00296318
0.00268305
0.00321069
0.00309008
0.00398409
0.00388526
0.00415784
0.00408089
0.0047773
0.00469583
0.00514529
0.00507869
0.00526403
0.00520596
0.00542781
0.00533696
0.00548233
0.00526139
0.00553556
0.00511874
0.00578527
0.00515362
0.00622255
0.00553692
0.00673904
0.0066523
0.0064581
0.00610265
0.00679965
0.00690705
0.0066639
0.00672512
0.00687163
0.00659107
0.00617444
0.00665193
0.0068805
0.00617173
0.00463722
0.00439692
0.00542433
0.00600025
0.00611201
0.00525047
0.00312318
0.00202791
0.00278728
0.00412402
0.00381562
0.000597394
0.0024182
0.0020577
0.00137461
4.41453e-11
5.64377e-11
2.90102e-11
1.32437e-11
6.17418e-12
2.96186e-12
1.40175e-12
6.36493e-13
2.63826e-13
9.75728e-14
3.16983e-14
1.06295e-14
5.24459e-15
6.88615e-15
7.94007e-14
2.80994e-12
1.0152e-10
2.3057e-09
3.06819e-08
3.09902e-07
2.07934e-06
7.85428e-06
1.72511e-05
2.10516e-05
1.60137e-05
9.09264e-06
4.7724e-06
5.31935e-06
7.74038e-05
0.000971075
0.00278696
0.00344854
0.00340145
0.00375135
0.00364274
0.00438334
0.0042642
0.00460164
0.00449988
0.00500272
0.00491535
0.00512937
0.00506664
0.00525829
0.00519086
0.00507577
0.00494698
0.00473782
0.00445389
0.00452694
0.00401814
0.00467868
0.00389719
0.00572621
0.00523983
0.00482348
0.00431693
0.00644572
0.00608381
0.00564881
0.00695184
0.00691687
0.00644049
0.00644264
0.00675105
0.00691809
0.00661425
0.00693312
0.00699656
0.0065835
0.00503117
0.00477395
0.00585339
0.00651604
0.00641185
0.00565894
0.00347946
0.00312064
0.00448113
0.00415727
0.00170024
0.000572811
0.00114068
0.00273992
0.0023385
2.02508e-10
1.67758e-10
8.5183e-11
3.75885e-11
1.6252e-11
7.07046e-12
3.0305e-12
1.20485e-12
4.31644e-13
1.36275e-13
4.36174e-14
2.06225e-14
2.11771e-14
8.61784e-14
2.58738e-12
1.12152e-10
4.11922e-09
8.12157e-08
9.49026e-07
6.68115e-06
2.94231e-05
7.43922e-05
9.95575e-05
8.17419e-05
4.93445e-05
2.38469e-05
9.88087e-06
3.53486e-05
0.000553223
0.0023405
0.00357206
0.00331701
0.00384423
0.00370543
0.00412542
0.00399875
0.00456895
0.00443512
0.00481302
0.00469805
0.00499445
0.00490678
0.00478621
0.00474454
0.0048685
0.00482169
0.00428354
0.00420629
0.00366971
0.00348292
0.00330586
0.00292765
0.00392108
0.00348378
0.00317844
0.00287897
0.00517945
0.00469283
0.00420354
0.00372346
0.00605703
0.00560782
0.0051219
0.00695218
0.00676574
0.00604057
0.0060348
0.00644493
0.00703036
0.00693281
0.0070591
0.00698823
0.00691037
0.00542103
0.00514149
0.0062607
0.00686023
0.00677278
0.00605585
0.00380655
0.0034268
0.0048263
0.00448088
0.00180788
0.000509704
0.00109029
0.00301168
0.00251322
7.39401e-10
5.18626e-10
2.38302e-10
9.47023e-11
3.7183e-11
1.45905e-11
5.47e-12
1.88895e-12
5.82656e-13
1.81502e-13
8.56909e-14
8.74749e-14
1.89082e-13
2.03613e-12
1.0178e-10
4.70862e-09
1.62203e-07
2.13884e-06
1.80593e-05
8.36503e-05
0.000223055
0.000340664
0.000331816
0.000209606
9.75614e-05
3.40603e-05
3.17967e-05
0.000286935
0.00175197
0.00325799
0.00372716
0.00364697
0.00400642
0.00388074
0.00429121
0.00415408
0.00452238
0.0043686
0.00479762
0.0046688
0.00468035
0.00458339
0.00414777
0.00409973
0.0041802
0.00416877
0.00340476
0.00337459
0.00272887
0.00262772
0.0026965
0.00252344
0.00241352
0.00228485
0.00330138
0.00293338
0.0026561
0.00244138
0.00461474
0.00409602
0.00359003
0.00313278
0.00557993
0.00508378
0.00455894
0.00678574
0.00645603
0.00556538
0.00556372
0.006039
0.0070233
0.00707816
0.00706158
0.00681571
0.00708844
0.00580057
0.00549788
0.00663301
0.00708036
0.00703924
0.00642875
0.00410622
0.00369611
0.00515651
0.00478353
0.00184802
0.000266559
0.000920165
0.00322219
0.00262547
2.49163e-09
1.4452e-09
5.78646e-10
2.06957e-10
7.25383e-11
2.49561e-11
8.18714e-12
2.46495e-12
7.51568e-13
3.57953e-13
3.83728e-13
7.3263e-13
2.71196e-12
6.06133e-11
4.38283e-09
1.94766e-07
2.98244e-06
2.99913e-05
0.000153256
0.000420946
0.000679182
0.000741343
0.000587942
0.000323685
0.000115725
4.87183e-05
0.000166045
0.00115714
0.00285977
0.00351418
0.00339753
0.00370217
0.00362155
0.00393375
0.00382176
0.00421245
0.00407018
0.00412927
0.00396925
0.00445113
0.0042953
0.00400585
0.00386632
0.00322623
0.00310903
0.00334768
0.00330411
0.00253456
0.00239958
0.00199728
0.00182566
0.00229374
0.00217625
0.00208578
0.00202312
0.0027495
0.00245433
0.00223822
0.00208379
0.00401622
0.00348566
0.00300374
0.00260223
0.00506138
0.00452624
0.00396631
0.00647989
0.00605745
0.00505365
0.0050617
0.00557676
0.0068634
0.00709935
0.00692471
0.00652148
0.00713529
0.00616313
0.005839
0.00694188
0.0071669
0.00717408
0.006767
0.00437691
0.00392326
0.00546987
0.00506383
0.00181191
0.000103355
0.000706392
0.0033769
0.00267347
7.39477e-09
3.48137e-09
1.21336e-09
3.80902e-10
1.16944e-10
3.53604e-11
1.02353e-11
3.07104e-12
1.47616e-12
1.69448e-12
3.26275e-12
8.11583e-12
4.94351e-11
2.35868e-09
1.71562e-07
3.06935e-06
3.63614e-05
0.000205973
0.000594345
0.000993019
0.00115307
0.00103084
0.000707067
0.00033262
0.000110275
0.000147866
0.000742353
0.00241554
0.00327181
0.00342896
0.00336893
0.00349798
0.00346556
0.00361356
0.00354969
0.00382579
0.00370626
0.00338457
0.00327237
0.00370038
0.00353329
0.00296009
0.00279859
0.0019414
0.0017711
0.00226232
0.0021133
0.00165184
0.00152506
0.00166334
0.00160913
0.00152727
0.0015849
0.00196679
0.00187032
0.00178545
0.00171612
0.00229582
0.00207732
0.00192457
0.00181389
0.00341569
0.00291395
0.00249617
0.0021798
0.00451365
0.00394606
0.00338076
0.00609353
0.00560983
0.00451964
0.00454638
0.00508919
0.00658797
0.00700298
0.00668011
0.00615609
0.00709369
0.00649915
0.00616057
0.00714204
0.00717563
0.00723365
0.00703897
0.00461837
0.0041103
0.0057637
0.0053218
0.0017184
0.000178564
0.000648489
0.00348402
0.00267703
1.87933e-08
7.25892e-09
2.15079e-09
5.84754e-10
1.56985e-10
4.21096e-11
1.22182e-11
5.97833e-12
7.34348e-12
1.48993e-11
3.45607e-11
8.83447e-11
1.2275e-09
9.15568e-08
2.53048e-06
3.56172e-05
0.000227154
0.000708062
0.00124982
0.00151108
0.00144457
0.00112861
0.000669085
0.000263856
0.000174828
0.000557872
0.001934
0.00306454
0.00324332
0.00323354
0.00323141
0.00325257
0.00317038
0.00320036
0.00314293
0.00315081
0.00319589
0.00315247
0.00250161
0.00251071
0.00265648
0.00255463
0.00164798
0.00156975
0.0009739
0.000799022
0.00135963
0.00118853
0.00149207
0.00144266
0.0014156
0.00162179
0.00162296
0.00163952
0.00163132
0.00173178
0.00167746
0.00164632
0.00163396
0.00195987
0.00181413
0.00172086
0.00166845
0.00286266
0.00242955
0.00210315
0.00188165
0.00395117
0.00338026
0.00284875
0.00566768
0.00514314
0.0039805
0.00403728
0.00459753
0.00625032
0.00680184
0.00638064
0.0057598
0.00695034
0.0068064
0.00645595
0.00725341
0.00711225
0.00724925
0.00721756
0.0048324
0.00426158
0.00603755
0.00555983
0.00161264
6.86599e-05
0.000475948
0.00355721
0.00264487
4.12611e-08
1.29157e-08
3.22671e-09
7.53402e-10
1.78064e-10
4.78304e-11
2.33104e-11
3.10868e-11
6.65032e-11
1.5683e-10
3.22757e-10
1.3143e-09
3.87845e-08
1.40007e-06
2.97297e-05
0.000223217
0.000747466
0.00140681
0.00174178
0.00176189
0.0015489
0.00109752
0.000543932
0.000277262
0.000548568
0.00157857
0.00277148
0.00319275
0.00316374
0.00319288
0.00304891
0.00311315
0.00288542
0.00297189
0.00269993
0.00279367
0.00254441
0.00261209
0.00172026
0.00187006
0.0015727
0.0016211
0.000711048
0.000697266
0.000778532
0.000555202
0.00125162
0.00104891
0.00163284
0.00159435
0.00212966
0.00205392
0.00179587
0.0018906
0.00207697
0.00198358
0.00164704
0.00164909
0.00166865
0.00172176
0.00174617
0.00167462
0.00165263
0.0016611
0.00240129
0.00206275
0.00183747
0.0017092
0.00341003
0.00287198
0.00241007
0.00523197
0.00468378
0.00347049
0.00356795
0.00412655
0.00589409
0.00655209
0.00607484
0.00536903
0.00676514
0.00705991
0.00672993
0.00732625
0.00700728
0.00723105
0.00733732
0.00502121
0.00438634
0.00629036
0.00577958
0.00145074
2.94217e-05
0.000302565
0.00360457
0.00257546
7.70878e-08
1.95702e-08
4.08499e-09
8.1746e-10
1.90142e-10
8.78939e-11
1.26071e-10
2.8947e-10
7.04671e-10
1.402e-09
3.40855e-09
2.23898e-08
6.80217e-07
1.69228e-05
0.000188956
0.000736683
0.0014572
0.00183818
0.00193345
0.00185994
0.00157747
0.00105473
0.000523391
0.00062944
0.0015057
0.00251908
0.00311881
0.00317413
0.00319699
0.0030865
0.00314318
0.00292104
0.00301221
0.00268899
0.00281338
0.00238937
0.00254771
0.00204143
0.00221801
0.00120323
0.00144714
0.00079235
0.000976613
0.000410026
0.000362337
0.00112626
0.000641421
0.00193352
0.00176854
0.00164159
0.00213641
0.00215092
0.00289254
0.0028214
0.00220625
0.00238702
0.00272839
0.00256523
0.00169429
0.00178109
0.00189564
0.00203759
0.00166174
0.00166372
0.00169606
0.00179071
0.00205783
0.00182408
0.001698
0.0016694
0.00293054
0.00245769
0.00208731
0.00482019
0.00426514
0.00303084
0.00318549
0.00371477
0.00556016
0.00630795
0.00580769
0.00502209
0.00659218
0.00724772
0.00697274
0.00737726
0.00691057
0.0072102
0.00742105
0.00518965
0.0044948
0.0065235
0.00598382
0.00122161
7.48459e-06
0.000143139
0.00363185
0.00245576
1.21539e-07
2.50467e-08
4.31556e-09
8.10133e-10
3.2329e-10
4.89746e-10
1.21517e-09
3.10373e-09
6.19966e-09
1.35974e-08
3.3645e-08
3.50861e-07
7.79985e-06
0.000123198
0.000664545
0.00144767
0.00184513
0.00196708
0.00198276
0.00190845
0.00164129
0.00116525
0.000918216
0.00157177
0.0024637
0.00303269
0.00319792
0.00312599
0.00315778
0.00300204
0.00307328
0.00280525
0.0029132
0.00252559
0.00267656
0.00215219
0.00235101
0.00169346
0.00193127
0.000824242
0.00107772
0.00040607
0.000593548
0.000361954
0.000248866
0.00212666
0.00165351
0.0011838
0.00264961
0.00237925
0.00250974
0.00290809
0.00285098
0.00289516
0.00368491
0.0036139
0.00274987
0.00299773
0.00345056
0.00323859
0.00192079
0.00208609
0.00228488
0.00250796