/*--------------------------------*- C++ -*----------------------------------*\
  =========                 |
  \\      /  F ield         | OpenFOAM: The Open Source CFD Toolbox
   \\    /   O peration     | Website:  https://openfoam.org
    \\  /    A nd           | Version:  dev
     \\/     M anipulation  |
\*---------------------------------------------------------------------------*/
FoamFile
{
    version     2.0;
    format      ascii;
    class       volScalarField;
    location    "2500";
    object      k;
}
// * * * * * * * * * * * * * * * * * * * * * * * * * * * * * * * * * * * * * //

dimensions      [0 2 -2 0 0 0 0];

internalField   nonuniform List<scalar> 
9836
(
0.000157862
0.000164605
0.000148639
0.000142957
0.000208308
0.0001211
0.00012081
0.000222683
0.000187436
0.000108896
0.000111424
0.00021093
0.00022679
0.000145084
0.000105346
0.000105802
0.000179161
0.000248855
0.000199271
0.000122187
0.000103764
0.000102912
0.000146094
0.000246851
0.000238553
0.000154108
0.000113335
0.00010272
0.000101356
0.000127205
0.000230375
0.000260308
0.000200793
0.000128801
0.000109018
0.000102014
0.000100534
0.000115002
0.000193602
0.000269847
0.000242315
0.000156608
0.000117955
0.000106232
0.000101492
0.000100062
0.000108098
0.000156155
0.000262636
0.000266146
0.000196975
0.00013186
0.000112259
0.000104416
0.00010109
9.96092e-05
0.000104217
0.000133672
0.000239964
0.000282082
0.000240013
0.00015622
0.000120355
0.000108456
0.00010322
0.000100758
9.92895e-05
0.000102165
0.000119345
0.000198589
0.000283509
0.000270387
0.000189813
0.000133433
0.000113987
0.000105875
0.0001023
0.000100504
9.9077e-05
0.000101019
0.000111276
0.00016029
0.0002725
0.000285922
0.000232418
0.000153108
0.00012194
0.000109732
0.000104048
0.000101564
0.0001003
9.89263e-05
0.000100281
0.000106809
0.000137096
0.000244146
0.000297604
0.00026734
0.000183373
0.000133031
0.000115149
0.000106668
0.00010272
0.000100944
0.000100137
9.88288e-05
9.97616e-05
0.000104245
0.000122685
0.0001998
0.000295275
0.000290301
0.000221648
0.000149944
0.000122404
0.000110438
0.000104467
0.000101653
0.000100433
0.000100006
9.87535e-05
9.93978e-05
0.000102635
0.000114374
0.000162317
0.000280038
0.00030416
0.000261218
0.000176383
0.000131984
0.000115604
0.000107019
0.000102787
0.00010079
0.000100037
9.98873e-05
9.87064e-05
9.91205e-05
0.000101526
0.000109558
0.000139582
0.000245514
0.000311831
0.000290087
0.000209934
0.000147147
0.000122065
0.000110672
0.000104455
0.000101447
0.000100143
9.95973e-05
9.97813e-05
9.86925e-05
9.89184e-05
0.000100719
0.000106575
0.000125692
0.000199162
0.000306337
0.00030792
0.000249888
0.00016882
0.000131012
0.000115425
0.000106983
0.000102497
0.000100413
9.95486e-05
9.93292e-05
9.96743e-05
9.87058e-05
9.87951e-05
0.000100111
0.000104749
0.000117376
0.000163871
0.000286778
0.000321308
0.00028479
0.000200007
0.000143242
0.000121365
0.000110515
0.00010421
0.000100965
9.96253e-05
9.89139e-05
9.90736e-05
9.9586e-05
9.87165e-05
9.87272e-05
9.96839e-05
0.000103381
0.000112377
0.000141927
0.00024652
0.000325678
0.000310359
0.000235469
0.000162281
0.000128897
0.000114796
0.000106744
0.000102053
9.98701e-05
9.88406e-05
9.85205e-05
9.87989e-05
9.95125e-05
9.87188e-05
9.86575e-05
9.93962e-05
0.000102224
0.000109466
0.000128425
0.000198881
0.000317239
0.000324532
0.000275228
0.000188301
0.000139394
0.000120236
0.000109942
0.000103807
0.000100395
9.89218e-05
9.80655e-05
9.8164e-05
9.85397e-05
9.94482e-05
9.87356e-05
9.85564e-05
9.91739e-05
0.000101378
0.000107703
0.000120269
0.000165774
0.000292976
0.000337735
0.000305585
0.000221971
0.000154888
0.000126603
0.000114148
0.000106213
0.000101454
9.91736e-05
9.8008e-05
9.754e-05
9.77821e-05
9.83127e-05
9.93846e-05
9.87762e-05
9.84481e-05
9.89752e-05
0.000100735
0.000106121
0.000115321
0.000144779
0.000249488
0.000337951
0.000328946
0.000258952
0.00017759
0.000135486
0.000118669
0.000109459
0.000103209
9.97117e-05
9.80997e-05
9.71132e-05
9.71208e-05
9.74084e-05
9.81194e-05
9.93191e-05
9.88264e-05
9.83464e-05
9.87833e-05
0.000100244
0.000104614
0.000111942
0.000131664
0.000201849
0.000327631
0.000341279
0.000297553
0.000207193
0.000148446
0.000124512
0.000112979
0.000105677
0.000100815
9.83842e-05
9.71025e-05
9.64513e-05
9.66947e-05
9.70697e-05
9.79394e-05
9.92631e-05
9.88789e-05
9.82307e-05
9.86043e-05
9.98412e-05
0.000103333
0.000109675
0.000123253
0.000169799
0.000301008
0.000354062
0.000324903
0.000242238
0.000167587
0.000131807
0.000117347
0.000108516
0.000102643
9.8991e-05
9.72268e-05
9.61557e-05
9.59808e-05
9.62591e-05
9.67746e-05
9.77721e-05
9.92285e-05
9.89347e-05
9.80868e-05
9.84173e-05
9.94791e-05
0.000102306
0.000107953
0.000117664
0.000148835
0.000256227
0.00035323
0.000347051
0.000279767
0.000193342
0.000142801
0.000121996
0.000111911
0.00010494
0.00010024
9.7583e-05
9.61954e-05
9.53653e-05
9.55511e-05
9.58498e-05
9.65232e-05
9.76292e-05
9.92008e-05
9.89893e-05
9.79385e-05
9.81993e-05
9.91176e-05
0.000101456
0.000106518
0.000113899
0.000135057
0.000207726
0.00034162
0.00036047
0.000318233
0.000225058
0.000158346
0.000128544
0.000115347
0.000107615
0.000102042
9.83406e-05
9.64052e-05
9.52773e-05
9.47983e-05
9.51241e-05
9.54986e-05
9.63052e-05
9.75242e-05
9.91772e-05
9.90223e-05
9.78052e-05
9.79717e-05
9.87476e-05
0.000100689
0.000105237
0.000111261
0.000126103
0.000175129
0.000313388
0.000373476
0.000345155
0.000260829
0.000180218
0.000137075
0.000119718
0.000110397
0.000104193
9.9695e-05
9.68787e-05
9.5388e-05
9.44853e-05
9.43766e-05
9.47245e-05
9.52292e-05
9.61391e-05
9.7521e-05
9.91797e-05
9.904e-05
9.77241e-05
9.77258e-05
9.83726e-05
0.000100017
0.000104062
0.000109331
0.000120139
0.000153693
0.000267197
0.000372105
0.000367463
0.00029996
0.00020791
0.000150024
0.000124715
0.000113615
0.000106516
0.000101443
9.78396e-05
9.57154e-05
9.45409e-05
9.38829e-05
9.4035e-05
9.44027e-05
9.50451e-05
9.60926e-05
9.76164e-05
9.92312e-05
9.90356e-05
9.7656e-05
9.74072e-05
9.79951e-05
9.93798e-05
0.000102889
0.000107792
0.000116023
0.000139469
0.0002189
0.000359821
0.000381611
0.000338755
0.000241359
0.000167638
0.00013213
0.00011704
0.000109066
0.000103402
9.92444e-05
9.64136e-05
9.47897e-05
9.38923e-05
9.34556e-05
9.37787e-05
9.42026e-05
9.49394e-05
9.62075e-05
9.7824e-05
9.93525e-05
9.90094e-05
9.75809e-05
9.70675e-05
9.75831e-05
9.87543e-05
0.000101704
0.000106341
0.00011304
0.000130111
0.000184586
0.000331455
0.000394406
0.000366189
0.00027889
0.000191872
0.000142033
0.000121573
0.000111713
0.000105508
0.000100936
9.75436e-05
9.53564e-05
9.40788e-05
9.34436e-05
9.32139e-05
9.36138e-05
9.4137e-05
9.50574e-05
9.65635e-05
9.82583e-05
9.95665e-05
9.89794e-05
9.74829e-05
9.67263e-05
9.71537e-05
9.81566e-05
0.000100528
0.000104781
0.000110662
0.000123683
0.000162656
0.000287263
0.000393703
0.000388158
0.000319035
0.000221358
0.000156981
0.000127206
0.00011478
0.000107693
0.00010274
9.89803e-05
9.62859e-05
9.4568e-05
9.36068e-05
9.32126e-05
9.3199e-05
9.36305e-05
9.43196e-05
9.55487e-05
9.72642e-05
9.90543e-05
9.99495e-05
9.89594e-05
9.73627e-05
9.64094e-05
9.67267e-05
9.75815e-05
9.94858e-05
0.000103219
0.000108549
0.000118986
0.000147495
0.000241626
0.00038391
0.000402964
0.000357803
0.000256366
0.000176488
0.000135604
0.000118307
0.000109997
0.000104559
0.000100561
9.75e-05
9.54001e-05
9.40713e-05
9.33944e-05
9.32433e-05
9.35098e-05
9.4074e-05
9.50279e-05
9.65157e-05
9.84538e-05
0.000100287
0.000100579
9.8942e-05
9.72238e-05
9.611e-05
9.62664e-05
9.70303e-05
9.86126e-05
0.000101811
0.000106623
0.00011531
0.000137036
0.000203102
0.000359908
0.000415949
0.000386109
0.000293976
0.000202584
0.000146912
0.000123053
0.000112422
0.000106372
0.000102136
9.88783e-05
9.64618e-05
9.48825e-05
9.39017e-05
9.35011e-05
9.36399e-05
9.41836e-05
9.51e-05
9.65465e-05
9.85176e-05
0.000100709
0.000102352
0.000100439
0.000101927
9.891e-05
9.70703e-05
9.58354e-05
9.58087e-05
9.65008e-05
9.7858e-05
0.000100556
0.000104955
0.000112337
0.000129556
0.000179031
0.000323028
0.000422009
0.000408164
0.000334751
0.000232517
0.00016325
0.000129343
0.000115256
0.000108165
0.000103629
0.000100257
9.76704e-05
9.58971e-05
9.48138e-05
9.41391e-05
9.40383e-05
9.45438e-05
9.54577e-05
9.6894e-05
9.89358e-05
0.000101486
0.000103907
0.00010346
0.00010462
0.000100612
0.000102358
9.88619e-05
9.68971e-05
9.55807e-05
9.54025e-05
9.59501e-05
9.71597e-05
9.94376e-05
0.000103488
0.000109964
0.000124054
0.00016242
0.0002806
0.000416427
0.000424919
0.00037363
0.000267876
0.000183916
0.000138396
0.000118837
0.000109982
0.000104982
0.000101554
9.89277e-05
9.70373e-05
9.58899e-05
9.51864e-05
9.49121e-05
9.53167e-05
9.63028e-05
9.7817e-05
9.99453e-05
0.000102868
0.000104295
0.000104889
0.000105436
0.000105347
0.000106235
0.000104029
0.000105315
0.000100732
0.000102735
9.88093e-05
9.67e-05
9.53257e-05
9.50628e-05
9.53189e-05
9.64355e-05
9.84463e-05
0.000102125
0.000108084
0.000119988
0.00015043
0.000242216
0.000400986
0.000439966
0.000404059
0.000304027
0.000210116
0.000150764
0.000123704
0.000112077
0.000106242
0.000102667
0.000100085
9.82444e-05
9.70702e-05
9.64186e-05
9.62107e-05
9.65074e-05
9.75853e-05
9.93971e-05
0.000102027
0.000105119
0.000105687
0.000106962
0.000106375
0.000106382
0.000107319
0.000107366
0.000104592
0.000106094
0.00010088
0.000103192
9.87589e-05
9.64906e-05
9.50904e-05
9.47671e-05
9.46569e-05
9.56652e-05
9.75167e-05
0.000100839
0.000106509
0.000117009
0.000141934
0.000211448
0.000374646
0.00045133
0.000427595
0.000345002
0.000239782
0.000167348
0.000130516
0.000114765
0.000107464
0.000103536
0.000101023
9.92982e-05
9.82704e-05
9.76768e-05
9.7712e-05
9.8147e-05
9.92351e-05
0.000101402
0.000104301
0.000107605
0.000108179
0.000109862
0.000107623
0.000109189
0.000108702
0.000107307
0.000108616
0.000108466
0.000105261
0.000106892
0.000101044
0.000103717
9.8711e-05
9.62899e-05
9.49247e-05
9.44713e-05
9.40574e-05
9.49213e-05
9.66194e-05
9.96761e-05
0.000105099
0.000114804
0.000136062
0.000192025
0.000344174
0.000455406
0.000447732
0.000382119
0.000273512
0.000188247
0.000139866
0.000118388
0.000108837
0.000104231
0.000101707
0.000100137
9.93764e-05
9.89434e-05
9.91706e-05
9.99825e-05
0.000101365
0.000103574
0.000106644
0.000110243
0.000111269
0.000112968
0.000110976
0.000112812
0.000110376
0.000112313
0.000110269
0.000108199
0.000109986
0.000109558
0.000105989
0.0001077
0.000101248
0.000104323
9.86659e-05
9.61389e-05
9.48346e-05
9.41434e-05
9.35188e-05
9.42428e-05
9.5762e-05
9.86314e-05
0.00010381
0.000113084
0.000132102
0.000178959
0.000311291
0.00045144
0.000464814
0.000416694
0.000308925
0.00021323
0.000152493
0.000123407
0.000110733
0.000104851
0.000102061
0.000100635
0.000100188
0.000100146
0.000100653
0.000101873
0.000103607
0.000105825
0.000108803
0.000112596
0.000114235
0.00011599
0.000114699
0.000116279
0.000114358
0.000116438
0.000112353
0.000114683
0.000112045
0.000109091
0.000111439
0.000110685
0.000106788
0.000108542
0.000101507
0.00010503
9.86469e-05
9.60956e-05
9.48208e-05
9.38224e-05
9.29978e-05
9.36443e-05
9.50021e-05
9.76907e-05
0.000102703
0.00011174
0.000129433
0.000170223
0.000282533
0.000441512
0.000480345
0.000444594
0.000345144
0.000241944
0.000168775
0.000130403
0.000113396
0.000105619
0.000102179
0.000100722
0.000100555
0.000101034
0.00010208
0.000103791
0.000105836
0.000108022
0.000111093
0.000115264
0.000117132
0.000119356
0.000118115
0.000120024
0.000118322
0.000120302
0.000117078
0.0001195
0.000114637
0.00011741
0.00011409
0.000110002
0.000113153
0.000112029
0.000107659
0.000109389
0.000101837
0.000105857
9.87034e-05
9.62135e-05
9.49025e-05
9.35642e-05
9.2508e-05
9.30783e-05
9.43574e-05
9.69276e-05
0.000101858
0.000110843
0.000127841
0.000164611
0.000259771
0.000426501
0.00049403
0.000467932
0.000383231
0.000272433
0.000189004
0.000139987
0.000117145
0.000106881
0.000102306
0.000100631
0.000100584
0.000101475
0.000103186
0.000105684
0.000108076
0.000110142
0.000113542
0.000118247
0.000121843
0.000127379
0.000123036
0.000129112
0.000123315
0.000129875
0.000122185
0.000127844
0.000120157
0.000124435
0.000117316
0.000120251
0.000116618
0.000110954
0.00011544
0.000114014
0.000108575
0.000110127
0.00010225
0.000106826
9.89156e-05
9.66376e-05
9.51544e-05
9.348e-05
9.21445e-05
9.25699e-05
9.3771e-05
9.63384e-05
0.000101338
0.000110513
0.000127434
0.000161819
0.000243448
0.000410288
0.000505177
0.000489197
0.000418907
0.000305253
0.000212341
0.000152633
0.000122603
0.000108859
0.000102618
0.000100346
0.000100401
0.000101584
0.000103835
0.00010739
0.000110281
0.000112354
0.000115418
0.00012552
0.000134474
0.000152011
0.000141522
0.000168518
0.000144828
0.000178677
0.00014195
0.000178284
0.000134887
0.000163656
0.000126522
0.000144329
0.000120034
0.000128216
0.000119142
0.000112616
0.000117587
0.000115684
0.000109289
0.000111438
0.000102853
0.000107683
9.95164e-05
9.75493e-05
9.57603e-05
9.36897e-05
9.19948e-05
9.22295e-05
9.32939e-05
9.58815e-05
0.000101127
0.000110731
0.000128085
0.000161694
0.000234494
0.000395222
0.000512377
0.000508596
0.000452683
0.00033905
0.000238546
0.000168501
0.000130178
0.000112006
0.000103458
0.000100209
9.98452e-05
0.00010146
0.000104197
0.000108567
0.000111865
0.000114644
0.000119238
0.000129608
0.000169027
0.000204662
0.000212147
0.000308026
0.000252296
0.000405901
0.000264903
0.000460946
0.000242887
0.000441357
0.00019854
0.00035114
0.000155291
0.000245413
0.000128966
0.000165341
0.000127999
0.000113894
0.000125291
0.000121516
0.000110341
0.000112382
0.000103577
0.000108638
0.00010082
9.93763e-05
9.69446e-05
9.43542e-05
9.2175e-05
9.21551e-05
9.30923e-05
9.56689e-05
0.000101219
0.000111574
0.000130587
0.000162985
0.000232896
0.000384153
0.000516925
0.000529427
0.000482171
0.000372552
0.000266888
0.000187534
0.000140272
0.000116775
0.000105395
0.000100358
9.94366e-05
0.000100994
0.000104307
0.000109371
0.000113278
0.00011694
0.000122606
0.000159003
0.000259113
0.000163899
0.00041132
0.000626965
0.000673222
0.00108309
0.000872662
0.0015398
0.000883009
0.00175683
0.000746669
0.00160526
0.000506611
0.00117145
0.000297432
0.000696201
0.000171929
0.000342715
0.000171458
0.00011775
0.000163643
0.000150014
0.000111261
0.000114721
0.000104367
0.000109767
0.000103804
0.000103512
9.91813e-05
9.57759e-05
9.28692e-05
9.24239e-05
9.32687e-05
9.58878e-05
0.000101815
0.000113189
0.000133973
0.000166891
0.000234346
0.000380515
0.000521052
0.000550431
0.000509289
0.000408324
0.00029631
0.000209424
0.000153291
0.000123559
0.000108663
0.000101305
9.9446e-05
0.000100752
0.000104269
0.000110063
0.000114792
0.000118675
0.000124357
0.000184197
0.00091067
0.00080532
0.00127412
0.00159348
0.0022265
0.00241108
0.00342146
0.00295782
0.00428823
0.00301632
0.00463332
0.00257344
0.00440379
0.00166494
0.00359844
0.000883718
0.00219281
0.000370444
0.00102249
0.000367865
0.000135216
0.000337052
0.00028358
0.000112436
0.000123421
0.000105355
0.000110292
0.000110736
0.000112262
0.000103805
9.83598e-05
9.42104e-05
9.31666e-05
9.39082e-05
9.67416e-05
0.000103248
0.000115906
0.00013863
0.000175625
0.000239946
0.000381339
0.000527228
0.000571425
0.00053566
0.000443447
0.000326704
0.00023359
0.000169207
0.000132806
0.000113784
0.000103813
0.000100181
0.00010088
0.000104419
0.000110877
0.000115897
0.00012014
0.000126168
0.000179947
0.00108263
0.00406997
0.00465117
0.00288163
0.00356781
0.004449
0.00550606
0.00564931
0.00688891
0.00620752
0.00755047
0.00616952
0.00763674
0.00561522
0.00726967
0.00445618
0.00646114
0.00261883
0.00504773
0.00108378
0.00286296
0.00104481
0.00022304
0.000928657
0.000761503
0.000116282
0.000169464
0.000106257
0.000111318
0.000127122
0.000132185
0.000113296
0.000102654
9.63139e-05
9.44423e-05
9.50414e-05
9.84166e-05
0.000105885
0.000120307
0.000146172
0.000189196
0.000254634
0.000385502
0.000535275
0.000592941
0.000561797
0.000477652
0.000357596
0.000259207
0.000187829
0.000144681
0.000121408
0.000108643
0.000102937
0.000101909
0.000105039
0.000111574
0.000116965
0.000123
0.000128987
0.000174078
0.00100882
0.00499088
0.00543629
0.00787628
0.00837825
0.00645914
0.00725328
0.00793572
0.00873875
0.0085582
0.00926234
0.00867177
0.00935618
0.00846225
0.00924398
0.00793854
0.00893083
0.00697666
0.00832704
0.00538752
0.00727405
0.00290734
0.00553395
0.00273086
0.000560146
0.00238672
0.00196446
0.000134382
0.000362716
0.000106464
0.000116978
0.000155259
0.000176904
0.000135207
0.000110968
9.94861e-05
9.6418e-05
9.67963e-05
0.000101216
0.00011051
0.000127339
0.00015802
0.000206888
0.000276945
0.000396406
0.000544884
0.000614821
0.000588192
0.00051106
0.000388504
0.000285566
0.000208592
0.000159497
0.000131873
0.000116664
0.000109023
0.000105296
0.000106976
0.000113024
0.000119046
0.000125991
0.000131942
0.00016957
0.00102388
0.00554109
0.00530359
0.00872206
0.00904354
0.00999587
0.010191
0.00931384
0.00971169
0.00974913
0.0100414
0.0097983
0.0100368
0.0097345
0.0100218
0.00955936
0.00994944
0.00922922
0.00982189
0.00860201
0.00952524
0.00746943
0.0088675
0.00553385
0.00760969
0.00534289
0.00145726
0.00492888
0.0042272
0.000219062
0.000952451
0.000105862
0.000142898
0.000164558
0.000223042
0.000184648
0.000130708
0.000105273
9.95092e-05
9.9622e-05
0.000105134
0.000117197
0.000138346
0.000175492
0.00022928
0.000302933
0.000417138
0.000557863
0.000636272
0.000614633
0.000543858
0.000418966
0.000312015
0.000230751
0.000176892
0.000145422
0.000128587
0.000118317
0.000112896
0.000112321
0.000116887
0.000122998
0.00012912
0.000135571
0.000163505
0.000908887
0.00759156
0.00919688
0.00989733
0.0103442
0.0104611
0.0103664
0.0103756
0.0102115
0.0103142
0.0101567
0.0101626
0.0101623
0.0101584
0.01018
0.0103091
0.0102231
0.0105138
0.0101723
0.0106431
0.00988302
0.010605
0.00916211
0.0102799
0.00767664
0.00945613
0.00758004
0.00327161
0.00735137
0.00682456
0.000519804
0.0022508
0.000110258
0.000238143
0.000193306
0.000226629
0.000176946
0.000119046
0.000105143
0.000104365
0.000111755
0.000127388
0.000155775
0.000199147
0.00025638
0.00033263
0.000442242
0.000575436
0.000657327
0.000640957
0.000575129
0.000448816
0.000337678
0.000253248
0.000195691
0.000161819
0.000144859
0.000132993
0.000126718
0.000126091
0.000126938
0.000128738
0.000133676
0.000140029
0.00016103
0.000650451
0.0070117
0.0107731
0.0108338
0.0105861
0.0107599
0.0103722
0.0103698
0.00993293
0.00981653
0.0101297
0.010048
0.0101225
0.0100419
0.0103643
0.0103576
0.01073
0.0108957
0.0110181
0.0113589
0.0111306
0.0115844
0.0110485
0.0115953
0.01068
0.0114454
0.00967054
0.0110514
0.00975275
0.00584907
0.0096533
0.00917927
0.0012735
0.00441896
0.000131732
0.00056124
0.000180278
0.000217798
0.000154346
0.000117344
0.000112802
0.000122693
0.00014471
0.000180967
0.000228109
0.000287705
0.000365207
0.000470912
0.000595983
0.000678281
0.000666633
0.000604709
0.000478408
0.00036197
0.000274741
0.000214911
0.00018121
0.000165006
0.000154928
0.000151472
0.000148666
0.000142292
0.00014004
0.000141022
0.000145247
0.000160762
0.000473952
0.00537229
0.0108154
0.0107192
0.0105255
0.0106809
0.0103883
0.0104578
0.00971522
0.00962789
0.00967771
0.00954054
0.00993347
0.00981133
0.0103286
0.0102621
0.0110202
0.0110882
0.0116995
0.0120376
0.0120942
0.0127213
0.0121353
0.0128892
0.0119904
0.0126644
0.0117732
0.0123231
0.0113308
0.0120888
0.0114845
0.00831991
0.0114913
0.011255
0.00995644
0.00281776
0.00691014
0.00019455
0.00153502
0.000179313
0.000201152
0.000144999
0.000128228
0.000141584
0.000171682
0.000212836
0.000260982
0.000321976
0.000400338
0.000501526
0.000619024
0.000698567
0.000690605
0.000632136
0.00050678
0.000384208
0.000293942
0.000233016
0.000198214
0.000183798
0.000177233
0.000176231
0.000174755
0.000171878
0.000164069
0.000157353
0.000155857
0.000163182
0.000352361
0.00378994
0.0111456
0.010797
0.0111076
0.00960588
0.00969356
0.00957618
0.00957561
0.00941056
0.00929389
0.00987689
0.00972112
0.0101603
0.0100276
0.0111191
0.0111114
0.0123719
0.0126854
0.0134763
0.014274
0.0139848
0.0153689
0.0137968
0.0153972
0.0131626
0.0147208
0.0125617
0.0136101
0.0123415
0.0128075
0.0125284
0.0120641
0.0124963
0.0109384
0.00896205
0.0106305
0.0120252
0.0126626
0.0125371
0.011966
0.00509935
0.0100411
0.00942957
0.00749919
0.00076915
0.00355095
0.000197439
0.000197986
0.000156642
0.000170281
0.000205814
0.000246087
0.000296182
0.000357954
0.000436253
0.000534002
0.000642911
0.000718164
0.000712049
0.000656731
0.00053285
0.000404226
0.000310114
0.000247459
0.00020911
0.000194248
0.00019192
0.000199733
0.000217874
0.000234524
0.000225666
0.000202823
0.000183805
0.000175388
0.00027075
0.00246119
0.0109613
0.0103544
0.0107345
0.00986493
0.0101246
0.00913059
0.00914313
0.00920095
0.00914316
0.00956925
0.00943573
0.0107612
0.0105919
0.0110472
0.01092
0.0129172
0.0130133
0.0150954
0.0157758
0.0168527
0.0180577
0.0175098
0.0189387
0.0169008
0.0190346
0.0143843
0.0155299
0.0166063
0.017989
0.0132389
0.0140078
0.0158166
0.016154
0.0148497
0.0129589
0.0127541
0.0130927
0.0134562
0.0128771
0.0117737
0.0114081
0.0126405
0.013061
0.013005
0.0125853
0.00858633
0.00576268
0.00769426
0.010921
0.0102468
0.00223924
0.00677952
0.0059699
0.00463075
0.000232636
0.000210408
0.000205294
0.00023856
0.000281135
0.000329835
0.000394284
0.000472288
0.000566233
0.000667876
0.000736403
0.000730532
0.000677923
0.000555613
0.000421649
0.000323138
0.000258134
0.000215759
0.000199388
0.000202053
0.000232939
0.000320944
0.000392737
0.00039763
0.000337683
0.000272669
0.000224024
0.000252858
0.00138335
0.0100278
0.0104008
0.00945536
0.00958089
0.00920017
0.009278
0.00922943
0.00922171
0.00933307
0.00926723
0.0104387
0.010312
0.0127599
0.0125777
0.0130048
0.0129269
0.0162164
0.0164058
0.018698
0.0189603
0.0195146
0.0197943
0.0198358
0.0199216
0.0188516
0.0198142
0.019952
0.0200629
0.0170873
0.0182804
0.0192634
0.0142032
0.0151751
0.0173155
0.0174469
0.0162896
0.0136075
0.0132153
0.0137328
0.0143816
0.013335
0.0124072
0.0120903
0.01309
0.0134063
0.0134455
0.0130383
0.00943411
0.00848177
0.011612
0.0109472
0.00556919
0.00265349
0.00456504
0.00754539
0.00665462
0.000312539
0.000254254
0.000275031
0.000310512
0.000364247
0.000426823
0.000507596
0.000598329
0.000692085
0.000753671
0.000746151
0.000695037
0.00057437
0.000436183
0.000333384
0.00026513
0.000219302
0.000201543
0.0002149
0.000310385
0.000570696
0.000924779
0.0009969
0.000808221
0.00056849
0.000381626
0.000290654
0.000802042
0.00696627
0.0109183
0.00958316
0.00978082
0.0093442
0.00941806
0.00922994
0.00926246
0.0100839
0.0100369
0.0102177
0.0101473
0.0124167
0.0122738
0.0160434
0.0158044
0.0163832
0.016271
0.0189743
0.0188435
0.0197154
0.019476
0.0194608
0.0186014
0.0197944
0.0193388
0.0185397
0.0176767
0.019881
0.0201182
0.0200182
0.0195426
0.0184459
0.0193862
0.0199348
0.0153674
0.0164637
0.0185237
0.0185761
0.0175583
0.0145107
0.0138284
0.0146005
0.0155141
0.0138829
0.0128801
0.0125827
0.013443
0.0138906
0.0138569
0.0133687
0.0101176
0.00916211
0.0121158
0.0114729
0.00569522
0.00239293
0.00457634
0.00818545
0.00724502
0.000358363
0.000313533
0.000346419
0.00039045
0.000459851
0.000538794
0.000629315
0.000716509
0.000769319
0.000759156
0.000708434
0.000588056
0.000447743
0.000339796
0.000268743
0.000220276
0.000202135
0.00023425
0.000478346
0.00119658
0.00231333
0.00293412
0.00254563
0.00157025
0.000844901
0.000453475
0.000643598
0.00392987
0.010826
0.0100582
0.00992384
0.00998012
0.00994595
0.00992391
0.0100034
0.0099725
0.0118607
0.0117006
0.0121486
0.0120156
0.0155759
0.0153394
0.0180634
0.0177874
0.0186185
0.0183496
0.0191138
0.0186551
0.0174575
0.0163595
0.0167384
0.0158383
0.0149957
0.0141116
0.0187426
0.0176564
0.0164903
0.0152618
0.0200868
0.0198699
0.0191678
0.0180707
0.019411
0.0198902
0.0199862
0.0166038
0.0176586
0.0193831
0.0193184
0.018595
0.0156144
0.0146406
0.0156605
0.0167164
0.0146177
0.0131961
0.0128887
0.0137669
0.0145215
0.0143503
0.0136103
0.0106693
0.00975817
0.0124395
0.0118563
0.00619463
0.00146684
0.00421486
0.0088406
0.00791221
0.000405398
0.00037832
0.000423258
0.000484668
0.000568744
0.000657286
0.000739702
0.000784374
0.000770368
0.000717361
0.000597207
0.00045465
0.000343905
0.000268386
0.000219908
0.000201293
0.000248087
0.000659601
0.00203515
0.00436204
0.0059838
0.00569108
0.00408679
0.00216416
0.000948046
0.000709054
0.00243478
0.0101476
0.0101086
0.0108963
0.0106518
0.0111015
0.010975
0.0112886
0.0111894
0.0115456
0.0114034
0.0143781
0.0139795
0.0150741
0.014752
0.0174954
0.0171516
0.0174945
0.0171812
0.0182142
0.0178345
0.0153319
0.0142291
0.0117771
0.0103845
0.0141752
0.0131833
0.0124003
0.0119151
0.0167106
0.0152491
0.013842
0.0125857
0.0196237
0.0187368
0.0173984
0.015793
0.0197932
0.0198374
0.0193605
0.0177386
0.0186026
0.0196762
0.0195375
0.0192416
0.0167818
0.0156395
0.0167892
0.0178118
0.0155203
0.0133619
0.0130284
0.0141001
0.0152843
0.0149183
0.01379
0.0111427
0.0103669
0.0126198
0.0121492
0.00647931
0.000605686
0.00344965
0.00956082
0.0085609
0.000458846
0.000450701
0.00051307
0.000592774
0.000682541
0.000761583
0.000798662
0.000780219
0.000723436
0.000600208
0.000458591
0.00034388
0.000265649
0.000218089
0.000197298
0.000249393
0.000768365
0.00273793
0.00632023
0.00859756
0.00841264
0.00687622
0.00469026
0.00240512
0.00109397
0.0019643
0.0082261
0.0099432
0.0112095
0.0125649
0.0126428
0.0127876
0.0127149
0.0130442
0.0128782
0.0136026
0.0132823
0.0157936
0.0153599
0.0167391
0.0162771
0.0168712
0.0165338
0.0124686
0.0121902
0.0135127
0.0129427
0.00935032
0.00853774
0.00924933
0.00893335
0.00839293
0.00875444
0.0115202
0.0106575
0.00999995
0.0095803
0.0141347
0.0126137
0.0113307
0.0103404
0.0183141
0.0168104
0.015044
0.0132828
0.0196616
0.0191025
0.0179641
0.0186249
0.0191824
0.0194844
0.0193373
0.0194049
0.0178529
0.0167122
0.0178456
0.0186779
0.016487
0.0134256
0.0130608
0.0144402
0.016093
0.0154858
0.0139023
0.0116129
0.0110234
0.0127114
0.0123927
0.0064772
0.00091093
0.00283976
0.010319
0.00906243
0.000524201
0.000535992
0.000617014
0.000704581
0.000780871
0.000813656
0.000789593
0.000725833
0.000599696
0.000458221
0.000343361
0.000261133
0.000213485
0.000191333
0.000236592
0.000780087
0.00310124
0.00772432
0.0102927
0.0100911
0.00883484
0.0068158
0.00451155
0.00239694
0.0020546
0.0063803
0.00928596
0.0108938
0.014556
0.0140338
0.0146278
0.0146857
0.0145242
0.0145748
0.0146019
0.0145261
0.0150276
0.0147788
0.0155832
0.0153985
0.0161723
0.015852
0.0120765
0.0120367
0.00596461
0.00546811
0.00765786
0.00683663
0.00814094
0.00776056
0.00735637
0.00894047
0.00890645
0.00876614
0.00886873
0.00967425
0.00929745
0.0090946
0.00898959
0.0117443
0.0105451
0.00975216
0.00932728
0.0163588
0.01452
0.012729
0.0112341
0.0188799
0.0177113
0.0160757
0.0191728
0.0193379
0.0187186
0.0186337
0.0192372
0.018734
0.0177171
0.0187291
0.0192302
0.0173956
0.013416
0.0130337
0.014727
0.0168182
0.0159263
0.0139569
0.0120965
0.01173
0.01278
0.0126416
0.00627737
0.000429224
0.00244883
0.0110396
0.00939242
0.000592503
0.000636416
0.000725476
0.000801109
0.000826825
0.000800552
0.000728213
0.000597348
0.00045705
0.000342096
0.000257731
0.000207447
0.000185694
0.000209965
0.000699367
0.00312476
0.00841374
0.0112291
0.0110586
0.00961551
0.00780407
0.00585875
0.00401249
0.00282084
0.00539566
0.00801844
0.010376
0.0154386
0.0170949
0.0177919
0.0165796
0.0168786
0.0160108
0.0162913
0.0155209
0.0157544
0.015346
0.0153788
0.0130955
0.0137346
0.0121831
0.0125488
0.00535337
0.00557864
0.00405903
0.00310937
0.00636824
0.00529581
0.00855779
0.00823973
0.010025
0.00931703
0.00984207
0.0101987
0.0106539
0.0105076
0.00915153
0.00914288
0.00923717
0.00950043
0.0101687
0.00955948
0.00931783
0.00930987
0.0142248
0.0124569
0.0110322
0.0100809
0.0175619
0.0159624
0.0141477
0.0193719
0.0192352
0.017531
0.0176297
0.0186625
0.0193331
0.0185534
0.0193811
0.0195031
0.0181242
0.0133561
0.0130115
0.0148894
0.0172881
0.0161571
0.0139606
0.0125745
0.0124185
0.0128749
0.0129155
0.00611684
0.000276793
0.00174386
0.0116906
0.00966659
0.000680604
0.000744002
0.000818735
0.000848846
0.000809763
0.000731942
0.000594244
0.000455033
0.000341794
0.000256732
0.000202077
0.000180038
0.000189089
0.000506085
0.00286444
0.00847584
0.0116193
0.0114818
0.00957393
0.00822923
0.00688798
0.00519681
0.00391199
0.00535819
0.00728387
0.00963809
0.0148006
0.0198954
0.0197751
0.0191432
0.0196653
0.018175
0.0186749
0.017078
0.0176411
0.0158146
0.016459
0.0144408
0.0151496
0.00951176
0.0110777
0.0064993
0.00795226
0.00270505
0.00265615
0.0044799
0.00291647
0.00852788
0.00748229
0.0065306
0.0106578
0.0104563
0.0128164
0.0120273
0.0117024
0.0123651
0.0133203
0.0129449
0.00952643
0.00991313
0.0104203
0.0110215
0.00962911
0.00954664
0.00965595
0.0100536
0.0124301
0.0110672
0.0101866
0.00986569
0.0160051
0.0142725
0.0126206
0.0193828
0.0188496
0.016218
0.0166339
0.0179136
0.0196741
0.0191507
0.0197602
0.0196552
0.0185171
0.0133139
0.0130381
0.0149701
0.0174867
0.0162546
0.0139893
0.0130545
0.0130483
0.0130182
0.0132194
0.00561635
0.000154295
0.00104437
0.0122972
0.009788
0.00078473
0.000839541
0.000865093
0.000830717
0.000736302
0.000593419
0.000454013
0.000343052
0.000258086
0.00020034
0.000174526
0.000177391
0.00034926
0.00215071
0.00809798
0.0116896
0.0114916
0.00927196
0.0083259
0.00774077
0.00656531
0.00510697
0.0057431
0.00732288
0.00955202
0.0147732
0.0213409
0.0215031
0.0221879
0.020488
0.0210946
0.0191203
0.0198311
0.0174249
0.0183179
0.0153119
0.0164347
0.0126213
0.0140392
0.00592335
0.00784426
0.00303147
0.00411758
0.00212947
0.00179925
0.00747484
0.00583486
0.0042913
0.0109234
0.00954398
0.00887064
0.0105948
0.0134032
0.0132764
0.0154856
0.01462
0.0138171
0.0146674
0.015949
0.0154113
0.0106377
0.0113078
0.0120924
0.0129395
0.00985355
0.01012
0.0106085
0.0112427
0.0113114
0.0104802
0.0102393
0.0102532
0.014598
0.0130278
0.0117661
0.0192361
0.0184319
0.0151667
0.0160838
0.017341
0.0198843
0.0194415
0.0199592
0.0197647
0.018618
0.0133588
0.0130855
0.0150618
0.0175335
0.0163575
0.0141088
0.0135361
0.0136388
0.0131457
0.01357
0.00487062
0.000111525
0.000475579
0.0128432
0.00979633
0.000887454
0.000890933
0.000847454
0.000750316
0.000595072
0.000454914
0.000347737
0.00026545
0.000202671
0.000172386
0.000174552
0.00025741
0.00140762
0.00684103
0.0115712
0.0114621
0.00888641
0.00824643
0.00818818
0.00825765
0.00755252
0.00692397
0.00798102
0.00996046
0.0151799
0.0216662
0.0228919
0.0230082
0.0221115