/*--------------------------------*- C++ -*----------------------------------*\
  =========                 |
  \\      /  F ield         | OpenFOAM: The Open Source CFD Toolbox
   \\    /   O peration     | Website:  https://openfoam.org
    \\  /    A nd           | Version:  dev
     \\/     M anipulation  |
\*---------------------------------------------------------------------------*/
FoamFile
{
    version     2.0;
    format      ascii;
    class       volScalarField;
    location    "2500";
    object      N2;
}
// * * * * * * * * * * * * * * * * * * * * * * * * * * * * * * * * * * * * * //

dimensions      [0 0 0 0 0 0 0];

internalField   nonuniform List<scalar> 
9836
(
0.76699
0.76699
0.76699
0.76699
0.76699
0.76699
0.76699
0.76699
0.76699
0.76699
0.76699
0.76699
0.76699
0.76699
0.76699
0.76699
0.76699
0.76699
0.76699
0.76699
0.76699
0.76699
0.76699
0.76699
0.76699
0.76699
0.76699
0.76699
0.76699
0.76699
0.76699
0.76699
0.76699
0.76699
0.76699
0.76699
0.76699
0.76699
0.76699
0.76699
0.76699
0.76699
0.76699
0.76699
0.76699
0.76699
0.76699
0.76699
0.76699
0.76699
0.76699
0.76699
0.76699
0.76699
0.76699
0.76699
0.76699
0.76699
0.76699
0.76699
0.76699
0.76699
0.76699
0.76699
0.76699
0.76699
0.76699
0.76699
0.76699
0.76699
0.76699
0.76699
0.76699
0.76699
0.76699
0.76699
0.76699
0.76699
0.76699
0.76699
0.76699
0.76699
0.76699
0.76699
0.76699
0.76699
0.76699
0.76699
0.76699
0.76699
0.76699
0.76699
0.76699
0.76699
0.76699
0.76699
0.76699
0.76699
0.76699
0.76699
0.76699
0.76699
0.76699
0.76699
0.76699
0.76699
0.76699
0.76699
0.76699
0.76699
0.76699
0.76699
0.76699
0.76699
0.76699
0.76699
0.76699
0.76699
0.76699
0.76699
0.76699
0.76699
0.76699
0.76699
0.76699
0.76699
0.76699
0.76699
0.76699
0.76699
0.76699
0.76699
0.76699
0.76699
0.76699
0.76699
0.76699
0.76699
0.76699
0.76699
0.76699
0.76699
0.76699
0.76699
0.76699
0.76699
0.76699
0.76699
0.76699
0.76699
0.76699
0.76699
0.76699
0.76699
0.76699
0.76699
0.76699
0.76699
0.76699
0.76699
0.76699
0.76699
0.76699
0.76699
0.76699
0.76699
0.76699
0.76699
0.76699
0.76699
0.76699
0.76699
0.76699
0.76699
0.76699
0.76699
0.76699
0.76699
0.76699
0.76699
0.76699
0.76699
0.76699
0.76699
0.76699
0.76699
0.76699
0.76699
0.76699
0.76699
0.76699
0.76699
0.76699
0.76699
0.76699
0.76699
0.76699
0.76699
0.76699
0.76699
0.76699
0.76699
0.76699
0.76699
0.76699
0.76699
0.76699
0.76699
0.76699
0.76699
0.76699
0.76699
0.76699
0.76699
0.76699
0.76699
0.76699
0.76699
0.76699
0.76699
0.76699
0.76699
0.76699
0.76699
0.76699
0.76699
0.76699
0.76699
0.76699
0.76699
0.76699
0.76699
0.76699
0.76699
0.76699
0.76699
0.76699
0.76699
0.76699
0.76699
0.76699
0.76699
0.76699
0.76699
0.76699
0.76699
0.76699
0.76699
0.76699
0.76699
0.76699
0.76699
0.76699
0.76699
0.76699
0.76699
0.76699
0.76699
0.76699
0.76699
0.76699
0.76699
0.76699
0.76699
0.76699
0.76699
0.76699
0.76699
0.76699
0.76699
0.76699
0.76699
0.76699
0.76699
0.76699
0.76699
0.76699
0.76699
0.76699
0.76699
0.76699
0.76699
0.76699
0.76699
0.76699
0.76699
0.76699
0.76699
0.76699
0.76699
0.76699
0.76699
0.76699
0.76699
0.76699
0.76699
0.76699
0.76699
0.76699
0.76699
0.76699
0.76699
0.76699
0.76699
0.76699
0.76699
0.76699
0.76699
0.76699
0.76699
0.76699
0.76699
0.76699
0.76699
0.76699
0.76699
0.76699
0.76699
0.76699
0.76699
0.76699
0.76699
0.76699
0.76699
0.76699
0.76699
0.76699
0.76699
0.76699
0.76699
0.76699
0.76699
0.76699
0.76699
0.76699
0.76699
0.76699
0.76699
0.76699
0.76699
0.76699
0.76699
0.76699
0.76699
0.76699
0.76699
0.76699
0.76699
0.76699
0.76699
0.76699
0.76699
0.76699
0.76699
0.76699
0.76699
0.76699
0.76699
0.76699
0.76699
0.76699
0.76699
0.76699
0.76699
0.76699
0.76699
0.76699
0.76699
0.76699
0.76699
0.76699
0.76699
0.76699
0.76699
0.76699
0.76699
0.76699
0.76699
0.76699
0.76699
0.76699
0.76699
0.76699
0.76699
0.76699
0.76699
0.76699
0.76699
0.76699
0.76699
0.76699
0.76699
0.76699
0.76699
0.76699
0.76699
0.76699
0.76699
0.76699
0.76699
0.76699
0.76699
0.76699
0.76699
0.76699
0.76699
0.76699
0.76699
0.76699
0.76699
0.76699
0.76699
0.76699
0.76699
0.76699
0.76699
0.76699
0.76699
0.76699
0.76699
0.76699
0.76699
0.76699
0.76699
0.76699
0.76699
0.76699
0.76699
0.76699
0.76699
0.76699
0.76699
0.76699
0.76699
0.76699
0.76699
0.76699
0.76699
0.76699
0.76699
0.76699
0.76699
0.76699
0.76699
0.76699
0.76699
0.76699
0.76699
0.76699
0.76699
0.76699
0.76699
0.76699
0.76699
0.76699
0.76699
0.76699
0.76699
0.76699
0.76699
0.76699
0.76699
0.76699
0.76699
0.76699
0.76699
0.76699
0.76699
0.76699
0.76699
0.76699
0.76699
0.76699
0.76699
0.76699
0.76699
0.76699
0.76699
0.76699
0.76699
0.76699
0.76699
0.76699
0.76699
0.76699
0.76699
0.76699
0.76699
0.76699
0.76699
0.76699
0.76699
0.76699
0.76699
0.76699
0.76699
0.76699
0.76699
0.76699
0.76699
0.76699
0.76699
0.76699
0.76699
0.76699
0.76699
0.76699
0.76699
0.76699
0.76699
0.76699
0.76699
0.76699
0.76699
0.76699
0.76699
0.76699
0.76699
0.76699
0.76699
0.76699
0.76699
0.76699
0.76699
0.76699
0.76699
0.76699
0.76699
0.76699
0.76699
0.76699
0.76699
0.76699
0.76699
0.76699
0.76699
0.76699
0.76699
0.76699
0.76699
0.76699
0.76699
0.76699
0.76699
0.76699
0.76699
0.76699
0.76699
0.76699
0.76699
0.76699
0.76699
0.76699
0.76699
0.76699
0.76699
0.76699
0.76699
0.76699
0.76699
0.76699
0.76699
0.76699
0.76699
0.76699
0.76699
0.76699
0.76699
0.76699
0.76699
0.76699
0.76699
0.76699
0.76699
0.76699
0.76699
0.76699
0.76699
0.76699
0.76699
0.76699
0.76699
0.76699
0.76699
0.76699
0.76699
0.76699
0.76699
0.76699
0.76699
0.76699
0.76699
0.76699
0.76699
0.76699
0.76699
0.76699
0.76699
0.76699
0.76699
0.76699
0.76699
0.76699
0.76699
0.76699
0.76699
0.76699
0.76699
0.76699
0.76699
0.76699
0.76699
0.76699
0.76699
0.76699
0.76699
0.76699
0.76699
0.76699
0.76699
0.76699
0.76699
0.76699
0.76699
0.76699
0.76699
0.76699
0.76699
0.76699
0.76699
0.76699
0.76699
0.76699
0.76699
0.76699
0.76699
0.76699
0.76699
0.76699
0.76699
0.76699
0.76699
0.76699
0.76699
0.76699
0.76699
0.76699
0.76699
0.76699
0.76699
0.76699
0.76699
0.76699
0.76699
0.76699
0.76699
0.76699
0.76699
0.76699
0.76699
0.76699
0.76699
0.76699
0.76699
0.76699
0.76699
0.76699
0.76699
0.76699
0.76699
0.76699
0.76699
0.76699
0.76699
0.76699
0.76699
0.76699
0.76699
0.76699
0.76699
0.76699
0.76699
0.76699
0.76699
0.76699
0.76699
0.76699
0.76699
0.76699
0.76699
0.76699
0.76699
0.76699
0.76699
0.76699
0.76699
0.76699
0.76699
0.76699
0.76699
0.76699
0.76699
0.76699
0.76699
0.76699
0.76699
0.76699
0.76699
0.76699
0.76699
0.76699
0.76699
0.76699
0.76699
0.76699
0.76699
0.76699
0.76699
0.76699
0.76699
0.76699
0.76699
0.76699
0.76699
0.76699
0.76699
0.76699
0.76699
0.76699
0.76699
0.76699
0.76699
0.76699
0.76699
0.76699
0.76699
0.76699
0.76699
0.76699
0.76699
0.76699
0.76699
0.76699
0.76699
0.76699
0.76699
0.76699
0.76699
0.76699
0.76699
0.76699
0.76699
0.76699
0.76699
0.76699
0.76699
0.76699
0.76699
0.76699
0.76699
0.76699
0.76699
0.76699
0.76699
0.76699
0.76699
0.76699
0.76699
0.76699
0.76699
0.76699
0.76699
0.76699
0.76699
0.76699
0.76699
0.76699
0.76699
0.76699
0.76699
0.76699
0.76699
0.76699
0.76699
0.76699
0.76699
0.76699
0.76699
0.76699
0.76699
0.76699
0.76699
0.76699
0.76699
0.76699
0.76699
0.76699
0.76699
0.76699
0.76699
0.76699
0.76699
0.76699
0.76699
0.76699
0.76699
0.76699
0.76699
0.76699
0.76699
0.76699
0.76699
0.76699
0.76699
0.76699
0.76699
0.76699
0.76699
0.76699
0.76699
0.76699
0.76699
0.76699
0.76699
0.76699
0.76699
0.76699
0.76699
0.76699
0.76699
0.76699
0.76699
0.76699
0.76699
0.76699
0.76699
0.76699
0.76699
0.76699
0.76699
0.76699
0.76699
0.76699
0.76699
0.76699
0.76699
0.76699
0.76699
0.76699
0.76699
0.76699
0.76699
0.76699
0.76699
0.76699
0.76699
0.76699
0.76699
0.76699
0.76699
0.76699
0.76699
0.76699
0.76699
0.76699
0.76699
0.76699
0.76699
0.76699
0.76699
0.76699
0.76699
0.76699
0.76699
0.76699
0.76699
0.76699
0.76699
0.76699
0.76699
0.76699
0.76699
0.76699
0.76699
0.76699
0.76699
0.76699
0.76699
0.76699
0.76699
0.76699
0.76699
0.76699
0.76699
0.76699
0.76699
0.76699
0.76699
0.76699
0.76699
0.76699
0.76699
0.76699
0.76699
0.76699
0.76699
0.76699
0.76699
0.76699
0.76699
0.76699
0.76699
0.76699
0.76699
0.76699
0.76699
0.76699
0.76699
0.76699
0.76699
0.76699
0.76699
0.76699
0.76699
0.76699
0.76699
0.76699
0.76699
0.76699
0.76699
0.76699
0.76699
0.76699
0.76699
0.76699
0.76699
0.76699
0.76699
0.76699
0.766989
0.76699
0.766989
0.76699
0.76699
0.76699
0.76699
0.76699
0.76699
0.76699
0.76699
0.76699
0.76699
0.76699
0.76699
0.76699
0.76699
0.76699
0.76699
0.76699
0.76699
0.76699
0.76699
0.76699
0.76699
0.76699
0.76699
0.76699
0.76699
0.76699
0.76699
0.76699
0.76699
0.76699
0.76699
0.76699
0.76699
0.76699
0.76699
0.76699
0.76699
0.76699
0.76699
0.76699
0.76699
0.76699
0.76699
0.76699
0.76699
0.766989
0.766988
0.766989
0.766987
0.766988
0.766986
0.766988
0.766986
0.766989
0.766987
0.76699
0.766988
0.76699
0.766989
0.76699
0.76699
0.76699
0.76699
0.76699
0.76699
0.76699
0.76699
0.76699
0.76699
0.76699
0.76699
0.76699
0.76699
0.76699
0.76699
0.76699
0.76699
0.76699
0.76699
0.76699
0.76699
0.76699
0.76699
0.76699
0.76699
0.76699
0.76699
0.76699
0.76699
0.76699
0.76699
0.76699
0.76699
0.76699
0.76699
0.76699
0.76699
0.76699
0.76699
0.766987
0.766985
0.766984
0.766977
0.76698
0.766969
0.766979
0.766964
0.76698
0.766965
0.766984
0.766971
0.766987
0.766979
0.766989
0.766986
0.766989
0.76699
0.766989
0.766989
0.76699
0.76699
0.76699
0.76699
0.76699
0.76699
0.76699
0.76699
0.76699
0.76699
0.76699
0.76699
0.76699
0.76699
0.76699
0.76699
0.76699
0.76699
0.76699
0.76699
0.76699
0.76699
0.76699
0.76699
0.76699
0.76699
0.76699
0.76699
0.76699
0.76699
0.76699
0.76699
0.76699
0.76699
0.76699
0.766988
0.766982
0.766987
0.76697
0.766958
0.766951
0.766925
0.766934
0.766888
0.76693
0.766865
0.766939
0.766869
0.766956
0.766899
0.766974
0.766937
0.766985
0.766968
0.766984
0.76699
0.766985
0.766986
0.76699
0.76699
0.76699
0.76699
0.76699
0.76699
0.76699
0.76699
0.76699
0.76699
0.76699
0.76699
0.76699
0.76699
0.76699
0.76699
0.76699
0.76699
0.76699
0.76699
0.76699
0.76699
0.76699
0.76699
0.76699
0.76699
0.76699
0.76699
0.76699
0.76699
0.76699
0.76699
0.76699
0.76699
0.76699
0.766987
0.766944
0.766948
0.766922
0.766894
0.766857
0.76683
0.766764
0.766777
0.766678
0.766758
0.766625
0.766781
0.76662
0.766848
0.766673
0.766916
0.766789
0.766964
0.766897
0.766962
0.766987
0.766964
0.766969
0.76699
0.766989
0.76699
0.76699
0.76699
0.76699
0.76699
0.76699
0.76699
0.76699
0.76699
0.76699
0.76699
0.76699
0.76699
0.76699
0.76699
0.76699
0.76699
0.76699
0.76699
0.76699
0.76699
0.76699
0.76699
0.76699
0.76699
0.76699
0.76699
0.76699
0.76699
0.76699
0.76699
0.76699
0.76699
0.766988
0.766938
0.766755
0.766726
0.76682
0.766784
0.766698
0.766632
0.766578
0.766483
0.766487
0.766356
0.766446
0.766275
0.766466
0.766255
0.76656
0.766309
0.766733
0.766453
0.766885
0.766688
0.766882
0.766976
0.766889
0.766905
0.766989
0.766982
0.76699
0.76699
0.76699
0.76699
0.76699
0.76699
0.76699
0.76699
0.76699
0.76699
0.76699
0.76699
0.76699
0.76699
0.76699
0.76699
0.76699
0.76699
0.76699
0.76699
0.76699
0.76699
0.76699
0.76699
0.76699
0.76699
0.76699
0.76699
0.76699
0.76699
0.76699
0.76699
0.76699
0.766988
0.766945
0.766707
0.766696
0.766485
0.766453
0.766573
0.766524
0.766396
0.766317
0.766236
0.766129
0.766115
0.765971
0.766053
0.765867
0.766063
0.765832
0.766161
0.76588
0.766361
0.766029
0.766663
0.76629
0.766662
0.766929
0.766683
0.766727
0.766987
0.766954
0.76699
0.766989
0.76699
0.76699
0.76699
0.76699
0.76699
0.76699
0.76699
0.76699
0.76699
0.76699
0.76699
0.76699
0.76699
0.76699
0.76699
0.76699
0.76699
0.76699
0.76699
0.76699
0.76699
0.76699
0.76699
0.76699
0.76699
0.76699
0.76699
0.76699
0.76699
0.76699
0.76699
0.766989
0.766945
0.766697
0.766728
0.766431
0.766421
0.76616
0.76613
0.766252
0.7662
0.766037
0.765957
0.765846
0.765739
0.7657
0.765557
0.765621
0.765435
0.765621
0.765389
0.765716
0.765432
0.76592
0.765576
0.766246
0.76584
0.76624
0.766792
0.766279
0.766366
0.766974
0.766863
0.76699
0.766985
0.76699
0.76699
0.76699
0.76699
0.76699
0.76699
0.76699
0.76699
0.76699
0.76699
0.76699
0.76699
0.76699
0.76699
0.76699
0.76699
0.76699
0.76699
0.76699
0.76699
0.76699
0.76699
0.76699
0.76699
0.76699
0.76699
0.76699
0.76699
0.76699
0.76699
0.76699
0.766989
0.766955
0.766576
0.76642
0.766389
0.766112
0.766107
0.765809
0.765785
0.765892
0.765843
0.765649
0.765575
0.765437
0.765339
0.765274
0.765144
0.765183
0.76501
0.765176
0.764956
0.765269
0.764993
0.765469
0.765136
0.765795
0.765392
0.765791
0.766497
0.765827
0.765916
0.766927
0.766649
0.766989
0.76697
0.76699
0.76699
0.76699
0.76699
0.76699
0.76699
0.76699
0.76699
0.76699
0.76699
0.76699
0.76699
0.76699
0.76699
0.76699
0.76699
0.76699
0.76699
0.76699
0.76699
0.76699
0.76699
0.76699
0.76699
0.76699
0.76699
0.76699
0.76699
0.76699
0.76699
0.76699
0.76697
0.766649
0.76613
0.766156
0.766109
0.766115
0.765775
0.765777
0.765458
0.765449
0.765519
0.765482
0.765262
0.765204
0.765039
0.764959
0.764862
0.764763
0.764758
0.764625
0.764741
0.764543
0.764841
0.764559
0.765038
0.764713
0.765354
0.764968
0.765356
0.766073
0.765406
0.765514
0.766802
0.766296
0.766986
0.766922
0.76699
0.76699
0.76699
0.76699
0.76699
0.76699
0.76699
0.76699
0.76699
0.76699
0.76699
0.76699
0.76699
0.76699
0.76699
0.76699
0.76699
0.76699
0.76699
0.76699
0.76699
0.76699
0.76699
0.76699
0.76699
0.76699
0.76699
0.76699
0.76699
0.76699
0.76698
0.766754
0.766193
0.766288
0.765821
0.76585
0.765782
0.765795
0.765451
0.765458
0.765148
0.765153
0.765169
0.765149
0.764909
0.76488
0.76471
0.764698
0.76457
0.764575
0.76446
0.764469
0.764388
0.764356
0.764415
0.764266
0.764621
0.764296
0.764938
0.764554
0.764953
0.765677
0.765016
0.765101
0.76538
0.766556
0.765914
0.766976
0.766796
0.76699
0.76699
0.76699
0.76699
0.76699
0.76699
0.76699
0.76699
0.76699
0.76699
0.76699
0.76699
0.76699
0.76699
0.76699
0.76699
0.76699
0.76699
0.76699
0.76699
0.76699
0.76699
0.76699
0.76699
0.76699
0.76699
0.76699
0.76699
0.76699
0.766985
0.766844
0.766182
0.765914
0.765911
0.765528
0.765565
0.765472
0.765494
0.765166
0.765187
0.764896
0.76492
0.764876
0.764882
0.764705
0.76472
0.764594
0.764631
0.764496
0.764559
0.764387
0.764472
0.764277
0.764344
0.764167
0.764198
0.764221
0.7641
0.76453
0.764175
0.764352
0.764775
0.764535
0.765188
0.765577
0.76527
0.764876
0.764604
0.764576
0.764927
0.766218
0.765392
0.765508
0.765831
0.766908
0.766528
0.76699
0.76699
0.76699
0.76699
0.76699
0.76699
0.76699
0.76699
0.76699
0.76699
0.76699
0.76699
0.76699
0.76699
0.76699
0.76699
0.76699
0.76699
0.76699
0.76699
0.76699
0.76699
0.766989
0.766989
0.766988
0.766989
0.766989
0.76699
0.766987
0.766914
0.766363
0.765725
0.765845
0.765619
0.765671
0.765289
0.765331
0.765215
0.765248
0.764951
0.764985
0.764794
0.764822
0.764743
0.764768
0.764673
0.764712
0.76465
0.764744
0.764627
0.764805
0.76452
0.76479
0.764334
0.764626
0.764113
0.76415
0.764233
0.764385
0.764087
0.764042
0.764145
0.764119
0.764057
0.764176
0.764354
0.76415
0.764053
0.764355
0.76501
0.765113
0.764674
0.764429
0.764381
0.764749
0.765657
0.766124
0.7658
0.76523
0.765361
0.766735
0.765958
0.766112
0.766403
0.76699
0.76699
0.76699
0.76699
0.76699
0.76699
0.76699
0.76699
0.76699
0.76699
0.76699
0.76699
0.76699
0.76699
0.76699
0.76699
0.76699
0.76699
0.76699
0.76699
0.766989
0.766987
0.766983
0.766981
0.766983
0.766986
0.766988
0.766988
0.766957
0.766575
0.7658
0.765518
0.765538
0.765389
0.765435
0.765119
0.76517
0.765026
0.765069
0.764854
0.764892
0.7648
0.764827
0.764745
0.764774
0.764823
0.764878
0.764968
0.765089
0.765058
0.765275
0.764993
0.765326
0.764546
0.764753
0.764931
0.765147
0.764238
0.764393
0.764579
0.764022
0.764037
0.764241
0.76424
0.764108
0.764037
0.764167
0.76403
0.764003
0.76418
0.764842
0.764952
0.764491
0.764208
0.764253
0.764574
0.765505
0.765658
0.765077
0.765215
0.766264
0.766745
0.766503
0.76582
0.765992
0.76699
0.76699
0.76699
0.76699
0.76699
0.76699
0.76699
0.76699
0.76699
0.76699
0.76699
0.76699
0.76699
0.76699
0.76699
0.76699
0.76699
0.76699
0.76699
0.766987
0.766977
0.766958
0.766947
0.766955
0.766969
0.76698
0.766986
0.766975
0.766754
0.765991
0.765465
0.765574
0.765349
0.765408
0.765229
0.765283
0.76504
0.765097
0.764935
0.764985
0.764858
0.764895
0.764947
0.764965
0.764912
0.764932
0.765161
0.765194
0.765423
0.765503
0.765579
0.76574
0.765316
0.765503
0.765633
0.765761
0.764779
0.764987
0.765196
0.765401
0.764404
0.764596
0.764804
0.764022
0.764102
0.764411
0.764414
0.764239
0.763989
0.764031
0.763977
0.764007
0.76404
0.764676
0.764795
0.764317
0.764062
0.764099
0.764405
0.765365
0.765527
0.76493
0.765077
0.766218
0.766772
0.766525
0.765704
0.765917
0.76699
0.76699
0.76699
0.76699
0.76699
0.76699
0.76699
0.76699
0.76699
0.76699
0.76699
0.76699
0.76699
0.76699
0.76699
0.76699
0.76699
0.766989
0.766982
0.766954
0.766895
0.766845
0.766848
0.766901
0.766948
0.766975
0.766976
0.766868
0.766242
0.765599
0.765399
0.765433
0.76528
0.765333
0.765158
0.765217
0.765059
0.765125
0.764942
0.764997
0.764992
0.765033
0.765219
0.76524
0.765206
0.76521
0.765537
0.765549
0.765825
0.765868
0.765839
0.765913
0.76596
0.766015
0.765581
0.765738
0.765856
0.765948
0.76502
0.765242
0.765457
0.765653
0.764608
0.76482
0.765044
0.764093
0.764234
0.764614
0.764615
0.764412
0.763992
0.763968
0.763976
0.764081
0.763964
0.764514
0.764643
0.764159
0.763968
0.763985
0.764246
0.765237
0.765412
0.764789
0.764948
0.766201
0.766876
0.766597
0.765614
0.765869
0.76699
0.76699
0.76699
0.76699
0.76699
0.76699
0.76699
0.76699
0.76699
0.76699
0.76699
0.76699
0.76699
0.76699
0.76699
0.76699
0.766989
0.766977
0.766925
0.76681
0.7667
0.766674
0.766739
0.766852
0.766941
0.766969
0.766919
0.766496
0.765769
0.76549
0.76554
0.76541
0.765444
0.765311
0.765359
0.765192
0.765253
0.765227
0.765296
0.76509
0.765156
0.76528
0.76534
0.765613
0.765663
0.765561
0.76558
0.765908
0.765966
0.766137
0.766211
0.766011
0.766061
0.7661
0.766126
0.765816
0.765942
0.766035
0.7661
0.765276
0.765502
0.765708
0.765879
0.764829
0.765058
0.765297
0.764224
0.764404
0.764833
0.764829
0.764609
0.76406
0.763959
0.764034
0.764206
0.763944
0.764359
0.764497
0.764027
0.763931
0.763928
0.764101
0.765122
0.765315
0.764655
0.764828
0.766216
0.766946
0.766688
0.765548
0.765849
0.76699
0.76699
0.76699
0.76699
0.76699
0.76699
0.76699
0.76699
0.76699
0.76699
0.76699
0.76699
0.76699
0.76699
0.76699
0.766989
0.766974
0.766902
0.766736
0.766566
0.766498
0.76655
0.766688
0.766848
0.766943
0.766927
0.766673
0.765959
0.765593
0.765526
0.765552
0.765497
0.765511
0.765447
0.765475
0.765357
0.765408
0.765545
0.765593
0.76541
0.765482
0.765726
0.765795
0.766161
0.766234
0.766024
0.766088
0.766285
0.766339
0.76628
0.766303
0.766338
0.766313
0.76615
0.766192
0.766228
0.766257
0.76601
0.766103
0.766168
0.766216
0.765532
0.765746
0.765924
0.766059
0.765063
0.765306
0.765547
0.764389
0.764595
0.765061
0.765049
0.764818
0.764178
0.764001
0.764138
0.764362
0.763962
0.764216
0.76436
0.763941
0.763927
0.763902
0.763985
0.765018
0.765235
0.76453
0.764718
0.766256
0.766914
0.766713
0.765503
0.765847
0.76699
0.76699
0.76699
0.76699
0.76699
0.76699
0.76699
0.76699
0.76699
0.76699
0.76699
0.76699
0.76699
0.76699
0.766989
0.766975
0.766893
0.766688
0.766456
0.766345
0.766373
0.766508
0.766704
0.766877
0.766915
0.766752
0.766164
0.765682
0.765606
0.76561
0.765611
0.765602
0.765637
0.765624
0.765648
0.765645
0.765626
0.765644
0.765922
0.765918
0.765856
0.765899
0.766287
0.76632
0.766574
0.766649
0.76641
0.766483
0.766353
0.766374
0.766386
0.766298
0.766297
0.76629
0.766294
0.766251
0.766274
0.766287
0.766292
0.766153
0.766216
0.766255
0.766278
0.765768
0.765953
0.766092
0.766187
0.765303
0.765547
0.765774
0.764571
0.764795
0.765291
0.765267
0.765027
0.764322
0.764086
0.764266
0.764531
0.764023
0.764085
0.764234
0.763894
0.763954
0.763895
0.763909
0.764927
0.765171
0.764413
0.764617
0.766302
0.766961
0.766787
0.765471
0.765861
0.76699
0.76699
0.76699
0.76699
0.76699
0.76699
0.76699
0.76699
0.76699
0.76699
0.76699
0.76699
0.76699
0.766989
0.766977
0.766895
0.766671
0.766389
0.766246
0.766238
0.766329
0.766521
0.766758
0.766872
0.766756
0.766316
0.765807
0.765627
0.765639
0.765627
0.765688
0.765661
0.765758
0.765721
0.765837
0.765797
0.765904
0.765875
0.766256
0.766192
0.766319
0.766298
0.766686
0.766692
0.766658
0.766753
0.766456
0.766542
0.766293
0.766309
0.766081
0.766113
0.766223
0.766183
0.766103
0.766143
0.766287
0.766286
0.766278
0.766255
0.766245
0.766275
0.766285
0.766281
0.765965
0.766109
0.766206
0.76626
0.765534
0.765764
0.765961
0.764757
0.764991
0.765509
0.765467
0.765228
0.764474
0.764193
0.764397
0.764698
0.764102
0.763976
0.764117
0.763863
0.763999
0.763903
0.763858
0.764847
0.765118
0.764305
0.764523
0.766371
0.766977
0.766861
0.765451
0.765891
0.76699
0.76699
0.76699
0.76699
0.76699
0.76699
0.76699
0.76699
0.76699
0.76699
0.76699
0.76699
0.76699
0.766983
0.766909
0.766676
0.766368
0.766205
0.766165
0.766196
0.766317
0.76654
0.766767
0.766721
0.766347
0.765915
0.765659
0.765635
0.765625
0.765672
0.765648
0.765743
0.765704
0.765842
0.765789
0.76597
0.765902
0.766119
0.766043
0.766476
0.766372
0.766652
0.766573
0.766815
0.766835
0.766509
0.766716
0.766165
0.766235
0.766289
0.766078
0.766072
0.765755
0.765786
0.766048
0.765971
0.765825
0.765895
0.766267
0.76623
0.766181
0.76612
0.766281
0.76628
0.766266
0.766226
0.766112
0.766211
0.766265
0.766277
0.765739
0.765941
0.766099
0.764932
0.765169
0.765696
0.76563
0.765404
0.764616
0.764297
0.764511
0.764846
0.764176
0.763896
0.764013
0.763841
0.76404
0.763912
0.763822
0.764775
0.765071
0.764205
0.764436
0.766468
0.766987
0.766929
0.76544
0.765942
0.76699
0.76699
0.76699
0.76699
0.76699
0.76699
0.76699
0.76699
0.76699
0.76699
0.76699
0.76699
0.766987
0.766937
0.766706
0.766372
0.766202
0.76615
0.766144
0.766175
0.766289
0.766493
0.766598
0.766319
0.765938
0.765695
0.765625
0.765656
0.765642
0.765708
0.765678
0.765793
0.765746
0.765912
0.765847
0.766071
0.765986
0.766267
0.766166
0.766638
0.76653
0.766817
0.766737
0.766835
0.766884
0.766082
0.766284
0.766485
0.765859
0.765974
0.765919
0.765749
0.765773
0.765754
0.765417
0.765447
0.765816
0.76571
0.765517
0.765608
0.76617
0.766099
0.766015
0.765919
0.76627
0.766235
0.76618
0.766108
0.766206
0.766256
0.766264
0.766252
0.765901
0.766067
0.766183
0.76508
0.765311
0.765835
0.765732
0.765531
0.764731
0.764377
0.764584
0.764954
0.764222
0.763839
0.763925
0.763824
0.76406
0.763916
0.763793
0.764708
0.765028
0.76411
0.764353
0.766591
0.766989
0.76697
0.765436
0.766012
0.76699
0.76699
0.76699
0.76699
0.76699
0.76699
0.76699
0.76699
0.76699
0.76699
0.76699
0.766988
0.766961
0.766776
0.766405
0.766217
0.766159
0.766143
0.766141
0.766147
0.766204
0.766282
0.766195
0.76592
0.765702
0.765631
0.765679
0.76567
0.765709
0.76569
0.765772
0.765737
0.765871
0.765817
0.766013
0.765937
0.766199
0.766101
0.766417
0.766306
0.766819
0.766726
0.766899
0.76688
0.766776
0.766893
0.765856
0.766073
0.766081
0.766351
0.765518
0.765619
0.765665
0.765499
0.765448
0.765418
0.765115
0.765158
0.765563
0.765439
0.765224
0.765324
0.766022
0.765923
0.76581
0.765688
0.766204
0.766133
0.766045
0.765945
0.766238
0.766246
0.766231
0.766171
0.766005
0.766128
0.766203
0.765176
0.765389
0.7659
0.765745
0.765581
0.764794
0.764415
0.764604
0.765001
0.764229
0.763795
0.763855
0.76381
0.764059
0.763914
0.763766
0.764641
0.764984
0.76402
0.764272
0.766743
0.76699
0.766983
0.765435
0.76611
0.76699
0.76699
0.76699
0.76699
0.76699
0.76699
0.76699
0.76699
0.76699
0.76699
0.766989
0.766977
0.76685
0.76649
0.766254
0.766194
0.76618
0.766168
0.76614
0.766096
0.766054
0.765973
0.765843
0.765698
0.765644
0.765728
0.76578
0.765779
0.765818
0.765794
0.765894
0.765851
0.766014
0.765948
0.766184
0.766093
0.766392
0.766284
0.766618
0.766507
0.766928
0.766892
0.766931
0.76694
0.766548
0.766741
0.766857
0.765657
0.765859
0.765956
0.766187
0.765243
0.765358
0.765475
0.765312
0.765147
0.765113
0.76487
0.764934
0.765279
0.765148
0.76494
0.765033
0.765829
0.7657
0.765562
0.765419
0.766082
0.765979
0.765865
0.765731
0.766222
0.766212
0.766149
0.76604
0.766033
0.76613
0.766179
0.765197
0.765375
0.765891
0.765702
0.765546
0.764788
0.764397
0.76456
0.764962
0.764204
0.763758
0.763799
0.763803
0.76404
0.763903
0.76374
0.764572
0.764938
0.763937
0.76419
0.766846
0.76699
0.766984
0.765435
0.766207
0.76699
0.76699
0.76699
0.76699
0.76699
0.76699
0.76699
0.766989
0.766989
0.766989
0.766983
0.76691
0.766605
0.766304
0.766237
0.766281
0.766302
0.766224
0.766127
0.766031
0.765923
0.765815
0.765706
0.765678
0.765768
0.766097
0.765955
0.765946
0.765997
0.76597
0.766089
0.766036
0.766233
0.766155
0.766423
0.766323
0.766634
0.766528
0.766829
0.766739
0.766966
0.766959
0.766939
0.766961
0.766434
0.766671
0.766859
0.766739
0.765564
0.765748
0.765898
0.766098
0.765038
0.765166
0.765396
0.765238
0.764878
0.764856
0.764685
0.764786
0.764974
0.764845
0.764665
0.76474
0.765587
0.765432
0.765275
0.76512
0.765907
0.765775
0.765629
0.765465
0.766181
0.766128
0.766012
0.76585
0.766012
0.766095
0.766114
0.765131
0.765291
0.765837
0.76558
0.765441
0.764707
0.764336
0.764443
0.76484
0.764143
0.763729
0.763752
0.763789
0.764003
0.763875
0.763722
0.764501
0.764892
0.763863
0.76411
0.766861
0.766988
0.766975
0.765427
0.766197
0.76699
0.76699
0.76699
0.76699
0.766989
0.766988
0.766987
0.766987
0.766987
0.766984
0.766947
0.766721
0.766375
0.766272
0.766345
0.766482
0.76649
0.766337
0.766138
0.765984
0.765861
0.765764
0.765764
0.76587
0.766216
0.766563
0.766223
0.766574
0.766215
0.766251
0.766225
0.766352
0.766294
0.766504
0.766423
0.766693
0.766596
0.766859
0.766784
0.766941
0.766909
0.766977
0.766979
0.766927
0.766966
0.766315
0.766538
0.766833
0.766678
0.765548
0.765716
0.765895
0.766075
0.76492
0.765079
0.765391
0.765236
0.764631
0.764633
0.764546
0.764697
0.764662
0.764547
0.764417
0.764462
0.765296
0.765124
0.764957
0.764802
0.765674
0.76551
0.765334
0.765148
0.766091
0.765981
0.765798
0.765587
0.765943
0.765988
0.765982
0.764972
0.765103
0.765692
0.765326
0.765224
0.764538
0.764223
0.764301
0.764644
0.764076
0.763695
0.763708
0.763769
0.763945
0.763843
0.763697
0.764435
0.764838
0.763812
0.76403
0.766788
0.766883
0.766869
0.76539
0.766054
0.76699
0.76699
0.766989
0.766987
0.766984
0.76698
0.766978
0.766979
0.76698
0.766961
0.766814
0.766473
0.766309
0.766366
0.766563
0.766687
0.766654
0.766486
0.766255
0.766063
0.765955
0.765971
0.766101
0.76643
0.766784
0.766548
0.76684
0.766842
0.76654
0.766572
0.766549
0.766664
0.766611
0.766792
0.766726
0.766899
0.766852
0.766956
0.766933
0.766977
0.76697
0.766978
0.766984
0.766882
0.766932
0.766961
0.766268
0.766472
0.766767
0.766608
0.765588
0.765733
0.765935
0.766089
0.764879
0.765069
0.765448
0.765293
0.764415
0.764448
0.764464
0.764664
0.764358
0.764269
0.764208
0.764216
0.764964
0.764788
0.764623
0.764479
0.76537
0.765178
0.764982
0.764785
0.765893
0.765722
0.765483
0.765227
0.765754
0.765757
0.765679
0.764743
0.764838
0.765369
0.764914
0.764904
0.76439
0.764154
0.764239
0.764473
0.764021
0.763664
0.763692
0.763738
0.763915
0.763789
0.763655
0.764357
0.764781
0.763757
0.76394
0.766506
0.76676
0.766498
0.765303
0.765815
0.766989
0.766987
0.766981
0.766971
0.766959
0.766953
0.766956
0.766966
0.766961
0.76687
0.766581
0.766356
0.766368
0.766568
0.766755
0.766824
0.766777
0.76664
0.766478
0.766354
0.766334
0.76644
0.766667
0.766876
0.766975
0.766838
0.766964
0.766962
0.766837
0.766856
0.766843
0.766899
0.766876
0.766943
0.766922
0.766971
0.76696
0.766983
0.766979
0.766985
0.766985
0.766975
0.766984
0.766855
0.766922
0.766963
0.766942
0.76626
0.766436
0.766726
0.766585
0.765678
0.7658
0.766011
0.766138
0.76488
0.765098
0.765552
0.765391
0.764231
0.764317
0.764438
0.764669
0.764083
0.764027
0.764033
0.764016
0.764603
0.764438
0.764292
0.764174
0.764986
0.76478
0.76458
0.764394
0.765513
0.765283
0.765023
0.764763
0.765369
0.765287
0.765093
0.764529
0.764554
0.764893
0.764551
0.764562
0.764308
0.764096
0.764182
0.764349
0.763984
0.763637
0.763658
0.763676
0.763838
0.76373
0.763629
0.764279
0.764714
0.76371
0.763869
0.766146
0.766767
0.766235
0.765187
0.765602
0.766982
0.76697
0.766941
0.766917
0.766907
0.766912
0.76693
0.766949
0.76689
0.766671
0.766414
0.766369
0.766553
0.766755
0.766865
0.766904
0.766869
0.766789
0.766713
0.766687
0.766741
0.766851
0.766942
0.766983
0.76699
0.766987
0.766964
0.766987
0.766963
0.766967
0.766964
0.766975
0.766971
0.766983
0.76698
0.766987
0.766986
0.766988
0.766988
0.766987
0.766988
0.766957
0.766964
0.766975
0.766981
0.766806
0.766898
0.766928
0.766281
0.766433
0.766699
0.766579
0.765794
0.765898
0.766106
0.76621
0.764923
0.765177
0.765668
0.765501
0.764111
0.764246
0.764442
0.764708
0.76386
0.763855
0.76394
0.763871
0.764231
0.764098
0.763986
0.763907
0.764529
0.764331
0.764154
0.764007
0.764891
0.764675
0.764457
0.764267
0.764795
0.764609
0.764492
0.764376
0.764374
0.764515
0.764403
0.764394
0.764222
0.764032
0.764048
0.764231
0.763876
0.763594
0.763618
0.763643
0.763776
0.763665
0.763584
0.764188
0.76463
0.763671
0.763808
0.765886
0.766942
0.766321
0.765059
0.765434
0.766945
0.766912
0.76687
0.766855
0.766861
0.766883
0.766912
0.766889
0.766725
0.766477
0.766381
0.766507
0.766722
0.766856
0.766925
0.766952
0.766933
0.766904
0.766889
0.766908
0.766947
0.766976
0.766988
0.76699
0.76699
0.76699
0.76699
0.76699
0.766987
0.76699
0.766987
0.766988
0.766987
0.766988
0.766988
0.766989
0.766989
0.76699
0.766989
0.766989
0.766989
0.766987
0.766988
0.766944
0.766957
0.766971
0.766977
0.766782
0.766867
0.766901
0.766326
0.766451
0.766691
0.766588
0.765901
0.766005
0.766194
0.766289
0.764997
0.765275
0.76578
0.765621
0.764056
0.764224
0.764462
0.764768
0.763749
0.763759
0.7639
0.763807
0.7639
0.763827
0.763776
0.763753
0.764098
0.763975
0.763867
0.763793
0.764332
0.764202
0.76407
0.763957
0.764521
0.76454
0.763928
0.764238
0.763936
0.764001
0.764029
0.763996
0.764051
0.7639
0.763908
0.764108
0.76381
0.763555
0.76358
0.763598
0.763707
0.763645
0.763549
0.764101
0.764522
0.763644
0.763743
0.765755
0.766959
0.766495
0.764944
0.765303
0.766866
0.766831
0.766804
0.766806
0.766827
0.766858
0.766868
0.766739
0.766528
0.766409
0.766471
0.766652
0.766805
0.766909
0.766966
0.766975
0.766969
0.766965
0.766969
0.76698
0.766987
0.766989
0.76699
0.76699
0.76699
0.76699
0.76699
0.76699
0.76699
0.76699
0.76699
0.76699
0.76699
0.76699