/*--------------------------------*- C++ -*----------------------------------*\
  =========                 |
  \\      /  F ield         | OpenFOAM: The Open Source CFD Toolbox
   \\    /   O peration     | Website:  https://openfoam.org
    \\  /    A nd           | Version:  dev
     \\/     M anipulation  |
\*---------------------------------------------------------------------------*/
FoamFile
{
    version     2.0;
    format      ascii;
    class       volScalarField;
    location    "2500";
    object      nut;
}
// * * * * * * * * * * * * * * * * * * * * * * * * * * * * * * * * * * * * * //

dimensions      [0 2 -1 0 0 0 0];

internalField   nonuniform List<scalar> 
9836
(
0.000127905
0.000131515
0.000124046
0.000121332
0.000155758
0.000110889
0.000111729
0.000164864
0.000146942
0.0001058
0.00010784
0.000160081
0.000168568
0.000126336
0.000104007
0.000104755
0.00014547
0.00018169
0.000156095
0.00011515
0.00010303
0.00010312
0.000129805
0.000181564
0.0001776
0.000133691
0.000110378
0.000102357
0.000102613
0.000120104
0.000174571
0.000190402
0.000159704
0.000120689
0.000107706
0.0001019
0.000102364
0.000112911
0.000156777
0.000196915
0.000182496
0.000137364
0.000114584
0.000105787
0.000101587
0.000102191
0.000108676
0.000137388
0.00019383
0.000195989
0.000160172
0.000124046
0.000111055
0.000104521
0.000101315
0.000101816
0.000106154
0.000125765
0.000182917
0.00020593
0.000184089
0.000139158
0.000117333
0.000108416
0.000103857
0.000101055
0.000101416
0.000104907
0.000117301
0.000161265
0.000207219
0.000201104
0.00015856
0.000126476
0.000113332
0.000106588
0.000103288
0.000100869
0.000101077
0.000104315
0.000112261
0.000141326
0.000201816
0.000209963
0.000182726
0.000138982
0.000119579
0.000110325
0.000105477
0.000102741
0.000100733
0.000100805
0.000103932
0.000109358
0.000129324
0.000187207
0.000217109
0.000202111
0.000157082
0.000127457
0.000115176
0.000108158
0.000104639
0.000102273
0.000100619
0.000100613
0.000103638
0.000107656
0.00012081
0.000163326
0.000215867
0.000214647
0.000179298
0.000138555
0.000120901
0.000111818
0.000106764
0.000103857
0.000101905
0.000100527
0.0001005
0.000103362
0.000106557
0.000115591
0.000144132
0.000207798
0.000222796
0.000201465
0.000155061
0.000127818
0.000116447
0.000109369
0.000105693
0.000103217
0.000101616
0.000100444
0.000100433
0.000103019
0.00010582
0.000112418
0.000132121
0.000189086
0.000226973
0.000217252
0.000174634
0.00013828
0.000121542
0.000112923
0.000107682
0.000104722
0.000102751
0.000101272
0.000100368
0.000100377
0.000102689
0.000105323
0.000110352
0.000123968
0.000163813
0.00022361
0.000226419
0.000197813
0.000151982
0.000128274
0.000117198
0.000110269
0.000106407
0.00010396
0.00010231
0.00010109
0.000100285
0.000100311
0.000102445
0.000104913
0.000109122
0.000118702
0.000146468
0.000212781
0.000234199
0.000216731
0.00017096
0.000136877
0.000121974
0.00011372
0.00010839
0.000105293
0.000103396
0.000101802
0.00010091
0.00010022
0.000100232
0.000102312
0.000104593
0.000108139
0.000115377
0.000134711
0.000190237
0.00023584
0.000230308
0.000191563
0.000149475
0.000127823
0.000117556
0.00011099
0.000106951
0.00010453
0.000102791
0.000101523
0.000100705
0.000100168
0.000100166
0.000102228
0.000104293
0.000107215
0.000113439
0.000126729
0.00016427
0.00023061
0.000236856
0.000214347
0.000165656
0.0001355
0.00012209
0.000114109
0.000108922
0.000105757
0.000103838
0.00010216
0.000101274
0.000100512
0.000100124
0.000100137
0.00010209
0.000103972
0.000106548
0.000112269
0.000121561
0.000148556
0.000216834
0.000244287
0.000229782
0.000185817
0.0001461
0.00012714
0.000117926
0.000111391
0.000107307
0.000104907
0.000103127
0.00010177
0.00010099
0.00010035
0.000100079
0.000100149
0.00010189
0.000103703
0.000106092
0.000111092
0.000118263
0.000137268
0.000192367
0.000243068
0.000241741
0.000207292
0.000160716
0.00013388
0.00012171
0.000114579
0.000109236
0.000106065
0.000104124
0.000102399
0.000101477
0.000100707
0.000100217
0.000100032
0.000100174
0.000101654
0.000103511
0.000105725
0.000109916
0.000115909
0.00012951
0.000166245
0.000236727
0.000246979
0.000228793
0.000178956
0.000143025
0.000126544
0.000117732
0.000111784
0.000107577
0.000105139
0.000103353
0.000101885
0.000101163
0.000100458
0.000100095
9.99928e-05
0.000100194
0.000101431
0.000103348
0.000105355
0.000108858
0.000114367
0.000124203
0.000151207
0.000221454
0.00025377
0.000241722
0.00019964
0.000155818
0.000132177
0.000121567
0.000114562
0.000109551
0.000106268
0.000104296
0.000102584
0.000101547
0.00010083
0.000100249
9.99793e-05
9.99698e-05
0.000100215
0.000101232
0.000103136
0.000104974
0.000107969
0.000113136
0.000120489
0.000140253
0.00019609
0.000251483
0.000252406
0.000221023
0.000172122
0.000140276
0.000125448
0.000117694
0.000111933
0.000107843
0.000105279
0.000103504
0.000101942
0.000101236
0.00010052
0.000100077
9.98781e-05
9.99518e-05
0.000100235
0.000101044
0.000102873
0.00010462
0.000107305
0.000112059
0.000117896
0.000132204
0.000169512
0.000244245
0.000257916
0.000241736
0.000191373
0.000151002
0.000130784
0.000120765
0.000114574
0.00010978
0.000106461
0.000104418
0.000102776
0.000101506
0.000100913
0.00010026
9.99261e-05
9.98029e-05
9.99359e-05
0.000100235
0.000100867
0.000102622
0.000104309
0.000106695
0.000111064
0.000116054
0.000126651
0.000154254
0.000227914
0.000264285
0.00025355
0.000212075
0.000165391
0.000137225
0.000124639
0.000117208
0.000112027
0.000108073
0.000105402
0.000103647
0.000102123
0.000101193
0.000100603
0.000100065
9.98084e-05
9.97928e-05
9.99358e-05
0.000100222
0.00010075
0.000102383
0.000104004
0.000106174
0.000110102
0.000114677
0.000122752
0.000143579
0.000201716
0.000261285
0.000263671
0.000233781
0.00018263
0.000146631
0.000128791
0.000120244
0.000114355
0.000109956
0.000106704
0.000104542
0.000102975
0.000101621
0.000100935
0.000100345
9.9932e-05
9.97656e-05
9.9846e-05
9.99667e-05
0.000100195
0.000100659
0.000102093
0.000103706
0.000105637
0.00010912
0.00011352
0.000119928
0.000135469
0.000175564
0.000253579
0.000269165
0.00025375
0.000202543
0.000158541
0.000134765
0.000123349
0.000116884
0.000112025
0.000108313
0.000105633
0.000103824
0.000102436
0.000101262
0.000100727
0.000100176
9.98512e-05
9.98243e-05
9.99661e-05
0.000100038
0.000100157
0.000100572
0.000101798
0.000103404
0.000105055
0.000108179
0.000112408
0.000117795
0.000129784
0.000158746
0.000237111
0.000275117
0.000265159
0.000223894
0.00017426
0.000142086
0.000127371
0.000119467
0.000114201
0.000110143
0.000107022
0.000104819
0.000103242
0.000102043
0.000101044
0.000100568
0.00010011
9.99087e-05
0.000100037
0.000100219
0.00010015
0.000100119
0.000100479
0.000101517
0.000103098
0.000104494
0.000107309
0.000111231
0.000116082
0.000125641
0.000148946
0.000212224
0.000272212
0.000274624
0.000245463
0.000192243
0.000152767
0.000131999
0.000122403
0.000116465
0.000112086
0.00010864
0.000106046
0.000104178
0.000102819
0.000101805
0.000100997
0.000100524
0.000100204
0.000100191
0.000100459
0.000100703
0.000100373
0.000100087
0.000100375
0.000101268
0.000102783
0.000103985
0.000106511
0.000110054
0.000114566
0.000122502
0.000140677
0.000187153
0.000265832
0.000280099
0.000264667
0.000212834
0.000165642
0.000138608
0.000125656
0.000118839
0.00011406
0.000110387
0.000107481
0.000105328
0.00010372
0.000102571
0.000101758
0.000101173
0.000100786
0.00010064
0.000100767
0.000101155
0.000101387
0.000100774
0.000100058
0.000100265
0.000101038
0.000102422
0.000103537
0.000105774
0.000108997
0.000113187
0.000119967
0.000134555
0.000167042
0.000251324
0.000285837
0.000276068
0.000233566
0.000182427
0.000146806
0.000129834
0.000121294
0.000116064
0.00011216
0.00010905
0.000106631
0.000104851
0.000103481
0.000102538
0.000101942
0.000101554
0.000101433
0.000101628
0.000102063
0.000102615
0.000102615
0.000100413
0.000101576
0.000100021
0.000100154
0.000100838
0.000102064
0.000103116
0.000105112
0.000108112
0.000112028
0.000117901
0.000129989
0.000156323
0.000230117
0.000286985
0.000285046
0.000255292
0.000200256
0.00015829
0.000134928
0.000124088
0.000118128
0.000113907
0.000110653
0.000108058
0.000106096
0.000104679
0.000103519
0.00010277
0.000102428
0.000102287
0.000102518
0.00010307
0.000103775
0.000104305
0.000102654
0.000103606
9.20068e-05
9.16662e-05
9.99756e-05
0.000100039
0.000100664
0.000101749
0.000102677
0.000104497
0.000107327
0.000111003
0.000116278
0.000126493
0.000149067
0.000206534
0.000281218
0.000291191
0.000274056
0.000220949
0.000171808
0.000141879
0.000127452
0.000120118
0.000115615
0.000112236
0.000109529
0.000107436
0.000105953
0.000104784
0.000103885
0.000103494
0.000103439
0.000103625
0.000104133
0.000105128
0.00010512
0.0001057
0.000102412
0.000105464
9.50938e-05
8.99867e-05
8.88013e-05
7.67988e-05
7.66214e-05
9.99298e-05
9.99208e-05
0.000100502
0.000101472
0.000102146
0.000103885
0.000106652
0.000110033
0.000114981
0.000123842
0.00014275
0.000185842
0.000271483
0.000297208
0.00028623
0.000240323
0.000188405
0.000150831
0.000131698
0.000122349
0.000117287
0.000113716
0.000110989
0.000108838
0.000107297
0.000106135
0.000105279
0.000104761
0.000104788
0.000105231
0.000106145
0.000107111
0.000106376
0.000107294
0.000106179
8.59438e-05
8.77624e-05
8.28399e-05
7.61327e-05
7.42424e-05
6.40946e-05
6.43492e-05
9.98888e-05
9.98066e-05
0.000100359
0.000101206
0.000101558
0.000103289
0.000106034
0.000109118
0.000113895
0.000121845
0.000137931
0.000170082
0.000255635
0.000301138
0.000295091
0.000262302
0.000206043
0.00016228
0.000137153
0.00012509
0.000118917
0.000115086
0.000112307
0.000110169
0.000108665
0.000107498
0.000106818
0.000106409
0.0001064
0.000107109
0.000108112
0.000108901
0.000105008
0.000102047
0.000102078
9.94912e-05
8.69034e-05
7.26609e-05
7.97499e-05
7.05834e-05
6.44499e-05
6.33499e-05
5.40527e-05
5.44775e-05
9.98561e-05
9.97093e-05
0.000100265
0.000100916
0.00010101
0.000102776
0.000105469
0.000108319
0.000112938
0.000120346
0.000134459
0.00016144
0.000238512
0.000300709
0.000302638
0.000279708
0.000225462
0.000175994
0.000144214
0.000128549
0.000120596
0.000116379
0.000113503
0.000111403
0.000110013
0.000108883
0.000108259
0.000108091
0.000108286
0.000108853
0.000109673
0.000110345
0.00010065
9.95711e-05
9.41443e-05
9.398e-05
8.64551e-05
8.53001e-05
7.76399e-05
6.21071e-05
6.88128e-05
6.108e-05
5.51178e-05
5.44957e-05
4.60195e-05
4.65595e-05
9.98349e-05
9.9654e-05
0.000100216
0.000100575
0.000100517
0.000102368
0.000104964
0.00010764
0.000112075
0.000119195
0.000132044
0.000156123
0.000220225
0.000295886
0.000308798
0.000294772
0.000244772
0.000191624
0.000153331
0.000132887
0.000122688
0.00011757
0.000114525
0.000112409
0.000111192
0.000110257
0.000109747
0.000109777
0.000110118
0.000110456
0.000110834
0.000111221
9.83637e-05
9.72946e-05
8.9772e-05
9.25446e-05
8.37322e-05
8.27975e-05
7.65501e-05
7.56907e-05
6.75745e-05
5.35195e-05
5.98269e-05
5.2871e-05
4.74686e-05
4.70937e-05
3.94567e-05
4.01572e-05
9.98421e-05
9.96744e-05
0.000100193
0.000100204
0.000100058
0.000102072
0.000104541
0.000107061
0.000111355
0.000118326
0.000130394
0.000152629
0.000204345
0.000288424
0.00031483
0.000304937
0.000263319
0.000208891
0.000164517
0.000138359
0.000125473
0.000118825
0.000115402
0.000113207
0.00011204
0.000111427
0.000111237
0.0001115
0.000111878
0.000111812
0.000111817
0.000111613
0.00010067
9.94826e-05
8.84567e-05
9.26821e-05
8.20633e-05
8.28369e-05
7.45068e-05
7.39806e-05
6.73544e-05
6.70708e-05
5.92642e-05
4.62745e-05
5.22566e-05
4.60241e-05
4.11736e-05
4.08734e-05
3.41e-05
3.4965e-05
9.99081e-05
9.97848e-05
0.000100179
9.98458e-05
9.96769e-05
0.000101882
0.000104217
0.00010662
0.000110831
0.00011777
0.00012942
0.000150109
0.000191847
0.000278663
0.000319481
0.000313342
0.000282409
0.000226146
0.000177791
0.000145541
0.000129029
0.000120449
0.000116248
0.000113987
0.000112779
0.000112312
0.000112474
0.000113232
0.000113554
0.000113084
0.00011252
0.000111401
0.000107956
0.000105409
9.0292e-05
9.76801e-05
8.23126e-05
8.52621e-05
7.38347e-05
7.59762e-05
6.61778e-05
6.65029e-05
5.98462e-05
5.95915e-05
5.23106e-05
4.02642e-05
4.59285e-05
4.03968e-05
3.59588e-05
3.56043e-05
2.95865e-05
3.07461e-05
0.000100073
0.00010006
0.000100227
9.96231e-05
9.95427e-05
0.000101845
0.000103965
0.000106321
0.000110546
0.000117594
0.000129203
0.000148695
0.00018324
0.000268512
0.000322466
0.000321119
0.000298278
0.000244149
0.000192322
0.000154579
0.000133512
0.000122652
0.000117159
0.000114579
0.000113479
0.0001131
0.00011343
0.00011487
0.000115129
0.000114286
0.000113072
0.000110733
0.000106197
0.000102734
0.00010305
9.76459e-05
9.0728e-05
9.56085e-05
8.07262e-05
9.5754e-05
7.03717e-05
8.31886e-05
5.99264e-05
6.74952e-05
5.29779e-05
5.42765e-05
4.62251e-05
3.53327e-05
4.04886e-05
3.55525e-05
3.15563e-05
3.12401e-05
2.60413e-05
2.71892e-05
0.000100474
0.000100606
0.000100472
9.96856e-05
9.97344e-05
0.000101976
0.000103805
0.000106147
0.000110498
0.000117787
0.000129694
0.000148622
0.000178675
0.00025941
0.000323099
0.000327857
0.000312347
0.000261786
0.000207957
0.000165358
0.000139278
0.000125806
0.000118405
0.000115227
0.000113845
0.00011387
0.000114393
0.000116146
0.000116315
0.000114413
0.000113632
0.000108047
9.90376e-05
9.72214e-05
9.25418e-05
9.59207e-05
9.0375e-05
9.59814e-05
9.22004e-05
9.57958e-05
9.28049e-05
9.61885e-05
9.09363e-05
9.48933e-05
6.54965e-05
9.15298e-05
4.86848e-05
6.34059e-05
4.26032e-05
3.10893e-05
3.71692e-05
3.22917e-05
2.78842e-05
2.75408e-05
2.31872e-05
2.4357e-05
0.00010123
0.00010169
0.000101077
0.000100127
0.000100249
0.000102296
0.000103812
0.00010617
0.000110678
0.000118416
0.000131579
0.000149249
0.000177927
0.000252646
0.000322278
0.000335557
0.000323393
0.000278215
0.000224185
0.000177702
0.000146646
0.000129863
0.000120602
0.000115953
0.000114292
0.000114354
0.000115289
0.00011734
0.000111531
0.000104763
0.000107079
0.00010231
9.62792e-05
6.28363e-05
9.84859e-05
0.000113212
0.000111839
0.000137571
0.000119895
0.000156187
0.00011564
0.000161711
0.000108282
0.000148991
0.00010036
0.00012376
9.09531e-05
0.000106103
5.96104e-05
9.09828e-05
5.2908e-05
2.8122e-05
4.47113e-05
3.60957e-05
2.47087e-05
2.50012e-05
2.09414e-05
2.19403e-05
0.000102844
0.000104384
0.00010241
0.000101197
0.000101219
0.000102823
0.00010404
0.000106476
0.000111241
0.000119548
0.000133586
0.000150885
0.000178665
0.000250148
0.00032147
0.0003434
0.000332858
0.00029548
0.000240304
0.00019127
0.000155677
0.000134954
0.000123836
0.0001172
0.000114854
0.000114955
0.000116157
0.000117566
0.000104248
9.83901e-05
0.000101402
0.000101133
0.000139166
0.000124883
0.000147278
0.000164258
0.000197028
0.000199884
0.000248835
0.000220299
0.000285662
0.000219225
0.000299599
0.000193379
0.000285767
0.000142597
0.000243163
0.00011122
0.000167288
9.06285e-05
0.000114879
8.85972e-05
2.88385e-05
8.49728e-05
6.52684e-05
2.23769e-05
2.39299e-05
1.9465e-05
1.99816e-05
0.000106562
0.000110098
0.0001055
0.000103207
0.000102721
0.000103681
0.000104633
0.000107255
0.000112394
0.000121418
0.000135933
0.000154819
0.000181729
0.000250115
0.000322264
0.000351081
0.000342199
0.000311426
0.000256339
0.000205612
0.000166215
0.000141631
0.000127953
0.000119829
0.000115788
0.00011553
0.000116896
0.000112036
9.99836e-05
9.3217e-05
9.43918e-05
0.00010055
0.000149158
0.00029048
0.000320387
0.000228503
0.000262614
0.000298818
0.000352069
0.000354046
0.000417536
0.000378724
0.000447991
0.000374662
0.000449223
0.000344912
0.000427822
0.000284784
0.000385053
0.000188295
0.000313053
0.000115839
0.000199401
0.000112616
4.7577e-05
0.000106936
0.000100526
2.10174e-05
3.11682e-05
1.8661e-05
1.9073e-05
0.000114876
0.000121542
0.000111581
0.000106318
0.000104794
0.000104952
0.000105695
0.000108674
0.000114399
0.000124309
0.000139713
0.000161994
0.000190001
0.000251553
0.000324326
0.000358844
0.00035166
0.000325749
0.000272082
0.000220216
0.000177985
0.000149807
0.000133499
0.000124012
0.000118614
0.000116668
0.000117656
0.000110705
9.85825e-05
8.86383e-05
8.54583e-05
0.000100793
0.000140581
0.000340079
0.000363565
0.000477014
0.000505363
0.000401047
0.000443029
0.000472585
0.000516124
0.000501146
0.000539835
0.000502852
0.000539924
0.000487841
0.000528317
0.000457958
0.000507413
0.000407817
0.000473617
0.000327246
0.000419572
0.000199608
0.00033101
0.000187792
9.05316e-05
0.000167516
0.000146347
2.2046e-05
7.2993e-05
1.91257e-05
1.89747e-05
0.000128272
0.000144362
0.000124619
0.000111902
0.000107524
0.000106693
0.000107254
0.000110869
0.000117739
0.000128578
0.00014603
0.000171684
0.000202616
0.000256666
0.000327369
0.00036678
0.000361392
0.000339001
0.000287166
0.000234756
0.000190572
0.000159516
0.000140773
0.000129604
0.000123954
0.000119883
0.000119562
0.000108603
9.18675e-05
8.46771e-05
8.017e-05
0.000103187
0.00014422
0.000369514
0.00035395
0.000525775
0.000544689
0.000591248
0.000605762
0.000549169
0.000573089
0.000568719
0.000587838
0.000565882
0.000581671
0.000555124
0.000571672
0.000537915
0.000554425
0.000514649
0.000536181
0.000480764
0.000515365
0.0004243
0.000483403
0.000328278
0.000425282
0.000316047
0.000124557
0.000293258
0.000255369
4.00695e-05
0.000102431
2.37188e-05
2.3599e-05
0.00013186
0.000164642
0.000150438
0.000124518
0.000112132
0.000109183
0.000109577
0.000113898
0.000122339
0.00013482
0.000155903
0.000183992
0.000216891
0.000267447
0.000332514
0.000374637
0.000371215
0.000351721
0.0003014
0.000248893
0.000203491
0.000170397
0.000149486
0.000137575
0.000130367
0.000126021
0.000124079
0.000102447
8.85824e-05
8.24653e-05
7.62951e-05
9.78926e-05
0.000135875
0.000476635
0.000553738
0.000587189
0.000617857
0.000628699
0.000624625
0.000632914
0.000602248
0.000614476
0.000593228
0.000599544
0.000580461
0.000582006
0.000561115
0.000562263
0.000544178
0.000543862
0.000529191
0.000529871
0.000513048
0.000519864
0.000484491
0.000510018
0.000421454
0.000484095
0.00041056
0.000205321
0.000394305
0.000367796
7.87577e-05
0.000157464
2.47837e-05
4.57473e-05
0.000147802
0.00016859
0.000149701
0.000122257
0.00011371
0.000113312
0.000118825
0.00012889
0.000145239
0.000169862
0.000198891
0.000232833
0.000280443
0.000340454
0.000382678
0.000381182
0.000363523
0.000314851
0.000262222
0.000216194
0.000181681
0.000159574
0.000148257
0.00013992
0.000135174
0.000131012
0.000103863
9.09885e-05
8.04535e-05
7.4746e-05
8.44684e-05
0.000117199
0.000446919
0.000655051
0.000659026
0.000638214
0.000650628
0.000640167
0.000647304
0.000609566
0.000611627
0.000604658
0.000607829
0.00058324
0.000583052
0.000559836
0.00055569
0.000540124
0.00053557
0.000523883
0.000516881
0.00051257
0.000502027
0.000509062
0.000493735
0.000506109
0.000497291
0.000481271
0.000502944
0.000475768
0.000322536
0.000466818
0.000446254
0.00011241
0.000254195
1.01857e-05
7.34783e-05
0.000143955
0.000168342
0.000144547
0.000123247
0.000119931
0.00012668
0.000139667
0.000160755
0.000186782
0.000216008
0.00025002
0.000295158
0.000350242
0.000391225
0.000391222
0.00037456
0.000327984
0.00027456
0.000228055
0.00019281
0.000170947
0.000160449
0.000153197
0.000151012
0.000137363
0.00011051
8.90697e-05
7.77228e-05
7.39958e-05
7.82101e-05
0.000112953
0.00036118
0.000658816
0.000651446
0.000670561
0.000680493
0.000654451
0.000663232
0.000614541
0.000618186
0.000582229
0.000583343
0.00058227
0.000581961
0.000554025
0.000551806
0.000531609
0.000529605
0.000513606
0.000513492
0.000494548
0.00049596
0.000478221
0.000474978
0.000473434
0.000455618
0.000484464
0.000453719
0.000499678
0.000474772
0.000497063
0.000412619
0.000494273
0.000485987
0.000462012
0.000180559
0.000356329
1.23059e-05
9.79738e-05
0.000146072
0.000166463
0.000142713
0.000131712
0.000139699
0.000157249
0.000180706
0.000205695
0.000234486
0.000268352
0.00031081
0.000361539
0.000400088
0.000400964
0.000384858
0.00034037
0.000285661
0.000238606
0.000203073
0.000180881
0.000171184
0.000165859
0.00016272
0.000132843
0.000108225
8.73007e-05
7.76597e-05
7.18108e-05
7.3109e-05
0.000116637
0.000295562
0.000685087
0.000686789
0.000704046
0.000639391
0.000650263
0.000623455
0.000631072
0.000585507
0.000588773
0.000550493
0.000552509
0.000549973
0.000549681
0.000530678
0.000531965
0.000518717
0.000528732
0.00050735
0.000525254
0.000486026
0.000515253
0.000458485
0.000484963
0.000434599
0.000446765
0.000433623
0.000415626
0.00046828
0.000419478
0.000444959
0.000485465
0.000463731
0.00047838
0.000428831
0.000471489
0.000486301
0.000467918
0.000464297
0.000486909
0.000275751
0.00045563
0.000437797
0.000376092
3.26302e-05
0.000139326
0.000159308
0.000173096
0.000151917
0.000159789
0.000179682
0.000201056
0.000225696
0.000253769
0.000286929
0.000327382
0.000373549
0.000409239
0.000410148
0.000394486
0.000351659
0.000295623
0.000247557
0.000211289
0.000187593
0.000177043
0.00017353
0.000157273
0.000152864
0.000149897
0.000130383
9.85352e-05
7.81302e-05
6.91185e-05
0.000122623
0.000249109
0.000676201
0.000691258
0.000701456
0.000662662
0.000679876
0.000608904
0.000619327
0.000593427
0.000600171
0.000555659
0.00056025
0.000540182
0.000544447
0.000533895
0.000536746
0.000539121
0.000547321
0.000553375
0.000581447
0.000562904
0.000607956
0.000542901
0.000593277
0.000490924
0.000555829
0.000426858
0.000442327
0.000464998
0.000497174
0.000407748
0.000401981
0.000438277
0.000429434
0.000410448
0.000416347
0.000440099
0.000410151
0.000400248
0.000437765
0.000486272
0.000481551
0.000473126
0.000445068
0.000440467
0.000477769
0.000410254
0.000276751
0.000378538
0.000472862
0.000457532
7.92045e-05
0.000326625
0.000238009
0.000113804
0.000184864
0.000184765
0.000183852
0.000201142
0.000222275
0.000244908
0.000273192
0.000305583
0.00034391
0.000386319
0.000418347
0.000418561
0.000403306
0.00036143
0.000304381
0.000255013
0.000217736
0.00019206
0.00018028
0.000168142
0.00017696
0.000180608
0.000181874
0.000177277
0.000165656
0.000150595
9.27479e-05
0.000104307
0.000206622
0.00063011
0.000701197
0.000658364
0.000674679
0.000629808
0.000642986
0.000585539
0.000597798
0.000566737
0.00057534
0.00055002
0.000557349
0.000572336
0.000579271
0.000556562
0.000565485
0.000606112
0.000626029
0.000641572
0.000666598
0.000626307
0.000606651
0.000565955
0.000529594
0.000523383
0.000537536
0.000556657
0.000480538
0.000462947
0.000491881
0.000521709
0.000395845
0.000403912
0.000454619
0.000446041
0.000421329
0.000393892
0.000409788
0.000389859
0.000388969
0.000409877
0.000481187
0.000481978
0.000451448
0.000412061
0.00041677
0.000459275
0.000435369
0.000405914
0.000478432
0.000468396
0.000133813
7.50882e-05
0.000102109
0.000372829
0.000332173
0.000239311
0.000214536
0.000224363
0.000240679
0.000264623
0.000290853
0.000323991
0.000360476
0.000399027
0.000427503
0.000426342
0.000410872
0.000369686
0.000311873
0.000261134
0.000222669
0.000194835
0.000181777
0.000170996
0.000186549
0.000202723
0.000225653
0.000214519
0.00019055
0.000173824
0.000161978
0.000129289
0.00017855
0.000467136
0.000717486
0.000674571
0.000692289
0.000640903
0.000657776
0.000610124
0.000625258
0.000589259
0.000602549
0.000566658
0.000577543
0.000587389
0.000596876
0.000658894
0.000665933
0.000639888
0.000651426
0.000684061
0.000697315
0.000599848
0.000602852
0.000499932
0.000477214
0.000500809
0.000436209
0.000451917
0.00040225
0.000527636
0.000506805
0.000468555
0.000445662
0.000483682
0.000513098
0.000502039
0.000396079
0.000412734
0.000473767
0.000462209
0.000435711
0.00038232
0.000386339
0.000375976
0.000387938
0.000384716
0.000467032
0.000472949
0.00042445
0.000385391
0.000389049
0.000434595
0.000450702
0.00042518
0.000474715
0.000470461
0.000215305
8.11003e-05
0.000106812
0.000393451
0.000354437
0.000268682
0.000247369
0.000262284
0.000280326
0.000309225
0.000340601
0.000376676
0.00041202
0.000436317
0.000433596
0.000417878
0.000375781
0.000317874
0.000265699
0.000225709
0.000195841
0.000182345
0.000185919
0.000220275
0.000281897
0.000364031
0.000407179
0.000373151
0.000272461
0.000194537
0.000165374
0.000174499
0.000330573
0.000713179
0.00071665
0.000679793
0.000697999
0.000646902
0.000663282
0.000616696
0.000631824
0.000630847
0.000643657
0.000607656
0.000619136
0.0006739
0.000682645
0.000721596
0.00072822
0.000707198
0.000715094
0.000610302
0.00062079
0.00047962
0.000481876
0.000418354
0.000385547
0.000407926
0.000372466
0.000411931
0.000394968
0.000371202
0.000363266
0.000468233
0.000435279
0.000404412
0.000378089
0.000502054
0.000479561
0.000441304
0.000403308
0.0004248
0.000489096
0.000474546
0.000449415
0.000379429
0.000370621
0.000371083
0.000393341
0.000366529
0.000445875
0.000456185
0.000396282
0.000364466
0.000365296
0.000407055
0.000458537
0.000438391
0.000463528
0.000465885
0.000203075
4.21311e-05
9.79077e-05
0.000410287
0.000370104
0.000294722
0.000280687
0.00029957
0.000323578
0.000357054
0.000391621
0.000424595
0.000444971
0.00044027
0.000423326
0.000381117
0.000322213
0.000269176
0.000226429
0.000196333
0.000182705
0.000192228
0.00025484
0.000373486
0.000540827
0.000671613
0.00065831
0.000529524
0.000338234
0.000201459
0.000183159
0.000271445
0.000685777
0.000722217
0.000747759
0.000749046
0.00072019
0.000734125
0.000689051
0.000705692
0.000657691
0.000672914
0.000710468
0.000720389
0.000691888
0.000701126
0.000735098
0.00074158
0.000669653
0.000674096
0.000639513
0.0006578
0.000493436
0.0005061
0.000377282
0.000395574
0.000350708
0.000354689
0.000359865
0.000380912
0.000354051
0.000336885
0.000321987
0.000315517
0.000405727
0.000375835
0.000349675
0.00032716
0.000460408
0.00042212
0.000385261
0.000413178
0.000435475
0.000450199
0.000447181
0.000458639
0.000382767
0.000363116
0.00037185
0.000401146
0.00035586
0.000420055
0.000434053
0.000370214
0.000350051
0.00034681
0.000379597
0.000461072
0.000448424
0.000447095
0.000456901
0.000188726
1.88333e-05
7.77248e-05
0.000425069
0.000367323
0.000321654
0.000315089
0.000340255
0.000370698
0.00040552
0.000436634
0.000453452
0.000446751
0.000427723
0.000383439
0.000325299
0.000270202
0.000226936
0.000196898
0.000181896
0.000193552
0.000275699
0.000436995
0.000691239
0.000868332
0.000863542
0.000757117
0.000584959
0.000366864
0.000217615
0.000261867
0.000597642
0.000716995
0.00079202
0.000826996
0.000846839
0.000798655
0.000814577
0.000761776
0.000779436
0.000731938
0.000745455
0.000765706
0.00077985
0.000748081
0.000755827
0.000685059
0.000700596
0.000520235
0.000499804
0.000525708
0.000536511
0.000420667
0.000399374
0.000379893
0.000386253
0.00036955
0.000381758
0.000309738
0.000311273
0.000316165
0.000326925
0.000309991
0.000298181
0.000292791
0.000293518
0.000354686
0.000329774
0.000308652
0.000292755
0.00040947
0.000372349
0.000341667
0.000420948
0.000441852
0.000405723
0.000409595
0.000449465
0.000388273
0.000360924
0.000374866
0.000406434
0.000350324
0.000393029
0.000409909
0.000347695
0.000340452
0.000332455
0.000353888
0.000460958
0.000456478
0.000427811
0.000444873
0.00020642
7.39834e-05
0.000137788
0.000437344
0.00034949
0.000352015
0.000353172
0.000385067
0.000417931
0.000447412
0.000462158
0.000453257
0.000431063
0.000384371
0.000326154
0.000271707
0.000226214
0.00019597
0.00017965
0.000191486
0.00028016
0.000467336
0.000793139
0.000984287
0.000977413
0.000893808
0.000748299
0.000561313
0.000355901
0.000278825
0.000512092
0.000687206
0.000790018
0.000960779
0.00094932
0.000937595
0.000954148
0.000893896
0.000916925
0.000844364
0.000869054
0.000799264
0.000821379
0.000774442
0.000801427
0.000717492
0.000742679
0.000493985
0.000496144
0.000346453
0.000341898
0.000380484
0.000365774
0.000363447
0.000351622
0.000333946
0.000364016
0.000355489
0.000343513
0.000349227
0.000302918
0.000320556
0.00034599
0.000372652
0.000283548
0.000280908
0.00028726
0.000303155
0.000316697
0.000296876
0.000282507
0.000274999
0.000366863
0.000335958
0.00031104
0.000424545
0.000442303
0.000370566
0.000381438
0.000420072
0.000391728
0.000360577
0.000376351
0.000407124
0.000346374
0.000367047
0.000385639
0.000328371
0.000332666
0.000319646
0.00033129
0.000458694
0.000463264
0.000407801
0.000431609
0.000269368
4.2023e-05
0.000105164
0.000445717
0.000367757
0.000382514
0.000396253
0.000430455
0.000458676
0.000469644
0.000460205
0.000434569
0.00038548
0.000327406
0.000272771
0.000226151
0.000194078
0.000177794
0.000183356
0.000273811
0.000470082
0.000841519
0.00104708
0.00103868
0.00094259
0.000807273
0.000651284
0.000495588
0.000360367
0.000480227
0.000626025
0.000770567
0.00103693
0.00109796
0.00113656
0.00105107
0.00107814
0.000987256
0.0010208
0.00091029
0.000950496
0.000835
0.000871245
0.000580596
0.000633074
0.000510647
0.000537544
0.000306557
0.000295363
0.000259174
0.00023243
0.000313534
0.000292755
0.000337468
0.000332927
0.000336795
0.000326894
0.000347031
0.000346942
0.00034684
0.000347359
0.000324801
0.0003501
0.00035176
0.000348363
0.000274717
0.00028386
0.000300806
0.00032059
0.000291491
0.00027818
0.000270958
0.000270655
0.000337703
0.000312688
0.000293458
0.000423083
0.000432444
0.000348738
0.000368081
0.000399528
0.000390012
0.000358822
0.000373043
0.000403258
0.000341008
0.000342812
0.000362734
0.000311338
0.000322874
0.000306893
0.000311304
0.000453964
0.000467062
0.000388339
0.000417874
0.000229176
1.92212e-05
8.77665e-05
0.000450061
0.000336208
0.000420162
0.000440846
0.000468891
0.000481525
0.000465798
0.000438243
0.000385998
0.000328176
0.000274292
0.000227081
0.000192622
0.000176011
0.00017557
0.000245871
0.00045297
0.000845073
0.00107203
0.00106914
0.000938161
0.000829796
0.0007231
0.000579286
0.000442333
0.000501293
0.000609541
0.000744207
0.0010243
0.00126065
0.00125971
0.0012124
0.00124446
0.00114519
0.00118163
0.00105659
0.00110345
0.000872446
0.000967838
0.000701048
0.000784812
0.00041877
0.000481596
0.00031713
0.000362252
0.000233249
0.000217062
0.000234369
0.000200304
0.000315295
0.000298468
0.000277922
0.000345873
0.000341902
0.000366981
0.000358465
0.00035266
0.000358894
0.000369998
0.000365104
0.000344886
0.000343823
0.000344378
0.0003472
0.000281553
0.000296941
0.000312306
0.000334001
0.000279805
0.000270594
0.000268383
0.000278314
0.000322474
0.00030325
0.000288003
0.000418622
0.000418775
0.000342432
0.000372387
0.00039505
0.000383434
0.000352722
0.000363525
0.000396021
0.000330693
0.000320909
0.00034153
0.00029619
0.000310834
0.00029385
0.000293477
0.000447858
0.000466847
0.000369779
0.000404764
0.000215141
7.3186e-06
5.8748e-05