/*--------------------------------*- C++ -*----------------------------------*\
  =========                 |
  \\      /  F ield         | OpenFOAM: The Open Source CFD Toolbox
   \\    /   O peration     | Website:  https://openfoam.org
    \\  /    A nd           | Version:  dev
     \\/     M anipulation  |
\*---------------------------------------------------------------------------*/
FoamFile
{
    version     2.0;
    format      ascii;
    class       volScalarField;
    location    "2500";
    object      O2;
}
// * * * * * * * * * * * * * * * * * * * * * * * * * * * * * * * * * * * * * //

dimensions      [0 0 0 0 0 0 0];

internalField   nonuniform List<scalar> 
9836
(
0.23301
0.23301
0.23301
0.23301
0.23301
0.23301
0.23301
0.23301
0.23301
0.23301
0.23301
0.23301
0.23301
0.23301
0.23301
0.23301
0.23301
0.23301
0.23301
0.23301
0.23301
0.23301
0.23301
0.23301
0.23301
0.23301
0.23301
0.23301
0.23301
0.23301
0.23301
0.23301
0.23301
0.23301
0.23301
0.23301
0.23301
0.23301
0.23301
0.23301
0.23301
0.23301
0.23301
0.23301
0.23301
0.23301
0.23301
0.23301
0.23301
0.23301
0.23301
0.23301
0.23301
0.23301
0.23301
0.23301
0.23301
0.23301
0.23301
0.23301
0.23301
0.23301
0.23301
0.23301
0.23301
0.23301
0.23301
0.23301
0.23301
0.23301
0.23301
0.23301
0.23301
0.23301
0.23301
0.23301
0.23301
0.23301
0.23301
0.23301
0.23301
0.23301
0.23301
0.23301
0.23301
0.23301
0.23301
0.23301
0.23301
0.23301
0.23301
0.23301
0.23301
0.23301
0.23301
0.23301
0.23301
0.23301
0.23301
0.23301
0.23301
0.23301
0.23301
0.23301
0.23301
0.23301
0.23301
0.23301
0.23301
0.23301
0.23301
0.23301
0.23301
0.23301
0.23301
0.23301
0.23301
0.23301
0.23301
0.23301
0.23301
0.23301
0.23301
0.23301
0.23301
0.23301
0.23301
0.23301
0.23301
0.23301
0.23301
0.23301
0.23301
0.23301
0.23301
0.23301
0.23301
0.23301
0.23301
0.23301
0.23301
0.23301
0.23301
0.23301
0.23301
0.23301
0.23301
0.23301
0.23301
0.23301
0.23301
0.23301
0.23301
0.23301
0.23301
0.23301
0.23301
0.23301
0.23301
0.23301
0.23301
0.23301
0.23301
0.23301
0.23301
0.23301
0.23301
0.23301
0.23301
0.23301
0.23301
0.23301
0.23301
0.23301
0.23301
0.23301
0.23301
0.23301
0.23301
0.23301
0.23301
0.23301
0.23301
0.23301
0.23301
0.23301
0.23301
0.23301
0.23301
0.23301
0.23301
0.23301
0.23301
0.23301
0.23301
0.23301
0.23301
0.23301
0.23301
0.23301
0.23301
0.23301
0.23301
0.23301
0.23301
0.23301
0.23301
0.23301
0.23301
0.23301
0.23301
0.23301
0.23301
0.23301
0.23301
0.23301
0.23301
0.23301
0.23301
0.23301
0.23301
0.23301
0.23301
0.23301
0.23301
0.23301
0.23301
0.23301
0.23301
0.23301
0.23301
0.23301
0.23301
0.23301
0.23301
0.23301
0.23301
0.23301
0.23301
0.23301
0.23301
0.23301
0.23301
0.23301
0.23301
0.23301
0.23301
0.23301
0.23301
0.23301
0.23301
0.23301
0.23301
0.23301
0.23301
0.23301
0.23301
0.23301
0.23301
0.23301
0.23301
0.23301
0.23301
0.23301
0.23301
0.23301
0.23301
0.23301
0.23301
0.23301
0.23301
0.23301
0.23301
0.23301
0.23301
0.23301
0.23301
0.23301
0.23301
0.23301
0.23301
0.23301
0.23301
0.23301
0.23301
0.23301
0.23301
0.23301
0.23301
0.23301
0.23301
0.23301
0.23301
0.23301
0.23301
0.23301
0.23301
0.23301
0.23301
0.23301
0.23301
0.23301
0.23301
0.23301
0.23301
0.23301
0.23301
0.23301
0.23301
0.23301
0.23301
0.23301
0.23301
0.23301
0.23301
0.23301
0.23301
0.23301
0.23301
0.23301
0.23301
0.23301
0.23301
0.23301
0.23301
0.23301
0.23301
0.23301
0.23301
0.23301
0.23301
0.23301
0.23301
0.23301
0.23301
0.23301
0.23301
0.23301
0.23301
0.23301
0.23301
0.23301
0.23301
0.23301
0.23301
0.23301
0.23301
0.23301
0.23301
0.23301
0.23301
0.23301
0.23301
0.23301
0.23301
0.23301
0.23301
0.23301
0.23301
0.23301
0.23301
0.23301
0.23301
0.23301
0.23301
0.23301
0.23301
0.23301
0.23301
0.23301
0.23301
0.23301
0.23301
0.23301
0.23301
0.23301
0.23301
0.23301
0.23301
0.23301
0.23301
0.23301
0.23301
0.23301
0.23301
0.23301
0.23301
0.23301
0.23301
0.23301
0.23301
0.23301
0.23301
0.23301
0.23301
0.23301
0.23301
0.23301
0.23301
0.23301
0.23301
0.23301
0.23301
0.23301
0.23301
0.23301
0.23301
0.23301
0.23301
0.23301
0.23301
0.23301
0.23301
0.23301
0.23301
0.23301
0.23301
0.23301
0.23301
0.23301
0.23301
0.23301
0.23301
0.23301
0.23301
0.23301
0.23301
0.23301
0.23301
0.23301
0.23301
0.23301
0.23301
0.23301
0.23301
0.23301
0.23301
0.23301
0.23301
0.23301
0.23301
0.23301
0.23301
0.23301
0.23301
0.23301
0.23301
0.23301
0.23301
0.23301
0.23301
0.23301
0.23301
0.23301
0.23301
0.23301
0.23301
0.23301
0.23301
0.23301
0.23301
0.23301
0.23301
0.23301
0.23301
0.23301
0.23301
0.23301
0.23301
0.23301
0.23301
0.23301
0.23301
0.23301
0.23301
0.23301
0.23301
0.23301
0.23301
0.23301
0.23301
0.23301
0.23301
0.23301
0.23301
0.23301
0.23301
0.23301
0.23301
0.23301
0.23301
0.23301
0.23301
0.23301
0.23301
0.23301
0.23301
0.23301
0.23301
0.23301
0.23301
0.23301
0.23301
0.23301
0.23301
0.23301
0.23301
0.23301
0.23301
0.23301
0.23301
0.23301
0.23301
0.23301
0.23301
0.23301
0.23301
0.23301
0.23301
0.23301
0.23301
0.23301
0.23301
0.23301
0.23301
0.23301
0.23301
0.23301
0.23301
0.23301
0.23301
0.23301
0.23301
0.23301
0.23301
0.23301
0.23301
0.23301
0.23301
0.23301
0.23301
0.23301
0.23301
0.23301
0.23301
0.23301
0.23301
0.23301
0.23301
0.23301
0.23301
0.23301
0.23301
0.23301
0.23301
0.23301
0.23301
0.23301
0.23301
0.23301
0.23301
0.23301
0.23301
0.23301
0.23301
0.23301
0.23301
0.23301
0.23301
0.23301
0.23301
0.23301
0.23301
0.23301
0.23301
0.23301
0.23301
0.23301
0.23301
0.23301
0.23301
0.23301
0.23301
0.23301
0.23301
0.23301
0.23301
0.23301
0.23301
0.23301
0.23301
0.23301
0.23301
0.23301
0.23301
0.23301
0.23301
0.23301
0.23301
0.23301
0.23301
0.23301
0.23301
0.23301
0.23301
0.23301
0.23301
0.23301
0.23301
0.23301
0.23301
0.23301
0.23301
0.23301
0.23301
0.23301
0.23301
0.23301
0.23301
0.23301
0.23301
0.23301
0.23301
0.23301
0.23301
0.23301
0.23301
0.23301
0.23301
0.23301
0.23301
0.23301
0.23301
0.23301
0.23301
0.23301
0.23301
0.23301
0.23301
0.23301
0.23301
0.23301
0.23301
0.23301
0.23301
0.23301
0.23301
0.23301
0.23301
0.23301
0.23301
0.23301
0.23301
0.23301
0.23301
0.23301
0.23301
0.23301
0.23301
0.23301
0.23301
0.23301
0.23301
0.23301
0.23301
0.23301
0.23301
0.23301
0.23301
0.23301
0.23301
0.23301
0.23301
0.23301
0.23301
0.23301
0.23301
0.23301
0.23301
0.23301
0.23301
0.23301
0.23301
0.23301
0.23301
0.23301
0.23301
0.23301
0.23301
0.23301
0.23301
0.23301
0.23301
0.23301
0.23301
0.23301
0.23301
0.23301
0.23301
0.23301
0.23301
0.23301
0.23301
0.23301
0.23301
0.23301
0.23301
0.23301
0.23301
0.23301
0.23301
0.23301
0.23301
0.23301
0.23301
0.23301
0.23301
0.23301
0.23301
0.23301
0.23301
0.23301
0.23301
0.23301
0.23301
0.23301
0.23301
0.23301
0.23301
0.23301
0.23301
0.23301
0.23301
0.23301
0.23301
0.23301
0.23301
0.23301
0.23301
0.23301
0.23301
0.23301
0.23301
0.23301
0.23301
0.23301
0.23301
0.23301
0.23301
0.23301
0.23301
0.23301
0.23301
0.23301
0.23301
0.23301
0.23301
0.23301
0.23301
0.23301
0.23301
0.23301
0.23301
0.23301
0.23301
0.23301
0.23301
0.23301
0.23301
0.23301
0.23301
0.23301
0.23301
0.23301
0.23301
0.23301
0.23301
0.23301
0.23301
0.23301
0.23301
0.23301
0.23301
0.23301
0.23301
0.23301
0.23301
0.23301
0.23301
0.23301
0.23301
0.23301
0.23301
0.23301
0.23301
0.23301
0.23301
0.23301
0.23301
0.23301
0.23301
0.23301
0.23301
0.23301
0.23301
0.23301
0.23301
0.23301
0.23301
0.23301
0.23301
0.23301
0.23301
0.23301
0.23301
0.23301
0.23301
0.23301
0.23301
0.23301
0.23301
0.23301
0.23301
0.23301
0.23301
0.23301
0.23301
0.23301
0.23301
0.23301
0.23301
0.23301
0.23301
0.23301
0.23301
0.23301
0.23301
0.23301
0.23301
0.23301
0.23301
0.23301
0.23301
0.23301
0.23301
0.23301
0.23301
0.23301
0.23301
0.23301
0.23301
0.23301
0.23301
0.23301
0.23301
0.23301
0.23301
0.23301
0.23301
0.23301
0.23301
0.23301
0.23301
0.23301
0.23301
0.23301
0.23301
0.23301
0.23301
0.23301
0.23301
0.23301
0.23301
0.23301
0.23301
0.23301
0.23301
0.23301
0.23301
0.23301
0.23301
0.23301
0.23301
0.23301
0.23301
0.23301
0.23301
0.23301
0.23301
0.23301
0.23301
0.23301
0.23301
0.23301
0.23301
0.23301
0.23301
0.23301
0.23301
0.23301
0.23301
0.23301
0.23301
0.23301
0.23301
0.23301
0.23301
0.23301
0.23301
0.23301
0.23301
0.23301
0.23301
0.23301
0.23301
0.23301
0.23301
0.23301
0.23301
0.23301
0.23301
0.23301
0.23301
0.23301
0.23301
0.23301
0.23301
0.23301
0.23301
0.23301
0.23301
0.23301
0.23301
0.23301
0.23301
0.23301
0.233009
0.233008
0.233009
0.233008
0.233009
0.233008
0.233009
0.233008
0.23301
0.233009
0.23301
0.23301
0.23301
0.23301
0.23301
0.23301
0.23301
0.23301
0.23301
0.23301
0.23301
0.23301
0.23301
0.23301
0.23301
0.23301
0.23301
0.23301
0.23301
0.23301
0.23301
0.23301
0.23301
0.23301
0.23301
0.23301
0.23301
0.23301
0.23301
0.23301
0.23301
0.23301
0.23301
0.23301
0.23301
0.23301
0.23301
0.23301
0.23301
0.23301
0.23301
0.233009
0.233007
0.233003
0.233005
0.232997
0.233004
0.232994
0.233004
0.232994
0.233006
0.232997
0.233008
0.233003
0.23301
0.233008
0.233009
0.23301
0.23301
0.23301
0.23301
0.23301
0.23301
0.23301
0.23301
0.23301
0.23301
0.23301
0.23301
0.23301
0.23301
0.23301
0.23301
0.23301
0.23301
0.23301
0.23301
0.23301
0.23301
0.23301
0.23301
0.23301
0.23301
0.23301
0.23301
0.23301
0.23301
0.23301
0.23301
0.23301
0.23301
0.23301
0.23301
0.23301
0.23301
0.233008
0.232998
0.23299
0.232986
0.232962
0.232973
0.23293
0.232968
0.232912
0.232973
0.232913
0.232986
0.232937
0.232999
0.232968
0.233007
0.232994
0.233007
0.23301
0.233007
0.233007
0.23301
0.23301
0.23301
0.23301
0.23301
0.23301
0.23301
0.23301
0.23301
0.23301
0.23301
0.23301
0.23301
0.23301
0.23301
0.23301
0.23301
0.23301
0.23301
0.23301
0.23301
0.23301
0.23301
0.23301
0.23301
0.23301
0.23301
0.23301
0.23301
0.23301
0.23301
0.23301
0.23301
0.23301
0.23301
0.233003
0.232978
0.232999
0.232935
0.232888
0.232863
0.232762
0.232798
0.232621
0.232783
0.232535
0.232814
0.232551
0.232882
0.232666
0.232947
0.232809
0.23299
0.232926
0.232989
0.233008
0.23299
0.232994
0.23301
0.233009
0.23301
0.23301
0.23301
0.23301
0.23301
0.23301
0.23301
0.23301
0.23301
0.23301
0.23301
0.23301
0.23301
0.23301
0.23301
0.23301
0.23301
0.23301
0.23301
0.23301
0.23301
0.23301
0.23301
0.23301
0.23301
0.23301
0.23301
0.23301
0.23301
0.23301
0.23301
0.23301
0.23301
0.233
0.232834
0.232849
0.232751
0.232645
0.232504
0.232402
0.232152
0.232202
0.231826
0.232128
0.231623
0.232214
0.231604
0.232472
0.231806
0.232728
0.232248
0.23291
0.232657
0.232905
0.233
0.232911
0.23293
0.23301
0.233005
0.23301
0.23301
0.23301
0.23301
0.23301
0.23301
0.23301
0.23301
0.23301
0.23301
0.23301
0.23301
0.23301
0.23301
0.23301
0.23301
0.23301
0.23301
0.23301
0.23301
0.23301
0.23301
0.23301
0.23301
0.23301
0.23301
0.23301
0.23301
0.23301
0.23301
0.23301
0.23301
0.23301
0.233002
0.232812
0.232116
0.232006
0.232363
0.232228
0.231901
0.23165
0.231445
0.231081
0.231099
0.230599
0.230943
0.230291
0.231017
0.230217
0.231375
0.230424
0.232032
0.23097
0.232609
0.231864
0.232599
0.232955
0.232624
0.232686
0.233008
0.23298
0.23301
0.233009
0.23301
0.23301
0.23301
0.23301
0.23301
0.23301
0.23301
0.23301
0.23301
0.23301
0.23301
0.23301
0.23301
0.23301
0.23301
0.23301
0.23301
0.23301
0.23301
0.23301
0.23301
0.23301
0.23301
0.23301
0.23301
0.23301
0.23301
0.23301
0.23301
0.23301
0.23301
0.233004
0.232837
0.231935
0.231891
0.23109
0.23097
0.231426
0.231238
0.230753
0.230454
0.230143
0.229738
0.229683
0.229138
0.229449
0.228741
0.229486
0.228609
0.229859
0.228793
0.230618
0.229358
0.231767
0.230348
0.231763
0.232778
0.231845
0.232009
0.232998
0.232874
0.23301
0.233006
0.23301
0.23301
0.23301
0.23301
0.23301
0.23301
0.23301
0.23301
0.23301
0.23301
0.23301
0.23301
0.23301
0.23301
0.23301
0.23301
0.23301
0.23301
0.23301
0.23301
0.23301
0.23301
0.23301
0.23301
0.23301
0.23301
0.23301
0.23301
0.23301
0.23301
0.23301
0.233006
0.23284
0.231897
0.232016
0.230887
0.230848
0.229856
0.229743
0.230204
0.230006
0.229389
0.229083
0.228662
0.228254
0.228109
0.227565
0.227809
0.227102
0.227807
0.226926
0.228168
0.227087
0.228942
0.227638
0.230184
0.228638
0.230158
0.232256
0.230309
0.230637
0.232949
0.232526
0.233009
0.232991
0.23301
0.23301
0.23301
0.23301
0.23301
0.23301
0.23301
0.23301
0.23301
0.23301
0.23301
0.23301
0.23301
0.23301
0.23301
0.23301
0.23301
0.23301
0.23301
0.23301
0.23301
0.23301
0.23301
0.23301
0.23301
0.23301
0.23301
0.23301
0.23301
0.23301
0.23301
0.233008
0.232875
0.231436
0.230843
0.230726
0.229672
0.229654
0.228521
0.228431
0.228837
0.228652
0.227914
0.227632
0.227108
0.226734
0.22649
0.225996
0.226142
0.225484
0.226117
0.22528
0.22647
0.22542
0.227229
0.225966
0.228469
0.226938
0.228452
0.231136
0.228589
0.228928
0.232772
0.231713
0.233006
0.232933
0.23301
0.23301
0.23301
0.23301
0.23301
0.23301
0.23301
0.23301
0.23301
0.23301
0.23301
0.23301
0.23301
0.23301
0.23301
0.23301
0.23301
0.23301
0.23301
0.23301
0.23301
0.23301
0.23301
0.23301
0.23301
0.23301
0.23301
0.23301
0.23301
0.23301
0.233009
0.232935
0.231715
0.22974
0.22984
0.229663
0.229684
0.228393
0.228399
0.227189
0.227153
0.227421
0.227277
0.226441
0.226223
0.225594
0.225291
0.224924
0.224547
0.224528
0.224022
0.224464
0.223709
0.224841
0.223773
0.22559
0.224356
0.226793
0.225325
0.2268
0.229525
0.226989
0.227399
0.232296
0.230371
0.232995
0.23275
0.23301
0.23301
0.23301
0.23301
0.23301
0.23301
0.23301
0.23301
0.23301
0.23301
0.23301
0.23301
0.23301
0.23301
0.23301
0.23301
0.23301
0.23301
0.23301
0.23301
0.23301
0.23301
0.23301
0.23301
0.23301
0.23301
0.23301
0.23301
0.23301
0.233009
0.232972
0.232111
0.229982
0.230342
0.228569
0.228678
0.228419
0.228467
0.227162
0.227186
0.226009
0.22603
0.226089
0.226014
0.225103
0.22499
0.224344
0.224298
0.223812
0.223833
0.223393
0.223431
0.22312
0.223001
0.223223
0.222657
0.224008
0.222771
0.225211
0.223753
0.225267
0.22802
0.225508
0.225832
0.22689
0.231359
0.228922
0.232958
0.232273
0.23301
0.23301
0.23301
0.23301
0.23301
0.23301
0.23301
0.23301
0.23301
0.23301
0.23301
0.23301
0.23301
0.23301
0.23301
0.23301
0.23301
0.23301
0.23301
0.23301
0.23301
0.23301
0.23301
0.233009
0.233009
0.233009
0.233009
0.233009
0.233009
0.232992
0.232455
0.229938
0.228919
0.228911
0.227455
0.227594
0.22724
0.227326
0.226076
0.226156
0.225052
0.225145
0.224976
0.225
0.224327
0.224384
0.223903
0.224046
0.223533
0.223771
0.223118
0.223441
0.222701
0.222955
0.222282
0.222399
0.222488
0.222028
0.223662
0.222311
0.222984
0.22459
0.223681
0.22616
0.227638
0.226474
0.224976
0.22394
0.223837
0.225171
0.230075
0.226936
0.227377
0.228603
0.232699
0.231254
0.23301
0.23301
0.23301
0.23301
0.23301
0.23301
0.23301
0.23301
0.23301
0.23301
0.23301
0.23301
0.23301
0.23301
0.23301
0.23301
0.23301
0.23301
0.23301
0.23301
0.23301
0.233009
0.233007
0.233005
0.233004
0.233006
0.233007
0.233008
0.233
0.23272
0.230626
0.228203
0.228657
0.227801
0.227997
0.226546
0.226707
0.226265
0.226389
0.22526
0.225392
0.224663
0.224771
0.22447
0.224564
0.224204
0.224352
0.224116
0.224474
0.224029
0.224706
0.223624
0.224649
0.222915
0.224027
0.222077
0.222218
0.222533
0.223109
0.221979
0.221804
0.222199
0.222099
0.221862
0.222317
0.222993
0.222218
0.221847
0.222997
0.225487
0.225877
0.22421
0.223275
0.223094
0.224492
0.227943
0.22972
0.228488
0.226319
0.22682
0.232041
0.229087
0.229672
0.23078
0.23301
0.23301
0.23301
0.23301
0.23301
0.23301
0.23301
0.23301
0.23301
0.23301
0.23301
0.23301
0.23301
0.23301
0.23301
0.23301
0.23301
0.23301
0.23301
0.233009
0.233007
0.232997
0.232982
0.232976
0.232984
0.232995
0.233002
0.233001
0.232884
0.231435
0.228489
0.227415
0.227492
0.226924
0.2271
0.225899
0.226092
0.225545
0.22571
0.224894
0.225036
0.224688
0.22479
0.224479
0.224589
0.224775
0.224984
0.225324
0.225784
0.225666
0.226491
0.22542
0.226687
0.22372
0.224509
0.225185
0.226006
0.222553
0.22314
0.223846
0.221732
0.221788
0.222561
0.222558
0.222057
0.221786
0.222279
0.221762
0.221659
0.222329
0.224848
0.225265
0.223514
0.222439
0.222608
0.223829
0.227365
0.227947
0.22574
0.226265
0.230252
0.232081
0.23116
0.228565
0.229216
0.23301
0.23301
0.23301
0.23301
0.23301
0.23301
0.23301
0.23301
0.23301
0.23301
0.23301
0.23301
0.23301
0.23301
0.23301
0.23301
0.23301
0.23301
0.233008
0.232999
0.232962
0.232889
0.232848
0.232877
0.23293
0.232971
0.232994
0.232953
0.232112
0.229213
0.227215
0.227629
0.226773
0.226998
0.226317
0.226523
0.225598
0.225815
0.225202
0.225388
0.224907
0.225049
0.225245
0.225313
0.225112
0.225188
0.226061
0.226186
0.227056
0.227359
0.227647
0.22826
0.226649
0.227358
0.227853
0.228339
0.224607
0.225397
0.22619
0.226969
0.223183
0.223912
0.2247
0.221731
0.222034
0.22321
0.223219
0.222554
0.221604
0.221763
0.221558
0.221673
0.221799
0.224215
0.224669
0.222853
0.22188
0.222022
0.223185
0.226834
0.227451
0.22518
0.22574
0.230077
0.232183
0.231241
0.228124
0.228933
0.23301
0.23301
0.23301
0.23301
0.23301
0.23301
0.23301
0.23301
0.23301
0.23301
0.23301
0.23301
0.23301
0.23301
0.23301
0.23301
0.23301
0.233007
0.232981
0.232874
0.232648
0.232457
0.232472
0.23267
0.232852
0.232955
0.232958
0.232544
0.230168
0.227724
0.226963
0.227093
0.22651
0.226714
0.226048
0.226271
0.225673
0.225923
0.225227
0.225436
0.225417
0.225574
0.226281
0.226359
0.226228
0.226247
0.227486
0.227535
0.228583
0.228747
0.228635
0.228916
0.229094
0.229303
0.227654
0.228251
0.228701
0.229049
0.225523
0.226365
0.227186
0.227928
0.223957
0.224762
0.225614
0.222001
0.222536
0.223981
0.223984
0.223213
0.221616
0.221527
0.221554
0.221952
0.22151
0.223599
0.22409
0.222249
0.221523
0.22159
0.22258
0.226348
0.227014
0.224644
0.225249
0.230012
0.232578
0.231517
0.227783
0.228751
0.23301
0.23301
0.23301
0.23301
0.23301
0.23301
0.23301
0.23301
0.23301
0.23301
0.23301
0.23301
0.23301
0.23301
0.23301
0.23301
0.233005
0.232961
0.232761
0.232327
0.231908
0.231807
0.232056
0.232485
0.232822
0.232931
0.232741
0.231133
0.22837
0.227309
0.227498
0.227004
0.227135
0.226628
0.22681
0.226176
0.226407
0.226311
0.22657
0.225789
0.226041
0.226511
0.226737
0.227776
0.227966
0.227579
0.22765
0.228898
0.229117
0.22977
0.230048
0.229289
0.229479
0.229626
0.229728
0.228549
0.229028
0.229379
0.229629
0.226494
0.227355
0.228137
0.228788
0.224799
0.225667
0.226575
0.222497
0.223183
0.224811
0.224798
0.223963
0.221875
0.221492
0.221776
0.22243
0.221434
0.223011
0.223537
0.221748
0.221383
0.221371
0.222032
0.225909
0.226645
0.224136
0.224795
0.23007
0.232842
0.231864
0.227532
0.228673
0.23301
0.23301
0.23301
0.23301
0.23301
0.23301
0.23301
0.23301
0.23301
0.23301
0.23301
0.23301
0.23301
0.23301
0.23301
0.233005
0.232951
0.232676
0.232046
0.231399
0.231139
0.231338
0.231863
0.23247
0.232831
0.23277
0.231806
0.229091
0.227702
0.227447
0.227544
0.227335
0.227388
0.227148
0.227251
0.226803
0.226997
0.227519
0.227701
0.227007
0.227278
0.228208
0.22847
0.22986
0.230137
0.22934
0.229581
0.23033
0.230536
0.230311
0.230399
0.230532
0.230439
0.229819
0.229976
0.230113
0.230226
0.229285
0.22964
0.229888
0.230067
0.227469
0.228283
0.22896
0.229474
0.225687
0.226608
0.227525
0.223124
0.223909
0.225678
0.225634
0.224754
0.222322
0.221649
0.222172
0.223023
0.221502
0.222466
0.223015
0.221423
0.221369
0.221274
0.22159
0.225517
0.226342
0.223659
0.224376
0.230222
0.23272
0.231958
0.227358
0.228667
0.23301
0.23301
0.23301
0.23301
0.23301
0.23301
0.23301
0.23301
0.23301
0.23301
0.23301
0.23301
0.23301
0.23301
0.233006
0.232952
0.232641
0.231861
0.230982
0.230559
0.230666
0.231179
0.231925
0.232582
0.232726
0.232105
0.229872
0.228038
0.227748
0.227764
0.227768
0.227733
0.227867
0.227818
0.227911
0.227898
0.227825
0.227896
0.228952
0.228937
0.2287
0.228865
0.230336
0.230463
0.23143
0.231714
0.230804
0.231082
0.230589
0.230669
0.230713
0.230379
0.230377
0.23035
0.230363
0.2302
0.230289
0.230339
0.230359
0.22983
0.230067
0.230218
0.230303
0.228366
0.229068
0.229598
0.229957
0.2266
0.227526
0.228388
0.223815
0.224666
0.226552
0.22646
0.225551
0.22287
0.221975
0.222658
0.223666
0.221734
0.221968
0.222536
0.221242
0.221471
0.221249
0.221301
0.22517
0.226096
0.223215
0.22399
0.230394
0.232899
0.232238
0.227239
0.228719
0.23301
0.23301
0.23301
0.23301
0.23301
0.23301
0.23301
0.23301
0.23301
0.23301
0.23301
0.23301
0.23301
0.233008
0.232962
0.232648
0.231797
0.230728
0.230184
0.230152
0.230497
0.231229
0.232128
0.23256
0.23212
0.230449
0.228514
0.22783
0.227877
0.22783
0.228064
0.227959
0.228329
0.228189
0.22863
0.228478
0.228882
0.228772
0.230219
0.229976
0.230459
0.23038
0.231856
0.231879
0.231747
0.232109
0.230979
0.231308
0.230361
0.230423
0.229555
0.229678
0.230096
0.229943
0.22964
0.229792
0.230338
0.230335
0.230303
0.230217
0.230177
0.230293
0.230329
0.230315
0.229114
0.229663
0.230029
0.230237
0.227478
0.228351
0.2291
0.224522
0.225411
0.22738
0.227222
0.226315
0.223448
0.22238
0.223154
0.2243
0.222035
0.221556
0.222092
0.221124
0.221642
0.221279
0.221106
0.224864
0.225894
0.222805
0.223633
0.230656
0.232962
0.232519
0.227162
0.228832
0.23301
0.23301
0.23301
0.23301
0.23301
0.23301
0.23301
0.23301
0.23301
0.23301
0.23301
0.23301
0.233009
0.232983
0.232703
0.231815
0.230646
0.230028
0.229873
0.229993
0.230451
0.231299
0.232161
0.231989
0.230567
0.228923
0.22795
0.22786
0.227823
0.228003
0.227911
0.228271
0.228123
0.228647
0.228446
0.229134
0.228877
0.229698
0.229412
0.231058
0.230662
0.231725
0.231426
0.232345
0.232422
0.231183
0.231969
0.229873
0.230141
0.230347
0.229544
0.22952
0.228317
0.228433
0.229431
0.229137
0.228584
0.228848
0.230261
0.23012
0.229935
0.229704
0.230314
0.230311
0.230258
0.230105
0.229671
0.230051
0.230255
0.230302
0.228256
0.229023
0.229624
0.22519
0.22609
0.228093
0.227842
0.226983
0.223989
0.222776
0.223588
0.224862
0.222315
0.221252
0.221698
0.221041
0.221799
0.221312
0.22097
0.224591
0.225718
0.222427
0.223302
0.231028
0.232998
0.232778
0.227118
0.229026
0.23301
0.23301
0.23301
0.23301
0.23301
0.23301
0.23301
0.23301
0.23301
0.23301
0.23301
0.233009
0.232997
0.23281
0.231932
0.230661
0.230017
0.229819
0.229793
0.229914
0.230347
0.23112
0.23152
0.23046
0.229013
0.22809
0.227822
0.227939
0.227887
0.22814
0.228024
0.228459
0.228284
0.228913
0.228668
0.229518
0.229196
0.230263
0.229877
0.231673
0.231262
0.232351
0.232047
0.232423
0.232606
0.22956
0.230327
0.231089
0.228711
0.22915
0.228938
0.228292
0.228385
0.228313
0.227032
0.227147
0.228549
0.228147
0.227412
0.227756
0.229894
0.229626
0.229303
0.228941
0.230275
0.230141
0.229931
0.229657
0.230029
0.230222
0.230252
0.230205
0.228872
0.229501
0.229942
0.225753
0.226629
0.228619
0.228229
0.227466
0.224425
0.223078
0.223866
0.225272
0.222492
0.221035
0.221361
0.220978
0.221874
0.221326
0.220859
0.224336
0.225553
0.222065
0.222989
0.231494
0.233008
0.232933
0.227103
0.229294
0.23301
0.23301
0.23301
0.23301
0.23301
0.23301
0.23301
0.23301
0.23301
0.23301
0.233009
0.233004
0.232901
0.232198
0.230786
0.230073
0.229851
0.229792
0.229783
0.229807
0.230024
0.230319
0.229987
0.228945
0.228115
0.227843
0.228027
0.227994
0.228142
0.228068
0.228383
0.228248
0.228759
0.228552
0.229299
0.229008
0.230002
0.22963
0.230834
0.230409
0.232358
0.232006
0.232664
0.232592
0.232196
0.232642
0.228702
0.229523
0.229554
0.230581
0.227414
0.227799
0.227973
0.227344
0.227149
0.227035
0.225885
0.226049
0.227585
0.227117
0.2263
0.22668
0.229332
0.228953
0.228524
0.228061
0.230024
0.229751
0.22942
0.229038
0.230153
0.230182
0.230126
0.229898
0.229266
0.229733
0.230019
0.226118
0.226925
0.228868
0.22828
0.227655
0.224665
0.223222
0.223941
0.22545
0.222516
0.220868
0.221097
0.220926
0.221872
0.221319
0.220758
0.224083
0.225386
0.221722
0.222681
0.232071
0.23301
0.232983
0.2271
0.229665
0.23301
0.23301
0.23301
0.23301
0.23301
0.23301
0.23301
0.23301
0.233009
0.233009
0.233006
0.232959
0.232478
0.231109
0.230213
0.229985
0.229933
0.229884
0.229778
0.229614
0.229451
0.229147
0.228651
0.228101
0.227895
0.228215
0.22841
0.228409
0.228555
0.228464
0.228843
0.228681
0.229301
0.229049
0.229945
0.229601
0.230739
0.230328
0.231597
0.231173
0.232773
0.232637
0.232787
0.232822
0.231329
0.232065
0.232504
0.227944
0.228713
0.229079
0.229958
0.226372
0.226808
0.227253
0.226634
0.226007
0.225875
0.224953
0.225195
0.226508
0.226009
0.22522
0.225571
0.228597
0.228106
0.227583
0.227041
0.229557
0.229166
0.228735
0.228227
0.230091
0.230053
0.229813
0.2294
0.229372
0.229742
0.229926
0.226194
0.226871
0.228832
0.228116
0.227521
0.22464
0.223155
0.223774
0.225303
0.22242
0.220728
0.220884
0.220896
0.2218
0.221276
0.220658
0.223819
0.22521
0.221406
0.222368
0.232464
0.23301
0.232989
0.227102
0.230035
0.23301
0.23301
0.23301
0.23301
0.23301
0.233009
0.233008
0.233007
0.233006
0.233005
0.232984
0.232707
0.231547
0.230405
0.230149
0.230317
0.230396
0.2301
0.22973
0.229364
0.228954
0.228546
0.228129
0.228023
0.228366
0.229617
0.229077
0.229044
0.229235
0.229133
0.229586
0.229386
0.230134
0.229837
0.230855
0.230476
0.231658
0.231254
0.232397
0.232055
0.232919
0.232893
0.232817
0.232901
0.230895
0.231798
0.232512
0.232057
0.22759
0.228291
0.228859
0.229618
0.225591
0.226078
0.226952
0.22635
0.224982
0.2249
0.22425
0.224635
0.22535
0.224859
0.224174
0.224458
0.227676
0.227088
0.226491
0.225904
0.228895
0.228392
0.227838
0.227215
0.229935
0.229732
0.229292
0.228679
0.229295
0.22961
0.229681
0.225944
0.226553
0.228629
0.22765
0.227122
0.224333
0.222925
0.22333
0.224839
0.222191
0.220615
0.220705
0.220846
0.221658
0.221172
0.220589
0.223552
0.225035
0.221127
0.222066
0.232519
0.233001
0.232955
0.227069
0.229998
0.23301
0.23301
0.23301
0.233009
0.233007
0.233004
0.233
0.232997
0.232997
0.232987
0.232847
0.231989
0.230673
0.230282
0.230559
0.231079
0.23111
0.230527
0.22977
0.229188
0.228718
0.228351
0.228351
0.228754
0.230067
0.231388
0.230094
0.23143
0.230064
0.230202
0.230102
0.230585
0.230363
0.231163
0.230855
0.23188
0.231513
0.232514
0.232227
0.232823
0.232703
0.232959
0.232969
0.232772
0.232919
0.230444
0.231294
0.232414
0.231823
0.22753
0.228166
0.228847
0.229533
0.225142
0.225746
0.226934
0.226344
0.224045
0.224053
0.223721
0.224295
0.224162
0.223725
0.223232
0.223403
0.226573
0.22592
0.225285
0.224693
0.228009
0.227383
0.226716
0.226008
0.229593
0.229175
0.22848
0.227678
0.229032
0.229203
0.22918
0.225339
0.225839
0.228076
0.226687
0.226299
0.223692
0.222495
0.22279
0.224093
0.221934
0.220487
0.220537
0.220768
0.221439
0.22105
0.220495
0.223298
0.22483
0.220931
0.221759
0.232242
0.232602
0.232551
0.226928
0.229454
0.233009
0.233009
0.233006
0.233
0.232988
0.232974
0.232966
0.232968
0.232974
0.232902
0.23234
0.231044
0.230422
0.230639
0.231388
0.23186
0.231734
0.231096
0.230215
0.229486
0.229076
0.229137
0.229632
0.23088
0.232228
0.231331
0.23244
0.232447
0.231299
0.23142
0.231333
0.23177
0.231571
0.232258
0.232005
0.232664
0.232487
0.232882
0.232795
0.232961
0.232934
0.232966
0.232986
0.232598
0.23279
0.232899
0.230268
0.231041
0.232162
0.231558
0.227681
0.228232
0.229
0.229584
0.224986
0.225711
0.22715
0.226562
0.223225
0.22335
0.223411
0.22417
0.223008
0.222669
0.222435
0.222467
0.22531
0.22464
0.224014
0.223468
0.226852
0.226122
0.225377
0.224631
0.228839
0.228189
0.227283
0.226309
0.228313
0.228323
0.228028
0.224471
0.22483
0.22685
0.22512
0.22508
0.22313
0.222233
0.222553
0.223445
0.221728
0.22037
0.220476
0.220651
0.221323
0.220845
0.220336
0.223004
0.224614
0.220724
0.221419
0.231172
0.232136
0.231139
0.2266
0.228544
0.233006
0.232999
0.232977
0.232936
0.232894
0.23287
0.232882
0.23292
0.232901
0.232555
0.231457
0.230601
0.230646
0.231407
0.232118
0.232379
0.2322
0.231681
0.231062
0.230593
0.230516
0.23092
0.231783
0.232578
0.232954
0.232432
0.232911
0.232904
0.232427
0.2325
0.232451
0.232664
0.232577
0.232832
0.232753
0.232939
0.232895
0.232984
0.232968
0.232992
0.232992
0.232952
0.232986
0.232497
0.232752
0.232906
0.232826
0.230234
0.230906
0.232008
0.23147
0.228025
0.228486
0.229288
0.229771
0.22499
0.22582
0.227545
0.226934
0.222524
0.222851
0.223312
0.224188
0.221964
0.221747
0.221772
0.221707
0.223938
0.22331
0.222756
0.222308
0.225393
0.22461
0.22385
0.223142
0.227397
0.226523
0.225535
0.224545
0.22685
0.226538
0.225802
0.223657
0.223751
0.22504
0.223739
0.223783
0.222815
0.222012
0.222337
0.222972
0.221584
0.220267
0.220346
0.220414
0.22103
0.220621
0.220237
0.222708
0.22436
0.220546
0.221147
0.229804
0.232162
0.230142
0.226158
0.227735
0.232978
0.232934
0.232825
0.232731
0.232694
0.232715
0.232784
0.232855
0.232631
0.231799
0.230821
0.230651
0.231348
0.232116
0.232536
0.232683
0.23255
0.232247
0.231957
0.231857
0.232064
0.232482
0.232828
0.232982
0.233009
0.233
0.232911
0.233
0.232909
0.232922
0.232913
0.232955
0.232938
0.232984
0.23297
0.232999
0.232993
0.233004
0.233003
0.232997
0.233002
0.232885
0.232913
0.232952
0.232978
0.23231
0.232659
0.232776
0.230314
0.230894
0.231903
0.231447
0.228465
0.22886
0.22965
0.230047
0.225156
0.226118
0.227984
0.22735
0.222067
0.222583
0.223327
0.224336
0.221115
0.221095
0.221417
0.221157
0.222525
0.222017
0.221594
0.221295
0.223656
0.222904
0.22223
0.221671
0.225033
0.224213
0.223385
0.22266
0.224667
0.223962
0.223518
0.223076
0.22307
0.223602
0.223178
0.223142
0.222492
0.221767
0.221829
0.222524
0.221176
0.220102
0.220196
0.220288
0.220794
0.220372
0.220067
0.222361
0.224039
0.220397
0.220918
0.228815
0.232827
0.230466
0.225671
0.227095
0.232841
0.232712
0.232555
0.232498
0.23252
0.232602
0.232714
0.232625
0.232003
0.231059
0.230697
0.231176
0.231991
0.2325
0.232764
0.232865
0.232792
0.232682
0.232627
0.232698
0.232846
0.232955
0.233001
0.233009
0.23301
0.233009
0.23301
0.23301
0.233
0.233009
0.233
0.233001
0.233
0.233004
0.233002
0.233007
0.233006
0.233008
0.233008
0.233007
0.233008
0.232997
0.233003
0.232834
0.232884
0.232938
0.232959
0.23222
0.232541
0.23267
0.230487
0.230961
0.231873
0.231484
0.22887
0.229265
0.229986
0.230347
0.225434
0.226491
0.228413
0.227806
0.221859
0.222497
0.2234
0.224566
0.220694
0.22073
0.221268
0.220913
0.221265
0.220988
0.220794
0.220707
0.222019
0.221552
0.221143
0.220861
0.222909
0.222413
0.221912
0.221483
0.223626
0.223699
0.221372
0.222553
0.221403
0.22165
0.221756
0.221633
0.221842
0.221266
0.221297
0.222057
0.220925
0.219956
0.220049
0.220117
0.220533
0.220299
0.219932
0.222031
0.223631
0.220295
0.220671
0.228318
0.232892
0.231128
0.225235
0.226597
0.232541
0.232404
0.232304
0.23231
0.232389
0.232507
0.232548
0.232055
0.231253
0.230801
0.231039
0.231725
0.232309
0.232704
0.23292
0.232954
0.232932
0.232914
0.232931
0.232972
0.232998
0.233008
0.23301
0.23301
0.23301
0.23301
0.23301
0.23301
0.233009
0.233009
0.233009
0.233009
0.233009
0.233009
0.233009