/*--------------------------------*- C++ -*----------------------------------*\
  =========                 |
  \\      /  F ield         | OpenFOAM: The Open Source CFD Toolbox
   \\    /   O peration     | Website:  https://openfoam.org
    \\  /    A nd           | Version:  dev
     \\/     M anipulation  |
\*---------------------------------------------------------------------------*/
FoamFile
{
    version     2.0;
    format      ascii;
    class       volScalarField;
    location    "2500";
    object      omega;
}
// * * * * * * * * * * * * * * * * * * * * * * * * * * * * * * * * * * * * * //

dimensions      [0 0 -1 0 0 0 0];

internalField   nonuniform List<scalar> 
9836
(
1.23421
1.2516
1.19825
1.17823
1.33738
1.09208
1.08128
1.3507
1.27558
1.02926
1.03324
1.31764
1.34539
1.1484
1.01287
1.01
1.2316
1.36967
1.2766
1.06111
1.00713
0.997981
1.12549
1.35958
1.3432
1.15272
1.02679
1.00355
0.987751
1.05912
1.31966
1.36715
1.25728
1.06721
1.01218
1.00111
0.982124
1.01852
1.23489
1.37037
1.32778
1.14009
1.02941
1.00421
0.999071
0.979166
0.99468
1.1366
1.35498
1.35796
1.22977
1.06299
1.01085
0.998995
0.997779
0.978324
0.981755
1.06287
1.31188
1.3698
1.30379
1.12261
1.02576
1.00037
0.993868
0.997055
0.979033
0.973868
1.01743
1.23144
1.36816
1.34451
1.1971
1.05501
1.00578
0.99331
0.990434
0.996379
0.980214
0.968399
0.991227
1.13419
1.35024
1.36177
1.27195
1.10164
1.01975
0.994621
0.986456
0.988542
0.9957
0.981358
0.964876
0.976692
1.0601
1.30415
1.37076
1.32274
1.16737
1.04373
0.999757
0.986219
0.981655
0.987006
0.995216
0.98227
0.962597
0.968318
1.01551
1.22332
1.36786
1.35246
1.2362
1.0822
1.01244
0.987658
0.978484
0.978776
0.985556
0.994815
0.982624
0.961649
0.963193
0.989479
1.12617
1.34764
1.3652
1.29659
1.13751
1.03259
0.992758
0.978513
0.972503
0.97649
0.984465
0.994455
0.982811
0.962158
0.959417
0.974553
1.05648
1.29843
1.37387
1.33525
1.20214
1.06413
1.0043
0.980064
0.970039
0.968726
0.974618
0.983462
0.994158
0.98322
0.963282
0.956282
0.965776
1.01391
1.21579
1.36997
1.35996
1.26325
1.11079
1.02134
0.984871
0.970205
0.96325
0.965882
0.973008
0.982587
0.993908
0.983997
0.964371
0.95423
0.959921
0.988835
1.11882
1.34776
1.37194
1.31402
1.1699
1.0465
0.99501
0.971816
0.961435
0.958892
0.963528
0.971627
0.981806
0.993678
0.984882
0.96496
0.953063
0.956004
0.974003
1.05356
1.29586
1.38093
1.34758
1.2292
1.08567
1.0084
0.97652
0.961747
0.954202
0.955418
0.961573
0.970423
0.981072
0.993453
0.985548
0.96507
0.953044
0.953449
0.96498
1.01338
1.21069
1.37565
1.37016
1.28403
1.1367
1.02874
0.984818
0.96348
0.95304
0.949301
0.952659
0.959921
0.969295
0.980374
0.993246
0.986002
0.965389
0.953851
0.951475
0.959333
0.989369
1.11591
1.35116
1.38253
1.32989
1.19457
1.06015
0.995779
0.967961
0.953509
0.945451
0.945349
0.950358
0.958435
0.968238
0.979699
0.993058
0.986288
0.966217
0.954407
0.949507
0.95525
0.975127
1.05472
1.29694
1.39035
1.36074
1.24921
1.10499
1.012
0.975014
0.955315
0.944826
0.940103
0.942147
0.948383
0.957071
0.967242
0.979068
0.992871
0.986548
0.967464
0.954328
0.948158
0.951761
0.96578
1.01663
1.21417
1.384
1.38181
1.30054
1.15779
1.0379
0.983941
0.959635
0.945374
0.937145
0.935757
0.939525
0.946665
0.955833
0.966276
0.978465
0.992703
0.98687
0.968446
0.954097
0.947662
0.94925
0.958979
0.992349
1.12296
1.35924
1.39521
1.34412
1.21338
1.07553
0.997207
0.965286
0.947224
0.936944
0.931522
0.932223
0.937338
0.945184
0.954664
0.96534
0.977924
0.992585
0.987226
0.968935
0.954249
0.947654
0.947545
0.954193
0.976552
1.06119
1.30668
1.40459
1.37497
1.26578
1.12328
1.018
0.972487
0.95086
0.937527
0.929494
0.926903
0.929386
0.935485
0.943842
0.953535
0.964493
0.977484
0.992486
0.987575
0.969268
0.954569
0.947406
0.94549
0.950554
0.966102
1.02159
1.22543
1.39868
1.39762
1.31645
1.17602
1.04863
0.982869
0.955131
0.939256
0.929513
0.923721
0.92326
0.927039
0.933918
0.942631
0.952505
0.963765
0.977168
0.992408
0.987898
0.969645
0.954688
0.946682
0.943709
0.947534
0.958701
0.995667
1.13533
1.37502
1.41316
1.36129
1.22989
1.08965
0.998902
0.960511
0.941891
0.930069
0.922475
0.919136
0.920319
0.925209
0.932644
0.941569
0.95167
0.963237
0.977235
0.992434
0.988207
0.969968
0.954516
0.945854
0.942011
0.945143
0.953383
0.978711
1.07044
1.32462
1.42413
1.39364
1.28308
1.13842
1.02314
0.968356
0.944871
0.931446
0.922577
0.916928
0.915571
0.918096
0.923854
0.931639
0.940781
0.951097
0.963184
0.977669
0.992643
0.988428
0.970172
0.954102
0.944927
0.940767
0.9429
0.949542
0.967437
1.02953
1.24684
1.41897
1.41776
1.33499
1.19164
1.05738
0.980445
0.948853
0.933114
0.923023
0.916274
0.912727
0.912985
0.916591
0.922911
0.931018
0.940369
0.950809
0.963769
0.978571
0.99315
0.988545
0.970256
0.953528
0.943708
0.940027
0.940144
0.946028
0.95963
1.00252
1.16278
1.39789
1.43359
1.38102
1.24564
1.10107
0.999627
0.954481
0.935091
0.923877
0.916411
0.911435
0.909726
0.911246
0.915726
0.922504
0.930847
0.94034
0.951443
0.965279
0.980439
0.99417
0.988621
0.970183
0.952808
0.94234
0.939355
0.936811
0.94201
0.953311
0.984413
1.09205
1.35358
1.44631
1.41341
1.29973
1.15145
1.02759
0.963688
0.937725
0.924675
0.916621
0.911083
0.907965
0.907755
0.910402
0.915598
0.922787
0.931428
0.941281
0.953663
0.968198
0.983627
0.995782
0.98873
0.969986
0.952021
0.941074
0.938422
0.934047
0.937893
0.94748
0.971301
1.04846
1.29106
1.44418
1.43865
1.3519
1.20453
1.06548
0.978323
0.941513
0.925595
0.9167
0.910986
0.907137
0.90574
0.906977
0.91053
0.916327
0.924254
0.933405
0.944234
0.957814
0.973293
0.989146
0.998066
0.98885
0.969664
0.951224
0.939901
0.937154
0.932292
0.934072
0.942007
0.961182
1.01844
1.21587
1.43205
1.4552
1.3986
1.25864
1.11049
1.00072
0.947776
0.926855
0.916495
0.910631
0.906728
0.904631
0.904924
0.907427
0.911872
0.918563
0.927422
0.937564
0.950001
0.965262
0.981424
0.997443
1.00026
1.00346
0.988897
0.969208
0.950392
0.938711
0.935848
0.930989
0.930107
0.936861
0.952808
0.996674
1.14526
1.40376
1.4705
1.43192
1.31125
1.1611
1.03133
0.958609
0.928821
0.915658
0.909769
0.906052
0.903866
0.90387
0.905761
0.909386
0.915032
0.923024
0.933236
0.945145
0.959892
0.977943
0.99618
1.00785
1.00979
1.00176
1.00901
0.98886
0.96859
0.9495
0.937628
0.934482
0.929788
0.926491
0.932291
0.945699
0.980725
1.08958
1.35861
1.4808
1.45925
1.36334
1.21239
1.07047
0.975447
0.932401
0.915617
0.90803
0.904823
0.903207
0.903214
0.905024
0.908406
0.913629
0.920987
0.931007
0.943952
0.959787
0.978496
0.992153
0.992324
1.01079
0.998887
1.01256
1.01494
1.01877
1.00357
1.01518
0.988787
0.967766
0.948499
0.936838
0.93316
0.928291
0.923058
0.928138
0.940016
0.968878
1.0538
1.30334
1.47702
1.48033
1.41166
1.26508
1.11523
0.999558
0.939304
0.916049
0.905834
0.902841
0.901753
0.902668
0.904685
0.908451
0.913863
0.921214
0.931266
0.944561
0.961199
0.981405
0.993526
0.996911
1.00184
1.02195
1.01608
1.02529
1.02444
1.0314
1.00623
1.02342
0.988689
0.966776
0.947507
0.936382
0.932049
0.926189
0.919669
0.924128
0.93515
0.960314
1.02902
1.24321
1.46555
1.49875
1.44903
1.31528
1.16375
1.03123
0.951609
0.917465
0.903692
0.899636
0.89953
0.901328
0.904339
0.908641
0.914756
0.922354
0.932663
0.946715
0.964748
0.988097
1.00164
1.00962
1.00651
1.01391
1.02238
1.03668
1.03114
1.04215
1.03696
1.04661
1.00966
1.03412
0.988532
0.965707
0.946742
0.936138
0.931169
0.923573
0.916093
0.920212
0.930592
0.953955
1.01193
1.18945
1.443
1.51444
1.47943
1.36614
1.21311
1.06963
0.969853
0.92096
0.902487
0.895612
0.896073
0.89887
0.903316
0.908714
0.916052
0.924982
0.936083
0.951499
0.97238
0.999079
1.0167
1.02672
1.02408
1.03508
1.03142
1.04346
1.04138
1.05402
1.05241
1.0626
1.05213
1.06435
1.01443
1.04781
0.98829
0.964727
0.946305
0.936054
0.930378
0.92063
0.912328
0.91631
0.926248
0.948733
1.00045
1.14627
1.41351
1.52573
1.50524
1.41362
1.26209
1.11275
0.994533
0.928658
0.902557
0.891819
0.891163
0.895253
0.901033
0.908297
0.917133
0.927999
0.940873
0.958072
0.981675
1.01236
1.03485
1.04861
1.04881
1.06005
1.05811
1.0745
1.05636
1.07496
1.06911
1.07404
1.07892
1.08716
1.07049
1.08524
1.0211
1.06518
0.988029
0.964095
0.946385
0.936314
0.929437
0.917436
0.908753
0.912479
0.922307
0.944341
0.992627
1.11527
1.38263
1.53077
1.52573
1.45799
1.31075
1.15823
1.02588
0.942498
0.903745
0.888859
0.885425
0.889717
0.897492
0.906723
0.91768
0.930861
0.945998
0.966106
0.993524
1.03271
1.05895
1.08019
1.07728
1.09611
1.09123
1.11065
1.09616
1.11941
1.092
1.11899
1.10476
1.09777
1.11298
1.11832
1.09232
1.10936
1.0304
1.08678
0.987942
0.964209
0.947333
0.937087
0.928079
0.913592
0.905394
0.909096
0.919033
0.941184
0.987798
1.09661
1.35405
1.53052
1.54635
1.49336
1.357
1.20468
1.06307
0.961833
0.907891
0.887356
0.88007
0.882833
0.891865
0.903506
0.917425
0.933347
0.95176
0.973975
1.00909
1.06146
1.1088
1.17307
1.13175
1.20804
1.1463
1.22844
1.15032
1.21955
1.14716
1.19919
1.13821
1.17312
1.15154
1.12664
1.15827
1.16079
1.1177
1.13658
1.04346
1.11317
0.988433
0.965793
0.949387
0.938337
0.925678
0.908927
0.901947
0.906107
0.916706
0.939782
0.986308
1.08826
1.32858
1.52801
1.5666
1.52341
1.40442
1.25027
1.10409
0.987409
0.918292
0.887544
0.875886
0.875781
0.884753
0.898181
0.915418
0.934883
0.957888
0.983092
1.02075
1.13354
1.26627
1.47966
1.37333
1.7258
1.42372
1.86884
1.39994
1.8619
1.33079
1.69299
1.25183
1.47859
1.19517
1.30339
1.20879
1.16509
1.21219
1.21085
1.14593
1.17158
1.06113
1.1433
0.990471
0.969613
0.953104
0.939852
0.922397
0.90442
0.898742
0.903287
0.915192
0.94009
0.987592
1.08796
1.31241
1.52354
1.58582
1.55127
1.44929
1.29514
1.14709
1.01901
0.934664
0.890308
0.873767
0.869665
0.877025
0.891019
0.91087
0.93475
0.961747
0.993953
1.04933
1.19955
1.70669
2.10511
2.29244
3.21126
2.79165
4.22895
2.87312
4.81176
2.61718
4.58846
2.12774
3.70037
1.65334
2.68124
1.3452
1.82125
1.36462
1.20934
1.3588
1.33387
1.17936
1.21111
1.08393
1.17806
0.99595
0.977252
0.959118
0.942347
0.919465
0.90087
0.896738
0.901093
0.914536
0.942227
0.99246
1.09203
1.30894
1.52052
1.60397
1.57776
1.49097
1.33908
1.19048
1.05533
0.956539
0.899219
0.873903
0.865505
0.870025
0.883167
0.904746
0.932085
0.965024
1.00487
1.07521
1.55413
2.69127
2.60835
4.17644
5.53796
6.01954
7.87297
7.27853
9.85865
7.63587
10.864
6.89563
10.7742
5.04796
9.4655
3.27017
6.56157
1.94917
3.76682
1.99662
1.30255
1.95235
1.8232
1.21435
1.2767
1.11196
1.21692
1.00934
0.991642
0.968475
0.946435
0.917506
0.898862
0.896473
0.900558
0.915263
0.946804
1.0029
1.10608
1.31165
1.52116
1.62084
1.60289
1.53005
1.3819
1.23306
1.09492
0.984677
0.915561
0.877474
0.864382
0.865845
0.876445
0.897658
0.928322
0.967832
1.01172
1.08327
1.82134
6.54376
6.44861
8.65114
9.70111
11.3004
12.0624
13.7499
13.4264
15.0116
13.759
15.4651
13.3077
15.4104
11.6759
14.7985
7.94565
13.108
4.0875
8.90057
4.15211
1.6512
3.96011
3.53387
1.26415
1.48436
1.1438
1.24915
1.03917
1.01965
0.98394
0.953038
0.917147
0.898591
0.897503
0.901975
0.918629
0.954603
1.01984
1.13438
1.32035
1.52466
1.63601
1.62762
1.56535
1.42392
1.2745
1.13607
1.018
0.937688
0.88926
0.866348
0.865216
0.873192
0.893261
0.926666
0.968404
1.01779
1.09061
1.78962
7.25825
14.0112
14.5173
12.6109
13.5858
14.8887
15.6392
15.9564
16.499
16.3906
16.8541
16.4669
16.9999
16.2802
16.9923
15.6476
16.7799
13.9082
16.1242
9.35593
14.3578
9.27768
2.96032
8.68424
7.57516
1.36985
2.35005
1.17522
1.28765
1.1066
1.08757
1.01537
0.965542
0.919081
0.899864
0.899207
0.905617
0.925572
0.967805
1.04623
1.16792
1.34017
1.53249
1.65042
1.65236
1.59756
1.46632
1.3143
1.17706
1.05531
0.965781
0.909428
0.876071
0.86783
0.873496
0.892763
0.925643
0.968987
1.03001
1.10663
1.72708
7.17609
14.6757
14.9527
16.5116
16.5787
16.1057
16.372
16.7922
16.9315
17.0773
17.1577
17.2452
17.3287
17.3463
17.497
17.3347
17.6007
17.1073
17.5818
16.4632
17.3368
14.5653
16.7184
14.542
6.18731
14.2477
13.4233
1.81797
4.76954
1.18393
1.44893
1.21039
1.22542
1.08496
0.99165
0.925241
0.903697
0.9025
0.912933
0.938601
0.990365
1.08211
1.20505
1.36685
1.54444
1.66443
1.67627
1.62758
1.50754
1.35289
1.21644
1.09456
0.999882
0.936781
0.90016
0.879537
0.878323
0.894732
0.927299
0.974408
1.04496
1.11993
1.64333
7.09947
14.9956
14.984
16.589
16.6031
16.9064
16.8234
16.9599
16.9462
17.1423
17.0819
17.3151
17.2551
17.5357
17.5308
17.7711
17.9455
17.9331
18.3182
17.8924
18.4825
17.6041
18.3439
16.8572
17.8933
16.9054
11.6996
16.8073
16.5533
3.34121
9.29845
1.16382
2.14667
1.24797
1.35471
1.2274
1.04972
0.93883
0.911396
0.909154
0.923057
0.957969
1.02616
1.12565
1.24614
1.3967
1.5597
1.67771
1.69837
1.65573
1.54628
1.39006
1.25361
1.13396
1.03812
0.972818
0.934664
0.907566
0.89585
0.905237
0.936907
0.987944
1.05591
1.13807
1.51455
6.68912
15.9274
16.6087
16.8554
16.7421
16.6393
16.5962
16.3933
16.9556
16.7853
17.1211
16.9506
17.5072
17.454
18.1424
18.3351
18.7863
19.3318
19.2224
20.0862
19.2634
20.3996
18.9108
20.156
18.2147
19.5336
18.4627
15.9341
18.6439
18.5553
6.60004
14.2941
1.32328
4.00694
1.30787
1.34426
1.182
0.973737
0.924663
0.921046
0.940504
0.988347
1.07254
1.17241
1.28905
1.42862
1.57694
1.6902
1.7177
1.6815
1.5821
1.42549
1.28776
1.17139
1.07711
1.01407
0.977079
0.950493
0.937448
0.937056
0.959697
1.00364
1.07042
1.15758
1.42372
5.54999
15.689
16.4463
16.439
16.5871
16.5377
16.2024
16.02
16.2951
16.0499
16.7527
16.531
17.3557
17.223
18.5132
18.6392
19.8659
20.3441
21.0316
21.9759
21.7153
23.0753
21.7036
23.4849
21.1021
23.0154
20.0938
21.9734
20.499
18.1346
20.6789
20.5696
11.3291
17.3841
2.13035
7.63817
1.25232
1.29378
1.06779
0.952108
0.940553
0.968521
1.03611
1.12574
1.22126
1.33192
1.46071
1.59546
1.70163
1.73374
1.70398
1.61445
1.45863
1.31836
1.20471
1.11463
1.06004
1.02841
1.0113
1.00304
1.00417
1.00803
1.03968
1.09657
1.18016
1.36878
4.196
14.8743
16.4163
16.4545
15.6966
15.6958
15.8733
15.7679
15.8089
15.5744
16.6218
16.355
17.0599
16.8591
18.6428
18.5973
20.73
20.9368
22.7791
23.4426
24.4551
25.6498
25.3758
27.1365
25.3265
27.7961
24.3015
27.1603
22.6762
25.4623
23.1047
20.1637
23.2488
23.159
21.5502
15.6057
19.3926
3.7364
12.9162
1.22757
1.20839
1.01602
0.973547
1.01349
1.09179
1.1778
1.26878
1.37312
1.49184
1.61361
1.71219
1.74603
1.72236
1.64252
1.48891
1.34498
1.23191
1.14745
1.09583
1.07369
1.06858
1.07889
1.10019
1.12469
1.13641
1.16236
1.22927
1.3574
3.02101
12.8228
16.2689
15.7209
15.7769
15.0235
14.9071
15.3599
15.1736
16.0725
15.7852
17.9419
17.5945
18.4742
18.2426
20.9526
20.8875
23.851
23.9921
26.5622
27.1754
28.7738
29.8279
30.0921
31.7491
30.2868
32.9498
28.9691
32.7459
26.3549
30.5321
28.1562
24.8506
26.9473
22.8654
20.8988
22.5466
24.728
27.0616
27.0024
24.5754
18.4926
22.0378
21.5387
19.9398
9.3478
17.9731
1.23936
1.14379
1.0311
1.06566
1.14544
1.22397
1.3123
1.41055
1.52042
1.63113
1.72109
1.75488
1.73608
1.66477
1.51525
1.36737
1.2527
1.17119
1.1147
1.09718
1.10598
1.16367
1.28344
1.40047
1.40989
1.36211
1.35966
1.39679
2.20798
9.88
16.2101
14.979
15.3031
14.8868
14.8918
14.9951
14.763
15.5048
15.2342
17.2214
16.842
19.9214
19.4545
20.6917
20.3449
23.9597
23.7765
27.2788
27.1319
29.9388
29.7022
32.2523
31.9222
34.4265
34.2454
33.698
35.1097
35.7127
36.1826
32.4684
34.8468
36.0881
37.6171
36.1793
31.1251
28.9801
31.9218
33.6196
29.4156
24.2121
23.6903
26.717
29.3462
29.5254
26.3419
20.9293
18.8522
20.3262
23.0955
22.3958
14.7843
19.7296
19.3686
19.2407
1.25842
1.13879
1.11663
1.18602
1.2648
1.34677
1.44325
1.54553
1.64646
1.72882
1.76027
1.74534
1.68091
1.53726
1.38527
1.26714
1.18554
1.12339
1.10599
1.13952
1.31634
1.77702
2.15939
2.24299
2.03847
1.78677
1.60993
1.9334
6.69509
15.9144
14.833
14.3619
14.2007
14.6079
14.4295
15.7623
15.4261
16.4681
16.1074
18.9787
18.5018
22.2945
21.7129
23.3664
22.8599
26.7548
26.2061
29.1441
28.4434
31.1581
30.3917
33.4352
32.2969
36.0188
35.5879
35.048
34.4411
36.9099
37.1643
36.9236
35.8807
37.5703
38.0881
39.115
38.6623
34.5464
32.249
35.2251
36.9737
32.5341
25.7845
25.0848
28.9955
32.5347
32.2612
28.3889
21.6692
20.8955
24.2708
23.3718
20.1288
18.3303
20.7249
20.2382
19.7226
1.306
1.18513
1.22583
1.29015
1.37647
1.46749
1.5667
1.65983
1.73443
1.76296
1.75012
1.69161
1.55367
1.3986
1.27668
1.19069
1.12558
1.10874
1.18897
1.66383
2.81516
4.09823
4.64714
4.24152
3.27049
2.35603
2.03676
4.49197
14.9127
15.2174
14.2063
14.1282
14.5797
14.318
15.128
14.8138
17.1129
16.6575
18.0316
17.5698
21.1389
20.5633
24.349
23.7327
25.6033
24.9775
27.7377
27.0229
29.4612
28.5231
30.9784
29.5762
33.5469
32.7242
31.578
30.5344
36.3958
35.7135
34.9597
33.9635
38.1365
37.7826
37.1656
38.7989
39.8894
39.0989
40.1899
40.2981
37.9544
35.7935
38.8335
39.9911
36.086
27.5787
26.6047
31.6716
36.0427
35.6174
30.7612
22.4486
21.5488
25.5221
24.3866
19.7235
18.1107
21.4263
20.8042
20.4409
1.33378
1.26747
1.32078
1.39284
1.48711
1.58189
1.67071
1.73901
1.76321
1.75084
1.69531
1.56489
1.40855
1.27888
1.19066
1.12477
1.10853
1.2535
2.17158
4.24473
6.35476
7.20597
6.82199
5.76323
4.34313
2.74211
3.68827
11.888
15.1799
14.035
14.5983
14.2982
15.3748
14.9618
16.2209
15.7837
18.8013
18.1784
19.9925
19.4071
23.113
22.4705
25.0325
24.4259
26.3272
25.6604
27.65
26.7525
27.9974
26.6403
29.3091
28.2674
27.221
26.3716
32.8689
31.5432
30.2093
28.7607
36.4351
35.5256
34.382
33.0026
38.6633
37.9625
37.1272
41.1689
41.5693
39.6305
40.7091
41.3761
41.1524
39.5028
42.2023
42.4986
39.8814
29.5959
28.2531
34.7402
39.8432
39.284
33.4359
23.2681
22.2591
26.8366
25.4489
20.7791
17.8645
22.6596
21.5474
21.3783
1.37552
1.34784
1.41289
1.49784
1.59288
1.67837
1.74213
1.76275
1.74976
1.69458
1.56699
1.41102
1.27762
1.1853
1.12007
1.10174
1.29058
2.58829
5.44906
8.06551
8.90959
8.64499
7.71785
6.3984
4.7059
3.87124
8.96969
14.7972
13.9967
14.572
14.2205
15.4147
14.9498
16.3828
15.8559
17.5547
16.9462
20.2375
19.4055
21.7869
21.0405
23.8001
23.1285
24.5822
23.9728
25.9394
25.2146
25.5104
24.2834
24.3259
23.1271
27.4784
26.2715
25.329
24.6981
31.4342
29.7535
28.1223
26.6286
36.0579
34.7142
33.0723
31.1981
38.8009
37.8096
36.5664
42.9321
42.7178
39.721
40.7815
41.9537
43.8435
43.0703
45.1505
44.4024
43.6134
31.8099
30.0156
38.0864
43.663
43.0158
36.3278
24.167
23.1185
28.2262
26.5904
21.9215
12.4138
23.0687
22.4924
22.4673
1.42652
1.43039
1.5079
1.59907
1.68313
1.74421
1.76129
1.74643
1.69137
1.56533
1.40975
1.27268
1.17059
1.10762
1.08468
1.28851
2.78696
6.26535
9.14334
9.90124
9.74202
9.08211
8.01809
6.5559
5.02708
7.50112
13.7643
13.8679
14.153
15.1935
14.9293
16.0114
15.6092
17.1233
16.5224
18.5843
17.8177
20.6262
19.6959
22.376
21.5355
23.3436
22.6716
22.0515
21.5052
23.392
22.638
22.2274
21.3778
23.2908
23.1282
22.7112
22.9319
25.4026
24.5049
23.9734
23.649
29.2365
27.4057
25.8835
24.8829
35.0086
33.124
31.0047
28.8635
38.5355
37.0964
35.3276
44.245
43.4137
39.3698
40.4237
42.0787
45.9803
46.3038
47.6053
45.9556
47.0623
34.1593
31.8626
41.5312
47.2695
46.5802
39.2845
25.1931
24.1488
29.7127
27.8568
22.747
12.3126
20.6096
23.5946
23.5497
1.48914
1.51765
1.60236
1.68588
1.7453
1.76056
1.74204
1.68382
1.5602
1.40492
1.26372
1.15436
1.08938
1.06503
1.23556
2.78444
6.63599
9.73892
10.457
10.3243
9.8845
9.1084
8.0375
6.73484
7.36876
12.4593
13.5126
13.7894
15.1502
14.783
15.6014
15.3914
16.2482
15.8953
17.2934
16.7149
18.8018
17.9926
20.1219
19.2139
21.9035
21.0421
20.9947
20.5218
17.2162
15.9934
20.1266
18.6908
22.3993
22.0707
22.0286
24.5606
25.0541
25.5191
25.3953
24.315
23.9868
23.9693
24.1221
26.9779
25.6611
24.8964
24.6721
33.237
30.9586
28.7544
26.9802
37.7038
35.7367
33.4743
45.1608
43.7209
38.4961
39.6198
41.8299
47.824
49.1355
49.7649
47.2343
50.222
36.5513
33.7975
44.8488
50.5558
49.8249
42.1289
26.3717
25.3202
31.3388
29.2896
23.304
10.214
20.9676
24.7682
24.5836
1.54897
1.60609
1.68537
1.74657
1.76054
1.73956
1.67571
1.54962
1.39597
1.25415
1.13964
1.06888
1.04443
1.14512
2.55419
6.64728
9.99827
10.7242
10.6467
10.2012
9.66719
8.99568
8.09643
7.8277
11.2356
12.8085
13.4654
14.8887
15.5697
15.6542
15.774
15.6553
16.2175
15.9594
17.0505
16.5749
18.3784
17.6516
18.7471
18.149
19.9906
19.3808
15.5318
15.6321
15.6614
13.3777
20.3112
18.0896
25.3588
24.7494
29.766
28.5017
28.3608
29.3959
30.7171
30.2501
24.7927
25.4142
26.2599
27.2717
25.8659
25.5278
25.6566
26.3734
31.1042
28.9295
27.2945
26.6005
36.3136
33.9071
31.4836
45.7873
43.73
37.1917
38.5649
41.2674
49.5706
51.7063
51.9539
48.3637
53.1489
38.9603
35.8706
47.8238
53.5445
52.6475
44.8454
27.6993
26.5884
33.1536
30.9076
24.4969
8.43084
19.8693
25.9755
25.8429
1.61986
1.68767
1.74611
1.76283
1.73844
1.67017
1.5395
1.38655
1.24609
1.13057
1.04908
1.02288
1.077
2.05833
6.32369
10.0297
10.8386
10.7392
10.205
9.91717
9.52563
8.97106
8.844
10.6887
11.9497
12.9508
14.4495
15.7818
15.6981
15.7895
15.8022
15.8708
15.8044
16.1632
15.9872
16.7327
16.4088
17.6083
17.1336
16.5425
16.6503
16.0639
16.3478
11.5973
10.858
19.1147
14.5602
27.0473
25.069
23.4979
30.8143
30.5827
34.9238
33.5521
33.1833
34.4534
36.0011
35.4554
27.481
28.8321
30.2584
31.7438
26.5729
27.1769
28.3306
29.7836
29.3978
28.0686
27.7523
27.9204
34.6388
32.1687
30.1734
46.3015
43.6707
35.8033
37.7387
40.72
51.3103
54.2941
54.3573
49.6316
55.9949
41.488
38.1756
50.5421
56.2573
55.3161
47.6674
29.1489
27.9499
35.2053
32.6594
25.7482
5.09941
17.7771
27.3198
27.3386
1.69828
1.75057
1.76635
1.74064
1.66693
1.53265
1.37844
1.24186
1.12748
1.03855
1.00493
1.04314
1.6238
5.36531
9.91715
10.8543
10.7014
10.1197
9.92979
9.86797
9.71645
9.64133
10.7278
11.6596
12.5482
14.2143
15.8298
15.9559
16.0391
15.9216
15.9421
15.9735
15.9245
16.1865
16.0644
16.4762
16.3298
16.6662
16.6003
13.7149
14.6351
11.0245
12.3979
11.158
9.45125
26.1201
23.1262
20.6246
31.639
29.2432
27.8564
30.8184
36.0936
35.7782
38.941
37.2787
37.8809
39.1905
40.6307
40.1827
31.3483
33.0363
34.7417
36.3802
28.9437
30.3467
31.9976
33.7152
29.2377
29.0775
29.4039
30.8305
33.2678
31.316
30.4922
47.0519
44.0201
35.0356
37.9011
40.8355
53.4554
57.1683
57.2799
51.5096
58.8217
44.2772
40.7996
53.5076
59.1203
58.6158
50.8117
30.7573
29.4332
37.3659
34.6861
27.3187
2.58412
13.3326
28.8503
29.2044
1.7692
1.77735
1.74593
1.66848
1.5291
1.37452
1.24189
1.1311
1.03996
1.0012
1.0389
1.36541
4.13576
9.50807
10.8142
10.6434
9.94098
9.8716
10.0783
10.511
10.6359
11.0051
11.7734
12.5671
14.2552
15.7588
16.0862
16.0905
16.0266
16.0483
15.9912
16.0005
16.0266
15.9977
16.0913
16.0669
15.9641
16.0745
15.2924
15.7177
10.2149
11.8239
8.78625
8.95928
14.4174
9.86774
27.5813
25.3484
24.6968
22.0436
35.2758
33.1052
29.8727
32.2336
40.6429
40.1188
42.4464
40.2125
42.3056
43.6111
44.9035
44.5501
35.4536
37.2472
39.0349
40.7609
32.4231
34.1542
35.9821
37.802
30.365
31.1217
32.7278
34.6287
32.9528
31.9804
31.8411
48.7385
45.6629
35.5893
40.2609
42.6739
56.5047
60.4056
61.059
54.8518
62.2066
47.5008
43.3962
57.0201
63.2009
62.7509
54.4787
32.5118
30.9994
40.0155
36.8884
28.7339
1.7614
9.71205
30.5933
31.7378
1.81275
1.76101
1.67516
1.53079
1.375
1.24984
1.15264
1.06849
1.02677
1.06615
1.30534
3.11096
8.4976
10.6855
10.5475
9.69118
9.72363
10.094
10.9902
11.562
11.8408
12.2519
12.9056
14.4852
15.7746
16.0945
16.0122
16.0902
15.9587
15.9825
15.9009
15.9249
15.8167
15.8693
15.5285
15.7138
14.7398
15.2222
13.0708
14.0379
7.49041
8.34178
8.09745
7.48823
20.1799
16.0957
12.4732
28.3544
26.404
24.869
23.0702
37.5853
34.8614
30.6322
33.2594
44.831
44.0533
45.7361
42.916
46.851
48.1333
49.1644
48.9765
39.7028
41.6289
43.5018
45.2809
36.4447
38.3217
40.2626
42.2919
32.693
34.4612
36.6939
38.9014
34.2081
33.9883
34.7265
52.6692
50.5066
38.4579
46.4723
48.3776
61.0376
64.6229
66.5081
60.7684
67.4971
50.3989
46.7908
61.0658
68.2222
67.2978
57.5567
34.2024
32.5963
42.8131
38.7954
29.2603
1.88035
10.5793
32.6224
35.0735
1.80965
1.69559
1.54061
1.38506
1.28187
1.22212
1.17711
1.15966
1.21221
1.40523
2.61915
7.06436
10.4072
10.4533
9.46266
9.29597
9.93272
11.0025
11.9556
12.6857
13.2452
13.8765
14.9588
15.8251
16.0355
15.4357
15.7353
15.793
15.6433
15.6971
15.4468
15.5548
15.0591
15.2902
14.1949
14.7059
12.5276
13.4888
9.90392
11.3582
6.50327
6.45093
8.46177
6.99846
21.1076
18.451
12.9139
17.0832
28.4738
26.5708
24.9607
23.3704
39.6092
36.3135
30.7861
33.574
48.9253
47.7743
48.8176
45.3205
51.5473
52.7716
53.5137
53.428
44.2937
46.3057
48.2163
49.9992
41.0644
43.0657
45.2298
47.4033
36.423
38.8026
41.5166
44.2191
37.8759
38.122
39.4232
60.064
59.146
45.1871
57.3616
58.1764
68.2233
71.5042
75.3441
69.6681
73.4364
54.3462
50.0163
64.3897
73.4264
70.9058
61.5628
35.7642
34.2642
44.8764
40.6022
31.0108
8.64508
17.3341
35.0921
36.8108
1.76304
1.57176
1.42075
1.37391
1.40857
1.50484
1.61693
1.74182
1.90248
2.6573
5.81598
9.84933
10.3377
9.3012
8.77324
9.17547
10.3767
11.716
12.7674
13.6329
14.3896
15.1617
15.8131
15.8547
15.0276
13.3402
15.1389
13.1519
15.0741
14.8947
15.0144
14.4187
14.6992
13.4975
14.0322
11.827
12.7663
9.26809
10.6843
6.91693
7.923
6.24205
5.91372
9.99201
7.22691
21.6783
19.6493
14.863
17.8154
28.2886
26.5312
24.9426
23.5079
41.1195
37.121
30.5342
33.4259
52.946
51.4325
51.8311
47.6619
56.5364
57.6037
57.958
58.0236
49.4774
51.5184
53.3913
55.0941
46.7432
49.0163
51.3799
53.68
41.6857
44.7745
48.216
51.5898
44.9375
45.3991
47.4542
70.7324
71.294
57.2641
72.1575
71.5515
78.9016
78.5088
83.4141
81.8657
79.7369
57.3322
52.1842
68.1023
77.6124
74.9841
64.1592
37.6955
36.5047
47.5998
43.923
35.1598
34.4109
28.6598
36.3365
36.2999
1.67409
1.50488
1.58551
1.96752
2.40941
3.00912
3.34347
3.42487
3.41673
5.2806
9.01385
10.1181
9.19695
8.44522
8.38747
8.9622
10.3255
12.058
13.2804
14.227
15.0303
15.5921
15.4537
14.1199
10.194
13.4891
9.84318
9.76182
13.4823
13.1408
13.3669
12.2593
12.7729
10.6808
11.5825
8.36273
9.56277
6.50376
7.23602
5.84543
6.05688
6.47317
5.83427
13.3456
10.1784
8.23104
21.9404
20.1094
16.284
18.6226
27.8297
26.3383
24.9431
23.6287
42.4789
37.5497
29.8978
32.9924
57.0252
55.049
54.8148
50.0211
62.0782
62.8266
62.655
62.9553
55.7438
57.6919
59.3998
60.8738
54.6409
57.2765
59.7742
62.0665
50.7848
54.9341
59.3791
63.5064
57.9959
60.304
64.1372
84.3343
86.954
73.6917
96.3963
90.5485
88.2883
86.4925
94.6059
94.3628
85.5261
60.2288
56.9288
71.6702
84.0763
81.9289
68.7124
40.9554
37.8944
53.7839
49.1763
33.272
56.1667
46.9318
36.4144
34.201
1.74402
1.9514
2.86949
4.12263
4.8363
5.1248
5.06015
4.86528
5.34329
8.19401
9.74417
9.09613
8.27588
8.01166
8.02965
8.34286
9.47348
11.4791
13.1429
14.2068
14.7165
14.3259
12.1275
8.17561
4.88101
9.93189
6.12773
6.11358
9.96491
9.55691
9.83592
8.4717
9.08331
7.03232
7.74325
6.02172
6.45485
5.58161
5.74987
5.61063
5.5341
7.29857
6.11196
14.4974
11.5226
8.46292
10.5411
22.1779
20.5384
17.0455
19.1472
27.3512
26.1623
25.1045
23.8973
43.8337
37.9828
29.3408
32.6061
61.1119
58.7596
57.8805
52.5558
68.5551
68.7506
67.6345
68.5314
63.9403
65.5584
66.8574
67.8276
67.045
69.9346
72.3656
74.2662
69.3329
74.6512
79.8068
84.257
77.2865
83.4282
93.7675
102.403
114.574
106.034
152.242
129.103
105.434
95.9406
110.007
122.472
97.0093
69.7014
67.0411
79.5575
97.0547
95.5189
87.1022
43.1391
39.8015
60.8729
52.794
33.6734
90.089
53.4537
36.2276
33.3849
2.79219
3.9917
5.47638
6.22941
6.33288
6.24263
5.98629
5.95179
7.65432
9.2653
8.93728
8.16961
7.90902
7.7473
7.403
7.0762
7.63104
9.37643
11.0612
11.6914
10.9862
8.82238
6.03401
4.10656
3.34014
4.3496
6.19198
4.41349
6.27733
6.17832
6.26863
5.80624
6.0097
5.4429
5.60515
5.27287
5.3216
5.31543
5.28186
5.60895
5.41304
9.57136
9.19642
7.76175
6.88348
15.9808
13.4606
12.3387
22.5133
20.9309
18.063
19.9009
27.2702
26.2081
25.6843
24.4863
45.27
38.5886
29.2466
32.6327
65.4129
62.6713
61.1264
55.4611
76.5654
76.2188
73.3556
74.7308
75.5
76.3094
76.747
76.8192
88.1026
90.9159
92.7469
93.443
102.227
110.291
116.097
120.271
119.943
144.175
178.853
154.38
192.495
181.171
202.304
196.067
132.689
116.645
154.8
165.516
119.721
80.6748
73.7859
111.182
122.644
153.514
95.0305
47.8025
41.2017
66.2065
61.415
35.4302
83.1052
71.7299
36.6408
33.7102
5.3342
6.536
6.99321
7.13373
6.98098
6.76612
6.6242
7.44479
8.75245
8.70459
8.08331
7.89254
7.77241
7.282
6.26136
5.19322
5.40117
6.43897
7.01393
6.7422
5.57688
4.26521
3.41904
3.02454
3.0227
3.68101
3.31777
2.92174
4.53374
3.80969
4.65547
4.78762
4.74136
4.82137
4.81037
4.86227
4.83453
4.99067
4.90523
5.22187
5.09277
5.84351
5.41289
11.8095
11.1972
8.8562
8.53842
17.1445
14.9465
14.5199
23.1564
21.5922
19.0729
20.9212
27.7501
26.7112
26.777
25.5128
47.027
39.5562
29.6581
32.9638
70.0341
66.9655
64.7609
58.8944
87.1964
85.943
80.4068
82.415
93.1345
91.6355
90.81
89.5538
124.285
126.573
128.234
128.4
177.649
193.061
194.82
197.54
183.632
184.63
400.191
203.355
452.421
422.948
412.692
454.66
197.325
158.891
204.312
213.101
164.004
88.3412
82.3117
118.242
191.679
133.438
112.101
51.0913
44.4996
80.9732
67.2208
38.0042
33.2499
94.2899
37.6745
34.984
7.25072
7.53493
7.4911
7.42337
7.22405
7.07719
7.38044
8.23677
8.3756
7.97076
7.91279
7.95019
7.46478
6.30683
4.54406
3.42603
3.64453
3.93578
3.94342
3.57318
3.15791
2.89148
2.71877
2.59402
3.06569
2.79466
3.45032
2.65662
3.92851
4.04398
4.2373
4.14656
4.40715
4.3241
4.58886
4.49458
4.84682
4.70189
5.20203
4.9917
6.46621
5.57029
13.9627
13.589
10.9038
12.7897
12.6089
9.66015
18.7772
16.8359
16.5937
24.2258
22.667
20.6613
22.5637
28.9076
27.8648
28.4476
27.0227
49.3249
41.1149
30.6481
33.8739
75.3147
71.8596
69.1988
63.1696
102.421
99.4969
89.6271
92.9071
123.818
115.845
110.607
108.884
199.556
198.591
196.851
191.788
407.845
406.137
414.908
420.693
425.757
372.752
809.388
447.112
869.236
846.962
816.134
869.599
478.843
214.204
475.213
479.568
213.572
105.634
110.946
161.128
500.853
256.511
492.526
157.837
59.0094
47.1071
89.7975
81.7158
44.5806
205.353
144.61
39.9187
36.5147
7.7821
7.78543
7.60572
7.41122
7.24022
7.32549
7.77219
7.96363
7.78617
7.95998
8.25897
7.93975
6.83217
4.73521
2.82997
2.51378
2.58006
2.65497
2.62456
2.55298
2.50024
2.44051
2.36543
2.30303
3.20803
2.91627
2.61947
3.58043
2.52816
3.70095
3.92284
3.81428
4.1386
4.03108
4.36994
4.25121
4.69545
4.52179
5.23469
4.9312
7.84445
5.9505
16.618
16.2512
16.2265
15.2157
11.6105
20.779
18.7999
19.279
25.7625
24.3034
22.8396
24.7902
30.6452
29.6141
30.7127
29.1114
52.4714
43.6426
32.3022
35.6311
81.9967
77.899
75.0855
68.7871
127.179
120.485
102.925
108.163
185.745
170.112
141.67
140.656
427.461
430.752
435.255
439.239
822.342
799.963
814.361
816.099
862.265
760.792
2454.73
850.213
2539.66
2521.95
2457.13
2519.9
887.412
486.302
887.852
865.71
493.268