/*--------------------------------*- C++ -*----------------------------------*\
  =========                 |
  \\      /  F ield         | OpenFOAM: The Open Source CFD Toolbox
   \\    /   O peration     | Website:  https://openfoam.org
    \\  /    A nd           | Version:  dev
     \\/     M anipulation  |
\*---------------------------------------------------------------------------*/
FoamFile
{
    version     2.0;
    format      ascii;
    class       volScalarField;
    location    "2500";
    object      p_rgh;
}
// * * * * * * * * * * * * * * * * * * * * * * * * * * * * * * * * * * * * * //

dimensions      [1 -1 -2 0 0 0 0];

internalField   nonuniform List<scalar> 
9836
(
0.00457666
0.00599806
0.00511365
0.00636374
0.00927586
0.00473103
0.0060705
0.0105482
0.00901109
0.00380295
0.005548
0.0107384
0.0117501
0.00780854
0.00285041
0.00454618
0.0103405
0.0133623
0.0112216
0.00681751
0.00244702
0.00462479
0.0103076
0.0139591
0.0139378
0.00974797
0.00557204
0.00191495
0.00428581
0.00889115
0.0139441
0.0151265
0.0132097
0.00856795
0.00442784
0.00143318
0.00374021
0.00847822
0.0135876
0.0159479
0.01492
0.0113248
0.00697237
0.00386355
0.000950488
0.00327242
0.00742018
0.0124089
0.0160316
0.0167044
0.0141891
0.00989008
0.00602002
0.00304868
0.00044801
0.00308306
0.00715951
0.0111556
0.0152824
0.017222
0.0159886
0.0128434
0.00861496
0.00545207
0.00257529
0.000116137
0.00302672
0.00654125
0.00986229
0.0148559
0.0174897
0.0174472
0.0145661
0.011171
0.00731285
0.00470064
0.00195531
-0.000275539
0.00272011
0.00572184
0.00936852
0.0140099
0.0168165
0.0183092
0.0167529
0.0132735
0.00932926
0.00633197
0.00399458
0.00143605
-0.000653873
0.00251302
0.00530001
0.00880546
0.0127625
0.0163972
0.0186582
0.0179263
0.0152383
0.0117964
0.00832486
0.00559032
0.00322202
0.00108569
-0.00111659
0.00233439
0.00503686
0.00800728
0.0113651
0.0153358
0.0182636
0.0190499
0.0169107
0.0137917
0.0102423
0.00741212
0.00509799
0.00275942
0.00059639
-0.00144457
0.00201409
0.00448374
0.00735457
0.0105552
0.0144163
0.0176264
0.0191111
0.0182372
0.0155474
0.0123683
0.00902827
0.0066431
0.00437271
0.00223075
0.000193912
-0.00180296
0.00179375
0.00424652
0.00673759
0.00962624
0.0131822
0.0165548
0.0189151
0.0190302
0.0169968
0.0140201
0.0108442
0.00806133
0.00585223
0.00376995
0.00173956
-0.000161969
-0.00216188
0.00160415
0.0039069
0.00595442
0.00894324
0.0115622
0.0155874
0.0182616
0.0193359
0.0183036
0.0156074
0.0126805
0.00955949
0.00721831
0.00519102
0.00317959
0.00122703
-0.000563813
-0.00236618
0.00150494
0.00360045
0.00558548
0.00825849
0.0110115
0.0146667
0.0175499
0.0194414
0.0189124
0.0169734
0.014155
0.0111928
0.00867152
0.00639529
0.00453644
0.0025729
0.000805895
-0.00106519
-0.00273423
0.00118528
0.00312164
0.00510947
0.0074693
0.0100281
0.0132983
0.0165962
0.018927
0.0194632
0.0180039
0.0158002
0.0125512
0.00979798
0.00781269
0.00576331
0.00378731
0.00209725
0.000372427
-0.00139187
-0.00294171
0.00105528
0.00283802
0.00470652
0.00687064
0.00921681
0.0123136
0.0154069
0.0182085
0.0194804
0.0186942
0.0169777
0.0140101
0.0110935
0.00880928
0.006959
0.00499959
0.00321442
0.00161667
-3.31844e-06
-0.00170235
-0.00325775
0.000814959
0.00248672
0.00441618
0.00612019
0.00848271
0.0112395
0.0143714
0.0173411
0.0191503
0.0193723
0.0178066
0.0154162
0.0125639
0.00999444
0.00803158
0.00626415
0.00435384
0.00273242
0.0011575
-0.000473198
-0.00197856
-0.00344082
0.000659776
0.00231694
0.00390498
0.00572435
0.00761077
0.00992564
0.0130987
0.016216
0.0185757
0.0194233
0.0186368
0.0164693
0.0135808
0.0113852
0.00896133
0.0072592
0.0055374
0.00383039
0.00225667
0.000562471
-0.000928284
-0.00235273
-0.00368715
0.000526411
0.00192966
0.00353953
0.00500849
0.00683486
0.00940304
0.0113551
0.0151614
0.0178046
0.01917
0.0192372
0.0174725
0.0149012
0.0124018
0.0100856
0.00803916
0.00632775
0.00471496
0.00327813
0.00169235
0.000172979
-0.00120248
-0.00254534
-0.00393823
0.000267371
0.00168943
0.00322351
0.00466368
0.00638555
0.00871007
0.0103679
0.0143463
0.0168255
0.0186987
0.0191972
0.0182191
0.0158936
0.0135123
0.011097
0.0091551
0.00728483
0.0057968
0.00420453
0.00279175
0.00139752
-0.000113333
-0.00150879
-0.00276339
-0.00399825
0.000110596
0.0014444
0.0027645
0.00422091
0.00586173
0.00800353
0.00955046
0.0130307
0.0156976
0.0180357
0.019037
0.0185717
0.0169425
0.0145343
0.0118001
0.00998556
0.00826117
0.0066071
0.00495566
0.0036561
0.00217231
0.000762031
-0.000570652
-0.00184697
-0.0030873
-0.00411416
-5.58024e-05
0.00121859
0.00255808
0.00390252
0.00520306
0.00727502
0.00884792
0.0120625
0.0149947
0.0173578
0.0186334
0.0187511
0.0176218
0.0154726
0.0130177
0.0108812
0.00906117
0.00737158
0.00573939
0.00441496
0.00311159
0.0017091
0.000300448
-0.000828496
-0.00205349
-0.00318628
-0.00419763
-0.000211549
0.00099865
0.00218516
0.00352532
0.00483244
0.00648795
0.00800396
0.0105183
0.0136765
0.0162967
0.0180429
0.0186831
0.0180007
0.0160828
0.0139599
0.0114969
0.00979238
0.00801349
0.00662564
0.00512064
0.00382445
0.00252706
0.00118034
-4.45279e-05
-0.00125504
-0.00238775
-0.00333441
-0.00428241
-0.000438115
0.000730048
0.00187292
0.00315095
0.00428885
0.00594878
0.00765661
0.00971597
0.0125809
0.0152031
0.017222
0.0183024
0.0182106
0.0170556
0.0149032
0.0125266
0.0104861
0.00873081
0.00725919
0.00576635
0.00448715
0.00317436
0.00204778
0.000767038
-0.000486047
-0.00156413
-0.00254971
-0.00341222
-0.00420777
-0.000573008
0.000484784
0.0015515
0.00280343
0.00406563
0.005425
0.00682543
0.00868901
0.0113859
0.0137617
0.0163788
0.0176914
0.018117
0.017452
0.0154491
0.0135054
0.011306
0.00960527
0.00791729
0.00652042
0.00518221
0.00391654
0.00250884
0.00149338
0.000323802
-0.000758263
-0.00184197
-0.00269063
-0.00351875
-0.00412605
-0.000788863
0.000184487
0.00129457
0.00246323
0.00353526
0.00488622
0.00609387
0.00809649
0.0102738
0.012852
0.0154001
0.0170822
0.0178657
0.0175334
0.0159803
0.0139426
0.012087
0.0101358
0.00841401
0.00699413
0.00572724
0.00453536
0.0033266
0.00211883
0.000906396
-0.000192934
-0.00111148
-0.00206102
-0.00284694
-0.003518
-0.00400795
-0.00096065
5.87812e-05
0.00100445
0.00212103
0.00315562
0.00452231
0.00570398
0.0073228
0.00942291
0.0119151
0.0143196
0.0164132
0.0173454
0.0174122
0.0165082
0.0146939
0.0126567
0.0106967
0.00891282
0.00761626
0.00620709
0.00506142
0.0038879
0.00254285
0.00162189
0.000519551
-0.000544024
-0.00149087
-0.00234704
-0.00294094
-0.00342229
-0.00370039
-0.00107794
-0.000139438
0.000683951
0.00180701
0.00289795
0.00413825
0.00533752
0.00676358
0.00870865
0.0108496
0.0132935
0.0154284
0.0167653
0.0171875
0.0166233
0.0151503
0.0130927
0.0113519
0.00959955
0.00810975
0.00672578
0.00552216
0.00425863
0.00314389
0.00205871
0.00103725
-3.42888e-05
-0.00103793
-0.00182453
-0.00250746
-0.00298257
-0.00327901
-0.00336404
-0.00124269
-0.000362429
0.000452768
0.00143094
0.00254941
0.00370786
0.00472982
0.00610495
0.00785488
0.0100291
0.0122788
0.0146157
0.0159873
0.0167928
0.0165452
0.015471
0.0137396
0.0117499
0.0101552
0.00859554
0.00726248
0.00591764
0.00487727
0.00368562
0.00254087
0.00149563
0.000420237
-0.00055326
-0.00142582
-0.00214036
-0.00264837
-0.00300868
-0.00310515
-0.00357978
-0.00337192
-0.00139007
-0.000618233
0.000298884
0.00122226
0.00221751
0.00327274
0.00445381
0.00573129
0.00725477
0.00893725
0.0112852
0.0135394
0.0152513
0.0162963
0.0164082
0.0155867
0.0142249
0.0123807
0.0106579
0.00904938
0.00766227
0.00632402
0.005161
0.00406063
0.00298314
0.00174346
0.00081853
-0.000231666
-0.00116632
-0.00189039
-0.00248719
-0.00288659
-0.00338454
-0.00321064
-0.00314643
-0.00330137
-0.0031452
-0.00153221
-0.000834904
7.48762e-05
0.000938648
0.00188753
0.0029247
0.00402655
0.00532704
0.00680976
0.00833611
0.0103731
0.0125163
0.0144327
0.0156579
0.0160639
0.015575
0.0143441
0.0126535
0.0110361
0.00943228
0.0080178
0.00675905
0.00562749
0.00444179
0.00336994
0.00231694
0.00117487
5.95078e-05
-0.0008743
-0.00169464
-0.00236127
-0.00286483
-0.0030452
-0.00316781
-0.00317856
-0.00381022
-0.00321517
-0.00306861
-0.00303211
-0.00299828
-0.00284608
-0.00167659
-0.000938473
-0.000214229
0.000595809
0.00157552
0.00242115
0.00361515
0.00492714
0.00623359
0.00743847
0.00939562
0.0114394
0.0135741
0.0149629
0.0155981
0.0154911
0.0144395
0.0130975
0.0112325
0.00974483
0.00828108
0.00710888
0.00594022
0.00476481
0.00369016
0.00262759
0.00142392
0.000388878
-0.000631896
-0.00152756
-0.00229965
-0.00290511
-0.00326596
-0.00337003
-0.00376082
-0.00306347
-0.00331517
-0.00314911
-0.00280664
-0.00280359
-0.00258662
-0.00255397
-0.00176293
-0.00109194
-0.000384018
0.000428703
0.00129476
0.00219427
0.00317492
0.00438181
0.00564025
0.00691993
0.00896722
0.0105273
0.0129195
0.0142459
0.0150493
0.0152673
0.0146233
0.0132722
0.0116047
0.0099003
0.00856383
0.00729082
0.00608285
0.00508161
0.00405519
0.00298182
0.00160389
0.000676411
-0.000331306
-0.00139211
-0.00226018
-0.00300378
-0.00342059
-0.00350284
-0.0037432
-0.00377032
-0.00343026
-0.00288892
-0.00327773
-0.0030308
-0.00249122
-0.00252929
-0.00220174
-0.00213728
-0.00186682
-0.00124707
-0.000577271
0.000145034
0.000891746
0.00182445
0.00275513
0.00406755
0.00535705
0.00667557
0.00833102
0.00967629
0.0120592
0.0134526
0.0145471
0.0149111
0.0145678
0.013302
0.0119893
0.0103419
0.00877414
0.00750599
0.00643452
0.00535774
0.00430431
0.00315036
0.00217839
0.000827766
-0.000252875
-0.00117738
-0.00223127
-0.00311805
-0.00358764
-0.00368279
-0.00382362
-0.00389206
-0.00355146
-0.00368507
-0.00343574
-0.00266425
-0.00321106
-0.00285946
-0.00212063
-0.00220741
-0.0017345
-0.00168682
-0.0019256
-0.00138333
-0.000746049
-0.000121621
0.000650237
0.00145984
0.00259104
0.00370534
0.00498233
0.00621049
0.00776878
0.0092503
0.0113164
0.0129891
0.0141107
0.014511
0.0143655
0.0135288
0.0120876
0.0104563
0.00900403
0.00765318
0.00649107
0.00553806
0.004488
0.00361152
0.0025708
0.00137816
0.000128355
-0.00115906
-0.00218558
-0.00321895
-0.0037619
-0.0038658
-0.00396993
-0.00406252
-0.00382356
-0.00396554
-0.00360732
-0.00378922
-0.00341929
-0.00239601
-0.00309397
-0.00264882
-0.00170546
-0.00184167
-0.0012193
-0.00117908
-0.00191943
-0.00149342
-0.000906924
-0.000328312
0.000410556
0.001125
0.00228134
0.00333936
0.00442293
0.00580229
0.00731635
0.00852225
0.0104848
0.0124189
0.0135117
0.0141284
0.0141235
0.013482
0.0121734
0.0106716
0.00899846
0.00773297
0.00662941
0.00555023
0.00461144
0.00366373
0.00279374
0.00183093
0.000571192
-0.000749512
-0.00211221
-0.00327373
-0.0039185
-0.00400556
-0.0041456
-0.00423677
-0.00410498
-0.00423414
-0.00397363
-0.00414808
-0.00364087
-0.00386483
-0.00335615
-0.00208314
-0.00294167
-0.00239037
-0.00122872
-0.00141526
-0.000651032
-0.000610348
-0.00191338
-0.00155793
-0.00109167
-0.000502722
0.000178546
0.000809181
0.00192152
0.00300921
0.00410053
0.00546242
0.00681869
0.0079917
0.00989237
0.0117097
0.0129683
0.0137035
0.0138706
0.0133862
0.0122846
0.0107032
0.00921819
0.00772479
0.0065275
0.00557719
0.00475188
0.0038547
0.00302569
0.00223554
0.00120439
-0.000177059
-0.00199024
-0.003336
-0.00396743
-0.00394914
-0.00425735
-0.00423158
-0.00431982
-0.00429646
-0.00428788
-0.00431545
-0.0040749
-0.00420737
-0.00362664
-0.0038695
-0.00325538
-0.00171066
-0.00273444
-0.00206778
-0.000687919
-0.000921329
-2.90865e-05
2.57136e-05
-0.00184499
-0.00153712
-0.00115065
-0.000672057
-8.87295e-05
0.000507961
0.0015667
0.0025241
0.00368956
0.00494062
0.00633872
0.0077454
0.00950737
0.0111407
0.0124373
0.0132858
0.0136303
0.0132868
0.0122833
0.0108907
0.00922321
0.00779706
0.00650793
0.00545264
0.00462018
0.00388724
0.00316215
0.00235012
0.00138836
0.000166182
-0.00109378
-0.00322077
-0.00372209
-0.00337183
-0.00394106
-0.00329116
-0.00398387
-0.00310831
-0.00405032
-0.0030492
-0.00409446
-0.00329379
-0.00398319
-0.00360658
-0.00353794
-0.00361387
-0.00305496
-0.00126387
-0.0024203
-0.00163293
-7.41684e-05
-0.000343662
0.000644843
0.000732429
-0.00172626
-0.00152108
-0.00123854
-0.00087956
-0.000400074
0.000303851
0.00112354
0.00221851
0.00338927
0.00459497
0.00590469
0.00725407
0.00891432
0.010434
0.0119426
0.0129001
0.0134297
0.0132445
0.0123926
0.010987
0.00936964
0.0076688
0.00637044
0.00535422
0.00447017
0.0038155
0.00319886
0.00249781
0.00156899
0.000635704
-0.000663886
-0.00211439
-0.00276066
-0.00197187
-0.00212799
0.000298412
-0.00104753
0.00336872
-0.00045515
0.0053986
-0.000783119
0.00561037
-0.00183763
0.00343673
-0.00286817
0.000410336
-0.00310021
-0.00192664
-0.00246271
-0.000704046
-0.00171302
-0.000854448
0.000622075
0.000342574
0.00136855
0.00151108
-0.00154427
-0.00145441
-0.00129744
-0.000991609
-0.000513643
0.000137079
0.000898643
0.00199045
0.0029665
0.00414993
0.0055039
0.00694918
0.00846611
0.00981084
0.0114928
0.0126316
0.0132125
0.013211
0.0125023
0.0111264
0.00949926
0.00776752
0.00620125
0.00505591
0.0042169
0.00359899
0.00310271
0.00257752
0.00203337
0.000846461
-0.000144266
-0.00112107
-0.000400869
-0.00256398
0.00305307
0.00777975
0.0102333
0.0203563
0.0173708
0.035461
0.0196036
0.0457624
0.016871
0.0454637
0.0100768
0.0340485
0.00327429
0.019001
-0.000879932
0.00635625
7.54083e-05
0.000123321
0.000871597
0.00147245
0.00140826
0.00121133
0.00213809
0.00236019
-0.00129124
-0.00132239
-0.00129537
-0.00112451
-0.000776099
-0.000157886
0.00065623
0.00153013
0.00254563
0.00371009
0.00513554
0.00652284
0.00800749
0.0094999
0.0110587
0.0123194
0.0130335
0.0131964
0.0126206
0.0113991
0.00968254
0.00781139
0.00612167
0.00474632
0.00379235
0.00320844
0.00281969
0.00249668
0.00213449
0.00141858
0.000128647
-7.66325e-05
0.0137765
0.0117114
0.0214453
0.0319514
0.0455582
0.0574485
0.081835
0.0799784
0.117374
0.0901581
0.141756
0.0833949
0.147728
0.0567991
0.129745
0.0291344
0.0834975
0.00912712
0.0385827
0.0108225
0.00202543
0.011309
0.0104474
0.00231284
0.00268731
0.00294125
0.00327412
-0.000952147
-0.00112285
-0.00122559
-0.0011892
-0.00102813
-0.000674319
0.000238141
0.00119444
0.0022485
0.00325637
0.00463444
0.00605524
0.00754314
0.00908819
0.0104427
0.0120122
0.0128629
0.0132506
0.012901
0.0117666
0.0100038
0.00801798
0.00605478
0.00443002
0.00326402
0.00258767
0.00230616
0.00217478
0.00201056
0.00185721
0.000863299
0.000224296
0.0163555
0.0808701
0.0901217
0.058818
0.0711055
0.105618
0.128556
0.15387
0.18742
0.193148
0.239991
0.214482
0.277278
0.21243
0.292307
0.179199
0.278313
0.109779
0.226274
0.0456184
0.131256
0.0485138
0.00874457
0.0473276
0.0417381
0.00348965
0.0069536
0.00375374
0.0042687
-0.000557318
-0.000833507
-0.00107555
-0.00121413
-0.001207
-0.000967219
-0.000336127
0.000743685
0.00174578
0.00281045
0.00407709
0.00557519
0.00691863
0.00857957
0.0100897
0.0117403
0.0127283
0.013285
0.0131461
0.0122037
0.0104863
0.00835267
0.00612817
0.00415834
0.0026719
0.00179391
0.00148448
0.00156141
0.00170119
0.00185345
0.00150489
0.000828373
0.0143762
0.0959867
0.0993048
0.175416
0.184113
0.148174
0.16384
0.216337
0.241376
0.280604
0.314802
0.332789
0.379715
0.364762
0.427794
0.370712
0.452012
0.341552
0.445483
0.268324
0.39861
0.145023
0.302029
0.148495
0.032327
0.142024
0.125667
0.00583593
0.0218709
0.00454208
0.00555839
-0.00019015
-0.000489545
-0.000865419
-0.00117202
-0.00129219
-0.00115382
-0.00058463
0.000441579
0.00131105
0.00237652
0.00367592
0.00513573
0.00643092
0.00823874
0.00974149
0.0112884
0.0125402
0.0133161
0.0134368
0.012718
0.0111409
0.00890538
0.0064472
0.00405255
0.00211247
0.000871876
0.000392721
0.00055222
0.00103264
0.00147719
0.00183395
0.00157244
0.0150581
0.0981791
0.0857757
0.189473
0.190855
0.285064
0.291262
0.261011
0.275385
0.342523
0.365195
0.41822
0.448842
0.480461
0.522548
0.521431
0.578514
0.535416
0.61012
0.513699
0.610885
0.447467
0.572852
0.324885
0.485393
0.332966
0.098696
0.321599
0.289553
0.0132871
0.0673951
0.0052467
0.00830091
1.00597e-05
-0.000193622
-0.000602975
-0.00103967
-0.0012914
-0.00124669
-0.000730234
0.000144144
0.000976536
0.00188095
0.00310953
0.00446462
0.00590346
0.00763018
0.00923468
0.0108187
0.0122706
0.0132839
0.0136892
0.0132732
0.0119369
0.00974046
0.00701969
0.00423297
0.001722
-8.49685e-05
-0.000942594
-0.000884309
-0.000164975
0.000745835
0.00163824
0.00200084
0.0128072
0.134927
0.189295
0.198054
0.293936
0.292087
0.398497
0.400878
0.381767
0.392541
0.472197
0.489673
0.554911
0.578787
0.623911
0.656904
0.671347
0.718222
0.691313
0.754731
0.676575
0.762021
0.620694
0.731748
0.510111
0.657494
0.519547
0.23593
0.51325
0.484683
0.0372796
0.169786
0.00575549
0.0161392
-7.16643e-05
-0.000360045
-0.000819653
-0.00119446
-0.00121032
-0.000746126
-0.000110352
0.000587
0.00143816
0.00255142
0.00382638
0.00532542
0.00699882
0.00868782
0.0103203
0.0119251
0.0131733
0.0138974
0.0138472
0.0128125
0.0108028
0.00798083
0.00475592
0.0016157
-0.000936708
-0.00245566
-0.00274736
-0.00195502
-0.000576945
0.000831946
0.00196826
0.00838762
0.109666
0.274463
0.262785
0.287806
0.282718
0.399245
0.393748
0.506215
0.502853
0.500595
0.505774
0.594608
0.603869
0.680485
0.694931
0.753832
0.773127
0.80676
0.83603
0.832978
0.882965
0.821838
0.899768
0.775613
0.873159
0.680984
0.809909
0.690477
0.42537
0.682377
0.650775
0.0986641
0.332808
0.00586255
0.0392331
-0.000238678
-0.000593565
-0.00100312
-0.00109095
-0.000821321
-0.000406232
0.000220865
0.00101345
0.00201723
0.00325068
0.00466341
0.00623476
0.00797056
0.00970409
0.011441
0.0129222
0.014001
0.0143711
0.0137424
0.0120313
0.00931741
0.00580326
0.00196318
-0.00154611
-0.00400971
-0.00492499
-0.00431962
-0.00259907
-0.00055652
0.00139004
0.00538012
0.0758622
0.248752
0.215626
0.365542
0.35244
0.387083
0.378343
0.495662
0.487297
0.596813
0.587212
0.606126
0.604173
0.699446
0.697766
0.777183
0.769291
0.839969
0.82571
0.895378
0.880167
0.939726
0.936908
0.954571
0.986195
0.913456
1.00084
0.831482
0.946549
0.83873
0.594415
0.829746
0.808151
0.706476
0.215694
0.501256
0.00366206
0.0972847
-0.000436464
-0.000844967
-0.000995809
-0.000935379
-0.000664866
-0.000145588
0.000581867
0.00150444
0.00265109
0.00399771
0.00554419
0.00722468
0.00898213
0.0108274
0.0125365
0.0139286
0.0147199
0.0146516
0.0134168
0.0109414
0.00738518
0.00298282
-0.00161759
-0.00539345
-0.00737083
-0.00724303
-0.00546433
-0.00286026
-0.000176249
0.00333654
0.0469524
0.243103
0.329409
0.326538
0.44843
0.432294
0.476872
0.464161
0.576118
0.562844
0.665257
0.650063
0.689587
0.678133
0.754996
0.739154
0.807015
0.783381
0.858631
0.827044
0.914918
0.877246
0.970773
0.9389
1.02541
1.00382
1.0345
1.05492
0.967585
1.05697
1.01149
0.903511
0.976416
0.781884
0.637623
0.756301
0.883401
0.970222
0.970834
0.872508
0.369284
0.713089
0.670293
0.537193
0.0155837
0.216057
-0.000653859
-0.000969297
-0.00100201
-0.000851248
-0.000458813
0.00016867
0.00100801
0.00205988
0.0033299
0.00481066
0.00644898
0.00822224
0.0101201
0.0119923
0.0136396
0.01488
0.0153698
0.0147371
0.0127942
0.00941972
0.00475917
-0.000837209
-0.00620447
-0.00974716
-0.0106392
-0.00926612
-0.00629877
-0.0026773
0.00118086
0.0250458
0.185992
0.371578
0.331775
0.411417
0.391728
0.512855
0.494518
0.547575
0.531301
0.633527
0.615989
0.689434
0.673161
0.722256
0.705624
0.759074
0.736509
0.787687
0.747588
0.818954
0.753787
0.874672
0.782644
0.951648
0.85357
1.04116
1.0237
0.99331
0.942209
1.07432
1.07872
1.02952
1.04041
1.06686
1.06331
1.02601
1.07894
1.09024
1.03368
0.849146
0.816849
0.954284
1.02806
1.03454
0.936609
0.610623
0.40627
0.549629
0.777249
0.728932
0.0683776
0.47789
0.400905
0.255324
-0.000880196
-0.000991588
-0.00091954
-0.000681867
-0.000186581
0.000543624
0.00149594
0.00266987
0.00405671
0.00562857
0.00736932
0.0092979
0.0112663
0.0131339
0.0147209
0.015724
0.0158213
0.0145801
0.0117931
0.00725196
0.00114156
-0.00553588
-0.010782
-0.0131758
-0.0130273
-0.0106698
-0.00663045
-0.00206069
0.010732
0.121558
0.336803
0.424718
0.41415
0.472251
0.453394
0.556435
0.535221
0.597132
0.577582
0.656164
0.638063
0.68313
0.667788
0.716542
0.699012
0.712693
0.685911
0.693184
0.645204
0.690477
0.612669
0.732473
0.619111
0.889198
0.821673
0.763098
0.691746
0.994875
0.94321
0.882573
1.08995
1.07682
0.997083
1.00016
1.04706
1.10237
1.08256
1.11234
1.10196
1.08765
0.91082
0.877263
1.01643
1.08841
1.08431
0.997179
0.672475
0.607909
0.835628
0.785788
0.315557
0.0454432
0.187893
0.534414
0.45073
-0.000771323
-0.000830569
-0.000765929
-0.000446305
0.000146214
0.000976671
0.0020358
0.00330766
0.0047822
0.00645465
0.00835723
0.010368
0.0123859
0.0142564
0.01573
0.0164879
0.0161444
0.0141905
0.0103132
0.00446818
-0.00199898
-0.00678081
-0.0101665
-0.0126518
-0.0131418
-0.0108968
-0.00661901
0.00212952
0.0676433
0.277198
0.423222
0.387904
0.466152
0.444285
0.511889
0.490424
0.574357
0.551104
0.618324
0.597171
0.651711
0.633947
0.639908
0.62764
0.666484
0.652055
0.61253
0.592519
0.555431
0.519565
0.529233
0.466719
0.634149
0.570106
0.523137
0.476472
0.817414
0.749542
0.680486
0.611321
0.942374
0.879825
0.812506
1.08662
1.05295
0.942518
0.943979
1.00357
1.11359
1.12148
1.12586
1.09754
1.1286
0.970004
0.934385
1.07345
1.13271
1.13198
1.05409
0.72779
0.660438
0.890437
0.838293
0.338103
0.0411013
0.186059
0.582138
0.484332
-0.00052575
-0.000672382
-0.000563966
-0.000152815
0.000530744
0.00145224
0.00259081
0.00394054
0.00550548
0.0073298
0.00932196
0.0114194
0.0135056
0.0153937
0.0167216
0.0172368
0.0163738
0.0136084
0.00917411
0.00577424
0.00737941
0.00894796
0.00406163
-0.00520961
-0.0109218
-0.0107151
-0.00401287
0.0312387
0.202095
0.372642
0.435775
0.421493
0.479976
0.459393
0.526866
0.503824
0.565715
0.539846
0.613574
0.590734
0.612963
0.59433
0.560207
0.547449
0.579952
0.570288
0.498577
0.484092
0.42756
0.401602
0.445559
0.415782
0.394567
0.370476
0.548768
0.492617
0.448266
0.412128
0.741923
0.668787
0.595881
0.528117
0.878039
0.809152
0.736123
1.0605
1.00873
0.877578
0.878724
0.947038
1.10964
1.1379
1.1237
1.07058
1.14978
1.02576
0.988035
1.12383
1.16002
1.1661
1.10576
0.777468
0.706446
0.9414
0.886288
0.352607
0.0171677
0.17114
0.620549
0.509381
-0.000381637
-0.000512894
-0.000315595
0.000186166
0.000945492
0.00193328
0.00313372
0.00456029
0.00625539
0.00816915
0.0102632
0.0124707
0.0146316
0.0165676
0.0177846
0.018029
0.0166439
0.0142366
0.0158352
0.0271056
0.0385086
0.0369351
0.0220956
0.00321167
-0.0101799
-0.008915
0.0114313
0.127654
0.319411
0.397061
0.379607
0.42785
0.413407
0.467023
0.447559
0.513879
0.489888
0.517066
0.489993
0.571166
0.544846
0.529379
0.505578
0.439259
0.417827
0.470881
0.456672
0.376805
0.346309
0.316857
0.27835
0.385134
0.362198
0.343058
0.328166
0.469225
0.42173
0.384713
0.356107
0.659615
0.583138
0.511585
0.449674
0.80707
0.732326
0.653273
1.01664
0.952798
0.806481
0.808035
0.882308
1.08474
1.13876
1.10211
1.02836
1.15457
1.07723
1.03777
1.1643
1.17059
1.18317
1.15097
0.821868
0.74596
0.988479
0.929981
0.356634
0.0138426
0.14276
0.650765
0.524841
-0.000284132
-0.000324261
-3.37016e-05
0.000544107
0.00135868
0.00239461
0.00365235
0.0051839
0.0069565
0.00897032
0.0111902
0.0135208
0.0158308
0.0178312
0.0189849
0.0189904
0.0186509
0.0248732
0.0455015
0.067215
0.0717979
0.0570251
0.0306174
0.00345229
-0.00992194
0.00292856
0.0747279
0.261587
0.358268
0.38239
0.371392
0.399878
0.390933
0.42564
0.411697
0.465119
0.443527
0.424126
0.402666
0.478126
0.450128
0.392937
0.366533
0.258327
0.230074
0.317096
0.288309
0.24099
0.212225
0.26208
0.248624
0.226352
0.239719
0.332616
0.311934
0.292802
0.276055
0.400014
0.362162
0.333356
0.31045
0.573839
0.499269
0.434709
0.383248
0.730385
0.649886
0.568185
0.962193
0.889697
0.730556
0.733793
0.812962
1.04511
1.1234
1.06703
0.976888
1.14771
1.1233
1.08318
1.18992
1.17116
1.19073
1.18602
0.861569
0.779415
1.03159
0.969765
0.347635
0.0257426
0.134288
0.673789
0.531917
-0.000180202
-0.000115929
0.000258491
0.000894579
0.00174751
0.00282369
0.00415591
0.00574711
0.00760185
0.00973321
0.0120986
0.0146134
0.0171641
0.0192893
0.0205135
0.0218314
0.0311148
0.059075
0.0916554
0.10377
0.0917629
0.0630324
0.0272391
-0.00220956
-0.00143061
0.0476899
0.201108
0.328164
0.350869
0.348227
0.355963
0.354311
0.357631
0.356413
0.365764
0.360626
0.385822
0.373447
0.309563
0.30387
0.342377
0.322983
0.209648
0.195793
0.112441
0.0838795
0.179568
0.14835
0.215951
0.203646
0.192334
0.2527
0.24802
0.241001
0.244543
0.291703
0.277393
0.26689
0.259543
0.344863
0.31686
0.29649
0.2825
0.491128
0.424204
0.371106
0.332371
0.649185
0.566303
0.487163
0.902062
0.822973
0.651568
0.658308
0.741489
0.997742
1.09439
1.02517
0.921083
1.1264
1.16388
1.12367
1.20384
1.16101
1.19195
1.2085
0.896964
0.807387
1.07091
1.00611
0.332419
0.0177351
0.106085
0.690989
0.530848
-6.89337e-05
9.12016e-05
0.000543038
0.0012184
0.00209946
0.00322276
0.00458928
0.00623737
0.00818044
0.0104418
0.0130189
0.0158273
0.0187153
0.0210982
0.0236579
0.0345726
0.0661588
0.107421
0.125771
0.120635
0.0988563
0.0606248
0.017438
0.00109968
0.039529
0.156697
0.290594
0.339146
0.33929
0.339205
0.331482
0.33571
0.32005
0.32604
0.307973
0.31389
0.301229
0.303181
0.203076
0.217154
0.19282
0.194982
0.0693346
0.0658238
0.078957
0.0433437
0.159462
0.123313
0.235586
0.225604
0.296988
0.280632
0.275769
0.285192
0.303708
0.294516
0.273445
0.268442
0.266431
0.269316
0.305881
0.288894
0.279758
0.275859
0.418091
0.363211
0.323938
0.298576
0.568004
0.4876
0.416351
0.839776
0.755937
0.574048
0.586283
0.671134
0.947911
1.05946
0.982732
0.865535
1.10007
1.19617
1.16001
1.2129
1.14496
1.18709
1.22295
0.928312
0.830894
1.10639
1.0392
0.306292
0.0137113
0.0742936
0.702997
0.522445
3.75355e-05
0.000288861
0.000806171
0.00150379
0.00241035
0.00354321
0.00493518
0.00662878
0.00866357
0.0111143
0.0140124
0.0172906
0.020597
0.0239503
0.0348998
0.0682445
0.113528
0.136425
0.138091
0.127575
0.102598
0.06027
0.0194539
0.0408306
0.142595
0.259167
0.328352
0.335423
0.338268
0.328036
0.332603
0.313571
0.321472
0.293068
0.304093
0.265894
0.280367
0.233406
0.249991
0.128851
0.157244
0.0777387
0.101163
0.0202863
0.0121539
0.126064
0.0520727
0.259064
0.230717
0.206404
0.307862
0.305249
0.403472
0.388175
0.333223
0.355297
0.395611
0.37673
0.275835
0.283694
0.296088
0.31272
0.285538
0.280638
0.280523
0.289497
0.359512
0.319099
0.294106
0.284505
0.492674
0.419575
0.359993
0.779804
0.693262
0.504162
0.524865
0.607546
0.900855
1.02562
0.945379
0.815349
1.07536
1.2191
1.19111
1.21812
1.12924
1.18066
1.23218
0.956063
0.85112
1.13823
1.06916
0.264936
0.0100157
0.0430436
0.710882
0.503667
0.000141222
0.000465933
0.00103955
0.00174037
0.00264102
0.00375848
0.00516722
0.00686256
0.00904402
0.0118005
0.0151886
0.0190963
0.0231339
0.0320833
0.0649535
0.113245
0.138107
0.143444
0.141298
0.133828
0.112972
0.0764815
0.0649762
0.144064
0.248468
0.316702
0.336088
0.32839
0.329966
0.316514
0.32334
0.297579
0.30792
0.270494
0.285181
0.233111
0.253221
0.184655
0.21015
0.0727349
0.104166
0.0170848
0.0426427
0.0097167
-0.00787122
0.268789
0.199072
0.127956
0.35928
0.316731
0.325172
0.38449
0.408355
0.409388
0.50911
0.493852
0.408041
0.439049
0.493375
0.468523
0.304047
0.324092
0.349091
0.377423
0.282196
0.289306
0.303624
0.324033
0.317197
0.293492
0.285554
0.285442
0.429305
0.366895
0.320621
0.727931
0.641682
0.449055
0.482565
0.558933
0.862268
0.999355
0.920827
0.777694
1.05869
1.23475
1.21658
1.22057
1.1192
1.17553
1.23873
0.981173
0.869421
1.16734
1.09627
0.210148
0.00866032
0.0241716
0.714878
0.475249
0.000240503
0.000627638
0.00122677
0.00190534
0.00276626
0.00380454
0.00518652
0.00694431
0.00934897
0.0126044
0.0166828
0.021314
0.0285644
0.0551496
0.106864
0.134214
0.142005
0.142992
0.143969
0.145224
0.138723
0.132614
0.168701
0.247956
0.312267
0.334124
0.321387
0.325215
0.31359
0.318033
0.298246
0.306845
0.274285
0.287476
0.239736
0.258412
0.193289
0.218083
0.13542
0.165447
0.0102988
0.038754
-0.014056
-0.00885843
0.0269874
-0.0135368
0.339349
0.266693
0.260898
0.170542
0.466648
0.429945
0.403522
0.459177
0.510787
0.514893
0.597677
0.578677
0.48657
0.522132
0.580936
0.554263
0.349295
0.379168
0.413187
0.449688
0.297097
0.317005
0.342602
0.372679
0.295285
0.287413
0.28813
0.304059
0.384342
0.335309
0.30253
0.692466
0.610093
0.416813
0.468919
0.534773
0.839643
0.984839
0.911281
0.758743
1.05232
1.24597
1.23518
1.22134
1.11372
1.17021
1.24437
1.00497
0.886906
1.1932
1.12132
0.139374
0.00592375
0.0170179
0.716638
0.433327
0.000341214
0.000773984
0.00136183
0.0019631
0.00273676
0.00363746
0.00490081
0.00683141
0.00966967
0.0136409
0.0185393
0.024872
0.0441669
0.0924148
0.124961
0.133996
0.135323
0.139944
0.150518
0.164809
0.182339
0.213717
0.260667
0.309292
0.330171
0.311009
0.296227
0.296272
0.285505
0.292052
0.265593
0.276715
0.234515
0.251603
0.190287
0.21407
0.134118
0.163487
0.0705021
0.102352
-0.0275874
-0.0169434
-0.0270438
-0.030926
0.103592
0.0371109
-0.00308342
0.399227
0.333412
0.299002
0.223535
0.547394
0.507183
0.458301
0.51143
0.599944
0.604916
0.66435
0.639813
0.570427
0.607088
0.661036
0.637961
0.40782
0.446894
0.488082
0.530082
0.329989
0.360767
0.395058
0.4355
0.29046
0.289222
0.306077
0.337979
0.363588
0.322785
0.299488
0.680895
0.608573
0.409717
0.473004
0.538513
0.838235
0.986212
0.920775
0.767004
1.05415
1.25369
1.24835
1.21733
1.11275
1.16451
1.24707
1.02831
0.903973
1.21485
1.1446
0.0892268
-0.00136797
0.0114234
0.716086
0.389344
0.000459973
0.000917649
0.00141354
0.00184337
0.00243023
0.00314981
0.00439186
0.00660517
0.0101434
0.0149578
0.0209889
0.0342092
0.073895
0.112554
0.122433
0.116594
0.116118
0.13648
0.162564
0.190453
0.224353
0.263266
0.302885
0.320207
0.303338
0.225929
0.253914
0.258987
0.240255
0.248532
0.213896
0.228724
0.174273
0.195724
0.121264
0.149348
0.0604564
0.0912915
0.00236853
0.0295022
-0.0405414
-0.0388469
-0.0308513
-0.0384938
0.141069
0.0599933
-0.00432538
0.0364762
0.423483
0.365167
0.314423
0.250807
0.603215
0.559826
0.476574
0.527116
0.674649
0.674974
0.709692
0.674994
0.655618
0.690124
0.733604
0.716734
0.479106
0.52518
0.571018
0.615113
0.378278
0.418526
0.462475
0.511207
0.293276
0.306369
0.340264
0.388899
0.358744
0.321718
0.308168
0.696618
0.627259
0.415057
0.498316
0.560809
0.858622
0.997005
0.944947
0.798004
1.06064
1.25804
1.25683
1.21314
1.11355
1.16287
1.24678
1.05
0.91904
1.23049
1.16454
0.0793048
-0.00942433
0.00754361
0.718014
0.391259
0.000604529
0.00105335
0.00131915
0.00142656
0.00172996
0.00227816
0.0036997
0.00639715
0.0108047
0.0166162
0.0261013
0.0554441
0.0972573