/*--------------------------------*- C++ -*----------------------------------*\
  =========                 |
  \\      /  F ield         | OpenFOAM: The Open Source CFD Toolbox
   \\    /   O peration     | Website:  https://openfoam.org
    \\  /    A nd           | Version:  dev
     \\/     M anipulation  |
\*---------------------------------------------------------------------------*/
FoamFile
{
    version     2.0;
    format      ascii;
    class       surfaceScalarField;
    location    "2500";
    object      phi;
}
// * * * * * * * * * * * * * * * * * * * * * * * * * * * * * * * * * * * * * //

dimensions      [1 0 -1 0 0 0 0];

internalField   nonuniform List<scalar> 
19503
(
1.64981e-07
1.11627e-07
1.45126e-07
2.76695e-07
4.5312e-07
1.00785e-07
1.20457e-07
3.79362e-07
4.50446e-07
2.79343e-07
6.53719e-07
8.51493e-08
9.89438e-08
4.52759e-07
4.1988e-07
4.0993e-07
6.74857e-07
2.58212e-07
8.11509e-07
7.2787e-08
8.21238e-08
5.09319e-07
3.70615e-07
5.02003e-07
6.78406e-07
4.06384e-07
8.42645e-07
2.27101e-07
9.5062e-07
6.45665e-08
6.93849e-08
5.55734e-07
3.16207e-07
5.63686e-07
6.56456e-07
5.24e-07
8.72484e-07
3.76441e-07
9.77349e-07
2.00388e-07
1.07927e-06
5.88574e-08
6.0299e-08
5.97591e-07
2.65961e-07
6.06015e-07
6.10722e-07
6.09492e-07
8.84628e-07
5.11929e-07
1.01597e-06
3.37796e-07
1.09948e-06
1.80177e-07
1.19843e-06
5.46586e-08
5.32051e-08
6.37856e-07
2.26544e-07
6.3711e-07
5.49489e-07
6.67264e-07
8.70203e-07
6.23939e-07
1.05237e-06
4.75545e-07
1.13244e-06
3.04841e-07
1.21224e-06
1.66414e-07
1.3112e-06
5.0829e-08
4.78541e-08
6.77097e-07
1.99689e-07
6.64721e-07
4.82026e-07
7.0451e-07
8.29251e-07
7.08202e-07
1.0727e-06
6.03622e-07
1.17544e-06
4.32474e-07
1.23869e-06
2.78441e-07
1.32276e-06
1.5485e-07
1.41599e-06
4.76943e-08
4.40534e-08
7.15249e-07
1.8193e-07
6.94772e-07
4.16339e-07
7.30458e-07
7.67824e-07
7.65958e-07
1.06822e-06
7.1272e-07
1.2187e-06
5.60454e-07
1.27744e-06
3.93733e-07
1.34288e-06
2.5834e-07
1.42608e-06
1.44755e-07
1.51555e-06
4.47782e-08
4.13299e-08
7.51839e-07
1.67851e-07
7.29347e-07
3.62109e-07
7.49053e-07
6.95927e-07
8.02449e-07
1.0356e-06
7.98603e-07
1.24764e-06
6.83743e-07
1.32417e-06
5.13644e-07
1.37353e-06
3.63073e-07
1.44302e-06
2.41396e-07
1.52445e-06
1.35817e-07
1.60995e-06
4.22592e-08
3.90198e-08
7.88285e-07
1.54721e-07
7.65037e-07
3.26585e-07
7.64923e-07
6.22239e-07
8.2285e-07
9.78625e-07
8.5941e-07
1.25324e-06
7.9303e-07
1.37203e-06
6.35898e-07
1.41456e-06
4.7264e-07
1.46673e-06
3.39354e-07
1.53919e-06
2.26679e-07
1.61785e-06
1.27906e-07
1.69939e-06
4.00182e-08
3.7113e-08
8.24261e-07
1.45303e-07
7.97703e-07
3.04609e-07
7.86995e-07
5.52708e-07
8.34496e-07
9.05734e-07
8.95776e-07
1.23088e-06
8.81824e-07
1.40998e-06
7.55072e-07
1.46411e-06
5.86341e-07
1.50066e-06
4.3875e-07
1.56009e-06
3.18451e-07
1.63082e-06
2.13718e-07
1.70622e-06
1.21066e-07
1.78498e-06
3.75744e-08
3.57608e-08
8.58923e-07
1.39109e-07
8.30498e-07
2.85488e-07
8.16891e-07
4.95587e-07
8.44224e-07
8.25735e-07
9.14533e-07
1.18222e-06
9.44465e-07
1.42662e-06
8.65223e-07
1.51617e-06
7.03037e-07
1.54436e-06
5.42664e-07
1.58754e-06
4.11369e-07
1.64944e-06
2.99805e-07
1.71872e-06
2.01214e-07
1.79186e-06
1.14186e-07
1.86553e-06
3.55521e-08
3.44036e-08
8.93675e-07
1.33221e-07
8.64825e-07
2.68646e-07
8.47376e-07
4.54875e-07
8.57573e-07
7.46056e-07
9.23908e-07
1.11358e-06
9.83205e-07
1.41564e-06
9.55471e-07
1.56089e-06
8.20526e-07
1.59581e-06
6.51607e-07
1.62379e-06
5.06318e-07
1.67423e-06
3.86578e-07
1.73636e-06
2.82173e-07
1.803e-06
1.90068e-07
1.87212e-06
1.07598e-07
1.94277e-06
3.35706e-08
3.31656e-08
9.28643e-07
1.28954e-07
8.97996e-07
2.55358e-07
8.78167e-07
4.25156e-07
8.77145e-07
6.75046e-07
9.28747e-07
1.03278e-06
1.00482e-06
1.37722e-06
1.02168e-06
1.58805e-06
9.28347e-07
1.65143e-06
7.64937e-07
1.669e-06
6.06492e-07
1.70544e-06
4.75132e-07
1.75878e-06
3.64175e-07
1.81902e-06
2.66154e-07
1.88329e-06
1.78911e-07
1.94905e-06
1.01306e-07
2.01626e-06
3.14849e-08
3.23093e-08
9.63433e-07
1.25547e-07
9.32054e-07
2.42979e-07
9.10409e-07
4.00288e-07
9.03101e-07
6.17621e-07
9.34634e-07
9.46932e-07
1.01462e-06
1.31536e-06
1.0667e-06
1.58998e-06
1.01975e-06
1.70316e-06
8.76677e-07
1.7219e-06
7.12086e-07
1.7449e-06
5.67135e-07
1.78653e-06
4.47424e-07
1.84016e-06
3.43052e-07
1.8986e-06
2.50847e-07
1.95947e-06
1.68477e-07
2.02241e-06
9.51491e-08
2.08563e-06
2.95335e-08
3.17714e-08
9.98262e-07
1.21477e-07
9.67571e-07
2.3273e-07
9.4235e-07
3.78781e-07
9.31965e-07
5.74374e-07
9.46362e-07
8.63338e-07
1.01829e-06
1.23738e-06
1.09266e-06
1.56481e-06
1.09191e-06
1.74101e-06
9.81912e-07
1.78082e-06
8.17786e-07
1.79252e-06
6.64462e-07
1.8207e-06
5.32973e-07
1.86595e-06
4.21606e-07
1.91808e-06
3.23542e-07
1.97448e-06
2.35843e-07
2.03276e-06
1.58134e-07
2.09194e-06
8.88326e-08
2.15155e-06
2.7503e-08
3.12646e-08
1.03324e-06
1.17757e-07
1.00204e-06
2.25496e-07
9.74874e-07
3.60181e-07
9.61013e-07
5.40974e-07
9.65414e-07
7.90045e-07
1.01978e-06
1.15084e-06
1.10489e-06
1.51418e-06
1.14332e-06
1.75664e-06
1.07625e-06
1.83894e-06
9.23811e-07
1.84826e-06
7.6209e-07
1.86207e-06
6.231e-07
1.8964e-06
5.0258e-07
1.94216e-06
3.97574e-07
1.99372e-06
3.04309e-07
2.04665e-06
2.21961e-07
2.10207e-06
1.48005e-07
2.15756e-06
8.28172e-08
2.21358e-06
2.55021e-08
3.05144e-08
1.06866e-06
1.14332e-07
1.03672e-06
2.19056e-07
1.00856e-06
3.44655e-07
9.90461e-07
5.12424e-07
9.89575e-07
7.32075e-07
1.02348e-06
1.06195e-06
1.10876e-06
1.44401e-06
1.17509e-06
1.74623e-06
1.15381e-06
1.88687e-06
1.02837e-06
1.91041e-06
8.61672e-07
1.91071e-06
7.13513e-07
1.93242e-06
5.87174e-07
1.97101e-06
4.73758e-07
2.01678e-06
3.74527e-07
2.065e-06
2.85927e-07
2.11663e-06
2.07396e-07
2.16805e-06
1.37511e-07
2.21987e-06
7.64851e-08
2.27186e-06
2.33844e-08
2.9792e-08
1.10429e-06
1.11771e-07
1.07125e-06
2.12829e-07
1.04299e-06
3.31801e-07
1.02145e-06
4.88063e-07
1.01476e-06
6.88574e-07
1.03312e-06
9.77956e-07
1.10754e-06
1.36153e-06
1.19127e-06
1.7092e-06
1.21214e-06
1.91582e-06
1.12485e-06
1.9732e-06
9.6564e-07
1.96727e-06
8.05152e-07
1.9754e-06
6.70484e-07
2.00412e-06
5.5397e-07
2.04362e-06
4.46934e-07
2.08784e-06
3.51733e-07
2.13463e-06
2.67929e-07
2.18264e-06
1.92806e-07
2.23079e-06
1.26589e-07
2.27855e-06
6.98005e-08
2.32583e-06
2.11732e-08
2.93242e-08
1.13983e-06
1.09906e-07
1.10619e-06
2.06977e-07
1.07716e-06
3.21633e-07
1.05326e-06
4.66426e-07
1.04312e-06
6.54045e-07
1.0495e-06
9.04344e-07
1.10691e-06
1.27227e-06
1.19682e-06
1.64995e-06
1.25055e-06
1.92026e-06
1.20772e-06
2.02887e-06
1.06915e-06
2.03116e-06
9.01723e-07
2.02516e-06
7.55444e-07
2.04307e-06
6.31659e-07
2.07528e-06
5.2234e-07
2.11461e-06
4.20186e-07
2.15679e-06
3.29566e-07
2.20122e-06
2.49367e-07
2.24581e-06
1.77792e-07
2.2895e-06
1.15621e-07
2.3329e-06
6.27037e-08
2.37585e-06
1.88312e-08
2.91485e-08
1.17544e-06
1.07647e-07
1.14212e-06
2.01233e-07
1.11188e-06
3.12164e-07
1.08669e-06
4.46069e-07
1.07367e-06
6.25263e-07
1.07201e-06
8.4323e-07
1.11067e-06
1.18372e-06
1.19559e-06
1.57514e-06
1.27165e-06
1.89868e-06
1.27216e-06
2.06966e-06
1.16695e-06
2.0978e-06
1.00254e-06
2.08228e-06
8.44709e-07
2.08782e-06
7.10731e-07
2.11161e-06
5.95339e-07
2.14507e-06
4.91907e-07
2.18282e-06
3.94194e-07
2.22339e-06
3.07399e-07
2.26487e-06
2.30307e-07
2.30486e-06
1.6246e-07
2.34477e-06
1.03774e-07
2.38321e-06
5.5352e-08
2.42112e-06
1.6174e-08
2.88107e-08
1.21149e-06
1.05105e-07
1.17799e-06
1.96315e-07
1.14709e-06
3.03242e-07
1.12095e-06
4.2937e-07
1.10343e-06
6.00092e-07
1.09887e-06
7.95608e-07
1.11971e-06
1.10171e-06
1.1927e-06
1.49034e-06
1.28042e-06
1.85285e-06
1.3175e-06
2.08858e-06
1.25326e-06
2.16103e-06
1.10373e-06
2.14686e-06
9.37932e-07
2.13909e-06
7.93512e-07
2.15257e-06
6.69875e-07
2.17969e-06
5.60739e-07
2.21242e-06
4.6234e-07
2.24964e-06
3.67913e-07
2.28765e-06
2.84634e-07
2.32486e-06
2.10309e-07
2.36142e-06
1.45756e-07
2.39617e-06
9.07995e-08
2.42943e-06
4.70214e-08
2.46143e-06
1.32898e-08
2.82815e-08
1.24741e-06
1.02749e-07
1.21388e-06
1.91706e-07
1.18255e-06
2.95294e-07
1.15511e-06
4.16169e-07
1.1342e-06
5.76165e-07
1.12743e-06
7.59307e-07
1.13522e-06
1.02871e-06
1.19275e-06
1.401e-06
1.28204e-06
1.78781e-06
1.34549e-06
2.08253e-06
1.3236e-06
2.21304e-06
1.20128e-06
2.2165e-06
1.03417e-06
2.1976e-06
8.79433e-07
2.19875e-06
7.47325e-07
2.21915e-06
6.3044e-07
2.24667e-06
5.26508e-07
2.27997e-06
4.32072e-07
2.31384e-06
3.41739e-07
2.34895e-06
2.60514e-07
2.38215e-06
1.89577e-07
2.41377e-06
1.28142e-07
2.44311e-06
7.71223e-08
2.47052e-06
3.79183e-08
2.50521e-06
1.06064e-08
2.79645e-08
1.28264e-06
1.00692e-07
1.24951e-06
1.86565e-07
1.21902e-06
2.87506e-07
1.19051e-06
4.04574e-07
1.16667e-06
5.54324e-07
1.1561e-06
7.29449e-07
1.15731e-06
9.68232e-07
1.1957e-06
1.313e-06
1.28076e-06
1.70992e-06
1.35999e-06
2.05195e-06
1.37606e-06
2.24669e-06
1.29001e-06
2.28611e-06
1.13166e-06
2.26275e-06
9.69036e-07
2.25088e-06
8.27339e-07
2.26257e-06
7.03832e-07
2.28454e-06
5.92621e-07
2.3134e-06
4.93111e-07
2.34374e-06
4.02237e-07
2.3766e-06
3.14112e-07
2.40696e-06
2.35719e-07
2.43586e-06
1.67467e-07
2.46216e-06
1.09094e-07
2.48589e-06
6.17431e-08
2.51554e-06
2.75736e-08
2.53684e-06
8.07389e-09
2.74358e-08
1.31755e-06
9.84709e-08
1.28488e-06
1.81229e-07
1.25487e-06
2.81065e-07
1.22557e-06
3.94003e-07
1.20112e-06
5.33577e-07
1.18754e-06
7.02729e-07
1.1828e-06
9.20003e-07
1.20561e-06
1.22869e-06
1.28008e-06
1.62445e-06
1.36628e-06
1.99974e-06
1.41222e-06
2.25739e-06
1.36532e-06
2.34817e-06
1.22794e-06
2.33312e-06
1.06132e-06
2.31018e-06
9.09842e-07
2.31036e-06
7.79679e-07
2.32614e-06
6.62226e-07
2.35017e-06
5.55893e-07
2.3778e-06
4.59048e-07
2.40759e-06
3.7128e-07
2.43601e-06
2.85083e-07
2.46244e-06
2.09123e-07
2.48608e-06
1.43508e-07
2.50685e-06
8.81362e-08
2.53166e-06
4.56121e-08
2.54634e-06
1.80578e-08
2.5598e-06
6.23097e-09
2.66539e-08
1.35188e-06
9.59848e-08
1.32011e-06
1.76315e-07
1.28985e-06
2.74603e-07
1.26139e-06
3.8356e-07
1.23605e-06
5.15939e-07
1.21891e-06
6.8081e-07
1.20954e-06
8.79337e-07
1.22352e-06
1.15373e-06
1.28068e-06
1.53617e-06
1.36844e-06
1.93149e-06
1.43458e-06
2.24403e-06
1.42564e-06
2.39532e-06
1.31821e-06
2.40641e-06
1.15473e-06
2.37555e-06
9.95753e-07
2.3626e-06
8.57609e-07
2.37121e-06
7.3469e-07
2.39002e-06
6.22355e-07
2.41483e-06
5.18898e-07
2.44167e-06
4.25006e-07
2.46852e-06
3.38805e-07
2.49285e-06
2.54729e-07
2.51491e-06
1.80306e-07
2.53309e-06
1.17274e-07
2.55375e-06
6.60331e-08
2.56389e-06
2.80548e-08
2.57027e-06
7.57995e-09
2.57322e-06
3.12217e-09
2.55448e-08
1.38552e-06
9.30334e-08
1.35485e-06
1.71637e-07
1.32478e-06
2.67018e-07
1.29748e-06
3.73268e-07
1.27171e-06
5.00815e-07
1.25127e-06
6.6036e-07
1.23932e-06
8.43806e-07
1.24518e-06
1.09273e-06
1.28466e-06
1.44779e-06
1.36917e-06
1.85315e-06
1.44685e-06
2.20829e-06
1.47036e-06
2.42296e-06
1.39801e-06
2.47641e-06
1.24825e-06
2.44622e-06
1.08419e-06
2.42073e-06
9.37521e-07
2.42022e-06
8.08635e-07
2.43364e-06
6.9109e-07
2.45486e-06
5.82366e-07
2.47871e-06
4.81831e-07
2.50445e-06
3.89118e-07
2.52745e-06
3.04254e-07
2.54781e-06
2.21844e-07
2.56425e-06
1.49145e-07
2.58229e-06
8.87784e-08
2.59022e-06
3.97137e-08
2.59136e-06
6.95628e-09
2.58745e-06
-6.66795e-09
2.57898e-06
-2.47736e-09
2.38708e-08
1.41872e-06
8.98081e-08
1.3888e-06
1.66546e-07
1.36001e-06
2.58081e-07
1.33383e-06
3.61705e-07
1.30908e-06
4.85084e-07
1.28755e-06
6.391e-07
1.27259e-06
8.13391e-07
1.26994e-06
1.043e-06
1.29495e-06
1.36376e-06
1.36874e-06
1.76986e-06
1.4525e-06
2.15449e-06
1.50066e-06
2.42831e-06
1.46504e-06
2.5352e-06
1.33924e-06
2.52002e-06
1.17451e-06
2.48472e-06
1.02037e-06
2.4729e-06
8.84846e-07
2.48001e-06
7.62326e-07
2.49675e-06
6.49207e-07
2.51883e-06
5.4232e-07
2.54322e-06
4.4307e-07
2.5657e-06
3.50866e-07
2.58468e-06
2.67399e-07
2.60031e-06
1.85794e-07
2.61572e-06
1.15686e-07
2.623e-06
5.59785e-08
2.62034e-06
1.07071e-08
2.61163e-06
-1.72384e-08
2.59532e-06
-2.30347e-08
2.57543e-06
-9.2602e-09
2.27761e-08
1.4514e-06
8.73794e-08
1.42117e-06
1.61248e-07
1.3941e-06
2.4867e-07
1.36945e-06
3.50634e-07
1.34495e-06
4.70331e-07
1.32393e-06
6.20005e-07
1.30672e-06
7.8838e-07
1.29769e-06
1.0015e-06
1.3113e-06
1.28885e-06
1.36988e-06
1.6844e-06
1.45421e-06
2.0879e-06
1.5191e-06
2.41181e-06
1.51721e-06
2.57827e-06
1.42201e-06
2.59405e-06
1.26523e-06
2.55414e-06
1.10512e-06
2.52988e-06
9.63407e-07
2.52899e-06
8.35927e-07
2.5409e-06
7.18229e-07
2.56156e-06
6.06546e-07
2.58402e-06
5.01512e-07
2.60664e-06
4.02153e-07
2.62551e-06
3.10085e-07
2.63999e-06
2.27726e-07
2.65379e-06
1.47722e-07
2.66161e-06
7.70716e-08
2.65699e-06
1.93364e-08
2.64461e-06
-2.22733e-08
2.62357e-06
-4.54876e-08
2.59469e-06
-4.23167e-08
2.55725e-06
-1.85845e-08
2.14665e-08
1.48287e-06
8.46524e-08
1.45416e-06
1.55408e-07
1.42705e-06
2.40467e-07
1.40239e-06
3.41013e-07
1.37911e-06
4.57715e-07
1.35764e-06
6.03002e-07
1.34086e-06
7.65772e-07
1.32928e-06
9.65675e-07
1.33351e-06
1.22471e-06
1.37557e-06
1.59897e-06
1.4553e-06
2.01335e-06
1.52887e-06
2.37606e-06
1.55491e-06
2.6026e-06
1.49295e-06
2.66236e-06
1.3537e-06
2.62811e-06
1.19133e-06
2.59179e-06
1.04325e-06
2.58112e-06
9.112e-07
2.5882e-06
7.88753e-07
2.6061e-06
6.73688e-07
2.62714e-06
5.63394e-07
2.64976e-06
4.58427e-07
2.6688e-06
3.58877e-07
2.68366e-06
2.66427e-07
2.69653e-06
1.85003e-07
2.7055e-06
1.03836e-07
2.70011e-06
3.3951e-08
2.68584e-06
-2.18971e-08
2.66241e-06
-6.11288e-08
2.62772e-06
-7.85492e-08
2.5823e-06
-6.73851e-08
2.52418e-06
-2.95188e-08
2.04119e-08
1.51112e-06
8.06296e-08
1.48692e-06
1.49912e-07
1.45969e-06
2.31797e-07
1.43578e-06
3.2981e-07
1.41364e-06
4.4538e-07
1.3915e-06
5.86318e-07
1.37436e-06
7.45306e-07
1.36148e-06
9.35953e-07
1.35898e-06
1.1724e-06
1.38587e-06
1.51754e-06
1.45699e-06
1.93475e-06
1.53394e-06
2.32434e-06
1.58063e-06
2.60642e-06
1.55107e-06
2.71932e-06
1.43602e-06
2.70419e-06
1.27767e-06
2.65893e-06
1.12421e-06
2.63699e-06
9.87536e-07
2.6378e-06
8.61577e-07
2.6518e-06
7.4307e-07
2.67227e-06
6.28654e-07
2.69456e-06
5.18626e-07
2.71471e-06
4.1254e-07
2.73063e-06
3.11974e-07
2.74271e-06
2.20213e-07
2.75399e-06
1.36538e-07
2.7489e-06
5.5067e-08
2.7343e-06
-1.45302e-08
2.71009e-06
-6.95686e-08
2.67359e-06
-1.07011e-07
2.62263e-06
-1.18902e-07
2.5573e-06
-1.0053e-07
2.47072e-06
-1.10375e-08
-2.79466e-08
1.93375e-08
1.53659e-06
7.61673e-08
1.5156e-06
1.45013e-07
1.49185e-06
2.23365e-07
1.46817e-06
3.188e-07
1.44684e-06
4.33194e-07
1.42587e-06
5.69316e-07
1.40855e-06
7.25903e-07
1.39388e-06
9.11857e-07
1.38562e-06
1.1307e-06
1.40085e-06
1.44614e-06
1.45733e-06
1.85654e-06
1.53521e-06
2.26202e-06
1.59623e-06
2.59115e-06
1.59595e-06
2.76062e-06
1.50978e-06
2.77771e-06
1.36255e-06
2.73086e-06
1.20568e-06
2.69666e-06
1.06463e-06
2.68914e-06
9.36055e-07
2.69875e-06
8.14649e-07
2.71799e-06
6.97406e-07
2.74051e-06
5.82756e-07
2.76218e-06
4.71188e-07
2.77954e-06
3.63646e-07
2.792e-06
2.6279e-07
2.80607e-06
1.68162e-07
2.80257e-06
8.28862e-08
2.78906e-06
3.46767e-10
2.7653e-06
-6.97755e-08
2.72932e-06
-1.2529e-07
2.67726e-06
-1.61653e-07
2.60998e-06
-1.71599e-07
2.51411e-06
-6.43071e-08
-7.96354e-08
1.20023e-06
-1.06998e-08
1.21032e-06
-3.80497e-08
1.77057e-08
1.55976e-06
7.11456e-08
1.54163e-06
1.39212e-07
1.52143e-06
2.1544e-07
1.49982e-06
3.08849e-07
1.47818e-06
4.22082e-07
1.45802e-06
5.54475e-07
1.44074e-06
7.08202e-07
1.42616e-06
8.90219e-07
1.4155e-06
1.09674e-06
1.41963e-06
1.38477e-06
1.46222e-06
1.7812e-06
1.53268e-06
2.19812e-06
1.59915e-06
2.56176e-06
1.6257e-06
2.78497e-06
1.57167e-06
2.8446e-06
1.44295e-06
2.80534e-06
1.28825e-06
2.75956e-06
1.14273e-06
2.74207e-06
1.01183e-06
2.74648e-06
8.88344e-07
2.76388e-06
7.68793e-07
2.78686e-06
6.51103e-07
2.81031e-06
5.34645e-07
2.8302e-06
4.20584e-07
2.845e-06
3.10673e-07
2.86099e-06
2.07961e-07
2.86056e-06
1.10204e-07
2.84906e-06
2.28735e-08
2.82719e-06
-6.15006e-08
2.79292e-06
-1.33373e-07
2.74213e-06
-1.90162e-07
2.6704e-06
-1.05877e-07
-1.16208e-07
1.28318e-06
-1.07854e-07
1.2853e-06
-1.18139e-07
1.21414e-06
-6.81401e-08
1.23027e-06
-9.57665e-08
1.17922e-06
-1.04215e-08
1.18541e-06
-4.42386e-08
1.54373e-08
1.5796e-06
6.55939e-08
1.56533e-06
1.31609e-07
1.54926e-06
2.06109e-07
1.5308e-06
2.97892e-07
1.51083e-06
4.0968e-07
1.49062e-06
5.40816e-07
1.47172e-06
6.92185e-07
1.45677e-06
8.70998e-07
1.44549e-06
1.07005e-06
1.44219e-06
1.33384e-06
1.47056e-06
1.71027e-06
1.53318e-06
2.13216e-06
1.59864e-06
2.52168e-06
1.63926e-06
2.79604e-06
1.61468e-06
2.90269e-06
1.51364e-06
2.87986e-06
1.36846e-06
2.82662e-06
1.22121e-06
2.79657e-06
1.08828e-06
2.79441e-06
9.63943e-07
2.80904e-06
8.43204e-07
2.8326e-06
7.22879e-07
2.85891e-06
6.02544e-07
2.88168e-06
4.83197e-07
2.89962e-06
3.65998e-07
2.9172e-06
2.54437e-07
2.92134e-06
1.47218e-07
2.91299e-06
4.63166e-08
2.89412e-06
-4.40388e-08
2.86331e-06
-1.31875e-07
2.81672e-06
-2.07954e-07
2.74767e-06
-1.298e-07
-1.3764e-07
1.30265e-06
-1.25355e-07
1.32538e-06
-1.38939e-07
1.24294e-06
-1.20534e-07
1.30321e-06
-1.43273e-07
1.26632e-06
-1.41522e-07
1.19557e-06
-7.83179e-08
1.20996e-06
-1.10162e-07
1.15476e-06
-9.10854e-09
1.16021e-06
-4.96972e-08
1.31136e-08
1.59466e-06
5.87831e-08
1.58643e-06
1.22699e-07
1.57427e-06
1.95957e-07
1.55942e-06
2.85284e-07
1.54345e-06
3.96803e-07
1.52382e-06
5.26833e-07
1.50465e-06
6.76035e-07
1.48784e-06
8.52452e-07
1.47532e-06
1.04753e-06
1.46793e-06
1.29541e-06
1.48065e-06
1.64694e-06
1.53395e-06
2.0698e-06
1.59556e-06
2.47468e-06
1.64565e-06
2.79092e-06
1.6444e-06
2.94875e-06
1.56863e-06
2.95539e-06
1.43811e-06
2.89852e-06
1.2966e-06
2.85339e-06
1.1644e-06
2.84223e-06
1.0405e-06
2.85299e-06
9.2005e-07
2.87704e-06
7.98945e-07
2.90586e-06
6.7595e-07
2.93277e-06
5.51331e-07
2.95562e-06
4.2725e-07
2.97523e-06
3.08013e-07
2.98458e-06
1.91221e-07
2.97979e-06
8.04332e-08
2.96486e-06
-2.44037e-08
2.93803e-06
-1.18737e-07
2.89749e-06
-2.12625e-07
2.83665e-06
-1.46547e-07
-1.5038e-07
1.3458e-06
-1.50216e-07
1.37078e-06
-1.62621e-07
1.32436e-06
-1.60092e-07
1.22784e-06
-1.38422e-07
1.28827e-06
-1.65233e-07
1.25038e-06
-1.64066e-07
1.1717e-06
-8.98226e-08
1.18768e-06
-1.26158e-07
1.12516e-06
-1.00394e-08
1.131e-06
-5.55562e-08
1.03157e-08
1.60484e-06
5.01846e-08
1.60328e-06
1.12839e-07
1.59632e-06
1.82806e-07
1.58745e-06
2.70484e-07
1.57429e-06
3.82799e-07
1.55748e-06
5.11763e-07
1.53883e-06
6.6016e-07
1.52039e-06
8.34849e-07
1.50553e-06
1.03025e-06
1.49269e-06
1.2683e-06
1.49504e-06
1.59278e-06
1.53475e-06
2.0133e-06
1.59035e-06
2.42743e-06
1.64283e-06
2.77587e-06
1.66069e-06
2.98107e-06
1.61212e-06
3.02433e-06
1.49977e-06
2.9728e-06
1.36386e-06
2.91631e-06
1.23372e-06
2.89183e-06
1.11482e-06
2.89538e-06
9.98131e-07
2.91915e-06
8.77994e-07
2.95071e-06
7.54095e-07
2.98344e-06
6.25362e-07
3.01194e-06
4.95013e-07
3.03401e-06
3.68496e-07
3.05049e-06
2.42077e-07
3.04933e-06
1.21749e-07
3.03764e-06
7.67444e-09
3.01541e-06
-1.01748e-07
2.98058e-06
-2.01802e-07
2.92933e-06
-1.5242e-07
-1.52867e-07
1.39528e-06
-1.71047e-07
1.42202e-06
-1.77125e-07
1.34733e-06
-1.73187e-07
1.37271e-06
-1.88003e-07
1.31333e-06
-1.85155e-07
1.20838e-06
-1.59126e-07
1.27563e-06
-1.90488e-07
1.2333e-06
-1.88989e-07
1.14361e-06
-1.02441e-07
1.16166e-06
-1.44218e-07
1.09232e-06
-1.3709e-08
1.09842e-06
-6.1669e-08
7.07965e-09
1.60856e-06
4.00666e-08
1.61492e-06
9.97241e-08
1.61642e-06
1.65817e-07
1.61334e-06
2.55331e-07
1.60259e-06
3.66801e-07
1.59036e-06
4.96912e-07
1.57234e-06
6.45926e-07
1.55309e-06
8.19087e-07
1.53624e-06
1.01557e-06
1.5201e-06
1.24684e-06
1.51402e-06
1.55041e-06
1.53734e-06
1.96275e-06
1.5851e-06
2.38236e-06
1.6354e-06
2.75441e-06
1.66428e-06
3.00284e-06
1.63895e-06
3.08684e-06
1.54968e-06
3.04712e-06
1.42551e-06
2.9807e-06
1.29955e-06
2.94216e-06
1.1834e-06
2.93841e-06
1.07181e-06
2.95892e-06
9.5837e-07
2.99227e-06
8.36492e-07
3.03149e-06
7.06145e-07
3.06644e-06
5.7075e-07
3.09349e-06
4.35503e-07
3.11859e-06
3.00371e-07
3.12143e-06
1.69952e-07
3.11269e-06
4.68092e-08
3.09343e-06
-7.03171e-08
3.06526e-06
-1.86383e-07
3.0249e-06
-1.48624e-07
-1.48714e-07
1.44879e-06
-1.79181e-07
1.47543e-06
-1.79503e-07
1.39977e-06
-1.98113e-07
1.42784e-06
-2.0519e-07
1.34106e-06
-2.0092e-07
1.36996e-06
-2.1691e-07
1.30363e-06
-2.13161e-07
1.18507e-06
-1.82548e-07
1.26134e-06
-2.18533e-07
1.21355e-06
-2.17466e-07
1.11161e-06
-1.15643e-07
1.13153e-06
-1.64148e-07
1.05005e-06
-1.76775e-08
1.05985e-06
-7.14775e-08
2.87415e-09
1.60546e-06
2.81636e-08
1.62048e-06
8.33999e-08
1.63131e-06
1.48376e-07
1.63392e-06
2.39786e-07
1.62892e-06
3.50064e-07
1.61949e-06
4.8285e-07
1.60435e-06
6.31902e-07
1.58634e-06
8.03231e-07
1.56886e-06
1.00128e-06
1.55051e-06
1.23073e-06
1.53609e-06
1.52045e-06
1.54392e-06
1.91979e-06
1.58016e-06
2.34272e-06
1.62477e-06
2.73003e-06
1.65975e-06
3.01454e-06
1.65262e-06
3.13977e-06
1.58606e-06
3.12151e-06
1.47535e-06
3.04864e-06
1.35762e-06
2.99335e-06
1.24844e-06
2.97798e-06
1.14383e-06
2.99444e-06
1.03631e-06
3.03087e-06
9.19777e-07
3.0752e-06
7.92803e-07
3.11821e-06
6.54516e-07
3.155e-06
5.0933e-07
3.18743e-06
3.66688e-07
3.19652e-06
2.25264e-07
3.19099e-06
9.15711e-08
3.17364e-06
-3.32885e-08
3.1487e-06
-1.53716e-07
3.11895e-06
-1.41878e-07
-1.38508e-07
1.50334e-06
-1.76524e-07
1.52967e-06
-1.7504e-07
1.45741e-06
-2.08749e-07
1.48687e-06
-2.08964e-07
1.40066e-06
-2.28816e-07
1.43276e-06
-2.37286e-07
1.33461e-06
-2.31901e-07
1.36753e-06
-2.49835e-07
1.29291e-06
-2.44731e-07
1.1573e-06
-2.08321e-07
1.2444e-06
-2.49388e-07
1.18844e-06
-2.48609e-07
1.07493e-06
-1.30737e-07
1.09691e-06
-1.86137e-07
1.00444e-06
-2.24721e-08
1.01722e-06
-8.42716e-08
-2.7993e-09
1.59408e-06
1.49851e-08
1.61865e-06
6.40109e-08
1.63989e-06
1.2868e-07
1.65105e-06
2.19134e-07
1.65457e-06
3.30902e-07
1.64815e-06
4.66386e-07
1.63585e-06
6.16587e-07
1.61962e-06
7.88671e-07
1.60083e-06
9.89365e-07
1.58053e-06
1.22006e-06
1.56104e-06
1.50155e-06
1.5549e-06
1.88677e-06
1.57677e-06
2.31052e-06
1.61242e-06
2.70711e-06
1.6477e-06
3.02051e-06
1.6538e-06
3.184e-06
1.60843e-06
3.1916e-06
1.516e-06
3.11708e-06
1.40694e-06
3.04668e-06
1.30435e-06
3.01761e-06
1.20886e-06
3.02512e-06
1.11319e-06
3.06139e-06
1.00582e-06
3.11198e-06
8.83052e-07
3.16591e-06
7.45131e-07
3.21399e-06
5.95556e-07
3.25467e-06
4.42147e-07
3.27513e-06
2.88078e-07
3.27324e-06
1.43011e-07
3.25695e-06
8.14875e-09
3.23329e-06
-1.17787e-07
3.20812e-06
-1.26157e-07
-1.16661e-07
1.55708e-06
-1.69277e-07
1.58239e-06
-1.63801e-07
1.51717e-06
-2.06815e-07
1.54682e-06
-2.04687e-07
1.46586e-06
-2.41854e-07
1.49916e-06
-2.42262e-07
1.4023e-06
-2.6359e-07
1.43858e-06
-2.73564e-07
1.32792e-06
-2.66913e-07
1.36469e-06
-2.86611e-07
1.28022e-06
-2.80563e-07
1.12543e-06
-2.36844e-07
1.22407e-06
-2.85024e-07
1.16018e-06
-2.83361e-07
1.03312e-06
-1.46646e-07
1.05718e-06
-2.102e-07
9.51386e-07
-2.63586e-08
9.64565e-07
-9.74652e-08
-9.59094e-09
1.5684e-06
7.26005e-10
1.60833e-06
4.14953e-08
1.64124e-06
1.0628e-07
1.66231e-06
1.9458e-07
1.67558e-06
3.0995e-07
1.67547e-06
4.47383e-07
1.66697e-06
5.99588e-07
1.65277e-06
7.75314e-07
1.63292e-06
9.79603e-07
1.61053e-06
1.21397e-06
1.58674e-06
1.4936e-06
1.56879e-06
1.86681e-06
1.57467e-06
2.28831e-06
1.59901e-06
2.69036e-06
1.62917e-06
3.02453e-06
1.64371e-06
3.22218e-06
1.61565e-06
3.25831e-06
1.54181e-06
3.1867e-06
1.44647e-06
3.10019e-06
1.35349e-06
3.05363e-06
1.26839e-06
3.05147e-06
1.18255e-06
3.08427e-06
1.09039e-06
3.14024e-06
9.77576e-07
3.20426e-06
8.44682e-07
3.26646e-06
6.92659e-07
3.31978e-06
5.30547e-07
3.35594e-06
3.61497e-07
3.36153e-06
1.9979e-07
3.34662e-06
5.34277e-08
3.32113e-06
-7.97456e-08
3.29317e-06
-1.0563e-07
-9.70833e-08
1.60814e-06
-1.51884e-07
1.63277e-06
-1.41278e-07
1.57663e-06
-1.99075e-07
1.6059e-06
-1.93061e-07
1.53326e-06
-2.4091e-07
1.56812e-06
-2.39534e-07
1.47623e-06
-2.795e-07
1.51523e-06
-2.81265e-07
1.40439e-06
-3.03298e-07
1.44621e-06
-3.15382e-07
1.32005e-06
-3.0674e-07
1.36149e-06
-3.28054e-07
1.26448e-06
-3.20976e-07
1.08911e-06
-2.68781e-07
1.20082e-06
-3.25669e-07
1.12801e-06
-3.22263e-07
9.8435e-07
-1.6644e-07
1.01169e-06
-2.37546e-07
8.93003e-07
-3.01811e-08
9.07103e-07
-1.11578e-07
-1.76475e-08
1.52878e-06
-1.9231e-08
1.58838e-06
1.55913e-08
1.63425e-06
7.90364e-08
1.66845e-06
1.65733e-07
1.69117e-06
2.85413e-07
1.70014e-06
4.25273e-07
1.69757e-06
5.81294e-07
1.68525e-06
7.62081e-07
1.66589e-06
9.72061e-07
1.6404e-06
1.21281e-06
1.61161e-06
1.49502e-06
1.58516e-06
1.86089e-06
1.57466e-06
2.27746e-06
1.58556e-06
2.68247e-06
1.60688e-06
3.03114e-06
1.62259e-06
3.25866e-06
1.60721e-06
3.32288e-06
1.55114e-06
3.25849e-06
1.47008e-06
3.15699e-06
1.38974e-06
3.08847e-06
1.31874e-06
3.07072e-06
1.24914e-06
3.09827e-06
1.16839e-06
3.15972e-06
1.07084e-06
3.23312e-06
9.48766e-07
3.31082e-06
8.0032e-07
3.37821e-06
6.34237e-07
3.4354e-06
4.51182e-07
3.45597e-06
2.67293e-07
3.447e-06
9.9428e-08
3.41259e-06
-3.79829e-08
3.38437e-06
-8.858e-08
-8.23752e-08
1.65727e-06
-1.30106e-07
1.68401e-06
-1.2379e-07
1.63676e-06
-1.8273e-07
1.67078e-06
-1.75285e-07
1.60616e-06
-2.37112e-07
1.64992e-06
-2.36828e-07
1.55829e-06
-2.83966e-07
1.60964e-06
-2.90903e-07
1.49159e-06
-3.24888e-07
1.54479e-06
-3.34473e-07
1.40797e-06
-3.49782e-07
1.45989e-06
-3.67312e-07
1.30916e-06
-3.51425e-07
1.35963e-06
-3.78529e-07
1.24703e-06
-3.6719e-07
1.04739e-06
-3.04475e-07
1.17425e-06
-3.71911e-07
1.09104e-06
-3.65917e-07
9.29929e-07
-1.89272e-07
9.59887e-07
-2.67504e-07
8.28505e-07
-3.44138e-08
8.43683e-07
-1.26766e-07
-2.79082e-08
1.47302e-06
-4.60945e-08
1.55564e-06
-1.66855e-08
1.62067e-06
4.53877e-08
1.66789e-06
1.35072e-07
1.69909e-06
2.5684e-07
1.71976e-06
4.0076e-07
1.7244e-06
5.62957e-07
1.71581e-06
7.49578e-07
1.69764e-06
9.67997e-07
1.6697e-06
1.21681e-06
1.6361e-06
1.50503e-06
1.60154e-06
1.86777e-06
1.57817e-06
2.27847e-06
1.57372e-06
2.68521e-06
1.58275e-06
3.04422e-06
1.59379e-06
3.29585e-06
1.5854e-06
3.38719e-06
1.54288e-06
3.33381e-06
1.4759e-06
3.21865e-06
1.40851e-06
3.12506e-06
1.3532e-06
3.08574e-06
1.30375e-06
3.10259e-06
1.24503e-06
3.16192e-06
1.16621e-06
3.24816e-06
1.05578e-06
3.3458e-06
9.13772e-07
3.43191e-06
7.46621e-07
3.51036e-06
5.59298e-07
3.54994e-06
3.57138e-07
3.55517e-06
1.59315e-07
3.52422e-06
-1.21721e-08
3.48665e-06
-7.93221e-08
-6.08604e-08
1.71152e-06
-1.16055e-07
1.74635e-06
-1.17135e-07
1.70965e-06
-1.68948e-07
1.75794e-06
-1.72025e-07
1.70703e-06
-2.39855e-07
1.78253e-06
-2.50802e-07
1.68001e-06
-3.07536e-07
1.7849e-06
-3.41806e-07
1.61934e-06
-3.58574e-07
1.73578e-06
-4.07465e-07
1.52694e-06
-3.91982e-07
1.63534e-06
-4.42975e-07
1.41858e-06
-4.0875e-07
1.50222e-06
-4.51013e-07
1.30017e-06
-4.04574e-07
1.36594e-06
-4.44309e-07
1.2288e-06
-4.21736e-07
9.99527e-07
-3.44112e-07
1.14538e-06
-4.2625e-07
1.04903e-06
-4.15411e-07
8.68328e-07
-2.13918e-07
9.00832e-07
-3.00001e-07
7.56451e-07
-3.87907e-08
7.71251e-07
-1.41571e-07
-4.21016e-08
1.39446e-06
-8.05952e-08
1.50753e-06
-5.77525e-08
1.59672e-06
6.23888e-09
1.65983e-06
1.02299e-07
1.70067e-06
2.22977e-07
1.73292e-06
3.73018e-07
1.74735e-06
5.43278e-07
1.74404e-06
7.38338e-07
1.7269e-06
9.67508e-07
1.6979e-06
1.22729e-06
1.65922e-06
1.52453e-06
1.61654e-06
1.8864e-06
1.5827e-06
2.29299e-06
1.56347e-06
2.70003e-06
1.55869e-06
3.06672e-06
1.56022e-06
3.3372e-06
1.55241e-06
3.45362e-06
1.51901e-06
3.41278e-06
1.46397e-06
3.28632e-06
1.40833e-06
3.16628e-06
1.36736e-06
3.09988e-06
1.33917e-06
3.09762e-06
1.30868e-06
3.14934e-06
1.25763e-06
3.24202e-06
1.17234e-06
3.35764e-06
1.04392e-06
3.47354e-06
8.72121e-07
3.57637e-06
6.8055e-07
3.643e-06
4.66202e-07
3.66807e-06
2.4426e-07
3.65437e-06
2.9399e-08
3.61406e-06
-1.39376e-07
1.77538e-06
-1.08187e-07
1.83523e-06
-1.207e-07
1.8162e-06
-1.74158e-07
1.88825e-06
-1.88833e-07
1.88156e-06
-2.67892e-07
2.00075e-06
-2.90917e-07
1.93247e-06
-3.87524e-07
2.11745e-06
-4.357e-07
1.91658e-06
-4.88563e-07
2.15982e-06
-5.85266e-07
1.81808e-06
-5.41543e-07
2.0879e-06
-6.77666e-07
1.65321e-06
-5.43145e-07
1.91167e-06
-7.01808e-07
1.46805e-06
-5.10938e-07
1.66554e-06
-6.4874e-07
1.29837e-06
-4.74156e-07
1.4188e-06
-5.64802e-07
1.21565e-06
-4.91996e-07
9.44316e-07
-3.87581e-07
1.11833e-06
-4.95503e-07
1.00587e-06
-4.769e-07
7.96467e-07
-2.39127e-07
8.32534e-07
-3.36049e-07
6.77569e-07
-4.32176e-08
6.91233e-07
-1.55232e-07
-6.19187e-08
1.28591e-06
-1.25655e-07
1.43957e-06
-1.09297e-07
1.55907e-06
-4.1997e-08
1.64495e-06
5.97763e-08
1.70237e-06
1.79599e-07
1.74398e-06
3.39124e-07
1.76664e-06
5.22509e-07
1.76771e-06
7.30257e-07
1.75194e-06
9.72018e-07
1.72223e-06
1.24511e-06
1.67995e-06
1.55325e-06
1.63028e-06
1.91694e-06
1.58582e-06
2.32283e-06
1.55265e-06
2.72884e-06
1.53466e-06
3.10074e-06
1.52462e-06
3.38591e-06
1.5115e-06
3.52505e-06
1.48101e-06
3.49831e-06
1.43351e-06
3.36293e-06
1.38743e-06
3.21401e-06
1.3607e-06
3.11519e-06
1.3521e-06
3.08562e-06
1.35125e-06
3.1236e-06
1.33446e-06
3.21635e-06
1.28332e-06
3.34721e-06
1.18276e-06
3.49126e-06
1.02617e-06
3.62455e-06
8.23899e-07
3.73675e-06
5.86988e-07
3.78768e-06
3.46493e-07
3.79051e-06
1.08203e-07
3.76268e-06
-1.1859e-07
-2.01666e-06
4.04537e-06
-1.57436e-07
-1.71496e-07
1.96245e-06
-1.81822e-07
-1.73775e-07
2.13984e-06
-3.12602e-07
2.28916e-06
-3.37062e-07
2.32916e-06
-4.79242e-07
2.55177e-06
-5.12827e-07
2.44138e-06
-6.69183e-07
2.73379e-06
-7.28032e-07
2.41913e-06
-8.20234e-07
2.77109e-06
-9.37668e-07
2.26051e-06
-8.90989e-07
2.64833e-06
-1.06621e-06
1.98987e-06
-8.68032e-07
2.39325e-06
-1.10601e-06
1.65875e-06
-7.51132e-07
2.0305e-06
-1.02113e-06
1.34637e-06
-6.04877e-07
1.61797e-06
-8.36526e-07
1.24979e-06
-6.2337e-07
8.82531e-07
-4.37507e-07
1.12843e-06
-6.17854e-07
9.8753e-07
-5.81593e-07
7.1766e-07
-2.65534e-07
7.53652e-07
-3.71977e-07
5.91799e-07
-4.57773e-08
6.04293e-07
-1.6771e-07
-8.77562e-08
1.13511e-06
-1.82988e-07
1.34325e-06
-1.72738e-07
1.50299e-06
-1.01124e-07
1.61822e-06
6.71901e-09
1.69807e-06
1.30908e-07
1.75102e-06
3.02549e-07
1.78044e-06
5.03277e-07
1.78567e-06
7.27199e-07
1.77069e-06
9.83448e-07
1.74028e-06
1.27151e-06
1.69561e-06
1.59174e-06
1.64126e-06
1.95903e-06
1.58801e-06
2.36617e-06
1.54228e-06
2.77105e-06
1.51031e-06
3.14739e-06
1.48782e-06
3.44498e-06
1.46554e-06
3.60424e-06
1.43226e-06
3.59265e-06
1.38669e-06
3.45091e-06
1.34552e-06
3.27245e-06
1.32906e-06
3.13399e-06
1.34199e-06
3.06917e-06
1.36863e-06
3.08382e-06
1.39108e-06
3.16918e-06
1.38166e-06
3.31058e-06
1.31995e-06
3.48011e-06
1.19388e-06
3.65064e-06
1.00003e-06
3.81198e-06
7.48613e-07
3.90737e-06
4.67244e-07