/*--------------------------------*- C++ -*----------------------------------*\
  =========                 |
  \\      /  F ield         | OpenFOAM: The Open Source CFD Toolbox
   \\    /   O peration     | Website:  https://openfoam.org
    \\  /    A nd           | Version:  dev
     \\/     M anipulation  |
\*---------------------------------------------------------------------------*/
FoamFile
{
    version     2.0;
    format      ascii;
    class       volScalarField;
    location    "2500";
    object      qr;
}
// * * * * * * * * * * * * * * * * * * * * * * * * * * * * * * * * * * * * * //

dimensions      [1 0 -3 0 0 0 0];

internalField   uniform 0;

boundaryField
{
    lowerOutlet
    {
        type            calculated;
        value           nonuniform List<scalar> 
144
(
1103.47
1107.15
1111.22
1115.68
1120.55
1125.82
1131.51
1137.64
1144.21
1151.24
1158.76
1166.79
1175.36
1184.49
1194.22
1204.59
1215.65
1227.45
1240.05
1253.53
1267.96
1283.44
1300.09
1318.02
1337.43
1358.52
1381.48
1406.57
1434.1
1464.48
1498.2
1535.83
1578.12
1614.53
1667.65
1729.1
1800.85
1885.7
1987.84
2113.45
2272.34
2479.68
2761.11
3165.78
3773.68
4444.26
5050.94
5966.5
-8680.55
3463.28
2893.86
2535.93
2286.48
2081.79
1945
1837.42
1750.3
1678.5
1618.11
1566.44
1521.58
1482.17
1447.29
1408.35
1381.01
1356.15
1333.41
1312.54
1293.28
1275.43
1258.85
1243.39
1228.96
1215.47
1202.8
1190.88
1179.65
1169.05
1159.05
1149.6
1140.66
1132.21
1124.22
1116.66
1109.51
1102.76
1096.38
1090.36
1084.7
1079.37
1074.37
1069.7
1065.33
1061.28
1057.53
1054.09
2047.21
2187.93
2368.74
2608.75
2936.31
3591.87
4284.96
4899.38
5654.13
5169.28
3674.77
3009.16
2612.74
2341.48
2163.85
2009
1888.23
1791.66
1712.76
1647.07
1841.42
1934.28
3954.22
4598.96
5209.08
6245.01
4197.22
3288.76
2790.63
2465.66
2235.61
1591.32
1543.25
3417.17
4111.25
4749.98
5371.1
6470.7
3924.11
3139.51
2697.29
2401.04
1640.15
1697.22
1763.55
1501.26
1464.21
1431.3
)
;
    }
    top
    {
        type            calculated;
        value           nonuniform List<scalar> 
100
(
1004
1006.92
1009.86
1012.75
1015.61
1018.44
1010.85
1011.88
1013.61
1015.43
1017.21
1018.94
1020.65
1022.38
1024.14
1025.9
1027.68
1029.41
1031.06
1032.52
1032.84
1028.35
1016.32
1001.92
991.115
985.934
984.624
985.432
990.244
1001.2
1017.71
1032.48
1045.06
1053.51
1058.32
1061.14
1063.16
1064.8
1066.27
1067.6
1068.73
1069.65
1070.4
1071.04
1071.57
1071.99
1072.29
1072.41
1072.51
1072.47
1072.36
1072.17
1071.9
1071.54
1071.11
1070.58
1069.99
1069.33
1068.53
1067.71
1066.79
1065.79
1064.65
1063.45
1062.1
1060.6
1059.02
1057.33
1055.46
1053.52
1051.41
1049.24
1047.03
1044.75
1042.47
1040.45
1038.62
1037.5
1046.96
1044.21
1041.42
1038.6
1035.74
1032.86
1029.95
1027.02
1024.07
1021.11
1018.14
1015.16
1012.18
1006.06
1002.03
998
994.171
990.647
987.679
985.436
984.032
983.313
)
;
    }
    sides
    {
        type            calculated;
        value           nonuniform List<scalar> 
100
(
1103.48
1106.41
1108.96
1111.14
1112.95
1114.4
1115.49
1116.24
1116.65
1116.73
1116.49
1115.96
1115.14
1114.05
1112.7
1111.11
1109.29
1107.27
1105.04
1102.64
1100.08
1097.36
1094.51
1091.54
1088.46
1085.28
1082.02
1078.69
1075.3
1071.86
1068.38
1064.87
1061.33
1057.78
1054.23
1050.68
1047.14
1043.61
1040.1
1036.62
1033.18
1029.76
1026.38
1023.05
1019.75
1016.5
1013.3
1010.15
1007.04
1004.02
1054.1
1056.96
1059.54
1061.83
1063.84
1065.56
1067.01
1068.18
1069.09
1069.74
1070.13
1070.29
1070.21
1069.9
1069.38
1068.66
1067.74
1066.64
1065.37
1063.93
1062.34
1060.6
1058.74
1056.75
1054.65
1052.45
1050.15
1047.76
1045.29
1042.76
1040.15
1037.49
1034.78
1032.02
1029.23
1026.4
1023.54
1020.66
1017.75
1014.84
1011.91
1008.97
1006.02
1003.07
1000.12
997.162
994.209
991.258
988.309
985.399
)
;
    }
    front
    {
        type            empty;
    }
    back
    {
        type            empty;
    }
    roller
    {
        type            calculated;
        value           nonuniform List<scalar> 
144
(
5687.8
4227.13
3162.45
1657.57
1365.13
1318.09
1267.92
1218.5
1224.73
8222.57
8521.25
6380.35
6620.67
2850.84
2131.35
2231.37
1695.47
1531.03
1334.76
1293.35
1279.72
1259.25
1234.46
1232.85
5466.56
5810.82
5109.2
2616.8
2468.01
2022.29
2510.36
2396.12
1632.41
1399.48
1470.32
1390.71
1216
7867.65
6927.14
5135.82
6203.89
4147.69
3723.45
3387.54
3573.27
2322.5
1818.59
1768.44
1735.89
2027.7
1557.52
1441.48
1414.24
1352.09
1340.73
1329.7
1230.12
1230.32
7105.51
8649.85
7956.76
2147.69
1550.03
1474.09
1415.89
1504.11
1214.06
1216.31
1219
9318.4
9317.02
3753.93
2668.43
1968.15
1571.48
1926.32
1808.54
1491.4
1771.14
1665.76
1428.93
1633.18
1592.05
1375.37
1283.7
1252.09
1220.86
1225.07
1223.16
1227.39
1214.07
1215.63
1218.3
7486.79
7466.75
4581.87
4558.6
3932.4
2949.25
1889.66
2093.79
1529.38
1457.91
1319.92
1310.3
1304.12
1274.92
1258.97
1242.51
1236.93
1214.41
1217.02
1219.88
1221.36
9011.57
9210.22
9197.59
8966.06
4844.98
3435.87
3147.96
2257.56
2372.42
2799.29
1951.05
1601.21
1885.98
1846.71
1509.79
1734.78
1699.62
1442.88
1385.54
1369.05
1350.69
1301.8
1291.61
1266.82
1251.26
1241.52
1247
1214.55
1214.97
1217.66
)
;
    }
    burner
    {
        type            calculated;
        value           nonuniform List<scalar> 
16
(
-125097
-118930
-116031
-117159
-120200
-116435
-116366
-123698
-123416
-117887
-115863
-118466
-121718
-117056
-115958
-120498
)
;
    }
}


// ************************************************************************* //
