/*--------------------------------*- C++ -*----------------------------------*\
  =========                 |
  \\      /  F ield         | OpenFOAM: The Open Source CFD Toolbox
   \\    /   O peration     | Website:  https://openfoam.org
    \\  /    A nd           | Version:  dev
     \\/     M anipulation  |
\*---------------------------------------------------------------------------*/
FoamFile
{
    version     2.0;
    format      ascii;
    class       volScalarField;
    location    "2500";
    object      rAU;
}
// * * * * * * * * * * * * * * * * * * * * * * * * * * * * * * * * * * * * * //

dimensions      [-1 3 1 0 0 0 0];

internalField   nonuniform List<scalar> 
9836
(
0.00822069
0.00828713
0.0082382
0.00827212
0.00839951
0.00817528
0.00824842
0.00839295
0.00840368
0.00812262
0.00822552
0.00839278
0.00838795
0.0084154
0.00807332
0.00820852
0.00839607
0.00838008
0.00839742
0.00842465
0.00802781
0.00819582
0.00840454
0.00838044
0.0083824
0.00841146
0.00842879
0.00798583
0.00818312
0.0084136
0.00838643
0.00837314
0.00839533
0.008422
0.00843062
0.00794666
0.00816805
0.00842171
0.0083979
0.0083698
0.0083798
0.0084103
0.00842695
0.00843201
0.00791026
0.00815306
0.00842451
0.00841024
0.0083728
0.00836951
0.0083952
0.00842082
0.00842977
0.00843267
0.00787598
0.00814098
0.00842621
0.0084199
0.00838158
0.00836333
0.00837962
0.00841082
0.00842639
0.00843181
0.00843317
0.00784372
0.00813027
0.00842852
0.00842659
0.00839552
0.0083634
0.00836734
0.0083966
0.00842067
0.00842931
0.00843304
0.00843338
0.00781329
0.00811834
0.00843099
0.00843107
0.00840918
0.00836842
0.00836052
0.00838118
0.00841177
0.00842576
0.00843138
0.0084338
0.00843359
0.00778446
0.00810616
0.00843231
0.00843368
0.00841928
0.00837952
0.008357
0.00836795
0.00839899
0.00842102
0.00842915
0.00843292
0.00843422
0.00843387
0.00775718
0.00809329
0.00843287
0.00843492
0.00842597
0.00839427
0.00835819
0.00835864
0.00838411
0.00841323
0.00842604
0.00843154
0.00843408
0.00843478
0.00843396
0.00773133
0.00807953
0.00843215
0.00843564
0.00843036
0.00840826
0.00836525
0.00835241
0.00836967
0.00840207
0.00842182
0.00842925
0.00843328
0.00843475
0.00843517
0.00843407
0.00770688
0.00806704
0.00843104
0.00843603
0.00843285
0.0084185
0.00837815
0.00835016
0.00835771
0.00838823
0.00841507
0.00842654
0.00843167
0.00843444
0.00843536
0.00843547
0.00843419
0.0076838
0.00805639
0.00843111
0.00843599
0.00843446
0.00842466
0.0083942
0.00835317
0.00834965
0.00837255
0.00840564
0.00842306
0.00842964
0.00843352
0.00843534
0.00843583
0.00843572
0.00843421
0.00766207
0.00804706
0.00843313
0.00843627
0.00843533
0.00842933
0.00840796
0.00836254
0.00834485
0.00835867
0.00839202
0.00841763
0.00842766
0.0084321
0.00843479
0.00843603
0.00843614
0.00843603
0.00843412
0.00764159
0.00803458
0.00843614
0.00843636
0.00843571
0.00843181
0.00841782
0.00837751
0.00834443
0.00834829
0.00837663
0.0084088
0.00842471
0.00843063
0.00843398
0.00843584
0.00843643
0.00843655
0.00843624
0.00843415
0.00762249
0.00802216
0.00843616
0.00843648
0.00843613
0.00843328
0.00842435
0.00839415
0.00834924
0.00834231
0.00836116
0.00839661
0.00841953
0.00842899
0.00843308
0.00843533
0.00843652
0.00843686
0.00843693
0.00843642
0.00843418
0.00760477
0.00800958
0.00843611
0.00843669
0.0084362
0.00843412
0.00842835
0.0084073
0.00836044
0.00833833
0.00834961
0.00838169
0.00841174
0.00842607
0.00843206
0.00843505
0.00843644
0.00843708
0.00843737
0.00843721
0.00843654
0.00843421
0.00758849
0.00799707
0.0084363
0.00843661
0.00843654
0.00843458
0.00843047
0.00841686
0.00837625
0.00833964
0.00834032
0.00836646
0.00840098
0.00842107
0.00843024
0.00843446
0.00843658
0.00843719
0.00843763
0.00843785
0.0084373
0.00843664
0.00843414
0.00757372
0.00798464
0.00843624
0.00843663
0.00843639
0.00843501
0.00843249
0.0084223
0.00839331
0.00834554
0.00833546
0.00835196
0.00838775
0.0084147
0.008427
0.00843298
0.00843644
0.00843758
0.00843764
0.00843814
0.00843814
0.00843754
0.00843689
0.00843419
0.00756067
0.00797213
0.00843634
0.00843674
0.00843667
0.00843569
0.00843367
0.00842647
0.00840649
0.00835755
0.00833212
0.00834128
0.00837259
0.00840549
0.00842329
0.00843063
0.00843536
0.00843811
0.0084386
0.00843824
0.00843867
0.00843855
0.00843785
0.00843705
0.00843424
0.00754969
0.00795988
0.00843643
0.00843662
0.00843675
0.00843614
0.00843445
0.00842938
0.00841584
0.00837394
0.00833406
0.00833275
0.00835726
0.0083938
0.00841784
0.00842808
0.00843339
0.00843727
0.00843947
0.00843914
0.00843876
0.00843899
0.00843862
0.00843801
0.00843721
0.00843444
0.00753958
0.00794795
0.00843654
0.00843688
0.00843702
0.00843626
0.00843495
0.0084314
0.00842233
0.00839173
0.00834079
0.00832808
0.00834308
0.00837969
0.00841019
0.0084252
0.00843175
0.00843562
0.00843879
0.00844036
0.0084398
0.00843923
0.00843932
0.00843883
0.00843831
0.00843766
0.00843458
0.00742963
0.00793626
0.00843663
0.00843688
0.00843716
0.00843668
0.00843523
0.00843252
0.00842597
0.00840454
0.0083534
0.008325
0.00833296
0.00836413
0.0083996
0.00842099
0.00842961
0.00843428
0.00843728
0.00844009
0.00844124
0.00844034
0.00843958
0.00843951
0.00843912
0.00843866
0.00843784
0.0083104
0.00738512
0.0079248
0.00843665
0.00843699
0.00843727
0.00843682
0.00843576
0.00843386
0.00842905
0.00841399
0.00837025
0.00832727
0.00832472
0.00834877
0.00838726
0.00841456
0.00842746
0.00843291
0.00843619
0.0084388
0.00844101
0.00844194
0.00844075
0.00843992
0.00843976
0.00843952
0.00843887
0.0084382
0.00826361
0.00752136
0.0079138
0.00843667
0.00843707
0.00843744
0.00843741
0.00843628
0.0084343
0.00843079
0.00842035
0.00838717
0.00833419
0.00832007
0.00833468
0.00837237
0.00840575
0.00842397
0.00843157
0.00843542
0.00843789
0.00844001
0.00844194
0.00844259
0.00844105
0.00844011
0.00844014
0.00843984
0.00843902
0.00843849
0.00843395
0.00751915
0.00790249
0.0084366
0.00843727
0.00843766
0.00843758
0.00843681
0.00843482
0.00843249
0.00842448
0.00840078
0.00834669
0.00831725
0.00832477
0.00835632
0.00839424
0.0084186
0.00842957
0.00843432
0.00843705
0.0084391
0.0084409
0.00844262
0.00844311
0.00844148
0.00844036
0.00844029
0.00843996
0.00843911
0.00843863
0.00843329
0.00752075
0.00789129
0.00843683
0.00843737
0.0084378
0.00843792
0.00843752
0.00843588
0.00843363
0.00842775
0.00841015
0.00836291
0.0083195
0.00831679
0.00834069
0.00838088
0.00841125
0.00842668
0.00843304
0.00843623
0.00843862
0.00844017
0.00844164
0.00844316
0.00844334
0.00844185
0.00844059
0.00844041
0.00843989
0.008439
0.00843876
0.00843228
0.00752849
0.00788042
0.00843689
0.00843747
0.00843798
0.00843839
0.00843808
0.00843678
0.00843481
0.00843038
0.00841719
0.00838001
0.00832559
0.00831235
0.00832693
0.00836531
0.00840154
0.0084222
0.00843148
0.00843556
0.00843803
0.00843971
0.00844103
0.00844206
0.00844346
0.00844382
0.00844199
0.00844047
0.0084402
0.00843961
0.00843887
0.00843834
0.00843111
0.00753535
0.00787017
0.0084368
0.00843778
0.0084381
0.00843869
0.00843852
0.00843717
0.0084355
0.00843198
0.00842216
0.0083946
0.00833695
0.00830948
0.00831729
0.00834943
0.00838912
0.00841636
0.00842896
0.00843468
0.00843747
0.00843937
0.00844061
0.00844169
0.00844251
0.00844379
0.00844408
0.00844184
0.00844019
0.00843982
0.00843905
0.00843843
0.00843691
0.0084175
0.00660483
0.00816316
0.00786081
0.00843654
0.00843815
0.00843852
0.00843897
0.00843887
0.0084381
0.00843656
0.00843342
0.00842513
0.00840424
0.00835138
0.00831012
0.00831037
0.00833456
0.00837555
0.00840806
0.00842571
0.00843329
0.00843681
0.00843892
0.00844028
0.00844129
0.00844193
0.00844262
0.00844389
0.00844393
0.00844141
0.00843954
0.008439
0.00843827
0.00842207
0.00848872
0.0081792
0.00817972
0.00663294
0.00817091
0.0078527
0.00843631
0.00843829
0.00843874
0.00843923
0.00843921
0.00843856
0.00843745
0.00843491
0.008428
0.00841113
0.00836658
0.00831436
0.00830512
0.00832166
0.00836099
0.00839834
0.00842092
0.00843141
0.00843593
0.00843834
0.00844
0.00844108
0.00844169
0.00844201
0.00844279
0.00844379
0.00844332
0.00844061
0.00843849
0.00843769
0.00842067
0.0083402
0.00816209
0.00818302
0.00832707
0.00820028
0.00819384
0.00819843
0.00668969
0.00821539
0.00784433
0.00843636
0.00843825
0.00843879
0.00843958
0.00843924
0.00843883
0.00843804
0.00843576
0.00842972
0.00841638
0.00838099
0.00832223
0.00830111
0.0083111
0.00834593
0.00838661
0.00841549
0.00842926
0.00843517
0.00843774
0.00843944
0.00844063
0.00844135
0.00844166
0.008442
0.00844225
0.00844304
0.00844233
0.00843924
0.0084367
0.00841959
0.0081635
0.00816379
0.00815249
0.00820623
0.00819807
0.00821996
0.00823752
0.00824161
0.00674641
0.00825364
0.0078372
0.00843433
0.00843846
0.00843922
0.00844002
0.00843986
0.00843909
0.0084383
0.0084361
0.00843112
0.0084205
0.00839237
0.00833368
0.00829959
0.00830357
0.00833041
0.0083731
0.00840722
0.00842647
0.00843468
0.008438
0.00843931
0.00844012
0.00844082
0.00844125
0.00844154
0.00844122
0.00844135
0.00844184
0.00844071
0.00843734
0.0084187
0.00816884
0.00817386
0.00816545
0.00817467
0.00820147
0.00824759
0.00823086
0.00825643
0.00827495
0.00827695
0.00680136
0.00828421
0.00782876
0.00843141
0.00843857
0.00843937
0.00844016
0.00844016
0.00843937
0.00843889
0.0084369
0.00843245
0.00842282
0.00839949
0.00834524
0.00830046
0.00829785
0.0083179
0.00835862
0.00839657
0.0084214
0.00843328
0.00843836
0.0084403
0.00844089
0.00844085
0.0084407
0.00844068
0.00844085
0.00844012
0.0084398
0.00844015
0.00843903
0.00842059
0.00817825
0.00818092
0.00818339
0.00818747
0.00820909
0.00821447
0.00823493
0.00828074
0.00826338
0.00828629
0.00830594
0.00830619
0.00685765
0.0083082
0.00780768
0.00842517
0.00843868
0.00843955
0.00844061
0.00844038
0.00844018
0.00843946
0.00843764
0.00843319
0.00842441
0.00840466
0.00835669
0.00830359
0.00829268
0.00830684
0.00834476
0.00838576
0.00841495
0.00843011
0.00843728
0.00844056
0.00844191
0.00844213
0.00844127
0.00844027
0.00844006
0.00843942
0.00843863
0.00843823
0.00843883
0.00842313
0.00818834
0.00818987
0.00819312
0.00819295
0.0082177
0.00821885
0.00824145
0.00824603
0.00826586
0.0083084
0.00829188
0.00831139
0.00833099
0.00833102
0.00692201
0.00832786
0.00775023
0.00839717
0.00843877
0.00843987
0.00844104
0.00844059
0.00844062
0.00843994
0.00843784
0.00843393
0.0084257
0.00840785
0.008367
0.00830875
0.00828782
0.00819602
0.00833011
0.00837318
0.00840755
0.0084273
0.00843597
0.00843967
0.0084417
0.00844266
0.00844259
0.00844136
0.00843963
0.0084386
0.00843764
0.00843726
0.00843743
0.00842344
0.00818858
0.00818394
0.00820002
0.00819754
0.00822093
0.00821903
0.00824706
0.00824699
0.00826971
0.00827345
0.00829294
0.00833197
0.00831578
0.0083331
0.00835106
0.00835214
0.0069942
0.00834426
0.00775692
0.00831042
0.00843467
0.00844022
0.00844141
0.00844076
0.00844089
0.00844041
0.00843838
0.00843444
0.00842632
0.0084102
0.00837574
0.0083152
0.00828454
0.00818817
0.00831548
0.00835892
0.00839743
0.00842265
0.00843519
0.00844013
0.00844121
0.00844202
0.00844242
0.00844231
0.00844095
0.00843884
0.00843739
0.00843674
0.00843662
0.00842359
0.00817141
0.00817195
0.00819455
0.00818102
0.00822072
0.00820882
0.00824449
0.00823512
0.00827339
0.00826686
0.00829333
0.00829619
0.00831614
0.00835207
0.00833627
0.0083518
0.008367
0.00836966
0.00707732
0.00835908
0.00786272
0.00830753
0.00841673
0.00844042
0.00844148
0.00844084
0.0084411
0.00844041
0.00843859
0.00843434
0.00842642
0.00841194
0.00838229
0.00832209
0.00828285
0.00828251
0.00830299
0.00834437
0.00838543
0.00841536
0.00843199
0.00844018
0.00844282
0.00844273
0.00844196
0.00844127
0.00844102
0.00843954
0.00843845
0.00843758
0.00843746
0.00842572
0.00817342
0.00817818
0.00817001
0.00817469
0.008201
0.00819028
0.00821948
0.00819538
0.0082457
0.0082202
0.00828829
0.00825381
0.00831288
0.00830414
0.00833504
0.00836915
0.00835269
0.00836711
0.00838052
0.00838426
0.00716995
0.00837225
0.00788138
0.00843496
0.00841474
0.00844021
0.00844116
0.00844111
0.00844102
0.00844082
0.00843891
0.00843431
0.00842604
0.00841205
0.00836359
0.00813355
0.0082824
0.00827682
0.00829236
0.00833081
0.00837315
0.00840661
0.00842715
0.00843409
0.00844303
0.00844464
0.00844383
0.00844188
0.00843963
0.00843935
0.00844039
0.00844222
0.00844058
0.0084341
0.00818535
0.00812851
0.00817539
0.0081634
0.00818384
0.00816015
0.0081876
0.00816082
0.0081944
0.00816268
0.0082076
0.00817966
0.00826537
0.00820578
0.00831718
0.00827302
0.00833791
0.00838349
0.00835514
0.00837272
0.0083916
0.00839556
0.00727251
0.00838373
0.00790832
0.00843402
0.00843805
0.00843996
0.00844121
0.00844137
0.00844143
0.00844134
0.0084388
0.00843375
0.00842492
0.00841183
0.00836456
0.00805644
0.00828273
0.00827139
0.00828328
0.00831797
0.00836068
0.00839709
0.00842143
0.00843433
0.00843676
0.00844463
0.00844528
0.008444
0.00844128
0.00843936
0.00844371
0.00844724
0.0084467
0.00844356
0.00761662
0.00743585
0.00814589
0.00811598
0.00811333
0.00804705
0.0080988
0.00800605
0.00810349
0.00799995
0.00812332
0.00802033
0.00815574
0.0080751
0.00820973
0.00812591
0.00828122
0.00821015
0.00829896
0.00839141
0.00831681
0.00834463
0.00840063
0.00840199
0.00738626
0.00839385
0.00794581
0.00843191
0.00843689
0.00843903
0.00844032
0.00844099
0.00844166
0.00844104
0.00843843
0.00843292
0.00842354
0.00841032
0.00838605
0.00824888
0.00828277
0.00826591
0.0082752
0.00830534
0.0083482
0.0083868
0.00841462
0.00834764
0.00832074
0.00844235
0.00844479
0.00844434
0.00844357
0.00844306
0.00844905
0.00845203
0.00845048
0.0084451
0.00815376
0.00793422
0.00773843
0.00797852
0.00790854
0.00789834
0.00778544
0.00786757
0.00772409
0.00787787
0.00772008
0.00792973
0.00775561
0.00800943
0.00784747
0.00811852
0.00797072
0.00820184
0.00810118
0.00820844
0.00837601
0.00822384
0.00826632
0.00840792
0.00839566
0.00750912
0.00840221
0.00799696
0.0084275
0.00843447
0.00843757
0.00843892
0.00843936
0.008441
0.00844075
0.00843803
0.00843152
0.00842124
0.00840683
0.00838361
0.00833376
0.00828137
0.0082605
0.00826748
0.00829353
0.00833584
0.00837595
0.00840669
0.00829288
0.00826039
0.00830308
0.00844383
0.00844355
0.00844306
0.00844711
0.00845482
0.00845929
0.00845531
0.00844562
0.00828758
0.00771608
0.00765936
0.00783629
0.00775297
0.00767834
0.00758563
0.00758528
0.00746331
0.00757043
0.00744085
0.00759848
0.00747508
0.00766427
0.00752483
0.00778198
0.00761511
0.00794946
0.0077507
0.00809487
0.00794289
0.0081048
0.00830549
0.00812814
0.00816248
0.0084099
0.0083551
0.00763971
0.00840731
0.0080658
0.00841865
0.00842962
0.00843511
0.00843725
0.00843823
0.00843931
0.00843959
0.00843641
0.00842928
0.00841764
0.00840114
0.00837743
0.00833208
0.00827957
0.00825498
0.00825993
0.00828267
0.00832365
0.00836474
0.00839776
0.00836867
0.00817893
0.00839314
0.00842113
0.0084427
0.00844254
0.0084485
0.00845827
0.00846542
0.00846339
0.0084462
0.00824237
0.00761893
0.00757786
0.00732943
0.00727428
0.00749093
0.00739948
0.00736658
0.00730644
0.00734349
0.00727745
0.00738612
0.00732495
0.00744037
0.00739438
0.00750302
0.00744697
0.00759083
0.0075149
0.00775301
0.00760076
0.00794602
0.00776401
0.00797045
0.00821444
0.00800574
0.00805499
0.00838967
0.00825362
0.00777006
0.00840211
0.00816344
0.00840334
0.00841916
0.0084305
0.00843525
0.00843714
0.00843859
0.00839529
0.00838664
0.00842589
0.0084127
0.00839379
0.00836844
0.00832794
0.00827708
0.00824903
0.00825232
0.00827257
0.0083121
0.00835354
0.00838819
0.00841231
0.00830123
0.00843459
0.00843849
0.00844051
0.0084423
0.0084506
0.00846149
0.00846795
0.0084703
0.00845157
0.008183
0.0068085
0.00663265
0.00723307
0.00719545
0.00715191
0.00712403
0.0072469
0.00719054
0.00723801
0.00723111
0.00728996
0.00724038
0.00735787
0.00730522
0.00741233
0.0074027
0.007485
0.00749529
0.00753229
0.00753488
0.00762999
0.00757072
0.0077851
0.00764628
0.00782045
0.00810304
0.00786435
0.00792787
0.00833946
0.00818633
0.00787759
0.00837299
0.00818745
0.00839097
0.00840117
0.00842066
0.00843186
0.00843583
0.00843776
0.00838071
0.00835864
0.00842047
0.00840484
0.00838399
0.00835783
0.00831977
0.00827283
0.00824312
0.00824472
0.00826296
0.0083012
0.0083427
0.00837839
0.00840413
0.00841984
0.00842859
0.00843351
0.00843613
0.00843968
0.00845346
0.00846393
0.00847009
0.0084735
0.00845977
0.00821626
0.00783422
0.00679012
0.00660549
0.00710014
0.00707612
0.00713481
0.00711779
0.0072121
0.00716538
0.00720552
0.00719344
0.00726046
0.00717505
0.00742642
0.00743135
0.00751083
0.0075344
0.0075668
0.00762194
0.00757515
0.00763876
0.00760528
0.00762778
0.00767226
0.00762321
0.0077001
0.00800004
0.00773934
0.00779504
0.00824664
0.00806914
0.00788237
0.00826874
0.00824701
0.0083821
0.0083966
0.00842055
0.00843362
0.0084366
0.00842065
0.00840048
0.00841251
0.00839445
0.00837243
0.00834594
0.0083099
0.00826667
0.00823709
0.00823727
0.00825393
0.00829099
0.00833255
0.00836877
0.00839554
0.00841204
0.00842055
0.00842578
0.00842957
0.00843519
0.00845324
0.00846507
0.00847249
0.0084752
0.00846622
0.00829684
0.00804282
0.00716537
0.00712223
0.00706168
0.00704711
0.00710468
0.00709461
0.00709462
0.00707548
0.00717277
0.00712836
0.00708193
0.00700743
0.0074043
0.00736552
0.00759282
0.00764905
0.00769163
0.00774598
0.00771726
0.00779314
0.00769811
0.00780925
0.00766534
0.00776759
0.00764639
0.0076888
0.00766145
0.00786436
0.00767679
0.00746605
0.00815702
0.00795432
0.00780925
0.00821587
0.00819644
0.00836301
0.00838789
0.00842432
0.00843274
0.00842756
0.00841709
0.00840136
0.00838198
0.00835951
0.00833298
0.00829867
0.00825892
0.00823057
0.00822979
0.00824545
0.00828131
0.0083233
0.0083599
0.00838727
0.00840396
0.00841189
0.00841667
0.00842132
0.00843272
0.00845094
0.00846652
0.00847477
0.00847749
0.00847012
0.00840289
0.00830789
0.00657949
0.00635896
0.00707775
0.00701515
0.00709558
0.0070927
0.0070946
0.00711684
0.00726362
0.00724631
0.00702355
0.00706208
0.00730916
0.00725015
0.00766658
0.00768487
0.00776511
0.00775442
0.00784011
0.00784091
0.00788968
0.00709813
0.00788905
0.00728641
0.00781592
0.00740027
0.0077146
0.00753486
0.00742419
0.00747483
0.00739414
0.00519277
0.00546441
0.00805529
0.007572
0.00723392
0.00818054
0.00815112
0.00834586
0.00839986
0.00842412
0.00841769
0.00840464
0.00838751
0.00836797
0.00834558
0.00831932
0.00828709
0.00825037
0.00822382
0.00822261
0.00823761
0.00827232
0.0083149
0.00835222
0.00838012
0.00839721
0.00840471
0.00840953
0.00841312
0.00842596
0.00844102
0.00845952
0.0084725
0.00847938
0.00847352
0.00841261
0.00828968
0.00797069
0.00670853
0.00645428
0.0071728
0.0071678
0.00714655
0.00716602
0.00726734
0.00729108
0.00757008
0.00755706
0.00728151
0.00733643
0.00769589
0.00768563
0.00773394
0.00771711
0.00780168
0.00773304
0.0069248
0.0076154
0.00701597
0.00758508
0.00688374
0.0073025
0.00729444
0.0073738
0.00758482
0.0053248
0.00573502
0.00545409
0.00529173
0.00536255
0.00556716
0.00525906
0.00518402
0.00528184
0.00552993
0.00514845
0.00772617
0.00540756
0.00541637
0.00578859
0.00775091
0.00796075
0.00812222
0.00837204
0.00840903
0.00840391
0.00838932
0.00837249
0.00835314
0.00833114
0.00830551
0.00827493
0.00824145
0.00821709
0.00821598
0.00823044
0.00826414
0.00830747
0.00834572
0.00837439
0.00839256
0.00840136
0.00840355
0.00840892
0.00841178
0.00841621
0.00842951
0.00844877
0.00846621
0.00847511
0.00843783
0.00829599
0.00824256
0.00695652
0.00660848
0.00711592
0.00706359
0.00730746
0.00729665
0.00730969
0.00731414
0.00754785
0.00754386
0.00762902
0.007613
0.00766373
0.00764572
0.00769232
0.00765366
0.0076554
0.00758912
0.00766598
0.00753118
0.00775438
0.00759969
0.00752034
0.00744143
0.00545519
0.00508999
0.00539305
0.00526886
0.00534247
0.00558389
0.0057564
0.00558249
0.00565865
0.00590325
0.00543505
0.00557818
0.0056252
0.0054353
0.00513575
0.00514042
0.00522775
0.00538069
0.00542026
0.00520812
0.00556492
0.00614778
0.00572576
0.00516736
0.00521709
0.00708376
0.00585193
0.00625281
0.00696954
0.00817186
0.00838363
0.008387
0.008374
0.00835718
0.00833887
0.00831697
0.00829185
0.00826284
0.00823209
0.00821035
0.00820989
0.00822404
0.00825701
0.00830082
0.00834002
0.00836984
0.00838947
0.00839917
0.00840405
0.00839793
0.00839389
0.00829755
0.00837914
0.00841252
0.00842467
0.00845366
0.00844428
0.00833564
0.0082025
0.00791532
0.00714112
0.00646226
0.00721889
0.00715368
0.00743615
0.00738414
0.0075226
0.00748371
0.00760433
0.0075884
0.00756488
0.00754973
0.00761611
0.00758747
0.00752255
0.00745896
0.00742503
0.00735118
0.00746444
0.00739441
0.00733587
0.00731356
0.00512883
0.00502549
0.00500683
0.00511977
0.00542174
0.00528681
0.00513619
0.00566384
0.00573254
0.00547008
0.00552348
0.00565485
0.00573957
0.00561225
0.00576812
0.00579369
0.00560793
0.00517195
0.00515139
0.00535818
0.00558653
0.00554932
0.00530613
0.00531475
0.00545037
0.00515337
0.00517929
0.00636276
0.00637541
0.00724498
0.0055565
0.00560241
0.00839628
0.00836403
0.00835854
0.00834407
0.0083255
0.00830449
0.00827935
0.00825175
0.0082233
0.00820371
0.00820433
0.00821861
0.00825117
0.00829523
0.00833546
0.00836622
0.00838753
0.00839693
0.00839942
0.00838209
0.00829681
0.0082164
0.00810928
0.0080747
0.00805932
0.00815561
0.00842907
0.00836374
0.00822611
0.00832114
0.00713616
0.00670286
0.00713703
0.00704094
0.00729587
0.00718802
0.00745103
0.00739456
0.00755295
0.00750565
0.00753798
0.0075073
0.00736522
0.0073581
0.00741291
0.00738226
0.00728919
0.00723802
0.00736273
0.00733923
0.0073063
0.00730568
0.00513708
0.00525403
0.00529114
0.0053772
0.0050344
0.00504598
0.00513755
0.0052585
0.00530938
0.00517553
0.00511048
0.00576436
0.00569138
0.00536423
0.00541782
0.00556924
0.00584788
0.00577236
0.00587274
0.00582039
0.00577486
0.00525004
0.00520529
0.00551494
0.00575394
0.00573002
0.00544021
0.00525967
0.00535587
0.00517937
0.00518351
0.00632524
0.00637919
0.00714583
0.00494901
0.00561423
0.0083407
0.00834078
0.00833055
0.00831489
0.00829319
0.00826887
0.00824206
0.0082164
0.00819848
0.00819987
0.00821449
0.00824732
0.00829146
0.00833276
0.0083647
0.00838653
0.00839598
0.00839059
0.00835794
0.00830875
0.00816153
0.00805697
0.00783896
0.00766784
0.00776546
0.00840614
0.0083949
0.00825709
0.00825896
0.00786427
0.00687168
0.00641002
0.00713725
0.00702822
0.00733185
0.00723821
0.00735734
0.00730207
0.00746366
0.00741333
0.00733991
0.00730191
0.00717311
0.00716659
0.00720239
0.00718064
0.00730534
0.00726428
0.00742232
0.0072076
0.00538781
0.00543799
0.00541959
0.00585342
0.00533996
0.00544872
0.00550791
0.005574
0.00515945
0.00527928
0.00541062
0.00551834
0.0052197
0.00518461
0.00526804
0.00573104
0.00561838
0.00528149
0.00533478
0.00547804
0.00588562
0.00588789
0.00591838
0.00579935
0.00590609
0.00536567
0.00529631
0.00568417
0.00590206
0.00589987
0.00559809
0.00522949
0.00503224
0.00523706
0.00521865
0.00627623
0.00649839
0.00676114
0.00525487
0.00565977
0.00828234
0.00831654
0.00830276
0.00828359
0.00825864
0.00823278
0.00820932
0.00819502
0.00819705
0.00821244
0.00824542
0.00828998
0.00833198
0.00836549
0.0083879
0.00839664
0.00838517
0.00833583
0.00825557
0.0081722
0.00809104
0.00803406
0.00783374
0.0076558
0.00820827
0.00838826
0.00771688
0.00819719
0.00797781
0.00683357
0.00636925
0.00696412
0.00684084
0.00713392
0.00707182
0.00724773
0.00719362
0.00715826
0.00710901
0.00725932
0.00721021
0.00713735
0.00709723
0.00716209
0.00714215
0.0072163
0.00717823
0.00722756
0.00730176
0.00756202
0.00736225
0.00559393
0.00561499
0.00496556
0.00528798
0.00562422
0.00570262
0.00577219
0.00580297
0.00540117
0.00554044
0.00566297
0.00576594
0.00524295
0.00534682
0.00549952
0.00567063
0.00554002
0.00529056
0.00532086
0.00540251
0.00586868
0.0059545
0.00591742
0.0057523
0.00599138
0.00550866
0.0054125
0.0058465
0.00601867
0.00603524
0.00576737
0.00521145
0.00525375
0.00532655
0.00526588
0.00638558
0.00498371
0.00660121
0.00536711
0.00562662
0.00822113
0.00829127
0.00827206
0.00824854
0.00822271
0.00820047
0.00818942
0.00819466
0.00821127
0.00824536
0.00828952
0.0083323
0.00836671
0.00839018
0.00839958
0.00838535
0.00832431
0.00821937
0.00810247
0.00804461
0.00806353
0.00806447
0.00790626
0.00794241
0.00835178
0.00743287
0.00819105
0.00708546
0.00760816
0.00675162
0.00636892
0.00688749
0.00684205
0.00696659
0.00692647
0.00706026
0.00701225
0.00695483
0.00690599
0.00705531
0.00700499
0.00710045
0.00705096
0.00722177
0.00725034
0.00720566
0.00715795
0.00729165
0.00722042
0.00560887
0.00552541
0.0054259
0.00546161
0.00582995
0.00582665
0.00580429
0.00573685
0.00585126
0.00591262
0.00594335
0.00593988
0.00563419
0.00576336
0.00586929
0.00595173
0.00538854
0.00555756
0.00570186
0.00560971
0.00547599
0.00540616
0.0053982
0.00537219
0.00582487
0.00598063
0.0058946
0.00570221
0.0060377
0.00566836
0.00554481
0.0059969
0.00610549
0.00613827
0.00593848
0.00521034
0.00523135
0.00543701
0.00531741
0.00638882
0.00636122
0.00661513
0.00530628
0.00561415
0.00815786
0.00826359
0.00823773
0.00821268
0.00819138
0.0081817
0.00818947
0.00820933
0.00824507
0.00828925
0.00833193
0.00836764
0.00839129
0.00840283
0.00838973
0.00832309
0.0082019
0.00805657
0.00800065
0.00803201
0.00808225
0.00813995
0.00802028
0.00816125
0.00786314
0.0082093
0.00690584
0.00710079
0.00646135
0.00617236
0.00657644
0.00655376
0.0066653
0.0066138
0.00676525
0.00671713
0.00685629
0.0068099
0.00686711
0.00680977
0.00699417
0.00692925
0.00732516
0.00730605
0.0071448
0.00723559
0.00709845
0.00703101
0.00544011
0.00591132
0.0073623
0.00552243
0.00552697
0.00558485
0.00555089
0.00591487
0.00584554
0.00573865
0.00564345
0.00600734
0.00602779
0.00600306
0.0059405
0.0058198
0.00593146
0.00601331
0.00606342
0.00556645
0.00572663
0.00584758
0.00556266
0.00543467
0.00554332
0.00548231
0.00537557
0.00578442
0.00597804
0.00586875
0.00567007
0.00606717
0.00582829
0.00569396
0.00613866
0.00616879
0.00623488
0.00609361
0.0052323
0.00520965
0.00554772
0.00538109
0.00620478
0.00626486
0.00714451
0.00527091
0.00557928
0.00809203
0.00823243
0.00820347
0.00818262
0.00817476
0.00818319
0.00820575
0.00824362
0.00828833
0.00833103
0.00836739
0.00839245
0.00840452
0.00839718
0.00833097
0.00819988
0.00803252
0.00797601
0.00801918
0.00808649
0.00814529
0.00818877
0.00811461
0.00802881
0.00816435
0.00756583
0.00700032
0.00765359
0.00628638
0.00606832
0.00636758
0.00632983
0.00645823
0.0064067
0.00661045
0.00652983
0.00674776
0.00668277
0.00712034
0.00703007
0.00726501
0.00720123
0.00751867
0.00761336
0.00700611
0.00708554
0.00716894
0.0073682
0.00560578
0.00610721
0.0056779
0.00569682
0.0055983
0.00561621
0.00564633
0.00563876
0.00585506
0.00573016
0.00563087
0.00561506
0.00607687
0.00604449
0.00596668
0.00586711
0.00594423
0.00603472
0.00608774
0.0061027
0.00569553
0.00583182
0.00592694
0.00553933
0.00542613
0.00562889
0.00552337
0.005415
0.00576077
0.00597944
0.00586528
0.00565999
0.00609986
0.00599124
0.00584408
0.00626474
0.00623225
0.00632573
0.00623837
0.00526974
0.00519164
0.00565168
0.00546284
0.00629669
0.0072272
0.0073756
0.00526362
0.00570986
0.00802233
0.00820071
0.0081753
0.00816694
0.00817815
0.00820193
0.00824198
0.00828688
0.0083294
0.00836662
0.00839355
0.00840653
0.00840417
0.00835016
0.00821154
0.00802901
0.0079629
0.00801081
0.00807737
0.00816469
0.00820188
0.00823012
0.0081258
0.00815638
0.00813257
0.00774346
0.00796135
0.00622037
0.00614587
0.00608238
0.00603046
0.00620651
0.00613894
0.00635458
0.00627698
0.00662753
0.00647464
0.00691632
0.00677914
0.00743811
0.00731992
0.00761462
0.0075405
0.00771185
0.00781261
0.0064995
0.00700545
0.00573939
0.00618969
0.00728286
0.00565163
0.00568521
0.00565403
0.0056684
0.00564559
0.00563351
0.00561149
0.0056277
0.00576271
0.00566403
0.00564154
0.00565952
0.00607246
0.00600147
0.00590387
0.00580204
0.00600363
0.00607656
0.0061085
0.00609361
0.00575715
0.00586468
0.00593953
0.00554118
0.00543693
0.00564003
0.00548866
0.0054267
0.00576697
0.00600463
0.00590243
0.00567702
0.00615839
0.00614796
0.00598556
0.00638162
0.00630275
0.00641738
0.00637474
0.00530682
0.00520036
0.00576059
0.00555353
0.00649686
0.00698419
0.00757332
0.00537809
0.00590681
0.00795123
0.00817387
0.00816073
0.00817083
0.00819887
0.0082404
0.00828513
0.00832689
0.00836454
0.00839345
0.00840854
0.00840998
0.0083728
0.00824313
0.00804319
0.00795829
0.00797163
0.00798318
0.00794776
0.0082056
0.00823583
0.00824803
0.00813413
0.00826358
0.00808701
0.00793611
0.00766611
0.00586765
0.00581501
0.00596133
0.00590374
0.0061654
0.00604036
0.00649186
0.00632813
0.00682914
0.00665663
0.00717163
0.00700404
0.00766574
0.0075317
0.00784731
0.00778871
0.00793754
0.00793062
0.0051876
0.00646203
0.00786788
0.00571143
0.00618847
0.00499932
0.0057139
0.00560268
0.00562679
0.00555987
0.00555725
0.00560579
0.00556785
0.00555909
0.00557478
0.00572184
0.00568044
0.00567667
0.0056655
0.00603759
0.00595815
0.00586122
0.00577558
0.00601051
0.00608186
0.00609927
0.00607414
0.00574245
0.00582675
0.00590189
0.00557288
0.00547456
0.0055658
0.00542445
0.0054261
0.00581691
0.00606794
0.00598687
0.00573895
0.00624632
0.0062941
0.00611866
0.00649719
0.00639443
0.00652364
0.00650156
0.00535059
0.00530342
0.00588544
0.00564789
0.00678605
0.00596845
0.00790746
0.00556805
0.00617
0.00788351
0.00814925
0.00816456
0.00819316
0.00823816
0.00828319
0.00817037
0.0083598
0.0083914
0.0084095
0.00841285
0.00839295
0.00828559
0.00808142
0.0079374
0.00795448
0.00795121
0.00761275
0.00759109
0.0082073
0.00808501
0.00802281
0.0081141
0.00821263
0.00797257
0.00795519
0.00599096
0.0060032
0.00581599
0.00578087
0.00598685
0.00587541
0.00629787
0.00612931
0.00668393
0.00648789
0.00704066
0.00686926
0.00737346
0.00720837
0.00777074
0.00756372
0.00792143
0.00789317
0.00780377
0.00801348
0.0051647
0.00613405
0.0060089
0.00619711
0.0055989
0.00567656
0.00525031
0.00561362
0.00554108
0.00555687
0.00551195
0.00549737
0.00535224
0.00530404
0.00531084
0.00528318
0.00567736
0.00556301
0.0054581
0.0054201
0.00601827
0.00593365
0.0058217
0.00560117
0.00587264
0.00594534
0.00602901
0.0060901
0.00565299
0.00552863
0.00545864
0.00565165
0.00556671
0.00529108
0.00512385
0.00546484
0.0059192
0.00617937
0.00613126
0.0058613
0.00636802
0.00643498
0.00625371
0.00660966
0.00651626
0.006641
0.00663821
0.00545394
0.00549122
0.00603505
0.0057708
0.00718699
0.00490303
0.00801395
0.00578038
0.00651569
0.00781604
0.00811195
0.00818647
0.00823333
0.00827975
0.00811988
0.0078279
0.00833136
0.00839412
0.00841493
0.00840544
0.00833057
0.00813918
0.00792771
0.00787989
0.00807097
0.00797113
0.00773747
0.00775347