/*--------------------------------*- C++ -*----------------------------------*\
  =========                 |
  \\      /  F ield         | OpenFOAM: The Open Source CFD Toolbox
   \\    /   O peration     | Website:  https://openfoam.org
    \\  /    A nd           | Version:  dev
     \\/     M anipulation  |
\*---------------------------------------------------------------------------*/
FoamFile
{
    version     2.0;
    format      ascii;
    class       volScalarField;
    location    "2500";
    object      rho;
}
// * * * * * * * * * * * * * * * * * * * * * * * * * * * * * * * * * * * * * //

dimensions      [1 -3 0 0 0 0 0];

internalField   nonuniform List<scalar> 
9836
(
1.17172
1.17155
1.17164
1.17149
1.17119
1.17166
1.17151
1.17103
1.1712
1.17173
1.17154
1.17098
1.17088
1.17129
1.1718
1.17164
1.17099
1.17067
1.1709
1.17137
1.17181
1.17161
1.17096
1.17056
1.17057
1.17103
1.17147
1.17184
1.17163
1.17109
1.17052
1.1704
1.17062
1.17112
1.17156
1.17185
1.17168
1.17111
1.17052
1.17026
1.17039
1.17079
1.17126
1.17158
1.17187
1.17172
1.17121
1.17061
1.1702
1.17014
1.17043
1.17091
1.17133
1.17163
1.17189
1.17172
1.17121
1.17072
1.17024
1.17003
1.17018
1.17055
1.17101
1.17135
1.17165
1.17189
1.17171
1.17125
1.17084
1.17024
1.16994
1.16996
1.17031
1.17069
1.17112
1.1714
1.17168
1.1719
1.17173
1.17133
1.17087
1.17029
1.16996
1.1698
1.17
1.17041
1.17086
1.17119
1.17144
1.1717
1.17191
1.17174
1.17136
1.1709
1.1704
1.16996
1.1697
1.1698
1.17013
1.17054
1.17093
1.17123
1.17148
1.1717
1.17193
1.17174
1.17136
1.17097
1.17053
1.17003
1.16968
1.1696
1.16988
1.17026
1.17067
1.17099
1.17124
1.17149
1.17172
1.17193
1.17177
1.17141
1.17102
1.17059
1.17009
1.1697
1.16953
1.16966
1.17
1.17038
1.17077
1.17104
1.17128
1.17151
1.17173
1.17194
1.17178
1.17141
1.17106
1.17067
1.1702
1.16977
1.16948
1.16949
1.16976
1.17013
1.17051
1.17083
1.17108
1.17131
1.17153
1.17173
1.17194
1.17178
1.17143
1.17114
1.17072
1.17037
1.16983
1.1695
1.16938
1.16953
1.16988
1.17024
1.17061
1.17089
1.17111
1.17134
1.17155
1.17174
1.17194
1.17177
1.17145
1.17115
1.17077
1.17039
1.16989
1.16952
1.16929
1.16938
1.16964
1.17001
1.17037
1.17067
1.17093
1.17114
1.17136
1.17156
1.17176
1.17195
1.1718
1.17149
1.17118
1.17084
1.17047
1.17002
1.16958
1.16928
1.16923
1.16944
1.16974
1.17015
1.17049
1.17072
1.17096
1.17118
1.17138
1.17157
1.17176
1.17194
1.17179
1.1715
1.17121
1.17088
1.17054
1.1701
1.16967
1.1693
1.16915
1.16927
1.16952
1.16991
1.17027
1.17055
1.17077
1.171
1.17121
1.17139
1.17157
1.17177
1.17195
1.17181
1.17153
1.17121
1.17095
1.1706
1.17019
1.16975
1.16934
1.16911
1.1691
1.16933
1.16966
1.17003
1.17035
1.17059
1.17081
1.17103
1.17122
1.1714
1.17159
1.17176
1.17194
1.17181
1.17152
1.17126
1.17097
1.17068
1.17033
1.16987
1.16942
1.1691
1.16901
1.16914
1.16945
1.16984
1.17012
1.17043
1.17063
1.17084
1.17104
1.17123
1.17143
1.1716
1.17178
1.17195
1.1718
1.17155
1.17128
1.17104
1.17075
1.17035
1.17006
1.1695
1.16913
1.16895
1.16897
1.16923
1.16959
1.16993
1.17023
1.17048
1.17069
1.17089
1.17106
1.17125
1.17143
1.1716
1.17177
1.17195
1.17182
1.17156
1.17129
1.17105
1.17077
1.1704
1.17015
1.16954
1.16918
1.16893
1.16888
1.16904
1.16938
1.16971
1.17003
1.17028
1.17052
1.1707
1.1709
1.17107
1.17124
1.17142
1.1716
1.17177
1.17194
1.17182
1.17157
1.17133
1.17108
1.17081
1.17046
1.17022
1.16967
1.16927
1.16893
1.16881
1.1689
1.16915
1.1695
1.16987
1.17011
1.17033
1.17054
1.17075
1.17091
1.17109
1.17126
1.17143
1.1716
1.17178
1.17194
1.17182
1.17157
1.17133
1.17109
1.17087
1.17052
1.17027
1.16975
1.16929
1.16894
1.16877
1.16878
1.16897
1.16929
1.16963
1.16993
1.17017
1.17038
1.17059
1.17076
1.17092
1.17109
1.17127
1.17143
1.1716
1.17177
1.17194
1.17182
1.17158
1.17135
1.17111
1.17088
1.1706
1.17035
1.16993
1.16942
1.16901
1.16876
1.16869
1.16881
1.16911
1.16942
1.16977
1.17
1.17024
1.17042
1.17061
1.17077
1.17093
1.17111
1.17127
1.17143
1.1716
1.17176
1.17194
1.17183
1.17159
1.17137
1.17113
1.17093
1.17064
1.17034
1.16999
1.16952
1.1691
1.16879
1.16864
1.16868
1.16887
1.1692
1.16955
1.16983
1.17007
1.17027
1.17046
1.17062
1.17079
1.17094
1.1711
1.17127
1.17143
1.17159
1.17175
1.17193
1.17182
1.1716
1.17139
1.17115
1.17092
1.17067
1.17043
1.1701
1.16964
1.16925
1.16882
1.16863
1.16859
1.16871
1.16903
1.16932
1.16964
1.16988
1.17011
1.17029
1.17047
1.17063
1.17081
1.17094
1.1711
1.17126
1.17142
1.17158
1.17175
1.17193
1.17183
1.17163
1.1714
1.17117
1.17097
1.17072
1.1705
1.17014
1.16976
1.16931
1.16889
1.16862
1.16852
1.16859
1.16885
1.16917
1.16945
1.16973
1.16997
1.17016
1.17033
1.17048
1.17064
1.1708
1.17095
1.17111
1.17125
1.17141
1.17157
1.17174
1.17193
1.17184
1.17161
1.17142
1.17119
1.17099
1.17073
1.17051
1.17021
1.16983
1.16939
1.16897
1.16862
1.16849
1.1685
1.16866
1.16896
1.16927
1.16956
1.16982
1.17
1.17019
1.17034
1.1705
1.17067
1.17079
1.17094
1.17109
1.17124
1.1714
1.17155
1.17173
1.17192
1.17182
1.17161
1.17144
1.17121
1.17099
1.17075
1.17052
1.17025
1.16989
1.16949
1.16906
1.16868
1.16847
1.16842
1.16853
1.16878
1.16911
1.16938
1.16964
1.16985
1.17004
1.17021
1.17037
1.17052
1.17066
1.17079
1.17094
1.17108
1.17122
1.17138
1.17154
1.17171
1.17191
1.17183
1.17162
1.17145
1.17124
1.17101
1.17078
1.17058
1.17032
1.16998
1.16956
1.16915
1.16872
1.16849
1.16837
1.16843
1.16862
1.16891
1.16922
1.16946
1.16969
1.16989
1.17008
1.17022
1.17037
1.17052
1.17065
1.17079
1.17092
1.17106
1.1712
1.17135
1.17152
1.1717
1.17201
1.17189
1.17183
1.17165
1.17143
1.17123
1.17103
1.17081
1.17057
1.17032
1.17002
1.16969
1.16924
1.16882
1.16851
1.16834
1.16833
1.16849
1.16872
1.16902
1.16929
1.16954
1.16974
1.16994
1.1701
1.17024
1.17038
1.17054
1.17065
1.17079
1.17092
1.17104
1.17118
1.17133
1.17154
1.17177
1.17166
1.17201
1.17188
1.17183
1.17166
1.17144
1.17125
1.17104
1.17083
1.1706
1.17034
1.17003
1.16973
1.16933
1.16891
1.16854
1.16833
1.16827
1.16837
1.16859
1.16887
1.16913
1.16938
1.1696
1.16978
1.16995
1.17011
1.17025
1.17038
1.17052
1.17065
1.17077
1.17089
1.17102
1.17115
1.17136
1.17128
1.17156
1.17142
1.17145
1.17177
1.17165
1.17201
1.17187
1.17184
1.17164
1.17146
1.17128
1.17106
1.17089
1.17063
1.17035
1.17008
1.16984
1.16944
1.16902
1.1686
1.16834
1.16823
1.16826
1.16845
1.16868
1.16899
1.16923
1.16946
1.16964
1.16982
1.16998
1.17013
1.17026
1.1704
1.17052
1.17064
1.17075
1.17086
1.17099
1.17119
1.1711
1.17131
1.17154
1.17135
1.17143
1.17175
1.17163
1.172
1.17187
1.17183
1.17164
1.17145
1.17126
1.17106
1.17087
1.17067
1.1704
1.17014
1.16987
1.16943
1.16911
1.16862
1.16836
1.16821
1.16818
1.1683
1.16853
1.16881
1.16909
1.1693
1.16951
1.1697
1.16985
1.17
1.17014
1.1703
1.1704
1.1705
1.17061
1.17072
1.17083
1.17101
1.17093
1.17121
1.1711
1.17125
1.17151
1.17132
1.1714
1.17174
1.17161
1.172
1.17185
1.17184
1.17164
1.17145
1.17127
1.17111
1.17089
1.1707
1.1704
1.17012
1.16984
1.16948
1.1692
1.16869
1.1684
1.16819
1.16812
1.16818
1.1684
1.16862
1.1689
1.16915
1.16936
1.16954
1.16972
1.16987
1.17003
1.17015
1.1703
1.1704
1.17048
1.17059
1.17069
1.17085
1.17077
1.17101
1.17092
1.17115
1.17105
1.17121
1.17148
1.17129
1.17136
1.17171
1.17158
1.17199
1.17184
1.17184
1.17165
1.17145
1.17129
1.1711
1.17092
1.17065
1.1704
1.17012
1.16986
1.16952
1.1692
1.16875
1.16839
1.16816
1.16808
1.1681
1.16824
1.16848
1.16875
1.16899
1.16922
1.16942
1.16958
1.16975
1.16989
1.17002
1.17015
1.17027
1.17039
1.17046
1.17055
1.17069
1.17062
1.17083
1.17074
1.17095
1.17086
1.17111
1.17101
1.17117
1.17145
1.17124
1.17132
1.17169
1.17155
1.17198
1.17182
1.17182
1.17165
1.17145
1.17128
1.17109
1.17093
1.17064
1.17041
1.17018
1.16987
1.16954
1.16928
1.16883
1.1684
1.16817
1.16804
1.16803
1.16813
1.16835
1.16859
1.16886
1.16907
1.16927
1.16946
1.16963
1.16979
1.16991
1.17002
1.17015
1.17026
1.17036
1.17043
1.17055
1.17048
1.17066
1.17058
1.17077
1.17068
1.17091
1.17081
1.17106
1.17096
1.17113
1.17141
1.1712
1.17127
1.17166
1.17151
1.17197
1.1718
1.17182
1.17165
1.17146
1.17127
1.17108
1.17094
1.17065
1.1704
1.17016
1.16986
1.16956
1.16931
1.16887
1.16846
1.16818
1.16802
1.16797
1.16804
1.16821
1.16846
1.16869
1.16894
1.16914
1.16932
1.16949
1.16966
1.16979
1.1699
1.17
1.17012
1.17026
1.17033
1.1704
1.17034
1.1705
1.17041
1.17059
1.17049
1.17071
1.1706
1.17085
1.17074
1.17101
1.17089
1.17107
1.17136
1.17114
1.17122
1.17163
1.17147
1.17196
1.17177
1.17181
1.17161
1.17143
1.17125
1.17108
1.17094
1.17065
1.17043
1.17016
1.16989
1.16958
1.16927
1.16886
1.16849
1.1682
1.16801
1.16792
1.16796
1.16811
1.16831
1.16856
1.16878
1.169
1.16919
1.16937
1.16953
1.16968
1.16981
1.16992
1.17002
1.17009
1.17024
1.17025
1.17015
1.1703
1.17014
1.17036
1.17016
1.17047
1.17024
1.1706
1.17039
1.17076
1.17058
1.17094
1.17079
1.171
1.17131
1.17106
1.17114
1.17159
1.17141
1.17194
1.17174
1.1718
1.1716
1.17142
1.17127
1.17111
1.17089
1.17068
1.17039
1.17012
1.16986
1.16958
1.16929
1.16891
1.16856
1.16822
1.168
1.16788
1.16788
1.16799
1.16819
1.16841
1.16866
1.16886
1.16904
1.16923
1.1694
1.16956
1.1697
1.16984
1.16992
1.17
1.17004
1.17003
1.16988
1.16993
1.16955
1.16982
1.16918
1.16982
1.16899
1.16997
1.16908
1.17024
1.16948
1.17055
1.17002
1.17083
1.17052
1.17087
1.17124
1.17094
1.17103
1.17154
1.17135
1.17192
1.1717
1.17179
1.17159
1.17142
1.17124
1.17104
1.17082
1.17061
1.17031
1.17011
1.16985
1.16955
1.16924
1.16891
1.16862
1.16823
1.16798
1.16785
1.16782
1.1679
1.16808
1.16828
1.1685
1.16873
1.16892
1.16909
1.16927
1.16943
1.16958
1.1697
1.16986
1.16991
1.16989
1.16964
1.16991
1.16913
1.16845
1.16821
1.16681
1.16738
1.16497
1.16724
1.16386
1.16774
1.16413
1.16874
1.16575
1.16975
1.16776
1.1705
1.16949
1.17053
1.17114
1.17061
1.17074
1.17148
1.17126
1.1719
1.17165
1.17179
1.17157
1.17141
1.17124
1.17106
1.17081
1.17054
1.17031
1.17008
1.16982
1.1695
1.16922
1.1689
1.16858
1.16824
1.16797
1.16782
1.16777
1.16782
1.16796
1.16816
1.16838
1.16859
1.16878
1.16896
1.16913
1.1693
1.16946
1.1696
1.16973
1.16986
1.16975
1.16758
1.16787
1.16652
1.16518
1.16326
1.162
1.15866
1.1594
1.15443
1.15848
1.15184
1.15967
1.15165
1.16316
1.15432
1.16668
1.16019
1.16929
1.16574
1.16926
1.17092
1.16941
1.16974
1.17141
1.17112
1.17187
1.17159
1.17176
1.17155
1.17138
1.17122
1.17109
1.17093
1.17055
1.17025
1.16998
1.16979
1.16948
1.16919
1.16889
1.16856
1.1683
1.16795
1.1678
1.16771
1.16773
1.16786
1.16805
1.16826
1.16846
1.16865
1.16883
1.169
1.16916
1.16933
1.16949
1.1696
1.16975
1.16974
1.16719
1.15802
1.15655
1.16135
1.15953
1.15532
1.15202
1.14946
1.14475
1.14507
1.1387
1.14314
1.1349
1.14413
1.13403
1.14875
1.13666
1.15736
1.1436
1.16513
1.15517
1.16502
1.17019
1.16542
1.16632
1.17131
1.17067
1.17183
1.17152
1.17172
1.1715
1.17131
1.17119
1.17109
1.17094
1.17065
1.17022
1.16995
1.16972
1.16946
1.16914
1.1689
1.16856
1.16827
1.16793
1.16776
1.16766
1.16767
1.16777
1.16794
1.16814
1.16834
1.16853
1.1687
1.16887
1.16903
1.16919
1.16936
1.16949
1.16963
1.16969
1.16748
1.15557
1.15493
1.14469
1.14312
1.14908
1.14663
1.14054
1.13674
1.13297
1.12792
1.12735
1.1207
1.12457
1.11602
1.12507
1.11453
1.12968
1.11676
1.13916
1.12359
1.15394
1.13581
1.15391
1.16766
1.15503
1.15725
1.17108
1.1691
1.17178
1.1714
1.17167
1.1714
1.17123
1.17114
1.17103
1.17087
1.17055
1.1701
1.16987
1.16963
1.16935
1.16905
1.16885
1.16847
1.16821
1.16793
1.16773
1.16762
1.16761
1.16769
1.16784
1.16804
1.16823
1.16841
1.16858
1.16874
1.1689
1.16905
1.16921
1.16939
1.1695
1.16961
1.16745
1.15499
1.15654
1.14201
1.14147
1.12916
1.12772
1.13357
1.13106
1.1236
1.11985
1.11495
1.11007
1.10853
1.10217
1.10514
1.09703
1.1052
1.09518
1.10944
1.09706
1.11861
1.10335
1.13379
1.11503
1.1335
1.16059
1.13541
1.13957
1.17031
1.1643
1.17172
1.17109
1.17168
1.17135
1.17112
1.17102
1.17092
1.17073
1.17035
1.16994
1.16971
1.16954
1.16928
1.16902
1.16878
1.16845
1.16818
1.16793
1.16771
1.16758
1.16755
1.16761
1.16775
1.16793
1.16812
1.16829
1.16846
1.16861
1.16877
1.16892
1.16908
1.16925
1.16939
1.16952
1.16787
1.14891
1.14136
1.13986
1.12677
1.12647
1.11292
1.11178
1.11683
1.11455
1.10602
1.10268
1.0969
1.0926
1.09016
1.08466
1.08652
1.07939
1.08637
1.07746
1.09028
1.07906
1.09874
1.0849
1.11306
1.09554
1.1129
1.14597
1.11454
1.1186
1.16779
1.15352
1.17162
1.17021
1.17152
1.17111
1.17083
1.17069
1.17044
1.17001
1.16972
1.16956
1.1694
1.16918
1.16896
1.16869
1.1684
1.16813
1.1679
1.16767
1.16754
1.1675
1.16754
1.16766
1.16783
1.16802
1.16819
1.16834
1.16849
1.16864
1.16879
1.16894
1.1691
1.16928
1.1694
1.16857
1.15249
1.12744
1.12864
1.12656
1.12678
1.11122
1.11123
1.0973
1.09674
1.10016
1.09841
1.08925
1.08672
1.08022
1.07686
1.07345
1.0694
1.06968
1.06446
1.06929
1.06177
1.07322
1.06269
1.08098
1.06851
1.09397
1.07831
1.09409
1.12584
1.09621
1.10085
1.16133
1.13634
1.1714
1.16763
1.17149
1.1708
1.17036
1.17
1.16967
1.16952
1.16937
1.16923
1.16905
1.16884
1.16861
1.16837
1.1681
1.16786
1.16765
1.16751
1.16744
1.16746
1.16758
1.16774
1.16791
1.16808
1.16823
1.16837
1.1685
1.16864
1.1688
1.16896
1.16914
1.16927
1.16895
1.15762
1.13035
1.13485
1.11311
1.11436
1.11143
1.11195
1.09676
1.09698
1.08392
1.08407
1.08512
1.08413
1.07473
1.07341
1.0672
1.0665
1.06224
1.06224
1.05862
1.05874
1.05643
1.05515
1.05767
1.05245
1.06521
1.05373
1.07722
1.0629
1.07786
1.10797
1.08039
1.08385
1.09523
1.149
1.11861
1.1709
1.16115
1.17137
1.1703
1.16955
1.16936
1.16928
1.16917
1.16904
1.16889
1.1687
1.1685
1.16827
1.16804
1.16782
1.16761
1.16746
1.16739
1.1674
1.16748
1.16763
1.16782
1.16798
1.16812
1.16825
1.16837
1.16849
1.16864
1.1688
1.16898
1.16917
1.16908
1.1621
1.1297
1.11722
1.11708
1.09984
1.10137
1.09752
1.09842
1.08447
1.08523
1.07356
1.07437
1.07301
1.07314
1.06664
1.06706
1.06278
1.06398
1.05958
1.06166
1.0561
1.05894
1.05269
1.05491
1.04935
1.05036
1.05137
1.04743
1.06215
1.05001
1.05596
1.0712
1.06247
1.08737
1.10364
1.09071
1.0751
1.06502
1.06403
1.07708
1.13271
1.0958
1.1007
1.11486
1.16714
1.1477
1.17097
1.16935
1.16903
1.16901
1.16895
1.16885
1.16872
1.16855
1.16836
1.16815
1.16795
1.16775
1.16756
1.16741
1.16734
1.16733
1.16739
1.16753
1.16771
1.16788
1.16802
1.16814
1.16822
1.1683
1.16842
1.16859
1.16879
1.16899
1.16907
1.16551
1.13832
1.10838
1.11384
1.10374
1.106
1.08923
1.09094
1.08631
1.08758
1.07544
1.07668
1.06933
1.07026
1.06774
1.06851
1.06533
1.06659
1.06477
1.06806
1.06436
1.07071
1.06103
1.07065
1.05502
1.06528
1.04783
1.04911
1.05199
1.05727
1.04722
1.04583
1.04921
1.04858
1.04639
1.0502
1.05618
1.04938
1.04625
1.0563
1.08033
1.08439
1.06764
1.05893
1.05722
1.0704
1.10717
1.12834
1.1135
1.08909
1.09452
1.15818
1.12064
1.12776
1.14162
1.17013
1.16873
1.1687
1.1687
1.16863
1.16852
1.16838
1.16821
1.16803
1.16784
1.16767
1.16749
1.16735
1.16728
1.16727
1.16733
1.16745
1.16762
1.16779
1.16794
1.16801
1.16798
1.16787
1.16789
1.16814
1.16845
1.16874
1.16895
1.16756
1.14864
1.11164
1.0989
1.09969
1.09333
1.09527
1.08172
1.08372
1.07817
1.0798
1.07135
1.07265
1.06937
1.07021
1.06766
1.06855
1.07081
1.07267
1.07662
1.08105
1.08047
1.08864
1.07854
1.09109
1.06287
1.07023
1.07665
1.08464
1.05248
1.05784
1.06432
1.04538
1.04598
1.05285
1.05314
1.04854
1.04583
1.05001
1.04574
1.04492
1.05051
1.07392
1.07813
1.06117
1.05154
1.05308
1.06414
1.10058
1.10721
1.08301
1.08855
1.13496
1.15883
1.14656
1.11442
1.12222
1.16871
1.16838
1.16841
1.1684
1.16832
1.1682
1.16805
1.16789
1.16773
1.16757
1.16741
1.16729
1.16722
1.16722
1.16727
1.16739
1.16753
1.16771
1.16785
1.16784
1.16742
1.16649
1.16601
1.16651
1.16739
1.16815
1.1687
1.16831
1.1574
1.12046
1.09612
1.10104
1.09113
1.09367
1.08612
1.08834
1.0781
1.08031
1.07421
1.07601
1.07122
1.0725
1.07471
1.07524
1.07374
1.07431
1.08365
1.08476
1.09435
1.09742
1.10093
1.10745
1.09105
1.09829
1.10348
1.10867
1.07142
1.07894
1.0867
1.09452
1.05853
1.06523
1.07258
1.0457
1.04862
1.05909
1.05949
1.05341
1.0446
1.04584
1.04434
1.0454
1.04622
1.06783
1.07224
1.0553
1.04697
1.04822
1.05833
1.09471
1.10156
1.07733
1.08306
1.13284
1.16023
1.14771
1.10928
1.11886
1.16815
1.16811
1.16813
1.16809
1.168
1.16788
1.16774
1.1676
1.16747
1.16732
1.16721
1.16716
1.16715
1.1672
1.16733
1.16747
1.16763
1.16774
1.16751
1.16614
1.1631
1.16055
1.16083
1.16366
1.16633
1.16799
1.16829
1.16297
1.13235
1.10196
1.09283
1.09424
1.08772
1.08996
1.08274
1.0851
1.07857
1.08113
1.07416
1.07619
1.07616
1.07766
1.08538
1.08614
1.08505
1.08511
1.09868
1.09921
1.11104
1.11302
1.11192
1.11507
1.11715
1.11965
1.10159
1.10792
1.11283
1.11675
1.08043
1.08867
1.09696
1.10468
1.06595
1.07346
1.08159
1.0486
1.05356
1.06649
1.06684
1.05975
1.0451
1.0442
1.04472
1.04843
1.04416
1.06214
1.06675
1.0502
1.04433
1.04491
1.05311
1.08947
1.09672
1.07209
1.0781
1.13209
1.16575
1.1514
1.1054
1.11676
1.16785
1.16786
1.16785
1.16779
1.16769
1.16758
1.16746
1.16735
1.16723
1.16714
1.16709
1.16708
1.16714
1.16723
1.16742
1.16757
1.16766
1.16719
1.16454
1.15869
1.1531
1.15181
1.15522
1.16116
1.16601
1.1678
1.16541
1.14459
1.10981
1.09639
1.09875
1.09288
1.09439
1.08865
1.09067
1.08378
1.08624
1.08522
1.08798
1.0798
1.08239
1.08772
1.09014
1.10204
1.10425
1.09972
1.10056
1.11496
1.11777
1.12549
1.12923
1.11954
1.12184
1.12368
1.12497
1.11136
1.11667
1.12071
1.12373
1.09022
1.09894
1.10712
1.11417
1.07412
1.0824
1.09131
1.05351
1.0598
1.07457
1.07479
1.06699
1.04797
1.04434
1.0473
1.05319
1.04396
1.05693
1.0617
1.04623
1.04357
1.0435
1.04862
1.08488
1.09275
1.06728
1.07365
1.13291
1.16955
1.15607
1.10263
1.11593
1.1676
1.16761
1.16757
1.1675
1.16742
1.16732
1.16723
1.16713
1.16706
1.16702
1.16701
1.16707
1.16717
1.16731
1.16752
1.16761
1.16699
1.16332
1.15487
1.14633
1.143
1.14568
1.15273
1.16107
1.16625
1.16569
1.15321
1.11868
1.10106
1.09773
1.09892
1.09636
1.097
1.09424
1.09539
1.09048
1.09258
1.0987
1.10071
1.09306
1.09604
1.10705
1.11009
1.12718
1.13066
1.12061
1.12367
1.13296
1.13574
1.13277
1.134
1.13582
1.13456
1.12612
1.12817
1.13003
1.13158
1.11976
1.12393
1.12699
1.12932
1.10036
1.1089
1.11627
1.12209
1.08292
1.09194
1.10121
1.0596
1.06685
1.08316
1.08311
1.07473
1.05251
1.04633
1.05143
1.05901
1.0451
1.05232
1.05713
1.04391
1.04397
1.04317
1.04525
1.08091
1.08958
1.06295
1.06969
1.1349
1.16772
1.15736
1.10079
1.11598
1.16737
1.16735
1.16731
1.16725
1.16718
1.16711
1.16703
1.16697
1.16694
1.16694
1.16699
1.1671
1.16722
1.1674
1.16755
1.16695
1.16281
1.15237
1.14088
1.13551
1.13702
1.14378
1.15371
1.1627
1.16499
1.15697
1.12841
1.10527
1.10115
1.10147
1.10123
1.10093
1.10235
1.10179
1.10291
1.10274
1.10206
1.1028
1.11562
1.11536
1.11277
1.11468
1.13316
1.13474
1.14746
1.15124
1.13926
1.14288
1.1366
1.13768
1.13841
1.13393
1.13402
1.13389
1.13395
1.13115
1.13241
1.1332
1.13359
1.12633
1.12931
1.13135
1.13259
1.11002
1.11768
1.1237
1.12799
1.09218
1.10152
1.11052
1.06634
1.07429
1.09206
1.09152
1.0827
1.05795
1.04989
1.05636
1.06533
1.0479
1.04832
1.05311
1.04286
1.04559
1.04354
1.04324
1.07751
1.08711
1.05907
1.06618
1.13716
1.17032
1.16116
1.09961
1.11674
1.16713
1.16711
1.16707
1.16703
1.16698
1.16692
1.16688
1.16686
1.16687
1.16692
1.16702
1.16716
1.1673
1.16746
1.16702
1.16287
1.15149
1.13756
1.13077
1.13053
1.1351
1.14471
1.15665
1.16268
1.1571
1.13562
1.11117
1.10227
1.10252
1.10208
1.10461
1.10342
1.10775
1.10607
1.11143
1.10956
1.11463
1.11322
1.13145
1.1283
1.13461
1.13356
1.15315
1.15344
1.15185
1.15671
1.14184
1.14609
1.13407
1.13487
1.12453
1.126
1.13084
1.1291
1.12557
1.12734
1.13321
1.13331
1.13305
1.13218
1.1308
1.13242
1.13308
1.13307
1.11841
1.12463
1.129
1.13167
1.10135
1.11041
1.11849
1.07333
1.08176
1.1007
1.09949
1.0905
1.06371
1.05415
1.06141
1.07166
1.05129
1.04522
1.04957
1.04235
1.04788
1.04457
1.04209
1.07462
1.08515
1.05564
1.06306
1.14057
1.17121
1.165
1.09893
1.11822
1.16691
1.1669
1.16688
1.16685
1.16681
1.16679
1.16678
1.1668
1.16685
1.16694
1.16708
1.16723
1.16738
1.16719
1.16356
1.1517
1.13648
1.12879
1.12706
1.12879
1.13482
1.14589
1.15743
1.15535
1.13706
1.11625
1.10386
1.10239
1.10205
1.10393
1.10291
1.10706
1.10532
1.1116
1.10915
1.1176
1.11441
1.12473
1.1211
1.14244
1.13722
1.15135
1.14734
1.15994
1.16103
1.14475
1.15502
1.12833
1.1316
1.13415
1.12442
1.12413
1.10997
1.11121
1.12321
1.11979
1.11328
1.1164
1.13258
1.13109
1.12901
1.12637
1.13283
1.13298
1.13252
1.13092
1.12492
1.12942
1.13204
1.1328
1.10973
1.11792
1.12461
1.08008
1.08874
1.10838
1.10619
1.09752
1.06921
1.05835
1.06595
1.07743
1.05454
1.04313
1.0466
1.04222
1.05012
1.04573
1.04149
1.07215
1.08353
1.05262
1.0603
1.14539
1.17177
1.16858
1.09863
1.12067
1.16673
1.16672
1.16671
1.1667
1.1667
1.1667
1.16673
1.16678
1.16686
1.16699
1.16716
1.16729
1.1673
1.16492
1.15321
1.13665
1.12862
1.12636
1.12626
1.12804
1.13372
1.14384
1.14925
1.13567
1.11737
1.1057
1.10211
1.10328
1.10273
1.10558
1.10424
1.10937
1.10727
1.11491
1.1119
1.12248
1.11843
1.13201
1.12704
1.15077
1.14523
1.16007
1.15587
1.16111
1.16366
1.1243
1.13387
1.1436
1.11438
1.11954
1.11676
1.10914
1.11089
1.10999
1.09538
1.09647
1.1132
1.10858
1.10008
1.10407
1.12859
1.12556
1.12187
1.11771
1.13265
1.13132
1.12905
1.12601
1.12935
1.1318
1.13235
1.13197
1.1166
1.1235
1.12856
1.08594
1.09448
1.11427
1.11063
1.10282
1.07381
1.06174
1.06911
1.08184
1.05688
1.04182
1.04424
1.04236
1.05167
1.0467
1.04116
1.06994
1.08207
1.0499
1.05782
1.15149
1.17197
1.17078
1.09865
1.12403
1.16657
1.16658
1.16659
1.1666
1.16662
1.16665
1.1667
1.16679
1.16691
1.16707
1.16723
1.16731
1.16607
1.1567
1.1382
1.12927
1.12672
1.12622
1.12639
1.12685
1.12976
1.1337
1.12965
1.11653
1.10606
1.10245
1.10448
1.10413
1.10574
1.1049
1.10856
1.10697
1.11311
1.11059
1.1198
1.11618
1.12873
1.12398
1.13955
1.13398
1.16019
1.15532
1.16447
1.16346
1.15819
1.16421
1.11381
1.12381
1.12411
1.13704
1.09927
1.10351
1.10521
1.09804
1.09698
1.09555
1.08292
1.08437
1.10261
1.09734
1.0881
1.09242
1.12234
1.11806
1.1132
1.10797
1.1301
1.12714
1.12347
1.11922
1.13116
1.13167
1.13118
1.12881
1.1212
1.12642
1.12981
1.08999
1.09795
1.11737
1.11165
1.10527
1.07668
1.06383
1.07059
1.08419
1.058
1.04096
1.04259
1.04263
1.05266
1.04759
1.04086
1.06783
1.08062
1.0475
1.05552
1.15913
1.17202
1.17154
1.09882
1.12869
1.16645
1.16648
1.1665
1.16654
1.16657
1.16663
1.16671
1.16683
1.16697
1.16714
1.16726
1.16678
1.16042
1.14232
1.13094
1.12831
1.12799
1.12765
1.12645
1.12449
1.1226
1.11893
1.11279
1.10588
1.10313
1.10685
1.10911
1.10913
1.11079
1.10972
1.11427
1.1123
1.11993
1.1168
1.12807
1.12369
1.13835
1.13299
1.14977
1.14408
1.16602
1.16409
1.16624
1.16673
1.14674
1.15649
1.16246
1.10471
1.11383
1.11821
1.12911
1.08758
1.09216
1.09676
1.08991
1.08468
1.08302
1.07324
1.07531
1.09121
1.08574
1.07698
1.08091
1.11429
1.10882
1.10303
1.09705
1.12513
1.12084
1.11609
1.11051
1.13078
1.13047
1.12797
1.12356
1.12281
1.12693
1.12909
1.09136
1.09798
1.1174
1.11045
1.10443
1.07716
1.06405
1.06983
1.08345
1.05814
1.04042
1.04149
1.0433
1.05301
1.04836
1.04079
1.0657
1.07912
1.04551
1.05334
1.16442
1.17204
1.17164
1.09912
1.13338
1.16636
1.1664
1.16645
1.1665
1.16656
1.16664
1.16674
1.16687
1.16701
1.16717
1.16703
1.16344
1.14801
1.13326
1.13022
1.13272
1.13404
1.13044
1.12588
1.1214
1.11639
1.11137
1.10618
1.1047
1.10872
1.12411
1.11732
1.11692
1.11922
1.11798
1.1236
1.12109
1.13055
1.12676
1.13992
1.13496
1.15061
1.14519
1.16071
1.156
1.16816
1.16776
1.16673
1.16792
1.14109
1.15295
1.16261
1.15644
1.10049
1.1087
1.11546
1.12481
1.07909
1.08401
1.09326
1.08669
1.07417
1.07302
1.06628
1.06961
1.07948
1.07424
1.06671
1.06991
1.10448
1.0981
1.09167
1.08539
1.1181
1.11265
1.10666
1.09999
1.12928
1.12722
1.12256
1.11603
1.12235
1.12583
1.1267
1.08958
1.09555
1.11576
1.10655
1.10123
1.07508
1.06314
1.06738
1.07998
1.05759
1.04018
1.04084
1.04389
1.05298
1.04858
1.04093
1.06367
1.07772
1.04407
1.05143
1.16518
1.17192
1.17111
1.09901
1.13304
1.1663
1.16635
1.16643
1.16649
1.16655
1.16662
1.1667
1.16681
1.16697
1.16701
1.16527
1.15382
1.1366
1.13177
1.1356
1.14257
1.14313
1.13581
1.12637
1.11918
1.11339
1.10881
1.10865
1.11347
1.12983
1.14698
1.13014
1.14754
1.12974
1.13149
1.13022
1.13642
1.13355
1.144
1.13994
1.15362
1.14867
1.16234
1.15835
1.16673
1.16499
1.16883
1.16896
1.16623
1.16824
1.13525
1.14628
1.16131
1.15332
1.09974
1.10716
1.11527
1.1237
1.07438
1.08038
1.093
1.08659
1.06506
1.06483
1.06138
1.06639
1.06807
1.06351
1.05801
1.06004
1.09318
1.0863
1.07968
1.07356
1.10893
1.10232
1.09533
1.08801
1.12585
1.12151
1.11425
1.10591
1.12003
1.12192
1.12174
1.08481
1.08959
1.11091
1.09761
1.09397
1.07147
1.06151
1.06552
1.07561
1.0569
1.04016
1.04062
1.04445
1.05279
1.04893
1.04117
1.06189
1.07614
1.04336
1.04978
1.16151
1.16638
1.16561
1.09775
1.12663
1.16625
1.16635
1.16639
1.1664
1.16636
1.1663
1.16633
1.16651
1.16677
1.16595
1.15848
1.14134
1.13342
1.13642
1.14626
1.15266
1.15122
1.14309
1.13191
1.12277
1.11761
1.11826
1.12437
1.14031
1.15823
1.14622
1.16114
1.16124
1.1458
1.14741
1.14624
1.1521
1.14942
1.15875
1.15529
1.16441
1.16192
1.16755
1.16627
1.16878
1.16833
1.16899
1.16928
1.16389
1.16656
1.16811
1.13297
1.14295
1.15792
1.14978
1.10143
1.10788
1.11707
1.1243
1.07288
1.08002
1.0954
1.08898
1.05761
1.05841
1.05879
1.0654
1.05767
1.05418
1.05131
1.05191
1.08086
1.07405
1.06777
1.06229
1.09744
1.09002
1.08255
1.07514
1.11828
1.11165
1.10248
1.09281
1.11337
1.11349
1.11055
1.07955
1.08303
1.09909
1.08594
1.08542
1.06978
1.061
1.06536
1.07407
1.05685
1.04034
1.04097
1.04488
1.05333
1.04959
1.04158
1.05998
1.07456
1.0432
1.04822
1.14776
1.16018
1.14711
1.09465
1.11613
1.1662
1.16626
1.16604
1.16563
1.16518
1.16499
1.1653
1.16598
1.16591
1.16134
1.14671
1.1356
1.13635
1.14638
1.15584
1.15953
1.1574
1.15069
1.14268
1.13663
1.13561
1.14081
1.15218
1.16297
1.16829
1.16104
1.1677
1.16758
1.16099
1.16203
1.16133
1.16434
1.16311
1.16675
1.16561
1.16835
1.16768
1.16911
1.16881
1.16935
1.16928
1.16895
1.16938
1.16254
1.16606
1.16829
1.16717
1.13251
1.14117
1.15584
1.14859
1.10541
1.11085
1.12055
1.12658
1.07304
1.08123
1.09991
1.09314
1.05176
1.05419
1.05827
1.06585
1.04901
1.04677
1.04634
1.04608
1.06832
1.06218
1.05679
1.05242
1.08387
1.07633
1.06908
1.06236
1.10437
1.09593
1.08654
1.07734
1.099
1.09618
1.09025
1.07743
1.07989
1.08586
1.08299
1.08124
1.06994
1.06125
1.06621
1.07429
1.05863
1.04147
1.04186
1.04536
1.05459
1.05081
1.04365
1.05827
1.0728
1.04341
1.04736
1.1308
1.16055
1.13454
1.09038
1.10707
1.16586
1.16544
1.16409
1.16296
1.16258
1.163
1.16408
1.16524
1.16233
1.15119
1.13836
1.13628
1.14552
1.15571
1.16147
1.16368
1.1621
1.15817
1.15436
1.15306
1.15586
1.16156
1.16638
1.16864
1.16916
1.16899
1.16772
1.16902
1.16771
1.16795
1.1678
1.16848
1.1682
1.16898
1.16875
1.16932
1.16916
1.16953
1.16943
1.16952
1.16955
1.16803
1.16849
1.16904
1.16938
1.16
1.16483
1.1665
1.13348
1.14099
1.15443
1.14828
1.11057
1.11532
1.12498
1.13
1.07498
1.08456
1.10501
1.09787
1.04834
1.0523
1.0589
1.06776
1.04281
1.04238
1.04415
1.04255
1.0565
1.05165
1.04765
1.04473
1.06924
1.06249
1.05646
1.05133
1.08371
1.07641
1.06936
1.06302
1.08455
1.08136
1.07802
1.07849
1.0799
1.08363
1.08269
1.08158
1.0713
1.06419
1.06846
1.07544
1.06083
1.04336
1.04288
1.04912
1.05792
1.05983
1.04596
1.05634
1.07047
1.04377
1.0469
1.11891
1.16959
1.13867
1.08577
1.10006
1.16411
1.16257
1.16059
1.15994
1.16036
1.16159
1.16328
1.16222
1.15386
1.14139
1.13675
1.14308
1.15393
1.16087
1.16464
1.16623
1.1654
1.16402
1.16336
1.16439
1.1665
1.16811
1.16887
1.16913
1.16928
1.16919
1.16926
1.16924
1.16904
1.16922
1.16907
1.16915
1.1691
1.16927
1.16921
1.16941
1.16934
1.16958
1.16948
1.16966
1.16963
1.16962
1.16968
1.16738
1.16811
1.16887
1.16922
1.15878
1.16323
1.16507
1.13566
1.14185
1.15403
1.14876
1.11543
1.12022
1.12915
1.13378
1.07815
1.08875
1.11009
1.10311
1.0472
1.05204
1.0602
1.07062
1.0406
1.04064
1.04371
1.04154
1.04738
1.04437
1.04227
1.04111
1.05763
1.05354
1.04993
1.04705
1.07246
1.06804
1.06372
1.0593
1.08316
1.08233
1.0862
1.07742
1.09559
1.09211
1.09175
1.09426
1.07418
1.06637
1.06842
1.07531
1.06463
1.04474
1.04394
1.05105
1.06581
1.05912
1.04747
1.05479
1.06755
1.04468
1.04683
1.11311
1.17026
1.14715
1.08173
1.09482
1.16023
1.15856
1.15732
1.15752
1.1587
1.16043
1.16114
1.15451
1.14385
1.13799
1.14113
1.15022
1.15812
1.16369
1.16687
1.16749
1.16733
1.1672
1.16754
1.16819
1.16866
1.16892
1.16907
1.16921
1.16932
1.16932
1.16929
1.16928
1.16925
1.16928
1.16935
1.16932
1.16944
1.16939
1.16956
1.1695
1.16971
1.16963
1.16977
1.16973
1.16964
1.16975
1.16655
1.16741
1.16849
1.16816
1.16859
1.16925
1.15809
1.16179
1.16388
1.13853
1.14353
1.15399
1.14975
1.1201
1.12466
1.1329
1.13703
1.08219
1.09376
1.11532
1.10881
1.04712
1.05248
1.06159
1.07321
1.04018
1.04041
1.04399
1.04155
1.04451
1.04216
1.04088
1.04049
1.05576
1.05238
1.04945
1.04736
1.08226
1.079
1.07718
1.075
1.08901
1.08744
1.10124
1.09542
1.11245
1.10779
1.10794
1.11104
1.09414
1.06737
1.09318
1.09425
1.06766
1.04678
1.04619
1.05461
1.0902
1.0638
1.08939
1.05083
1.05294
1.06499
1.04529
1.04719
1.10805
0.911303
1.13331
1.0783
1.09023
1.15584
1.155
1.15477
1.1556
1.15705
1.15809
1.15411
1.14493
1.13933
1.14024
1.14717
1.15475
1.16123
1.16651
1.1678
1.16807
1.16818
1.16834
1.16856
1.16874
1.16888
1.16901
1.16913
1.16927
1.16936
1.16937
1.16936
1.16933
1.16931
1.16936
1.16945
1.1694
1.16956
1.1695
1.16969
1.16963
1.16979
1.16975
1.16985
1.16984
1.16959
1.16981
1.16526
1.16647
1.16716
1.16786
1.16896
1.15769
1.16095
1.16272
1.14119
1.14547
1.15425
1.15068
1.12492
1.12898
1.13651
1.13999
1.08658
1.09933
1.12084
1.11506
1.04775
1.05364
1.06272
1.07436
1.04127
1.04156
1.04518
1.04274
1.04588
1.0438
1.04192
1.04145
1.07427
1.07298
1.0727
1.07208
1.0998
1.09692
1.09641
1.09563
1.10639
1.10022
1.12778
1.1132
1.1346
1.13133
1.13238
1.13362
1.11369
1.0918
1.11356
1.11365
1.08974
1.04941
1.04706
1.05895
1.11181
1.08748
1.11116
1.05251
1.05197
1.06243
1.04681
1.04767
1.09676
0.494988
1.06448
1.0754
1.08446
1.1525
1.15236
1.15273
1.15355
1.1541
1.1522
1.14496
1.14033
1.14013
1.14525
1.15214
1.15906
1.16547
1.1677
1.16813
1.16832
1.16846
1.16859
1.16872
1.16882
1.16893
1.16906
1.16918
1.16931
1.16934
1.1694
1.16941
1.1694
1.16939
1.16945
1.16954
1.16949
1.16963
1.16959
1.16974
1.16969
1.16984
1.16979
1.1699
1.1699
1.16933
1.16983
1.16388
1.16462
1.16547
1.16623
1.16825
1.15716
1.15996
1.16097
1.14353
1.14708
1.15416
1.15103
1.13005
1.13333
1.13989
1.14254
1.08917
1.10512
1.12662
1.12108
1.04869
1.05473
1.0628
1.07489
1.04444
1.04471
1.04683
1.04416
1.07151
1.05009
1.04485
1.04538
1.09574
1.09555
1.09577
1.09584
1.12693