/*--------------------------------*- C++ -*----------------------------------*\
  =========                 |
  \\      /  F ield         | OpenFOAM: The Open Source CFD Toolbox
   \\    /   O peration     | Website:  https://openfoam.org
    \\  /    A nd           | Version:  dev
     \\/     M anipulation  |
\*---------------------------------------------------------------------------*/
FoamFile
{
    version     2.0;
    format      ascii;
    class       volScalarField;
    location    "2500";
    object      T;
}
// * * * * * * * * * * * * * * * * * * * * * * * * * * * * * * * * * * * * * //

dimensions      [0 0 0 1 0 0 0];

internalField   nonuniform List<scalar> 
9836
(
300.099
300.14
300.117
300.154
300.233
300.113
300.151
300.274
300.232
300.095
300.141
300.286
300.313
300.206
300.078
300.116
300.282
300.366
300.306
300.187
300.074
300.122
300.289
300.393
300.39
300.273
300.162
300.068
300.116
300.255
300.402
300.434
300.378
300.249
300.139
300.063
300.103
300.25
300.402
300.469
300.437
300.334
300.214
300.133
300.059
300.093
300.224
300.376
300.483
300.5
300.425
300.303
300.197
300.119
300.054
300.091
300.223
300.348
300.473
300.528
300.489
300.396
300.277
300.191
300.116
300.053
300.093
300.21
300.316
300.472
300.55
300.545
300.457
300.358
300.25
300.179
300.108
300.051
300.087
300.19
300.31
300.458
300.543
300.586
300.535
300.43
300.316
300.232
300.17
300.102
300.049
300.085
300.183
300.301
300.429
300.544
300.612
300.585
300.5
300.397
300.297
300.221
300.158
300.102
300.045
300.083
300.181
300.283
300.395
300.524
300.615
300.636
300.565
300.468
300.363
300.282
300.218
300.155
300.097
300.044
300.076
300.168
300.27
300.379
300.507
300.61
300.654
300.622
300.535
300.437
300.339
300.27
300.207
300.149
300.095
300.043
300.073
300.166
300.257
300.358
300.479
300.591
300.665
300.664
300.595
300.501
300.404
300.322
300.259
300.201
300.145
300.094
300.041
300.07
300.161
300.237
300.345
300.436
300.574
300.661
300.692
300.654
300.565
300.472
300.377
300.308
300.251
300.194
300.141
300.092
300.043
300.072
300.157
300.233
300.332
300.43
300.558
300.655
300.714
300.692
300.624
300.532
300.439
300.363
300.296
300.243
300.187
300.138
300.087
300.04
300.065
300.145
300.223
300.313
300.407
300.524
300.639
300.716
300.729
300.676
300.6
300.495
300.409
300.349
300.289
300.232
300.184
300.136
300.086
300.042
300.065
300.141
300.217
300.302
300.39
300.504
300.614
300.711
300.75
300.718
300.656
300.557
300.463
300.392
300.336
300.279
300.227
300.181
300.134
300.086
300.04
300.061
300.134
300.215
300.283
300.375
300.479
300.593
300.699
300.76
300.762
300.703
300.62
300.525
300.443
300.382
300.328
300.272
300.224
300.178
300.13
300.086
300.041
300.061
300.135
300.203
300.278
300.353
300.442
300.563
300.677
300.76
300.785
300.752
300.673
300.574
300.502
300.424
300.371
300.319
300.268
300.221
300.171
300.127
300.083
300.04
300.061
300.126
300.197
300.259
300.334
300.437
300.511
300.657
300.753
300.799
300.795
300.728
300.636
300.551
300.475
300.41
300.356
300.307
300.264
300.216
300.17
300.128
300.085
300.038
300.056
300.123
300.193
300.255
300.328
300.423
300.488
300.645
300.738
300.804
300.817
300.776
300.69
300.606
300.524
300.46
300.401
300.354
300.305
300.262
300.219
300.172
300.127
300.085
300.041
300.056
300.121
300.182
300.247
300.318
300.409
300.47
300.611
300.715
300.802
300.835
300.812
300.748
300.66
300.564
300.503
300.447
300.394
300.342
300.302
300.256
300.212
300.169
300.126
300.083
300.041
300.055
300.119
300.183
300.244
300.301
300.392
300.457
300.591
300.708
300.8
300.844
300.843
300.795
300.714
300.625
300.55
300.489
300.434
300.382
300.34
300.299
300.255
300.21
300.171
300.128
300.085
300.041
300.055
300.117
300.175
300.238
300.297
300.371
300.436
300.543
300.675
300.78
300.846
300.866
300.834
300.758
300.678
300.59
300.531
300.471
300.426
300.378
300.336
300.295
300.252
300.211
300.169
300.127
300.086
300.041
300.051
300.112
300.169
300.231
300.284
300.36
300.436
300.526
300.649
300.758
300.838
300.877
300.867
300.818
300.734
300.646
300.573
300.513
300.464
300.415
300.373
300.331
300.295
300.253
300.21
300.17
300.13
300.088
300.043
300.052
300.109
300.163
300.226
300.286
300.35
300.413
300.497
300.617
300.719
300.829
300.879
300.891
300.859
300.778
300.703
300.622
300.562
300.503
300.457
300.413
300.372
300.326
300.293
300.253
300.214
300.172
300.133
300.089
300.044
300.048
300.102
300.161
300.22
300.272
300.338
300.393
300.488
300.587
300.702
300.812
300.881
300.908
300.889
300.823
300.743
300.672
300.6
300.539
300.49
300.448
300.409
300.37
300.33
300.29
300.252
300.216
300.176
300.135
300.091
300.044
300.047
300.105
300.155
300.214
300.266
300.334
300.39
300.468
300.567
300.682
300.789
300.879
300.915
300.912
300.871
300.796
300.716
300.642
300.577
300.531
300.483
300.444
300.406
300.362
300.332
300.294
300.256
300.218
300.178
300.139
300.095
300.047
300.049
300.104
300.148
300.209
300.266
300.329
300.388
300.457
300.552
300.653
300.767
300.863
300.919
300.932
300.904
300.84
300.757
300.689
300.623
300.569
300.52
300.478
300.436
300.4
300.365
300.332
300.295
300.257
300.222
300.184
300.144
300.099
300.049
300.048
300.101
300.146
300.2
300.26
300.32
300.371
300.44
300.528
300.635
300.743
300.853
300.913
300.945
300.93
300.881
300.809
300.729
300.667
300.608
300.559
300.512
300.476
300.437
300.4
300.367
300.332
300.298
300.263
300.228
300.191
300.148
300.102
300.023
300.054
300.047
300.094
300.15
300.201
300.255
300.311
300.372
300.438
300.516
300.601
300.718
300.828
300.908
300.953
300.954
300.915
300.856
300.779
300.71
300.648
300.596
300.547
300.506
300.469
300.434
300.395
300.367
300.333
300.3
300.268
300.233
300.195
300.143
300.084
300.112
300.024
300.056
300.046
300.09
300.148
300.198
300.25
300.306
300.365
300.434
300.512
300.59
300.695
300.803
300.898
300.954
300.97
300.945
300.89
300.818
300.752
300.688
300.632
300.585
300.543
300.502
300.467
300.434
300.4
300.366
300.336
300.306
300.275
300.24
300.188
300.209
300.138
300.172
300.166
300.085
300.114
300.025
300.058
300.043
300.095
300.14
300.189
300.246
300.29
300.357
300.429
300.499
300.561
300.666
300.773
300.883
300.951
300.979
300.972
300.924
300.866
300.788
300.727
300.668
300.621
300.577
300.534
300.498
300.465
300.429
300.4
300.37
300.342
300.314
300.283
300.231
300.253
300.2
300.143
300.191
300.171
300.089
300.119
300.027
300.06
300.045
300.095
300.142
300.194
300.244
300.294
300.347
300.415
300.484
300.553
300.666
300.749
300.877
300.945
300.983
300.993
300.963
300.903
300.832
300.761
300.706
300.654
300.606
300.568
300.531
300.496
300.454
300.43
300.404
300.376
300.35
300.322
300.275
300.297
300.227
300.253
300.217
300.149
300.199
300.179
300.093
300.126
300.027
300.064
300.042
300.093
300.141
300.189
300.232
300.287
300.339
300.415
300.488
300.56
300.653
300.726
300.858
300.933
300.989
301.007
300.991
300.935
300.879
300.81
300.744
300.691
300.646
300.602
300.562
300.522
300.493
300.455
300.429
300.409
300.383
300.358
300.318
300.337
300.277
300.301
300.243
300.267
300.226
300.157
300.207
300.188
300.099
300.133
300.029
300.068
300.041
300.091
300.142
300.184
300.233
300.28
300.35
300.413
300.486
300.554
300.642
300.725
300.843
300.936
300.996
301.017
301.012
300.976
300.915
300.846
300.785
300.728
300.677
300.635
300.592
300.559
300.525
300.492
300.461
300.433
300.414
300.391
300.357
300.375
300.323
300.345
300.292
300.315
300.252
300.278
300.235
300.166
300.218
300.198
300.105
300.141
300.031
300.072
300.045
300.089
300.142
300.185
300.235
300.276
300.351
300.412
300.472
300.551
300.638
300.704
300.82
300.932
300.992
301.026
301.029
301.004
300.949
300.888
300.818
300.764
300.715
300.666
300.623
300.583
300.552
300.524
300.493
300.466
300.441
300.422
300.394
300.41
300.366
300.386
300.338
300.36
300.303
300.328
300.263
300.291
300.248
300.176
300.23
300.211
300.112
300.151
300.034
300.078
300.043
300.089
300.137
300.188
300.238
300.274
300.349
300.414
300.475
300.554
300.631
300.695
300.809
300.917
300.989
301.03
301.043
301.026
300.984
300.92
300.861
300.799
300.746
300.701
300.659
300.616
300.581
300.556
300.53
300.501
300.464
300.447
300.429
300.446
300.407
300.428
300.382
300.407
300.352
300.38
300.318
300.346
300.277
300.307
300.262
300.188
300.245
300.226
300.121
300.162
300.037
300.085
300.046
300.097
300.146
300.191
300.237
300.273
300.348
300.405
300.474
300.545
300.625
300.706
300.81
300.908
300.984
301.032
301.055
301.046
301.01
300.959
300.895
300.839
300.784
300.733
300.688
300.648
300.611
300.578
300.55
300.524
300.509
300.47
300.468
300.493
300.456
300.495
300.44
300.49
300.415
300.471
300.38
300.434
300.34
300.386
300.295
300.333
300.281
300.203
300.264
300.244
300.131
300.176
300.041
300.093
300.048
300.099
300.146
300.187
300.229
300.284
300.34
300.414
300.484
300.553
300.625
300.701
300.798
300.888
300.978
301.033
301.067
301.066
301.038
300.989
300.932
300.869
300.818
300.771
300.723
300.681
300.641
300.604
300.57
300.55
300.531
300.521
300.524
300.56
300.549
300.643
300.577
300.739
300.577
300.786
300.539
300.764
300.472
300.662
300.394
300.528
300.324
300.402
300.313
300.221
300.296
300.273
300.143
300.192
300.046
300.104
300.049
300.101
300.145
300.193
300.245
300.301
300.356
300.434
300.487
300.554
300.63
300.712
300.798
300.872
300.975
301.04
301.074
301.082
301.062
301.017
300.965
300.908
300.851
300.803
300.759
300.715
300.673
300.634
300.605
300.566
300.553
300.558
300.62
300.553
300.749
300.921
300.982
301.337
301.192
301.803
301.228
302.085
301.101
302.015
300.85
301.607
300.596
301.098
300.407
300.662
300.4
300.246
300.38
300.346
300.158
300.214
300.052
300.116
300.05
300.105
300.148
300.192
300.239
300.303
300.373
300.433
300.494
300.56
300.643
300.717
300.798
300.881
300.971
301.042
301.08
301.095
301.08
301.045
300.994
300.939
300.886
300.837
300.792
300.75
300.707
300.666
300.631
300.598
300.564
300.592
301.14
301.067
301.409
301.748
302.236
302.558
303.412
303.223
304.5
303.459
305.171
303.155
305.221
302.264
304.529
301.37
303.022
300.711
301.609
300.719
300.301
300.682
300.6
300.176
300.251
300.06
300.131
300.055
300.11
300.155
300.197
300.231
300.271
300.37
300.449
300.519
300.569
300.648
300.724
300.802
300.886
300.956
301.044
301.086
301.109
301.103
301.072
301.023
300.97
300.918
300.869
300.825
300.783
300.742
300.699
300.658
300.631
300.593
300.595
301.24
303.575
303.953
302.723
303.188
304.27
305.124
305.789
307.019
306.938
308.617
307.445
309.628
307.184
309.861
305.975
309.16
303.747
307.325
301.765
304.31
301.791
300.485
301.691
301.461
300.202
300.364
300.07
300.15
300.065
300.124
300.171
300.204
300.23
300.27
300.344
300.455
300.525
300.584
300.653
300.736
300.797
300.886
300.963
301.051
301.094
301.12
301.119
301.094
301.05
300.999
300.948
300.901
300.857
300.815
300.775
300.734
300.692
300.657
300.624
300.607
301.164
304.205
304.369
307.035
307.447
305.886
306.527
308.128
309.137
310.144
311.501
311.655
313.465
312.409
314.749
312.274
315.162
311.029
314.545
308.496
312.678
304.63
309.388
304.636
301.123
304.348
303.777
300.26
300.759
300.082
300.18
300.077
300.147
300.193
300.217
300.243
300.286
300.369
300.486
300.545
300.607
300.681
300.759
300.81
300.907
300.976
301.048
301.101
301.13
301.135
301.114
301.075
301.025
300.978
300.931
300.888
300.847
300.807
300.768
300.727
300.684
300.655
300.628
301.173
304.355
303.955
307.739
307.882
311.167
311.555
309.982
310.655
312.671
313.696
315.046
316.399
316.828
318.613
317.776
320.072
317.761
320.602
316.576
320.064
314.039
318.282
309.927
315.025
310.003
302.921
309.493
308.388
300.456
301.973
300.098
300.257
300.075
300.16
300.22
300.247
300.273
300.322
300.419
300.527
300.585
300.629
300.698
300.765
300.828
300.913
300.983
301.049
301.107
301.139
301.148
301.133
301.099
301.052
301.003
300.96
300.919
300.879
300.841
300.802
300.762
300.719
300.683
300.65
301.065
305.929
307.911
308.308
311.812
311.892
315.606
315.922
314.525
315.154
317.529
318.471
320.109
321.341
322.044
323.636
323.096
325.179
323.138
325.746
322.007
325.274
319.588
323.566
315.57
320.499
315.614
306.703
315.161
314.042
301.091
304.739
300.123
300.48
300.115
300.222
300.294
300.329
300.395
300.506
300.582
300.625
300.665
300.721
300.78
300.85
300.925
300.997
301.057
301.114
301.149
301.161
301.151
301.12
301.077
301.03
300.986
300.948
300.912
300.874
300.834
300.796
300.755
300.71
300.679
300.888
304.998
311.63
311.306
311.868
311.809
316.078
316.076
319.997
320.156
319.184
319.682
322.305
323.039
324.935
325.927
326.935
328.14
328.055
329.623
328.172
330.436
327
330.155
324.71
328.404
320.948
325.495
320.914
312.067
320.307
318.988
302.73
309.246
300.178
301.13
300.125
300.302
300.415
300.507
300.593
300.634
300.673
300.709
300.754
300.811
300.87
300.933
301.004
301.064
301.121
301.157
301.175
301.17
301.141
301.1
301.056
301.014
300.976
300.942
300.907
300.871
300.832
300.791
300.745
300.712
300.794
303.675
310.844
309.639
315.555
315.207
316.021
315.877
320.151
320.09
323.857
323.814
323.504
323.795
326.558
326.95
328.801
329.014
330.296
330.298
331.395
331.36
332.059
332.452
331.68
333.28
329.393
332.883
325.816
330.091
325.626
316.985
324.882
323.873
320.587
305.911
314.04
300.305
302.775
300.153
300.429
300.622
300.673
300.693
300.722
300.756
300.795
300.844
300.898
300.958
301.018
301.074
301.128
301.168
301.188
301.186
301.166
301.127
301.081
301.04
301.003
300.971
300.941
300.909
300.873
300.832
300.786
300.739
300.759
302.529
311.019
314.419
314.458
319.277
318.842
319.937
319.679
323.696
323.476
326.907
326.666
327.069
327.03
328.973
328.847
330.133
329.774
331.104
330.473
332.164
331.297
333.207
332.524
334.236
333.921
333.608
334.826
330.316
334.028
332.199
327.6
330.219
322.849
318.201
321.883
326.441
329.45
329.747
325.855
310.216
320.425
319.033
315.072
301.254
306.251
300.257
300.672
300.756
300.761
300.778
300.805
300.84
300.883
300.932
300.987
301.041
301.092
301.143
301.181
301.201
301.204
301.188
301.152
301.108
301.063
301.028
300.999
300.978
300.957
300.928
300.884
300.835
300.783
300.763
301.663
308.716
316.872
315.351
318.174
317.539
322.317
321.825
323.163
322.795
326.352
325.983
328.17
327.893
328.645
328.415
329.368
328.991
329.534
328.548
329.657
327.751
330.658
327.768
332.487
329.373
334.703
334.304
333.414
331.797
334.891
335.321
334.273
334.466
335.147
333.968
332.131
334.22
335.19
332.095
324.901
323.713
328.662
331.292
331.813
327.837
317.211
311.391
315.447
322.35
320.789
303.536
313.483
311.548
307.846
300.471
300.832
300.841
300.842
300.859
300.889
300.926
300.97
301.019
301.067
301.113
301.16
301.196
301.215
301.218
301.203
301.174
301.13
301.087
301.05
301.03
301.038
301.067
301.061
300.999
300.919
300.847
300.794
301.145
305.999
315.961
319.545
319.32
321.135
320.58
324.503
323.92
325.546
325.067
327.568
327.183
328.16
327.909
328.67
328.402
327.727
327.173
326.001
324.7
324.867
322.491
325.431
321.784
330.094
327.888
325.984
323.644
333.261
331.619
329.655
335.461
335.271
333.144
333.055
334.474
335.32
334.026
335.347
335.604
333.869
326.788
325.547
330.612
333.553
333.079
329.711
319.065
317.2
324.115
322.507
309.615
303.369
306.547
315.194
313.052
300.838
300.923
300.915
300.92
300.941
300.972
301.012
301.054
301.096
301.137
301.18
301.212
301.23
301.231
301.217
301.188
301.151
301.106
301.072
301.074
301.18
301.416
301.538
301.41
301.188
300.996
300.857
300.956
303.732
313.528
320.338
318.94
321.772
321.04
323.22
322.577
325.57
324.922
326.72
326.186
327.609
327.229
326.571
326.417
326.858
326.691
323.941
323.619
320.853
319.977
318.979
317.148
321.793
319.725
318.259
316.806
327.529
325.307
323.047
320.798
331.406
329.38
327.182
335.357
334.448
331.235
331.11
332.967
335.7
335.317
335.781
335.45
335.196
328.603
327.286
332.397
334.963
334.575
331.474
320.737
318.787
325.78
324.1
310.18
303.009
306.247
316.62
313.971
300.981
300.992
300.987
300.998
301.023
301.056
301.092
301.128
301.163
301.201
301.23
301.245
301.247
301.235
301.202
301.166
301.126
301.097
301.156
301.503
302.275
302.926
302.856
302.134
301.456
301.036
300.961
302.307
310.307
318.678
321.286
320.879
322.759
322.113
324.208
323.52
325.434
324.684
326.736
326.135
326.145
325.702
323.441
323.219
323.538
323.52
319.618
319.467
316.147
315.597
315.902
315.031
314.456
313.769
318.791
317.013
315.648
314.567
324.869
322.473
320.101
317.92
329.16
326.919
324.529
334.451
332.921
328.996
328.887
331.028
335.541
335.823
335.659
334.502
335.835
330.316
328.926
333.962
335.783
335.602
333.068
322.24
320.161
327.333
325.555
310.381
301.604
305.287
317.706
314.547
301.059
301.057
301.06
301.076
301.102
301.132
301.162
301.192
301.225
301.249
301.262
301.264
301.25
301.227
301.18
301.141
301.119
301.238
301.909
303.402
304.843
305.179
304.295
302.772
301.535
301.084
301.688
307.057
316.475
320.267
319.593
321.274
320.839
322.492
321.91
323.908
323.193
323.491
322.69
325.073
324.313
322.761
322.064
318.665
318.042
319.322
319.084
315.059
314.282
312.176
311.163
313.8
313.17
312.669
312.317
316.056
314.588
313.48
312.657
322.025
319.538
317.236
315.275
326.723
324.29
321.711
332.934
331.009
326.588
326.519
328.84
334.644
335.776
334.849
333.027
335.894
331.897
330.448
335.19
336.015
336.037
334.45
323.57
321.297
328.766
326.869
310.161
300.643
304.078
318.485
314.775
301.123
301.123
301.132
301.15
301.173
301.198
301.222
301.249
301.269
301.28
301.281
301.268
301.243
301.207
301.155
301.131
301.288
302.218
304.385
306.605
307.482
306.777
304.94
302.795
301.475
301.616
304.812
314.016
318.938
319.885
319.548
320.278
320.095
320.886
320.555
321.966
321.36
319.612
319.043
321.223
320.371
317.256
316.405
311.713
310.773
313.502
312.667
310.157
309.413
310.211
309.881
309.394
309.728
312.006
311.45
310.949
310.531
313.738
312.602
311.772
311.139
319.134
316.738
314.695
313.101
324.137
321.529
318.89
331.068
328.881
324.062
324.075
326.532
333.235
335.15
333.566
331.245
335.532
333.307
331.836
335.911
335.885
336.137
335.494
324.728
322.209
330.07
328.045
309.627
301.106
303.746
319.004
314.76
301.184
301.189
301.2
301.216
301.235
301.253
301.275
301.29
301.299
301.299
301.287
301.261
301.229
301.183
301.146
301.296
302.347
305.03
308.04
309.464
309.063
307.275
304.685
302.376
301.793
303.841
311.366
317.746
318.915
318.822
318.893
318.979
318.579
318.737
318.419
318.469
318.66
318.45
314.871
314.945
315.66
315.132
310.101
309.68
306.318
305.334
308.478
307.52
309.185
308.895
308.703
309.898
309.873
309.907
309.892
310.648
310.307
310.096
309.99
311.948
311.144
310.595
310.26
316.422
314.307
312.663
311.499
321.458
318.802
316.282
329.029
326.661
321.49
321.64
324.193
331.565
334.04
332.047
329.329
334.656
334.541
333.064
336.232
335.374
336.015
336.116
325.727
322.923
331.245
329.096
309.027
300.45
302.772
319.338
314.551
301.244
301.251
301.26
301.273
301.286
301.301
301.312
301.318
301.316
301.305
301.281
301.244
301.208
301.168
301.279
302.333
305.259
308.918
310.735
310.798
309.573
307.029
303.925
302.381
303.808
309.433
316.095
318.597
318.53
318.653
317.941
318.274
317.06
317.53
316.033
316.555
315.147
315.537
310.561
311.41
309.713
309.995
304.838
304.762
305.174
303.918
307.792
306.677
309.858
309.644
312.424
312.028
310.722
311.19
312.145
311.665
310.094
310.063
310.132
310.365
310.743
310.305
310.129
310.128
314.106
312.408
311.227
310.508
318.848
316.311
314.082
326.942
324.463
319.028
319.368
321.931
329.815
332.721
330.507
327.434
333.599
335.501
334.153
336.388
334.654
335.686
336.471
326.579
323.488
332.289
330.033
308.122
300.224
301.793
319.53
314.144
301.3
301.305
301.311
301.319
301.329
301.335
301.338
301.335
301.323
301.3
301.265
301.227
301.189
301.235
302.156
305.204
309.205
311.268
311.733
311.267
309.646
306.717
303.724
304.259
309.049
314.686
318.146
318.563
318.661
318.131
318.418
317.253
317.74
315.987
316.669
314.325
315.206
312.376
313.367
307.635
309.018
305.302
306.349
303.087
302.81
307.025
304.351
311.397
310.517
309.832
312.457
312.535
316.429
316.087
312.785
313.718
315.512
314.649
310.26
310.659
311.216
311.926
310.196
310.155
310.276
310.704
312.328
311.113
310.407
310.204
316.499
314.236
312.412
324.951
322.435
316.871
317.481
319.923
328.162
331.433
329.134
325.725
332.594
336.148
335.068
336.424
333.952
335.318
336.653
327.311
323.959
333.21
330.867
306.851
300.085
300.887
319.614
313.471
301.349
301.35
301.354
301.357
301.359
301.358
301.353
301.341
301.319
301.286
301.244
301.21
301.209
301.809
304.811
309.159
311.313
311.923
311.949
311.467
309.94
307.254
305.839
309.416
314.378
317.627
318.641
318.313
318.467
317.668
318.043
316.607
317.192
315.069
315.902
312.989
314.099
310.41
311.749
305.453
306.9
303.055
304.131
302.788
302.138
312.488
309.909
307.326
315.209
313.788
314.551
316.665
316.174
316.425
320.546
320.236
315.53
316.816
319.206
318.079
311.329
312.148
313.149
314.287
310.241
310.597
311.205
312.025
311.13
310.47
310.323
310.424
314.596
312.713
311.343
323.24
320.786
315.237
316.241
318.423
326.788
330.397
328.183
324.429
331.87
336.552
335.798
336.373
333.467
335.007
336.754
327.965
324.385
334.045
331.617
305.261
300.035
300.332
319.606
312.553
301.389
301.388
301.385
301.384
301.379
301.372
301.359
301.338
301.307
301.267
301.225
301.206
301.518
303.91
308.748
311.136
311.825
311.959
311.912
311.787
311.001
309.943
311.03
314.608
317.524
318.544
317.974
318.07
317.621
317.857
316.83
317.277
315.564
316.265
313.721
314.716
311.292
312.578
308.397
309.88
303.022
304.272
301.932
302.189
303.536
301.997
315.366
312.622
312.541
309.061
319.442
318.243
317.765
319.793
320.09
320.498
324.146
323.725
318.488
319.982
322.637
321.39
313.02
314.191
315.53
316.985
310.924
311.718
312.712
313.872
310.643
310.503
310.634
311.27
313.335
311.918
311.003
322.066
319.792
314.38
315.954
317.732
325.936
329.762
327.735
323.74
331.521
336.816
336.308
336.284
333.153
334.723
336.843
328.593
324.807
334.782
332.315
303.29
300.021
300.143
319.556
311.291
301.421
301.414
301.409
301.4
301.391
301.376
301.356
301.327
301.29
301.248
301.218
301.339
302.957
307.658
310.688
311.395
311.48
311.572
311.896
312.427
312.943
313.947
315.642
317.575
318.351
317.306
316.674
316.669
316.206
316.505
315.242
315.788
313.684
314.544
311.469
312.656
308.714
310.144
305.712
307.2
301.538
302.027
301.481
301.357
306.501
303.972
302.442
317.908
315.361
314.155
311.186
322.795
321.474
320.159
322.125
323.631
324.116
326.999
326.387
321.734
323.315
325.885
324.725
315.226
316.743
318.368
320.06
312.261
313.427
314.73
316.273
310.743
310.825
311.494
312.688
312.894
311.777
311.195
321.668
319.781
314.37
316.282
317.962
325.788
329.688
327.953
323.949
331.469
336.98
336.647
336.063
333.038
334.472
336.857
329.229
325.243
335.396
332.978
301.941
300.017
300.117
319.469
310.029
301.442
301.435
301.421
301.409
301.395
301.374
301.348
301.317
301.28
301.24
301.275
302.186
306.164
310.065
310.879
310.206
309.852
310.818
312.05
313.27
314.646
316.037
317.489
317.908
316.782
312.539
314.399
314.508
313.876
314.216
312.68
313.365
310.799
311.821
308.299
309.617
305.494
306.908
302.888
304.096
300.994
301.095
301.356
301.055
307.988
304.887
302.403
303.983
319.099
316.789
314.912
312.35
325.273
323.836
321.162
323.058
326.717
327.061
329.078
328.082
325.14
326.686
328.938
327.979
317.956
319.759
321.596
323.412
314.175
315.675
317.343
319.219
311.142
311.697
312.957
314.741
313.018
312.072
311.836
322.176
320.466
314.816
317.363
318.857
326.396
329.951
328.673
324.953
331.626
337.05
336.844
335.869
333.035
334.394
336.806
329.838
325.652
335.836
333.56
301.746
300.047
300.25
319.499
310.119
301.459
301.447
301.426
301.413
301.397
301.379
301.36
301.332
301.29
301.28
301.72
304.654
309.173
310.465
309.439
307.588
307.44
309.379
311.917
313.877
315.476
316.753
316.799
315.458
310.987
306.435
310.905
306.289
311.015
310.545
310.886
309.226
309.992
307.221
308.291
304.711
305.998
302.473
303.491
301.357
301.798
300.826
300.793
301.483
300.975
309.538
306.621
302.734
304.789
319.313
317.221
314.966
312.652
326.666
324.898
321.236
323.087
329.438
329.51
330.554
329.047
328.521
329.894
331.568
330.948
321.159
323.141
325.073
326.882
316.707
318.558
320.54
322.642
312.065
313.243
315.231
317.547
313.645
313.129
313.178
323.545
322.163
316.149
319.873
320.908
327.446
330.423
329.202
326.214
331.82
337.048
336.902
335.685
333.077
334.272
336.719
330.37
326.115
336.049
334.058
302.68
301.443
301.637
319.856
311.844
301.471
301.447
301.438
301.435
301.446
301.461
301.452
301.405
301.34
301.547
303.451
307.914
310.022
309.221
306.621
304.954
305.326
307.452
310.423
312.897
314.312
314.136
312.466
308.19
303.519
306.635
302.774
302.749
306.746
306.326
306.63
305.104
305.8
303.388
304.278
301.943
302.578
301.149
301.471
300.838
300.95
300.784
300.712
302.076
301.399
301.008
310.15
307.497
303.604
305.709
318.835
317.02
314.47
312.49
327.111
325.004
320.549
322.394
331.694
331.455
331.339
329.343
331.66
332.73
333.62
333.433
324.722
326.727
328.602
330.252
319.934
322.054
324.222
326.398
314.121
315.947
318.504
321.249
315.469
315.433
316.246
325.053
324.038
319.454
323.191
323.342
327.92
330.563
329.236
326.632
331.82
336.978
336.785
335.536
332.896
334.045
336.574
330.942
326.577
336.084
334.531
306.228
303.02
306.399
320.735
314.71
301.484
301.47
301.525
301.63
301.744
301.791
301.713
301.541
301.557
302.721
306.503
309.438
309.238
306.589
304.132
303.183
303.73
305.464
307.561
309.164
309.437
308.057
305.079
302.306
300.957
302.8
301.107
301.137
302.813
302.549
302.726
301.96
302.274
301.351
301.639
300.945
301.115
300.752
300.829
300.693
300.712
300.793
300.686
302.42
301.526
300.961
301.243
310.273
307.966
304.138
306.018
317.713
316.191
313.514
311.871
327.062
324.647
319.265
321.195
333.484
332.741
331.494
329.205
334.314
335.013
335.151
335.229
328.427
330.276
331.915
333.257
323.828
326.036
328.186
330.207
317.969
320.35
323.044
325.725
319.48
320.278
321.965
325.632
324.895
323.207
323.965
324.493
327.846
330.467
328.955
326.53
331.253
336.606
336.486
335.365
332.477
333.639
335.899
331.453
327.095
336.001
334.782
310.72
302.925
309.721
321.957
317.223
301.57
301.676
302.019
302.306
302.402
302.297
302.02
301.727
302.467
305.335
308.704
309.256
306.815
304.164
302.688
302.126
302.527
303.533
304.512
304.849
304.127
302.666
301.441
300.868
300.737
300.781
301.102
300.773
301.105
301.044
301.084
300.912
300.981
300.786
300.845
300.7
300.739
300.648
300.673
300.65
300.643
301.027
300.91
300.771
300.684
303.069
301.837
301.414
310.012
308.014
304.503
306.099
316.268
314.953
312.306
310.948
326.484
323.674
317.825
319.844
334.534
333.318
331.297
328.629
336.234
336.371
335.825
336.32
331.988
333.48
334.719
335.631
328.123
330.148
331.979
333.553
323.848
325.981
328.065
329.965
323.57
324.47
325.439
325.266
324.842
323.761
324.011
324.342
327.404
329.534
328.222
326.147
330.533
335.983
336.144
334.151
331.412
330.782
335.144
332.031
327.781
335.872
334.911
313.949
300.631
308.62
323.286
319.195
302.014
302.406
302.911
303.077
302.97
302.656
302.225
302.493
304.642
307.902
309.133
307.456
304.624
302.84
301.88
301.478
301.687
302.037
302.207
301.943
301.41
301.003
300.811
300.745
300.707
300.731
300.714
300.717
300.768
300.723
300.763
300.743
300.754
300.711
300.727
300.677
300.693
300.635
300.66
300.613
300.621
300.623
300.608
301.19
301.006
300.814
300.725
303.382
302.244
301.776
309.431
307.788
304.605
305.973
314.922
313.606
311.177
309.933
325.547
322.456
316.402
318.358
334.882
333.392
330.899
327.768
336.915
336.904
335.956
336.628
334.779
335.723
336.383
336.749
331.594
332.845
333.958
334.854
327.08
328.396
329.688
331.03
323.905
324.159
322.825
325.548
320.06
321.1
321.213
320.467
326.476
328.821
328.193
326.147
329.332
335.526
335.791
333.523
328.937
330.997
334.65
332.496
328.646
335.575
334.914
315.546
300.464
306.388
324.46
320.687
303.002
303.43
303.748
303.698
303.394
302.95
302.769
304.473
307.253
308.803
307.972
305.588
303.546
302.121
301.314
301.158
301.199
301.23
301.144
300.98
300.863
300.798
300.76
300.725
300.696
300.696
300.705
300.706
300.716
300.709
300.69
300.7
300.668
300.68
300.64
300.653
300.602
300.622
300.586
300.596
300.619
300.591
301.4
301.181
300.909
300.992
300.883
300.717
303.559
302.611
302.078
308.668
307.346
304.616
305.716
313.637
312.393
310.169
309.066
324.358
321.014
314.951
316.758
334.903
333.253
330.471
326.992
337.032
336.965
335.858
336.613
335.65
336.395
336.805
336.931
332.111
333.155
334.064
334.715
323.976
324.933
325.451
326.087
322.02
322.484
318.323
320.104
315.142
316.464
316.429
315.544
320.461
328.489
320.731
320.44
328.374
334.861
335.052
332.391
321.571
329.526
321.799
333.569
333.047
329.408
335.366
334.79
316.953
384.037
310.051
325.462
322.001
304.128
304.344
304.405
304.189
303.817
303.551
304.577
306.968
308.448
308.206
306.382
304.413
302.75
301.406
301.08
301.011
300.983
300.942
300.886
300.841
300.807
300.774
300.744
300.71
300.687
300.685
300.687
300.696
300.699
300.687
300.666
300.677
300.639
300.653
300.606
300.621
300.58
300.59
300.565
300.566
300.632
300.574
301.726
301.42
301.243
301.069
300.79
303.661
302.824
302.374
307.962
306.837
304.548
305.474
312.321
311.223
309.204
308.281
323.076
319.422
313.434
315.023
334.692
332.884
330.115
326.646
336.663
336.574
335.462
336.213
335.178
335.837
336.449
336.601
326.283
326.661
326.734
326.915
318.727
319.541
319.675
319.881
316.86
318.636
310.765
314.93
308.942
309.816
309.537
309.204
314.786
321.123
314.82
314.801
321.724
334.015
334.762
331.017
315.301
322.354
315.48
333.029
333.332
330.169
334.867
334.623
320.138
694.126
329.691
326.312
323.668
304.992
305.027
304.931
304.719
304.577
305.071
306.959
308.181
308.234
306.887
305.088
303.304
301.67
301.105
300.995
300.949
300.913
300.88
300.848
300.823
300.795
300.761
300.732
300.698
300.691
300.677
300.675
300.676
300.679
300.666
300.642
300.654
300.619
300.631
300.592
300.604
300.568
300.58
300.552
300.551
300.697
300.571
302.078
301.889
301.672
301.481
300.969
303.797
303.078
302.82
307.347
306.413
304.573
305.384
310.935
310.054
308.308
307.608
322.326
317.786
311.86
313.369
334.383
332.535
330.084
326.483
335.63
335.551
334.922
335.748
327.083
333.798
335.482
335.314
319.837
319.886
319.814
319.787
310.99