/*--------------------------------*- C++ -*----------------------------------*\
  =========                 |
  \\      /  F ield         | OpenFOAM: The Open Source CFD Toolbox
   \\    /   O peration     | Website:  https://openfoam.org
    \\  /    A nd           | Version:  dev
     \\/     M anipulation  |
\*---------------------------------------------------------------------------*/
FoamFile
{
    version     2.0;
    format      ascii;
    class       volVectorField;
    location    "2500";
    object      U;
}
// * * * * * * * * * * * * * * * * * * * * * * * * * * * * * * * * * * * * * //

dimensions      [0 1 -1 0 0 0 0];

internalField   nonuniform List<vector> 
9836
(
(0.00459767 0.0072724 -6.21581e-28)
(0.0109835 0.00659919 -9.66249e-28)
(0.00455407 0.0189664 -6.68247e-29)
(0.0151519 0.00561863 0)
(0.0120362 0.0193328 -6.76697e-29)
(0.00392253 0.0273521 -7.70279e-28)
(0.0184126 0.00460081 1.02117e-27)
(0.0169822 0.0187724 0)
(0.0115866 0.0283676 -1.2875e-27)
(0.0032916 0.034243 -7.74177e-28)
(0.0210234 0.00383647 1.91936e-27)
(0.0202842 0.0170674 0)
(0.0176808 0.0291127 1.65296e-27)
(0.0102869 0.0352331 -1.23191e-27)
(0.00289581 0.0403742 4.3615e-28)
(0.0231754 0.00320371 9.08147e-28)
(0.0225813 0.0146433 1.6005e-27)
(0.0221633 0.0287926 3.67037e-27)
(0.0168712 0.0367256 1.66391e-27)
(0.008957 0.0411155 1.17316e-27)
(0.00261705 0.0459868 6.5441e-36)
(0.0251131 0.00273189 0)
(0.0244221 0.0123048 1.59522e-27)
(0.0252 0.0272832 4.0087e-27)
(0.0224231 0.0378083 3.74312e-27)
(0.0151897 0.0425596 0)
(0.00800848 0.0465296 -1.07137e-28)
(0.00241625 0.0511527 -8.36345e-28)
(0.0269146 0.0023957 0)
(0.0260425 0.010382 0)
(0.0271494 0.0249235 1.96577e-27)
(0.0266952 0.0378468 4.35352e-27)
(0.0212337 0.044341 1.83522e-27)
(0.0135519 0.0476641 0)
(0.00733555 0.0515521 -1.25371e-27)
(0.00224551 0.0559936 -2.00553e-28)
(0.0286611 0.00215815 0)
(0.0275712 0.00902044 -1.16743e-28)
(0.0284166 0.0220851 -1.09784e-27)
(0.0296633 0.0366214 2.19532e-27)
(0.0265172 0.0457237 2.21361e-27)
(0.0193074 0.0493587 1.84929e-27)
(0.0123372 0.0523944 1.14682e-28)
(0.00680456 0.0563522 1.19288e-27)
(0.00209764 0.0605124 0)
(0.0303547 0.00198111 0)
(0.0291357 0.00813678 5.78224e-29)
(0.0294747 0.0191549 -1.14352e-27)
(0.0315308 0.0343716 -9.76324e-29)
(0.0307226 0.0461358 0)
(0.024982 0.0513384 4.31354e-27)
(0.0174993 0.0537855 1.78415e-27)
(0.0113978 0.0570166 1.57055e-27)
(0.00635223 0.060819 0)
(0.00197082 0.0647843 0)
(0.0319615 0.00184248 0)
(0.0307446 0.00748457 0)
(0.0305487 0.0165329 1.02225e-27)
(0.0326271 0.0314427 1.46578e-28)
(0.0337611 0.0453434 0)
(0.0301095 0.0530293 2.31002e-27)
(0.0228569 0.0556756 4.15354e-27)
(0.0160606 0.0581119 0)
(0.0106187 0.0613794 0)
(0.00595186 0.0650695 0)
(0.00185368 0.0688397 -4.03348e-28)
(0.0335319 0.00173173 0)
(0.0322979 0.00691892 0)
(0.0317192 0.014633 1.81814e-27)
(0.0332936 0.0282233 3.32639e-28)
(0.0356846 0.0433676 1.62693e-28)
(0.0343376 0.053873 -1.79055e-27)
(0.0282578 0.0578171 2.09912e-27)
(0.0209237 0.0596501 0)
(0.0149345 0.0622804 1.57142e-27)
(0.00994701 0.0655539 0)
(0.00559248 0.0690985 -1.37297e-27)
(0.00174937 0.0726805 -4.01284e-28)
(0.0350834 0.0016457 4.06963e-28)
(0.0337893 0.00644492 0)
(0.033044 0.0134665 8.81803e-28)
(0.0338683 0.0250736 -1.14646e-27)
(0.0367471 0.0405397 1.62733e-28)
(0.0374959 0.0535486 -1.2091e-27)
(0.0332925 0.0597862 -5.04455e-28)
(0.0260045 0.0616279 -3.87899e-28)
(0.0193721 0.0635189 2.05293e-27)
(0.0139903 0.0663374 -1.24893e-28)
(0.00935497 0.0695257 -1.0613e-27)
(0.00528056 0.0729193 1.44781e-27)
(0.00164857 0.0763404 0)
(0.0365851 0.00157929 8.12614e-28)
(0.0352742 0.00610097 -5.74735e-29)
(0.0344272 0.0126382 1.71953e-27)
(0.0345922 0.0223295 -1.10649e-27)
(0.0372387 0.0372003 -1.28875e-27)
(0.0395752 0.0519975 -6.27962e-29)
(0.037577 0.0610753 -5.11155e-28)
(0.0311472 0.0638968 0)
(0.0239822 0.0651732 -2.6564e-28)
(0.0180936 0.0674012 1.91122e-27)
(0.0131521 0.0702287 1.73741e-27)
(0.008819 0.0732999 2.08654e-27)
(0.0049855 0.0765839 4.58495e-28)
(0.00155324 0.0798036 3.90978e-28)
(0.0380676 0.00152219 8.12267e-28)
(0.0367504 0.00584827 0)
(0.0357865 0.0118855 1.60146e-27)
(0.0355828 0.0202733 0)
(0.0375148 0.0336734 -1.26925e-27)
(0.0407359 0.0494166 0)
(0.0409028 0.0612682 5.1594e-28)
(0.0360886 0.0661182 7.07596e-28)
(0.0287852 0.0672486 -1.2173e-27)
(0.0223078 0.0687688 2.12332e-27)
(0.0169917 0.0711768 3.57379e-27)
(0.0123856 0.0739603 0)
(0.00831803 0.0769413 0)
(0.00469734 0.0800363 4.55508e-28)
(0.00146416 0.0831111 3.8413e-28)
(0.0395635 0.00146964 8.11082e-28)
(0.0382196 0.00564541 0)
(0.0371641 0.011226 7.42261e-28)
(0.0367377 0.0188266 0)
(0.0378841 0.0303523 0)
(0.0412582 0.0461497 0)
(0.0432071 0.0602057 -1.50748e-27)
(0.0404845 0.0677863 1.64468e-27)
(0.033721 0.0696339 -1.33526e-27)
(0.0267099 0.0705088 0)
(0.0208989 0.0723778 2.09458e-27)
(0.0159933 0.0748509 -1.31828e-28)
(0.0116694 0.0775498 5.08133e-28)
(0.00784144 0.080377 0)
(0.00442056 0.0833439 2.19141e-27)
(0.00137411 0.0862537 0)
(0.0410661 0.00142538 3.5711e-28)
(0.0396906 0.005469 0)
(0.0385648 0.0106778 7.16997e-28)
(0.0379995 0.0176967 -1.51453e-28)
(0.0384598 0.0275693 -9.42574e-29)
(0.0413825 0.0425157 0)
(0.0445715 0.0579881 -5.2124e-32)
(0.0440075 0.0684861 9.84432e-28)
(0.0386076 0.0720536 -1.1307e-27)
(0.0313045 0.0726407 1.61141e-28)
(0.024937 0.073899 0)
(0.019652 0.075941 2.75158e-28)
(0.0150659 0.0783753 0)
(0.0109989 0.080963 1.01726e-27)
(0.00738294 0.0836618 2.32968e-27)
(0.00415148 0.0864898 4.43735e-28)
(0.00128504 0.0892242 0)
(0.0425664 0.00139098 4.09071e-28)
(0.0411619 0.00530415 4.92271e-28)
(0.0399884 0.0102183 7.56005e-28)
(0.0393007 0.0167058 8.10516e-28)
(0.0393283 0.0254649 -1.79823e-28)
(0.0414644 0.0387976 1.24659e-27)
(0.0451983 0.0549183 -1.28961e-28)
(0.0465567 0.0679971 -1.58593e-27)
(0.0430644 0.0740999 9.52641e-28)
(0.0360546 0.0751178 -4.10944e-28)
(0.0291442 0.075776 1.3262e-27)
(0.0233868 0.0772759 2.99214e-31)
(0.0185071 0.0793848 -2.78615e-28)
(0.014198 0.0817533 1.78957e-27)
(0.0103583 0.0842261 1.01507e-27)
(0.00693589 0.0867951 -1.0001e-27)
(0.00388225 0.0894672 0)
(0.00119719 0.0920475 -7.02141e-28)
(0.0440586 0.00137518 4.17267e-28)
(0.042629 0.00514892 1.19064e-27)
(0.0414402 0.00984905 6.16133e-28)
(0.0405956 0.0158393 8.59555e-28)
(0.040436 0.023883 1.02133e-27)
(0.0417357 0.0353457 2.44951e-27)
(0.0453747 0.0513265 1.41993e-42)
(0.0481786 0.0663339 -1.75222e-27)
(0.0467628 0.0753324 1.74749e-27)
(0.040806 0.0777317 5.96973e-28)
(0.0335198 0.0780303 7.72764e-28)
(0.027261 0.078901 -1.23049e-27)
(0.0220083 0.0806016 1.15398e-27)
(0.0174477 0.0827016 1.62645e-27)
(0.0133691 0.0849979 -2.68719e-28)
(0.00974036 0.0873404 -1.58298e-27)
(0.0064943 0.0897683 2.07025e-27)
(0.00361514 0.0922932 -1.26783e-27)
(0.00110764 0.0946984 -6.72845e-28)
(0.0455591 0.0013509 -4.24004e-29)
(0.0441113 0.00499853 1.12009e-27)
(0.0428858 0.0095515 -5.88027e-29)
(0.0419374 0.0151073 9.7278e-28)
(0.0416181 0.0225807 9.8851e-28)
(0.0422648 0.0324934 1.29475e-27)
(0.0453196 0.0474914 2.6745e-27)
(0.0490151 0.0636605 0)
(0.0495547 0.0754861 0)
(0.0452618 0.0801232 -1.43626e-27)
(0.0380551 0.0806101 2.70398e-27)
(0.0312918 0.0808616 -7.3769e-35)
(0.0256199 0.0820507 1.5281e-28)
(0.0207506 0.0838321 1.1601e-27)
(0.0164407 0.0859158 2.2519e-27)
(0.0125765 0.0880838 2.21553e-27)
(0.0091289 0.0903123 2.70199e-27)
(0.00605029 0.0925909 -3.59733e-27)
(0.00334717 0.0949582 1.66258e-27)
(0.00101331 0.0971891 2.2755e-27)
(0.0470798 0.00131634 4.22375e-28)
(0.0456164 0.00486822 4.83559e-28)
(0.0443516 0.00927351 -1.12974e-28)
(0.0433355 0.014499 7.39586e-28)
(0.0428029 0.021451 3.196e-28)
(0.0430606 0.0303575 1.04775e-27)
(0.0452849 0.0437006 1.42554e-27)
(0.0493017 0.0603165 -1.38492e-28)
(0.0514633 0.0744452 1.68274e-27)
(0.0491149 0.0818681 -1.96807e-27)
(0.0426602 0.0833823 1.75263e-42)
(0.0354701 0.0831467 -7.8646e-28)
(0.0293618 0.0837685 2.0861e-27)
(0.0241428 0.0851746 1.38174e-27)
(0.0195653 0.0869965 2.36987e-27)
(0.015467 0.0889703 2.89175e-27)
(0.0117988 0.0910675 0)
(0.00850804 0.0931409 5.03534e-28)
(0.00559394 0.095267 -9.15539e-28)
(0.00306395 0.0974624 3.26159e-27)
(0.000914687 0.0994944 -5.97513e-28)
(0.0486075 0.00128963 3.9004e-28)
(0.0471253 0.00476856 0)
(0.0458228 0.00900974 6.57567e-28)
(0.0447702 0.0140096 6.4018e-29)
(0.0440619 0.0204623 8.52565e-28)
(0.0440134 0.0287555 2.56752e-27)
(0.0454796 0.0402655 1.15301e-27)
(0.0492339 0.0565903 0)
(0.0525633 0.0723259 3.67949e-27)
(0.0521918 0.0826354 3.10412e-28)
(0.04711 0.0860266 -1.65052e-27)
(0.0398242 0.0857645 -6.51866e-32)
(0.0332254 0.0857685 7.39644e-28)
(0.0276359 0.0867537 1.62636e-28)
(0.0227639 0.0882669 1.55802e-28)
(0.0184175 0.0900294 0)
(0.0145146 0.0919487 5.71532e-28)
(0.0110133 0.0939086 1.9027e-27)
(0.00787315 0.095831 2.47338e-27)
(0.00512404 0.0977793 -1.61676e-27)
(0.00276293 0.099785 0)
(0.000811213 0.101625 -5.52056e-28)
(0.0501392 0.00127906 0)
(0.0486348 0.00468211 4.92823e-28)
(0.047304 0.00876665 1.35168e-27)
(0.0462139 0.0136065 -6.1522e-29)
(0.0453774 0.0195656 2.08425e-27)
(0.04513 0.027458 8.7512e-28)
(0.0459301 0.0373631 2.64285e-27)
(0.0490281 0.0527288 1.52062e-27)
(0.0530098 0.0693722 3.06751e-27)
(0.0543881 0.0822728 3.12463e-28)
(0.0511283 0.0881914 3.22963e-28)
(0.0442961 0.0886201 1.94106e-27)
(0.0372281 0.0880788 -1.4685e-27)
(0.0312398 0.0885743 7.26267e-28)
(0.0260436 0.0897427 1.93926e-28)
(0.0214387 0.091276 -2.49128e-27)
(0.0172929 0.0929744 0)
(0.0135707 0.0948031 2.52296e-27)
(0.010211 0.0966196 4.06723e-27)
(0.00722576 0.0983513 -3.11987e-27)
(0.00462952 0.100126 -1.82658e-27)
(0.00244878 0.101933 2.88681e-27)
(0.000696962 0.103554 4.99492e-28)
(0.0516709 0.0012712 -4.35986e-28)
(0.0501467 0.00457777 -3.93067e-29)
(0.0488154 0.00854239 6.42314e-28)
(0.0476774 0.0132271 -5.81787e-29)
(0.0467291 0.0187763 2.07132e-27)
(0.0463643 0.026302 0)
(0.0466607 0.0350655 1.46136e-27)
(0.0489706 0.0489902 2.97664e-27)
(0.0530436 0.0658913 2.71478e-27)
(0.0557702 0.0807908 1.44808e-27)
(0.0544452 0.0895345 1.77656e-27)
(0.048697 0.0915075 1.69444e-27)
(0.0413996 0.0907079 -1.89754e-27)
(0.0349429 0.0906428 1.79229e-27)
(0.029421 0.0914266 2.0343e-27)
(0.0245359 0.092706 1.29612e-27)
(0.0201518 0.0941798 -2.52311e-27)
(0.0161803 0.0958364 0)
(0.0126096 0.0975443 2.64202e-27)
(0.00938085 0.0991653 -5.41797e-28)
(0.00654347 0.10074 -3.30864e-27)
(0.00409683 0.102296 -1.72834e-32)
(0.00210788 0.103895 -7.00251e-28)
(0.000570794 0.105259 4.376e-28)
(0.0531955 0.00125176 -4.37733e-28)
(0.0516705 0.00446946 -5.9803e-28)
(0.0503363 0.00834127 -4.31908e-29)
(0.0491583 0.0128589 1.08407e-28)
(0.0481435 0.0181327 9.03701e-28)
(0.0475998 0.0252192 4.88926e-28)
(0.0476604 0.0333058 7.96214e-28)
(0.0491867 0.0455875 2.9088e-27)
(0.0528769 0.062122 1.60698e-27)
(0.0564804 0.0783549 2.87967e-27)
(0.0569466 0.0898432 2.46864e-27)
(0.0527858 0.0940735 2.84277e-27)
(0.0456929 0.0936413 1.64592e-27)
(0.0387652 0.0929955 2.17011e-42)
(0.0328847 0.0933156 1.0297e-27)
(0.0277117 0.0943142 6.72286e-28)
(0.0230781 0.0955807 2.66813e-27)
(0.018874 0.0970528 1.68253e-28)
(0.0150623 0.0985975 1.2273e-27)
(0.0116065 0.100139 0)
(0.00851131 0.101603 2.89518e-27)
(0.00580584 0.102954 -3.02404e-27)
(0.00352259 0.104293 -3.17727e-27)
(0.00172408 0.105629 4.09813e-27)
(0.000433509 0.106745 8.88134e-28)
(0.0547068 0.00123208 -4.40771e-28)
(0.0531937 0.00437831 3.12586e-29)
(0.0518698 0.00813142 -7.03361e-28)
(0.0506614 0.012513 0)
(0.0495866 0.0176145 -1.24847e-28)
(0.0488631 0.0242293 1.35376e-27)
(0.0487947 0.0319195 1.71774e-27)
(0.0496138 0.0427061 1.4068e-27)
(0.0527038 0.0582645 -5.69584e-28)
(0.0567047 0.0752168 4.09107e-27)
(0.0586452 0.0890447 0)
(0.0563197 0.0959915 4.32858e-27)
(0.0499822 0.0967039 2.75949e-27)
(0.042744 0.095673 1.61514e-27)
(0.0364241 0.095435 2.12701e-42)
(0.0309746 0.0961034 6.96776e-28)
(0.0260759 0.0971512 2.77137e-27)
(0.021644 0.0984533 -1.15781e-27)
(0.0175965 0.099805 -2.40828e-27)
(0.0139103 0.101246 1.24626e-27)
(0.0105653 0.102617 2.93884e-27)
(0.00759151 0.103871 5.45127e-28)
(0.00501874 0.104992 -7.49819e-27)
(0.00289846 0.106078 3.46517e-27)
(0.00129886 0.10715 2.14352e-27)
(0.000276335 0.108037 -7.77883e-27)
(0.0561893 0.00121642 -4.40634e-28)
(0.0547002 0.0042922 -5.5968e-28)
(0.0533857 0.00789759 -1.20367e-27)
(0.0521964 0.0122054 -1.8532e-28)
(0.0510658 0.0171486 -9.71415e-28)
(0.0502257 0.0233344 7.11177e-28)
(0.0499527 0.0307289 3.60853e-28)
(0.0503375 0.0404253 1.78647e-27)
(0.0526756 0.0545108 1.09538e-27)
(0.0566908 0.0716606 3.39421e-27)
(0.0596753 0.0872196 1.33032e-27)
(0.0591159 0.0969825 3.70473e-27)
(0.0540812 0.0996304 4.3293e-27)
(0.0468462 0.0986266 2.4203e-27)
(0.040092 0.0978295 0)
(0.0343115 0.0980791 -3.58894e-28)
(0.0291652 0.0988713 1.45478e-27)
(0.0244908 0.0999904 1.38511e-27)
(0.0202149 0.101202 2.48885e-28)
(0.0162975 0.102507 -5.27135e-27)
(0.0127041 0.103769 1.26841e-27)
(0.00947187 0.104954 -5.99407e-28)
(0.00660788 0.10597 -2.76459e-27)
(0.00416339 0.106856 -9.6571e-28)
(0.00220175 0.107653 0)
(0.000868385 0.108447 -8.39579e-27)
(0.000106519 0.10899 -7.26849e-28)
(0.0576416 0.0011931 0)
(0.056192 0.0041906 -5.58347e-28)
(0.0548776 0.00767642 -6.47152e-28)
(0.0537268 0.011927 -6.60153e-28)
(0.0525544 0.0166906 -1.04841e-27)
(0.0516576 0.0225291 -1.10275e-27)
(0.0511779 0.0296713 3.43325e-28)
(0.0513192 0.0385689 4.2099e-28)
(0.0529031 0.0510407 -5.22855e-28)
(0.0565899 0.067898 2.26502e-27)
(0.0602086 0.084571 -6.65987e-28)
(0.0611737 0.0969361 2.56457e-27)
(0.0577672 0.102059 1.85542e-27)
(0.0509874 0.101777 7.3926e-28)
(0.0438998 0.100516 1.50155e-27)
(0.0377336 0.100239 1.57243e-27)
(0.0323432 0.10075 3.02261e-27)
(0.0274323 0.101652 0)
(0.0229225 0.102754 1.46486e-27)
(0.0187724 0.103939 -1.38087e-27)
(0.0149407 0.105085 -2.51102e-27)
(0.011444 0.106177 -7.78178e-32)
(0.00829525 0.107147 -6.11581e-28)
(0.00553568 0.107928 -3.59078e-27)
(0.0032213 0.108502 0)
(0.00145817 0.108957 0)
(0.000390921 0.109363 0)
(-0.000102405 0.109527 -3.88759e-28)
(0.0590644 0.00116038 1.35264e-29)
(0.0576591 0.00407451 -1.07703e-27)
(0.056358 0.00748839 0)
(0.055225 0.0116364 -7.28489e-28)
(0.054068 0.0162491 -1.95777e-28)
(0.0531033 0.0218233 -9.32985e-28)
(0.0524768 0.0287535 -7.19e-28)
(0.0524108 0.036966 -8.12232e-28)
(0.0533989 0.048092 -9.33354e-28)
(0.0564991 0.0640591 3.80192e-28)
(0.0604111 0.0813568 1.76191e-27)
(0.0625727 0.0958542 -7.06495e-28)
(0.060871 0.103719 1.89043e-27)
(0.0550528 0.104921 0)
(0.0478138 0.103474 0)
(0.0412707 0.102621 4.04318e-27)
(0.0355912 0.102779 2.40097e-27)
(0.0304624 0.103452 0)
(0.0257331 0.104422 0)
(0.0213527 0.105499 -1.49819e-27)
(0.0172889 0.106581 -1.22106e-27)
(0.0135236 0.107566 1.96854e-28)
(0.0100964 0.108477 -1.33481e-27)
(0.00701875 0.109208 -3.57502e-27)
(0.00435721 0.10967 2.28105e-27)
(0.00216147 0.109921 5.32483e-28)
(0.000642289 0.110069 0)
(-0.00019711 0.110061 2.58118e-27)
(-0.000328358 0.109697 0)
(0.0604564 0.00111425 -2.08997e-30)
(0.0590921 0.00396833 -1.071e-27)
(0.0578196 0.00730749 4.4544e-29)
(0.056705 0.0113076 1.43778e-27)
(0.0556092 0.0158121 3.52433e-28)
(0.0545885 0.0211773 -3.84963e-27)
(0.0538638 0.0279082 -1.60472e-27)
(0.0535755 0.0355647 -3.77646e-28)
(0.0541214 0.0457332 8.9177e-28)
(0.056511 0.0603174 2.7009e-27)
(0.0604434 0.0778422 -6.67031e-28)
(0.0634289 0.0938781 4.30141e-28)
(0.0632976 0.104433 3.8208e-27)
(0.0588508 0.107772 0)
(0.0518126 0.106625 1.81535e-27)
(0.0449352 0.105247 1.84245e-27)
(0.0389305 0.104966 3.28215e-27)
(0.0335709 0.105392 8.27729e-28)
(0.0286481 0.106195 -7.91518e-28)
(0.0240409 0.107165 -1.53007e-27)
(0.0197513 0.108213 -1.47355e-27)
(0.0157274 0.10915 1.98306e-28)
(0.0120186 0.109966 2.06424e-28)
(0.00863168 0.110654 2.77072e-27)
(0.0056191 0.111089 0)
(0.00302458 0.111239 2.88162e-27)
(0.000978919 0.111139 0)
(-0.000352051 0.110858 2.61741e-27)
(-0.000944042 0.110359 5.89608e-27)
(-0.000607483 0.109433 0)
(0.0618048 0.00105267 -8.20184e-29)
(0.060497 0.00387529 -7.19856e-30)
(0.0592552 0.00710427 2.47492e-27)
(0.0581854 0.0109386 4.2398e-27)
(0.057132 0.0153606 2.80323e-27)
(0.0561144 0.0205601 -3.08796e-27)
(0.0553232 0.0270813 3.29861e-27)
(0.0548445 0.034387 3.71181e-27)
(0.0550307 0.0438262 1.70146e-27)
(0.0567268 0.0568712 -5.56566e-28)
(0.0603469 0.0742005 -3.45471e-28)
(0.0638662 0.0912306 3.24074e-27)
(0.0650474 0.104188 4.13407e-28)
(0.0621796 0.110019 3.65386e-28)
(0.0558009 0.10986 3.7308e-27)
(0.0486902 0.108121 3.56987e-27)
(0.042381 0.107331 9.08067e-29)
(0.0367732 0.107457 1.65041e-27)
(0.0316531 0.10806 -8.20116e-28)
(0.0268508 0.108947 2.34257e-27)
(0.0223312 0.109941 3.89782e-27)
(0.0180629 0.110884 -1.51726e-27)
(0.0140658 0.111651 -1.30371e-27)
(0.0103904 0.112273 2.17705e-28)
(0.0070315 0.112694 3.84834e-27)
(0.00405767 0.11282 0)
(0.00153237 0.11259 0)
(-0.000338268 0.112075 0)
(-0.00150604 0.111241 5.87687e-27)
(-0.00176917 0.110207 0)
(-0.000932302 0.108619 0)
(0.0630891 0.000992843 6.05747e-28)
(0.0618559 0.00376579 1.00063e-28)
(0.0606577 0.00688714 2.43351e-27)
(0.0596266 0.0105689 2.76348e-27)
(0.058619 0.0149149 3.04689e-27)
(0.0576142 0.0199874 3.06469e-27)
(0.0567858 0.0263027 3.74715e-27)
(0.056215 0.0334004 3.59525e-27)
(0.056097 0.0422161 0)
(0.0571858 0.0539051 2.09486e-27)
(0.0602417 0.0705309 0)
(0.0639973 0.0881579 0)
(0.0661919 0.10304 1.50225e-27)
(0.0648986 0.111499 3.65926e-28)
(0.0595971 0.112976 2.80266e-28)
(0.0525159 0.111234 1.8441e-27)
(0.0458921 0.1099 0)
(0.0400648 0.109639 0)
(0.0347394 0.110028 0)
(0.0297713 0.110833 1.62386e-27)
(0.0250336 0.111756 2.39693e-27)
(0.0205405 0.112715 7.83885e-28)
(0.0162771 0.113493 -1.57496e-27)
(0.0122919 0.114089 -2.82119e-27)
(0.00861587 0.114469 9.25081e-28)
(0.00526624 0.1146 -5.10195e-28)
(0.00231369 0.114351 0)
(-0.000113974 0.113715 0)
(-0.00187604 0.112684 0)
(-0.00286015 0.111262 -6.66126e-27)
(-0.00275937 0.109536 3.04539e-26)
(-0.00131653 0.107175 -2.20216e-27)
(0.0642839 0.000944493 1.62622e-27)
(0.0631377 0.00361201 -1.30331e-28)
(0.0620322 0.00666635 6.1736e-29)
(0.0610213 0.0102277 0)
(0.0600549 0.0144825 -4.32511e-28)
(0.0590704 0.0194668 3.37387e-27)
(0.0582343 0.0255719 0)
(0.0576388 0.0325041 0)
(0.0572866 0.0408552 -4.69015e-27)
(0.0578778 0.0514497 1.27749e-26)
(0.0602561 0.0669645 2.46007e-27)
(0.0639593 0.0848651 2.80085e-27)
(0.0668421 0.101147 7.40939e-27)
(0.0669461 0.112115 0)
(0.0630019 0.115742 -1.65446e-27)
(0.0563291 0.114506 1.70247e-27)
(0.0494687 0.112679 0)
(0.0434058 0.111965 0)
(0.0379045 0.112111 0)
(0.0327744 0.11279 1.67775e-27)
(0.0278688 0.113659 8.37765e-28)
(0.023168 0.114614 -1.60734e-27)
(0.0186522 0.115433 8.13527e-28)
(0.0143737 0.116064 1.69274e-27)
(0.0103699 0.116454 -3.35507e-27)
(0.00667015 0.116566 -4.93055e-28)
(0.00330505 0.116353 0)
(0.000371658 0.115678 -3.12011e-27)
(-0.00201371 0.114593 2.74449e-27)
(-0.00370649 0.112976 -6.71274e-27)
(-0.00449138 0.110826 6.58165e-26)
(-0.00392319 0.108222 0)
(-0.001671 0.104981 -2.1396e-26)
(0.0653776 0.000894046 1.26919e-27)
(0.0643321 0.00341509 1.95449e-28)
(0.0633545 0.00643342 1.36461e-28)
(0.0624024 0.00988998 -7.85413e-29)
(0.0614561 0.014037 0)
(0.0605115 0.0189694 -7.11736e-27)
(0.0596491 0.0248663 0)
(0.0590613 0.0316642 0)
(0.0586066 0.0397211 -4.48822e-27)
(0.0587599 0.0494565 1.02506e-26)
(0.0604783 0.0636728 2.31382e-27)
(0.0638633 0.0815001 0)
(0.0671215 0.0987022 1.01807e-26)
(0.068348 0.1119 0)
(0.0658759 0.117928 0)
(0.0599806 0.117791 -7.69047e-27)
(0.0530717 0.115689 -1.96571e-27)
(0.0467781 0.114451 5.39139e-27)
(0.0411363 0.114293 1.77424e-27)
(0.0358598 0.114793 3.47679e-27)
(0.0308313 0.115623 1.70368e-27)
(0.0259392 0.116574 1.6601e-27)
(0.0212065 0.117452 -1.66122e-27)
(0.016647 0.11815 8.50551e-28)
(0.0123215 0.118603 1.75243e-27)
(0.00827158 0.11873 2.25662e-28)
(0.00452405 0.118539 7.33201e-27)
(0.00111597 0.117938 0)
(-0.00183621 0.116851 1.41746e-27)
(-0.00423804 0.115212 2.97661e-27)
(-0.00584931 0.11289 2.61604e-26)
(-0.00650546 0.109865 9.10941e-27)
(-0.00543917 0.106103 5.97161e-26)
(-0.0010289 0.102319 0)
(-0.003133 0.103014 0)
(0.0663612 0.000826013 -1.84971e-28)
(0.0654371 0.00319909 3.07986e-28)
(0.0645844 0.00616959 -2.31634e-27)
(0.0637573 0.00953379 2.0038e-31)
(0.0628345 0.0135795 -3.71945e-32)
(0.0619264 0.0184751 -6.44902e-27)
(0.0610536 0.0242072 0)
(0.0604376 0.0308907 0)
(0.05996 0.0387527 2.56587e-27)
(0.0597863 0.0478646 0)
(0.0609398 0.0607835 4.31505e-27)
(0.0637917 0.0781797 -5.32584e-27)
(0.0671529 0.0959506 0)
(0.0691972 0.11093 0)
(0.0681278 0.119423 0)
(0.0633182 0.120906 -2.67939e-26)
(0.0566396 0.118897 -7.81105e-27)
(0.0501621 0.117108 1.12483e-26)
(0.0443907 0.116553 5.39531e-27)
(0.0390271 0.116837 -7.87331e-29)
(0.0338954 0.117608 0)
(0.0288761 0.118569 1.72393e-27)
(0.0239467 0.119517 0)
(0.0191347 0.120293 -8.64229e-28)
(0.0144945 0.12086 -9.00818e-28)
(0.0100913 0.121082 9.46665e-28)
(0.00596904 0.120935 2.46412e-28)
(0.00214071 0.120378 8.08193e-27)
(-0.00134534 0.119406 -7.49522e-36)
(-0.00437611 0.117836 -6.37622e-31)
(-0.00682578 0.115537 6.57212e-27)
(-0.00840061 0.112339 -2.46381e-27)
(-0.0087103 0.108153 8.46955e-26)
(-0.00549238 0.103368 0)
(-0.00791203 0.10429 2.50976e-27)
(-0.00130585 0.10036 -7.61115e-27)
(-0.00370414 0.101152 -5.75816e-27)
(0.0671928 0.000736536 4.84864e-28)
(0.0664504 0.00296305 0)
(0.0657221 0.00585698 -2.32282e-27)
(0.0650368 0.00914191 2.73765e-27)
(0.0642071 0.0131092 2.81069e-27)
(0.063314 0.0179607 8.12993e-29)
(0.0624626 0.0236029 0)
(0.0617775 0.0301643 0)
(0.0612763 0.037902 -8.35466e-27)
(0.0609459 0.0466057 2.51254e-30)
(0.0615379 0.0583816 0)
(0.0638302 0.0750083 2.92413e-30)
(0.0670561 0.0930956 1.61698e-27)
(0.0695903 0.109377 0)
(0.0697312 0.120174 0)
(0.0661958 0.123664 -1.54156e-26)
(0.0600569 0.122207 -1.14509e-26)
(0.0535316 0.119949 1.14366e-26)
(0.0476442 0.118898 -1.52108e-26)
(0.0422423 0.11891 -1.94375e-27)
(0.0370565 0.119578 1.73273e-27)
(0.0319494 0.120559 0)
(0.0268755 0.121597 0)
(0.021842 0.122497 1.67138e-27)
(0.0169151 0.123196 1.66555e-27)
(0.0121457 0.123546 -9.68081e-28)
(0.00763832 0.123511 1.0358e-27)
(0.00342289 0.123048 -5.33261e-28)
(-0.000505976 0.122159 -1.25205e-27)
(-0.0041492 0.120756 0)
(-0.0073284 0.118598 -1.14658e-26)
(-0.00987915 0.115478 5.50811e-27)
(-0.0101553 0.110263 2.31717e-27)
(-0.0114309 0.112185 -2.75823e-27)
(-0.00978567 0.105502 3.98981e-27)
(-0.0113676 0.11036 0)
(-0.0117283 0.107131 5.62151e-27)
(-0.00645827 0.10158 7.11442e-28)
(-0.00893025 0.102598 7.35253e-28)
(-0.00142494 0.0981155 8.82481e-27)
(-0.00430708 0.0989754 1.01612e-26)
(0.0678392 0.000635873 8.62088e-28)
(0.0673184 0.00268128 4.52654e-28)
(0.0667631 0.00549571 1.35456e-27)
(0.0662262 0.00869872 2.62802e-27)
(0.0655509 0.0125839 6.10967e-27)
(0.0646983 0.0174073 0)
(0.0638858 0.0230113 -1.73987e-28)
(0.0631449 0.0294536 0)
(0.062606 0.037098 -9.08514e-27)
(0.0621714 0.045566 -2.70444e-27)
(0.0622868 0.056484 2.73274e-27)
(0.0639912 0.072112 1.10294e-26)
(0.0669196 0.090308 -4.23339e-27)
(0.0696573 0.107442 -6.08764e-27)
(0.0707049 0.120272 0)
(0.0684922 0.125918 -7.14468e-27)
(0.0631768 0.125481 0)
(0.0568118 0.122976 -7.84011e-27)
(0.0508637 0.121346 -1.54424e-26)
(0.0454529 0.121001 0)
(0.0402816 0.121525 0)
(0.0351564 0.122515 7.41415e-27)
(0.0299789 0.123674 -3.39688e-27)
(0.0247661 0.124721 -1.72467e-29)
(0.0195753 0.125574 -1.53396e-28)
(0.014487 0.126099 0)
(0.00958027 0.126217 -2.11795e-27)
(0.00494947 0.125887 1.81158e-27)
(0.00061886 0.125118 0)
(-0.00348711 0.123874 1.02402e-26)
(-0.00736197 0.121968 4.46864e-29)
(-0.0107629 0.119096 1.19734e-27)
(-0.0121729 0.113876 0)
(-0.0131898 0.116173 -2.03808e-27)
(-0.0128123 0.112128 -2.94843e-27)
(-0.0113006 0.104049 -2.13595e-27)
(-0.0134697 0.109015 2.80807e-27)
(-0.0134555 0.105797 -1.52299e-27)
(-0.00734963 0.099468 -1.54524e-27)
(-0.0102318 0.100619 -3.20117e-27)
(-0.00160721 0.0955038 2.48124e-26)
(-0.00494696 0.0964467 2.44536e-26)
(0.0682601 0.000527547 2.48262e-28)
(0.0679906 0.00234845 4.84507e-28)
(0.067681 0.00509483 1.09268e-27)
(0.0673274 0.00817467 -6.51648e-31)
(0.0668077 0.0119945 5.90863e-27)
(0.0660908 0.0168122 1.54767e-28)
(0.0653121 0.0223867 0)
(0.0645571 0.0287519 -3.77875e-27)
(0.0639498 0.0363023 3.557e-27)
(0.063424 0.0446917 -1.16772e-27)
(0.0632199 0.0550641 6.3423e-27)
(0.0642684 0.0695594 1.79622e-27)
(0.066795 0.0877267 0)
(0.0695187 0.105376 -2.47097e-26)
(0.0711695 0.119747 1.02063e-27)
(0.070145 0.127594 0)
(0.0658625 0.128595 -1.53703e-26)
(0.0598822 0.126133 -8.06291e-27)
(0.0539733 0.123928 7.33761e-27)
(0.0486083 0.123121 -1.58215e-26)
(0.0435191 0.123435 7.57045e-27)
(0.0384515 0.124401 -6.43584e-28)
(0.0332556 0.125675 3.46397e-27)
(0.0279221 0.126926 -1.05519e-26)
(0.0224904 0.128001 -1.77384e-27)
(0.0170961 0.128727 1.28811e-30)
(0.0118125 0.129017 1.71009e-27)
(0.00675489 0.128867 -4.72201e-27)
(0.00202352 0.128236 5.20768e-27)
(-0.0024477 0.127139 1.40514e-27)
(-0.00680315 0.125491 2.03576e-26)
(-0.0110579 0.123033 -1.91086e-26)
(-0.0135476 0.118031 1.22995e-27)
(-0.014212 0.120573 2.65064e-27)
(-0.0140552 0.114073 0)
(-0.0150605 0.116194 2.47633e-27)
(-0.0150389 0.111114 2.7901e-27)
(-0.0129407 0.102263 -4.92708e-27)
(-0.0154349 0.107838 1.52741e-27)
(-0.0154461 0.104213 -3.32231e-27)
(-0.00842839 0.097006 0)
(-0.0117127 0.0983105 3.48931e-27)
(-0.00180869 0.0924968 -2.6842e-26)
(-0.00564144 0.0935156 -2.36293e-26)
(0.068405 0.000398487 9.40087e-28)
(0.0684489 0.00195477 3.72172e-28)
(0.0684492 0.00460019 2.70273e-28)
(0.0683374 0.00752276 -1.30396e-28)
(0.0680003 0.0113629 5.8929e-27)
(0.0674246 0.0161465 -9.29923e-29)
(0.0667178 0.0217374 2.34285e-28)
(0.0659821 0.0281022 -3.8597e-27)
(0.065295 0.0355586 4.10969e-27)
(0.064708 0.0439722 -5.15683e-27)
(0.0642405 0.0540081 4.59294e-27)
(0.0647098 0.0674549 0)
(0.0666917 0.0853838 -4.86633e-27)
(0.069226 0.103341 -2.43546e-26)
(0.071176 0.118905 1.31517e-26)
(0.0711628 0.128722 -2.75361e-26)
(0.0680086 0.131412 2.87272e-26)
(0.0626268 0.129351 -2.31062e-26)
(0.0568958 0.126644 2.2296e-26)
(0.0516341 0.125266 -1.59902e-26)
(0.0467057 0.125272 -1.64412e-26)
(0.0417914 0.126179 -8.96681e-27)
(0.0366787 0.127583 -3.20144e-26)
(0.0312995 0.129063 -1.92433e-26)
(0.0257021 0.1304 0)
(0.0200009 0.131379 0)
(0.0143661 0.131906 -3.84097e-28)
(0.00888084 0.131938 3.14334e-27)
(0.00371998 0.13147 3.57846e-27)
(-0.00111248 0.130517 8.17764e-27)
(-0.00582443 0.129097 1.62251e-27)
(-0.0105487 0.127068 -2.08095e-26)
(-0.0141472 0.122514 0)
(-0.014422 0.125224 4.40213e-27)
(-0.0158176 0.118452 3.80096e-27)
(-0.0163693 0.120846 -1.17189e-27)
(-0.0163711 0.113388 1.37589e-27)
(-0.0174879 0.115824 2.2077e-27)
(-0.017236 0.110153 -2.61699e-32)
(-0.0148066 0.100153 -3.58635e-27)
(-0.0177273 0.106492 0)
(-0.0176751 0.102327 -2.17923e-26)
(-0.00962256 0.0941715 0)
(-0.0133524 0.0956613 5.75576e-28)
(-0.00203632 0.0890632 0)
(-0.0064122 0.0901437 -3.1953e-26)
(0.0682374 0.00024835 -5.32361e-35)
(0.0686436 0.00148313 1.5107e-27)
(0.069016 0.00395587 0)
(0.0692169 0.00678174 1.36474e-27)
(0.0691056 0.0106826 2.86256e-27)
(0.068654 0.01543 -8.49227e-29)
(0.0680754 0.0210965 -3.11033e-28)
(0.0673916 0.0274915 0)
(0.0666619 0.0348671 -1.28397e-28)
(0.0660111 0.0433411 9.59579e-29)
(0.0653517 0.053215 8.39396e-27)
(0.0653096 0.0658927 4.6466e-27)
(0.0666226 0.0833498 0)
(0.0688444 0.101482 -8.83068e-27)
(0.0709058 0.117879 0)
(0.0715541 0.129388 6.58351e-27)
(0.0695127 0.133879 1.19098e-26)
(0.0649341 0.132556 2.6541e-27)
(0.0595345 0.129472 1.49476e-26)
(0.0544601 0.127439 1.7919e-26)
(0.0497686 0.127022 -6.0525e-30)
(0.0451155 0.1278 0)
(0.0402106 0.1293 -2.68287e-26)
(0.0348954 0.131031 -2.32095e-26)
(0.0292203 0.132719 -2.96308e-26)
(0.023264 0.134049 -6.97547e-27)
(0.0172361 0.134855 0)
(0.0113374 0.135102 -1.549e-27)
(0.00572021 0.134797 2.30402e-27)
(0.000507573 0.13397 8.02376e-27)
(-0.00447866 0.132768 3.4826e-27)
(-0.00959407 0.131178 -2.22529e-26)
(-0.0139275 0.127146 -9.03673e-27)
(-0.0138273 0.129945 0)
(-0.0166227 0.123323 2.10905e-27)
(-0.0167017 0.125909 -1.08155e-27)
(-0.0183596 0.118385 -2.62312e-27)
(-0.0189897 0.121107 -2.53586e-27)
(-0.0187982 0.112713 4.55158e-27)
(-0.0200899 0.115457 3.95799e-27)
(-0.0197874 0.109075 1.05428e-26)
(-0.016881 0.0977063 0)
(-0.0202928 0.104885 -3.54829e-26)
(-0.0201594 0.100131 0)
(-0.0109414 0.0909215 -2.39904e-26)
(-0.0151795 0.0926215 1.04234e-26)
(-0.00229679 0.0851679 -1.97641e-26)
(-0.00726833 0.0862887 -2.43754e-26)
(0.0676983 4.89958e-05 -9.73864e-30)
(0.0685413 0.000941166 2.37752e-28)
(0.0693212 0.00318831 8.84916e-28)
(0.0699 0.00597861 2.35522e-27)
(0.0700702 0.00989234 -3.12056e-29)
(0.0698161 0.0146805 6.60174e-31)
(0.0693303 0.0204274 3.77781e-27)
(0.0687647 0.0268658 -2.01251e-31)
(0.068044 0.0342229 4.3268e-27)
(0.0673246 0.0427708 4.30876e-27)
(0.0665613 0.0526418 4.45133e-27)
(0.06606 0.0648447 4.49978e-27)
(0.0666768 0.0817064 0)
(0.0684281 0.0999154 4.17513e-27)
(0.0703608 0.116816 -3.03109e-27)
(0.0714204 0.129759 3.03629e-27)
(0.0703349 0.135965 1.43969e-26)
(0.0666861 0.135673 1.29721e-26)
(0.0617675 0.132395 1.83412e-26)
(0.0569939 0.129671 0)
(0.0526207 0.128687 8.72006e-26)
(0.0483214 0.129214 -1.73972e-26)
(0.0437545 0.130769 1.82498e-26)
(0.0386729 0.132803 2.49058e-26)
(0.0330288 0.134862 -1.63159e-26)
(0.0269178 0.136647 0)
(0.0205153 0.137857 -3.58823e-27)
(0.0141448 0.138399 1.07137e-26)
(0.00801934 0.138254 1.29898e-27)
(0.00237367 0.137523 -3.08047e-27)
(-0.00290425 0.136402 0)
(-0.00811161 0.135116 -4.02659e-26)
(-0.0130139 0.131807 1.9925e-27)
(-0.0125223 0.134491 0)
(-0.0164319 0.128408 -7.61163e-27)
(-0.0161002 0.131122 0)
(-0.0193272 0.123909 2.32077e-27)
(-0.019361 0.126785 -7.70978e-27)
(-0.0211355 0.118362 1.42107e-27)
(-0.0218744 0.121431 3.53983e-27)
(-0.0215935 0.111962 2.96499e-26)
(-0.023062 0.115038 1.91519e-26)
(-0.0226552 0.107792 -1.01322e-26)
(-0.0192005 0.0948828 9.2449e-34)
(-0.0231642 0.103013 -1.50515e-26)
(-0.0229579 0.0976059 -6.54775e-27)
(-0.0124 0.0872127 8.35052e-27)
(-0.0172067 0.0891428 -6.71674e-28)
(-0.0025894 0.0807656 4.10992e-27)
(-0.0082199 0.081908 1.70991e-26)
(0.0665644 -0.000279203 0)
(0.0680846 0.000385266 -2.00596e-28)
(0.0693176 0.00230085 7.69487e-28)