/*--------------------------------*- C++ -*----------------------------------*\
  =========                 |
  \\      /  F ield         | OpenFOAM: The Open Source CFD Toolbox
   \\    /   O peration     | Website:  https://openfoam.org
    \\  /    A nd           | Version:  dev
     \\/     M anipulation  |
\*---------------------------------------------------------------------------*/
FoamFile
{
    version     2.0;
    format      ascii;
    class       volScalarField;
    location    "2500";
    object      a;
}
// * * * * * * * * * * * * * * * * * * * * * * * * * * * * * * * * * * * * * //

dimensions      [0 -1 0 0 0 0 0];

internalField   nonuniform List<scalar> 
9851
(
0.100011
0.100011
0.100011
0.100011
0.100011
0.100011
0.100011
0.100011
0.100011
0.100011
0.10001
0.100011
0.100011
0.100011
0.100011
0.10001
0.10001
0.100011
0.100011
0.100011
0.100011
0.10001
0.10001
0.10001
0.100011
0.100011
0.100011
0.100011
0.10001
0.10001
0.10001
0.10001
0.100011
0.100011
0.100011
0.100011
0.100009
0.10001
0.10001
0.10001
0.10001
0.100011
0.100011
0.100011
0.100011
0.100009
0.100009
0.10001
0.10001
0.10001
0.10001
0.100011
0.100011
0.100011
0.100011
0.100009
0.100009
0.100009
0.10001
0.10001
0.10001
0.10001
0.100011
0.100011
0.100011
0.100011
0.100009
0.100009
0.100009
0.100009
0.10001
0.10001
0.10001
0.10001
0.100011
0.100011
0.100011
0.100011
0.100009
0.100009
0.100009
0.100009
0.100009
0.10001
0.10001
0.10001
0.10001
0.100011
0.100011
0.100011
0.100011
0.100008
0.100009
0.100009
0.100009
0.100009
0.100009
0.10001
0.10001
0.10001
0.10001
0.100011
0.100011
0.100011
0.100011
0.100008
0.100008
0.100009
0.100009
0.100009
0.100009
0.100009
0.10001
0.10001
0.10001
0.10001
0.100011
0.100011
0.100011
0.100011
0.100008
0.100008
0.100008
0.100008
0.100009
0.100009
0.100009
0.100009
0.10001
0.10001
0.10001
0.10001
0.100011
0.100011
0.100011
0.100011
0.100008
0.100008
0.100008
0.100008
0.100008
0.100009
0.100009
0.100009
0.100009
0.10001
0.10001
0.10001
0.10001
0.100011
0.100011
0.100011
0.100011
0.100007
0.100008
0.100008
0.100008
0.100008
0.100008
0.100009
0.100009
0.100009
0.100009
0.10001
0.10001
0.10001
0.10001
0.100011
0.100011
0.100011
0.100011
0.100007
0.100007
0.100008
0.100008
0.100008
0.100008
0.100008
0.100009
0.100009
0.100009
0.100009
0.10001
0.10001
0.10001
0.10001
0.100011
0.100011
0.100011
0.100011
0.100007
0.100007
0.100007
0.100008
0.100008
0.100008
0.100008
0.100008
0.100009
0.100009
0.100009
0.100009
0.10001
0.10001
0.10001
0.10001
0.100011
0.100011
0.100011
0.100011
0.100007
0.100007
0.100007
0.100007
0.100008
0.100008
0.100008
0.100008
0.100008
0.100009
0.100009
0.100009
0.100009
0.10001
0.10001
0.10001
0.10001
0.100011
0.100011
0.100011
0.100011
0.100006
0.100007
0.100007
0.100007
0.100007
0.100008
0.100008
0.100008
0.100008
0.100008
0.100009
0.100009
0.100009
0.100009
0.10001
0.10001
0.10001
0.10001
0.100011
0.100011
0.100011
0.100011
0.100006
0.100006
0.100007
0.100007
0.100007
0.100007
0.100008
0.100008
0.100008
0.100008
0.100008
0.100009
0.100009
0.100009
0.100009
0.10001
0.10001
0.10001
0.10001
0.100011
0.100011
0.100011
0.100011
0.100006
0.100006
0.100006
0.100007
0.100007
0.100007
0.100007
0.100008
0.100008
0.100008
0.100008
0.100008
0.100009
0.100009
0.100009
0.100009
0.10001
0.10001
0.10001
0.10001
0.100011
0.100011
0.100011
0.100011
0.100006
0.100006
0.100006
0.100006
0.100007
0.100007
0.100007
0.100007
0.100008
0.100008
0.100008
0.100008
0.100008
0.100009
0.100009
0.100009
0.100009
0.10001
0.10001
0.10001
0.10001
0.100011
0.100011
0.100011
0.100011
0.100006
0.100006
0.100006
0.100006
0.100006
0.100007
0.100007
0.100007
0.100007
0.100008
0.100008
0.100008
0.100008
0.100008
0.100009
0.100009
0.100009
0.100009
0.10001
0.10001
0.10001
0.10001
0.100011
0.100011
0.100011
0.100011
0.100005
0.100006
0.100006
0.100006
0.100006
0.100006
0.100007
0.100007
0.100007
0.100007
0.100008
0.100008
0.100008
0.100008
0.100008
0.100009
0.100009
0.100009
0.100009
0.10001
0.10001
0.10001
0.10001
0.100011
0.100011
0.100011
0.100011
0.100005
0.100005
0.100006
0.100006
0.100006
0.100006
0.100006
0.100007
0.100007
0.100007
0.100007
0.100008
0.100008
0.100008
0.100008
0.100008
0.100009
0.100009
0.100009
0.100009
0.10001
0.10001
0.10001
0.10001
0.100011
0.100011
0.100011
0.100011
0.100005
0.100005
0.100005
0.100006
0.100006
0.100006
0.100006
0.100006
0.100007
0.100007
0.100007
0.100007
0.100008
0.100008
0.100008
0.100008
0.100008
0.100009
0.100009
0.100009
0.100009
0.10001
0.10001
0.10001
0.10001
0.100011
0.100011
0.100011
0.100011
0.100005
0.100005
0.100005
0.100005
0.100006
0.100006
0.100006
0.100006
0.100006
0.100007
0.100007
0.100007
0.100007
0.100008
0.100008
0.100008
0.100008
0.100008
0.100009
0.100009
0.100009
0.100009
0.10001
0.10001
0.10001
0.10001
0.100011
0.100011
0.100011
0.100011
0.100004
0.100005
0.100005
0.100005
0.100005
0.100006
0.100006
0.100006
0.100006
0.100006
0.100007
0.100007
0.100007
0.100007
0.100008
0.100008
0.100008
0.100008
0.100008
0.100009
0.100009
0.100009
0.100009
0.10001
0.10001
0.10001
0.10001
0.100011
0.100011
0.100011
0.100011
0.100004
0.100004
0.100005
0.100005
0.100005
0.100005
0.100006
0.100006
0.100006
0.100006
0.100006
0.100007
0.100007
0.100007
0.100007
0.100008
0.100008
0.100008
0.100008
0.100008
0.100009
0.100009
0.100009
0.100009
0.10001
0.10001
0.10001
0.10001
0.100011
0.100011
0.100011
0.100011
0.100004
0.100004
0.100004
0.100005
0.100005
0.100005
0.100005
0.100006
0.100006
0.100006
0.100006
0.100006
0.100007
0.100007
0.100007
0.100007
0.100008
0.100008
0.100008
0.100008
0.100008
0.100009
0.100009
0.100009
0.100009
0.10001
0.10001
0.10001
0.10001
0.100011
0.100011
0.100011
0.100011
0.100004
0.100004
0.100004
0.100004
0.100005
0.100005
0.100005
0.100005
0.100006
0.100006
0.100006
0.100006
0.100006
0.100007
0.100007
0.100007
0.100007
0.100008
0.100008
0.100008
0.100008
0.100008
0.100009
0.100009
0.100009
0.100009
0.10001
0.10001
0.10001
0.10001
0.100011
0.100011
0.100011
0.100011
0.100011
0.100004
0.100004
0.100004
0.100004
0.100004
0.100005
0.100005
0.100005
0.100005
0.100006
0.100006
0.100006
0.100006
0.100006
0.100007
0.100007
0.100007
0.100007
0.100008
0.100008
0.100008
0.100008
0.100008
0.100009
0.100009
0.100009
0.100009
0.10001
0.10001
0.10001
0.10001
0.100011
0.100011
0.100011
0.100011
0.100011
0.100011
0.100003
0.100004
0.100004
0.100004
0.100004
0.100004
0.100005
0.100005
0.100005
0.100005
0.100006
0.100006
0.100006
0.100006
0.100006
0.100007
0.100007
0.100007
0.100007
0.100008
0.100008
0.100008
0.100008
0.100008
0.100009
0.100009
0.100009
0.100009
0.10001
0.10001
0.10001
0.10001
0.100011
0.10001
0.100011
0.100011
0.100011
0.100011
0.100011
0.100011
0.100011
0.100003
0.100003
0.100004
0.100004
0.100004
0.100004
0.100004
0.100005
0.100005
0.100005
0.100005
0.100006
0.100006
0.100006
0.100006
0.100006
0.100007
0.100007
0.100007
0.100007
0.100008
0.100008
0.100008
0.100008
0.100008
0.100009
0.100009
0.100009
0.100009
0.10001
0.10001
0.10001
0.10001
0.10001
0.10001
0.100011
0.100011
0.100011
0.100011
0.100011
0.100011
0.100011
0.100003
0.100003
0.100003
0.100004
0.100004
0.100004
0.100004
0.100004
0.100005
0.100005
0.100005
0.100005
0.100006
0.100006
0.100006
0.100006
0.100006
0.100007
0.100007
0.100007
0.100007
0.100008
0.100008
0.100008
0.100008
0.100008
0.100009
0.100009
0.100009
0.100009
0.10001
0.100011
0.100011
0.100012
0.10001
0.100011
0.100011
0.100011
0.100011
0.100011
0.100011
0.100011
0.100011
0.100011
0.100003
0.100003
0.100003
0.100003
0.100004
0.100004
0.100004
0.100004
0.100004
0.100005
0.100005
0.100005
0.100005
0.100006
0.100006
0.100006
0.100006
0.100007
0.100007
0.100007
0.100007
0.100008
0.100008
0.100008
0.100008
0.100008
0.100008
0.100009
0.100009
0.100009
0.100012
0.100019
0.100017
0.100035
0.100014
0.100028
0.100012
0.100018
0.100012
0.100011
0.100012
0.100012
0.100011
0.100011
0.100011
0.100011
0.100002
0.100003
0.100003
0.100003
0.100003
0.100004
0.100004
0.100004
0.100004
0.100004
0.100005
0.100005
0.100005
0.100005
0.100006
0.100006
0.100006
0.100007
0.100007
0.100009
0.100009
0.100009
0.100009
0.100008
0.100008
0.100008
0.100008
0.100009
0.100009
0.100009
0.100017
0.100069
0.100085
0.100216
0.100079
0.100237
0.100048
0.100169
0.100022
0.100075
0.100024
0.100012
0.100025
0.100022
0.100011
0.100011
0.100011
0.100011
0.100002
0.100002
0.100003
0.100003
0.100003
0.100003
0.100004
0.100004
0.100004
0.100004
0.100004
0.100005
0.100005
0.100005
0.100005
0.100006
0.100006
0.100008
0.100012
0.100018
0.100028
0.100027
0.100018
0.100012
0.100009
0.100008
0.100008
0.100008
0.100009
0.100009
0.100028
0.100217
0.100498
0.101165
0.100654
0.101624
0.100568
0.101636
0.100315
0.101152
0.100105
0.100506
0.100126
0.100018
0.100126
0.100105
0.100011
0.100015
0.100011
0.100011
0.100002
0.100002
0.100002
0.100003
0.100003
0.100003
0.100003
0.100004
0.100004
0.100004
0.100004
0.100004
0.100005
0.100005
0.100005
0.100006
0.100008
0.100015
0.100032
0.100074
0.100127
0.100118
0.100079
0.100045
0.100021
0.100012
0.100009
0.100009
0.100009
0.100009
0.100028
0.100521
0.10193
0.103396
0.103468
0.106862
0.104114
0.109076
0.103476
0.108711
0.102006
0.106236
0.100702
0.102996
0.100826
0.100071
0.100821
0.100673
0.100013
0.100041
0.100011
0.100012
0.100002
0.100002
0.100002
0.100002
0.100003
0.100003
0.100003
0.100003
0.100004
0.100004
0.100004
0.100004
0.100004
0.100005
0.100005
0.100006
0.100013
0.100035
0.100103
0.100269
0.100487
0.100584
0.100481
0.100272
0.100116
0.100047
0.100019
0.100012
0.10001
0.100009
0.100019
0.100697
0.104629
0.106317
0.110816
0.116118
0.116812
0.127234
0.119088
0.134474
0.115968
0.13407
0.109789
0.125152
0.10392
0.113441
0.104447
0.100439
0.104373
0.103642
0.100022
0.100223
0.100011
0.100015
0.100001
0.100002
0.100002
0.100002
0.100002
0.100003
0.100003
0.100003
0.100003
0.100004
0.100004
0.100004
0.100004
0.100004
0.100005
0.100007
0.100025
0.100096
0.100284
0.10081
0.101764
0.102663
0.102638
0.101754
0.100821
0.100288
0.100088
0.100031
0.100015
0.100012
0.100017
0.1005
0.107308
0.108465
0.121067
0.126369
0.138737
0.150745
0.153294
0.172487
0.15907
0.185824
0.153343
0.186972
0.135777
0.172803
0.116466
0.145185
0.117958
0.102464
0.117439
0.114822
0.100091
0.101294
0.100012
0.100036
0.100001
0.100001
0.100002
0.100002
0.100002
0.100002
0.100003
0.100003
0.100003
0.100003
0.100004
0.100004
0.100004
0.100004
0.100005
0.100009
0.100041
0.10018
0.100645
0.102106
0.105136
0.108943
0.110582
0.108776
0.105077
0.102081
0.100656
0.100178
0.100053
0.100023
0.100022
0.100493
0.108342
0.10527
0.129949
0.133545
0.161364
0.170655
0.190603
0.205958
0.210285
0.229011
0.217951
0.238658
0.213264
0.239956
0.19193
0.232976
0.151732
0.205862
0.154137
0.110534
0.151731
0.144576
0.100514
0.105911
0.100018
0.100159
0.100001
0.100001
0.100001
0.100002
0.100002
0.100002
0.100002
0.100003
0.100003
0.100003
0.100003
0.100004
0.100004
0.100004
0.100005
0.100009
0.100054
0.100261
0.101116
0.104157
0.110937
0.120335
0.127473
0.128297
0.121348
0.110882
0.104018
0.101145
0.100295
0.10008
0.100044
0.1004
0.118847
0.134381
0.138732
0.177093
0.182319
0.217525
0.226019
0.240945
0.248481
0.250043
0.256719
0.253043
0.259849
0.25207
0.260605
0.244178
0.259635
0.213711
0.25127
0.21538
0.133293
0.210111
0.19704
0.102438
0.120212
0.100053
0.100769
0.100001
0.100001
0.100001
0.100001
0.100002
0.100002
0.100002
0.100002
0.100003
0.100003
0.100003
0.100003
0.100004
0.100004
0.100004
0.100009
0.100059
0.100314
0.101557
0.106304
0.11742
0.133185
0.146655
0.152236
0.147836
0.134305
0.116527
0.105658
0.101535
0.100382
0.100128
0.100292
0.112848
0.18221
0.179125
0.184243
0.183818
0.231376
0.23519
0.25332
0.25654
0.261153
0.264104
0.263853
0.266743
0.264499
0.267153
0.264579
0.266755
0.264219
0.267065
0.255611
0.267582
0.257485
0.177075
0.255871
0.247303
0.109132
0.151658
0.100226
0.103147
0.100001
0.100001
0.100001
0.100001
0.100001
0.100002
0.100002
0.100002
0.100002
0.100003
0.100003
0.100003
0.100003
0.100004
0.100004
0.100008
0.100057
0.100332
0.101829
0.108001
0.122958
0.14463
0.164459
0.176175
0.17671
0.165241
0.144361
0.120245
0.106432
0.101686
0.100436
0.100333
0.106236
0.172973
0.164863
0.233203
0.229868
0.236034
0.235321
0.25852
0.259944
0.265949
0.26694
0.268967
0.270774
0.269683
0.272917
0.269035
0.272981
0.268282
0.270817
0.268986
0.269031
0.270584
0.270895
0.273279
0.227381
0.274341
0.271468
0.126173
0.196998
0.101114
0.110418
0.1
0.100001
0.100001
0.100001
0.100001
0.100001
0.100002
0.100002
0.100002
0.100002
0.100003
0.100003
0.100003
0.100003
0.100004
0.100006
0.100044
0.100317
0.101867
0.108855
0.1268
0.153124
0.178771
0.197141
0.204921
0.199126
0.179224
0.150213
0.120803
0.106254
0.101628
0.100625
0.104234
0.15576
0.137657
0.22329
0.217132
0.259976
0.259091
0.260559
0.260422
0.267273
0.26723
0.271785
0.271791
0.276741
0.280435
0.279788
0.289597
0.278324
0.292978
0.273116
0.287003
0.269452
0.27577
0.27335
0.27049
0.276427
0.261197
0.279075
0.279657
0.157397
0.238084
0.103605
0.125112
0.1
0.100001
0.100001
0.100001
0.100001
0.100001
0.100001
0.100002
0.100002
0.100002
0.100002
0.100003
0.100003
0.100003
0.100003
0.100005
0.100027
0.100266
0.101735
0.108853
0.128419
0.158631
0.188121
0.211902
0.227584
0.231336
0.218456
0.188907
0.151529
0.119271
0.105615
0.101665
0.103224
0.152192
0.204021
0.200575
0.25704
0.253825
0.266803
0.26728
0.266888
0.266708
0.271138
0.269737
0.282088
0.281547
0.300213
0.308348
0.31358
0.335535
0.313534
0.34839
0.298087
0.338862
0.278038
0.308815
0.271962
0.279175
0.274268
0.27566
0.277605
0.280569
0.197079
0.262402
0.108923
0.147957
0.1
0.100001
0.100002
0.100001
0.100001
0.100001
0.100001
0.100002
0.100002
0.100002
0.100002
0.100003
0.100003
0.100003
0.100004
0.100017
0.100195
0.101304
0.108206
0.128307
0.160659
0.193109
0.219137
0.240381
0.254437
0.254088
0.232776
0.192584
0.148678
0.116437
0.104784
0.103466
0.131631
0.229098
0.217865
0.246773
0.240914
0.268105
0.268314
0.263998
0.264421
0.267009
0.264709
0.279317
0.273435
0.310596
0.308099
0.353815
0.363329
0.384329
0.413993
0.389997
0.439081
0.364368
0.430021
0.315356
0.383418
0.278484
0.315142
0.277391
0.279961
0.276992
0.278354
0.231018
0.272995
0.118666
0.176078
0.100001
0.100002
0.100003
0.100002
0.100001
0.100001
0.100001
0.100002
0.100002
0.100002
0.100002
0.100003
0.100003
0.100003
0.10001
0.100116
0.100852
0.106327
0.126318
0.160361
0.19286
0.218583
0.241851
0.263142
0.276847
0.271413
0.237949
0.188931
0.142532
0.112989
0.105661
0.120882
0.202102
0.17928
0.261755
0.25635
0.267761
0.266126
0.266179
0.268923
0.255692
0.255772
0.264928
0.258456
0.300234
0.281425
0.362646
0.352043
0.431542
0.431901
0.47688
0.492229
0.490397
0.52515
0.463155
0.527925
0.39233
0.48348
0.307337
0.387783
0.29552
0.280188
0.2834
0.279334
0.277584
0.251971
0.276819
0.129823
0.19745
0.100002
0.100004
0.100004
0.100002
0.100001
0.100001
0.100001
0.100002
0.100002
0.100002
0.100002
0.100003
0.100003
0.100007
0.10006
0.100529
0.104295
0.121331
0.156639
0.186737
0.208146
0.23462
0.261329
0.283295
0.295019
0.279822
0.234938
0.179217
0.133138
0.111977
0.119046
0.191758
0.244017
0.24204
0.275637
0.275212
0.27188
0.274801
0.257503
0.262182
0.246378
0.246636
0.262968
0.250861
0.32095
0.283205
0.414266
0.374857
0.485081
0.464004
0.52951
0.518287
0.555413
0.553255
0.553371
0.57567
0.491468
0.565595
0.367973
0.489131
0.430284
0.309442
0.349559
0.277917
0.279021
0.278251
0.290584
0.318344
0.333892
0.284094
0.261031
0.278571
0.278683
0.275654
0.132118
0.204506
0.100004
0.100006
0.100007
0.100003
0.100001
0.100001
0.100001
0.100002
0.100002
0.100002
0.100002
0.100003
0.100004
0.100027
0.100319
0.102602
0.115698
0.148672
0.178122
0.193033
0.210115
0.244194
0.278801
0.3016
0.308547
0.280682
0.224343
0.16437
0.126206
0.121408
0.172536
0.263248
0.247965
0.272715
0.269672
0.279288
0.283321
0.268102
0.274165
0.249908
0.257625
0.235607
0.238505
0.253943
0.238418
0.321307
0.268402
0.425403
0.368399
0.497129
0.461367
0.540276
0.515611
0.571228
0.5533
0.588911
0.587029
0.581734
0.529393
0.57023
0.598671
0.586534
0.480026
0.400892
0.466551
0.528951
0.383945
0.280393
0.279195
0.303905
0.342123
0.363016
0.293043
0.276224
0.253554
0.270117
0.279326
0.279107
0.126909
0.254723
0.224651
0.185377
0.100007
0.100011
0.100009
0.100002
0.100001
0.100001
0.100001
0.100002
0.100002
0.100002
0.100002
0.100003
0.100013
0.10018
0.101424
0.110453
0.139102
0.170672
0.182405
0.186213
0.201332
0.2513
0.296452
0.317917
0.316347
0.275245
0.20775
0.150549
0.130283
0.166172
0.258962
0.285801
0.287987
0.286077
0.286496
0.282216
0.289003
0.266067
0.274462
0.247247
0.258759
0.223457
0.235006
0.232803
0.220611
0.296025
0.234183
0.40557
0.328378
0.476728
0.421803
0.519361
0.473581
0.572155
0.555877
0.537575
0.511806
0.59739
0.59193
0.58698
0.576005
0.566623
0.59045
0.602125
0.60094
0.520008
0.445488
0.506432
0.562778
0.423498
0.285854
0.281975
0.32266
0.398269
0.37218
0.306413
0.276972
0.270572
0.280697
0.279978
0.181973
0.106779
0.130112
0.254585
0.223123
0.100013
0.100015
0.100007
0.100002
0.100001
0.100001
0.100001
0.100002
0.100002
0.100002
0.100003
0.100007
0.100083
0.100737
0.106228
0.12891
0.163194
0.175355
0.171896
0.164979
0.200107
0.266585
0.314363
0.330926
0.318799
0.264326
0.193224
0.149369
0.168804
0.25253
0.30316
0.298631
0.301053
0.303968
0.294556
0.298722
0.290607
0.299015
0.270259
0.280985
0.251076
0.267063
0.214703
0.236851
0.204138
0.202101
0.24577
0.193039
0.348667
0.259682
0.417602
0.347671
0.48845
0.458133
0.432613
0.400367
0.558891
0.537208
0.511559
0.483222
0.597063
0.585609
0.580567
0.562842
0.5906
0.603548
0.602003
0.605951
0.555445
0.488034
0.543744
0.588404
0.464669
0.294525
0.28714
0.346679
0.436744
0.406289
0.324155
0.27752
0.270499
0.283486
0.2814
0.174714
0.102543
0.119796
0.253462
0.219119
0.10002
0.100018
0.100005
0.100001
0.100001
0.100001
0.100001
0.100002
0.100002
0.100002
0.100004
0.100032
0.100426
0.103319
0.119478
0.153779
0.17008
0.165935
0.143996
0.159121
0.208168
0.289481
0.329156
0.339627
0.318206
0.25618
0.188084
0.181213
0.252946
0.313963
0.323224
0.327975
0.316651
0.320811
0.306123
0.312074
0.305505
0.314901
0.281667
0.294475
0.258913
0.279021
0.211022
0.237698
0.177877
0.186356
0.185565
0.158536
0.265196
0.177691
0.372279
0.334822
0.298485
0.250635
0.453075
0.422441
0.39179
0.360395
0.540124
0.512895
0.48212
0.449053
0.591569
0.568235
0.574989
0.545407
0.604957
0.609014
0.597606
0.606742
0.583372
0.527074
0.574393
0.604793
0.50432
0.306541
0.29458
0.374941
0.475661
0.44232
0.345872
0.278226
0.270269
0.287622
0.283543
0.163871
0.100714
0.110492
0.251378
0.212371
0.100025
0.100015
0.100003
0.100001
0.100001
0.100001
0.100001
0.100002
0.100002
0.100003
0.100012
0.100197
0.101568
0.111716
0.141606
0.165204
0.163884
0.138178
0.133464
0.160822
0.22499
0.306393
0.33893
0.345369
0.318254
0.255174
0.210924
0.259499
0.316838
0.350774
0.350126
0.343903
0.347917
0.335387
0.340202
0.322906
0.329738
0.323553
0.333914
0.29649
0.311218
0.262353
0.285059
0.199736
0.227954
0.156519
0.172453
0.139321
0.131111
0.174857
0.126788
0.327919
0.292683
0.257008
0.219647
0.415269
0.382098
0.34911
0.31548
0.517408
0.484909
0.449101
0.41176
0.582552
0.553069
0.562323
0.525605
0.611433
0.610734
0.590443
0.603576
0.602454
0.560376
0.597202
0.612808
0.540056
0.321812
0.304348
0.406057
0.512697
0.478266
0.370861
0.279099
0.269925
0.293183
0.286483
0.150214
0.100145
0.103976
0.248768
0.203363
0.100029
0.100009
0.100001
0.100001
0.100001
0.100001
0.100001
0.100002
0.100002
0.100006
0.100079
0.100733
0.106261
0.128935
0.158928
0.163427
0.138866
0.122488
0.131667
0.167586
0.235612
0.315289
0.345504
0.350503
0.323867
0.276281
0.279489
0.325355
0.369134
0.373474
0.378893
0.365925
0.369921
0.356461
0.361631
0.342781
0.350276
0.338853
0.351233
0.305711
0.323778
0.255861
0.282377
0.172333
0.198078
0.133275
0.149328
0.113561
0.111459
0.150161
0.126502
0.109348
0.115882
0.281115
0.24638
0.211575
0.178513
0.374932
0.339214
0.303829
0.269032
0.492612
0.454954
0.414284
0.373035
0.572379
0.536673
0.549464
0.505173
0.614097
0.609374
0.58231
0.598065
0.612853
0.587293
0.610825
0.616475
0.570737
0.340066
0.31633
0.43863
0.54596
0.512488
0.398063
0.28038
0.269894
0.300298
0.290311
0.13428
0.100276
0.10306
0.245699
0.192213
0.100026
0.100004
0.100001
0.100001
0.100001
0.100001
0.100001
0.100002
0.100004
0.100028
0.100415
0.102975
0.117951
0.148958
0.162309
0.142715
0.120628
0.118182
0.132259
0.170239
0.239197
0.319405
0.350664
0.357627
0.342558
0.328355
0.34533
0.380332
0.403589
0.405648
0.39536
0.399875
0.387053
0.391363
0.376445
0.382196
0.361397
0.369669
0.34436
0.359332
0.30611
0.326695
0.226911
0.256679
0.133944
0.15362
0.112643
0.119844
0.107605
0.105778
0.104798
0.12879
0.115812
0.107557
0.110341
0.23528
0.203146
0.173465
0.148137
0.333267
0.295242
0.259241
0.225859
0.467546
0.424959
0.379627
0.334708
0.562492
0.521016
0.538005
0.486173
0.614395
0.605334
0.574617
0.59165
0.618058
0.605482
0.618232
0.61808
0.594828
0.36072
0.330347
0.471184
0.574998
0.543465
0.426488
0.282258
0.270109
0.308953
0.295118
0.125193
0.104866
0.106476
0.242218
0.182403
0.100018
0.100002
0.100001
0.100001
0.100001
0.100001
0.100001
0.100002
0.10001
0.100169
0.101268
0.109837
0.135999
0.158814
0.150587
0.122028
0.114893
0.116634
0.131721
0.169587
0.237185
0.319428
0.355699
0.368911
0.374675
0.382415
0.401312
0.424
0.420952
0.424577
0.412698
0.417006
0.403266
0.408231
0.390758
0.397547
0.371892
0.382296
0.333754
0.353155
0.285181
0.311038
0.17926
0.207861
0.111267
0.118829
0.104672
0.106786
0.106112
0.105278
0.104106
0.103334
0.118217
0.112466
0.107535
0.109399
0.195539
0.168736
0.146105
0.129046
0.29238
0.25366
0.21932
0.18967
0.444477
0.397299
0.347587
0.299423
0.554128
0.507901
0.529394
0.470848
0.611662
0.600161
0.56823
0.585522
0.620737
0.616162
0.622151
0.617419
0.610141
0.383036
0.346119
0.502886
0.597601
0.571886
0.455018
0.284698
0.270516
0.318886
0.300751
0.128062
0.106756
0.116277
0.238696
0.18291
0.10001
0.100001
0.100001
0.100001
0.100001
0.100001
0.100002
0.100005
0.10006
0.100604
0.104769
0.123362
0.151221
0.155412
0.12823
0.115433
0.112779
0.115124
0.128492
0.163636
0.227624
0.312743
0.360342
0.382107
0.398879
0.414859
0.426854
0.428817
0.426875
0.427133
0.429034
0.419752
0.423903
0.409057
0.41486
0.393304
0.402009
0.369333
0.382567
0.295793
0.320758
0.238057
0.267949
0.130887
0.149827
0.103167
0.105493
0.102878
0.102518
0.102264
0.106243
0.105086
0.10526
0.103573
0.116182
0.113416
0.110656
0.111997
0.164688
0.14458
0.1299
0.121119
0.255649
0.218083
0.187315
0.162916
0.426145
0.375029
0.321222
0.270353
0.548182
0.499262
0.524195
0.461381
0.607955
0.595194
0.563816
0.580431
0.621967
0.622379
0.624876
0.615272
0.619855
0.406271
0.363045
0.532052
0.612068
0.594665
0.482763
0.287589
0.271063
0.329887
0.307191
0.136723
0.122165
0.135238
0.237761
0.187966
0.100005
0.100001
0.100001
0.100001
0.100001
0.100001
0.100003
0.100021
0.100321
0.102064
0.113266
0.139717
0.15567
0.141154
0.119171
0.113387
0.111425
0.112002
0.123246
0.155202
0.213525
0.29709
0.360065
0.390821
0.410548
0.419772
0.408647
0.41521
0.408133
0.417237
0.417539
0.410298
0.414619
0.397189
0.404572
0.375602
0.387664
0.34243
0.360641
0.231069
0.25934
0.173909
0.202096
0.109348
0.115627
0.10129
0.101295
0.1013
0.102665
0.102342
0.101322
0.101534
0.10914
0.107283
0.10982
0.106022
0.120694
0.120363
0.11891
0.119986
0.144609
0.132412
0.125475
0.12178
0.226368
0.191346
0.165222
0.147209
0.415672
0.362895
0.306259
0.252654
0.545149
0.494078
0.521813
0.456832
0.604161
0.591212
0.562123
0.577236
0.621808
0.626332
0.626843
0.612936
0.626179
0.429701
0.38068
0.558898
0.622047
0.609947
0.509005
0.290943
0.271908
0.34189
0.31438
0.155033
0.129502
0.148911
0.239218
0.198447
0.100002
0.1
0.100001
0.100001
0.100001
0.100002
0.100007
0.100113
0.100838
0.106615
0.126913
0.152201
0.150008
0.129077
0.117475
0.112403
0.10918
0.10831
0.118433
0.145466
0.195101
0.267603
0.337072
0.376506
0.388099
0.372771
0.346529
0.32718
0.374112
0.361672
0.382361
0.380561
0.375542
0.380403
0.358584
0.368472
0.329107
0.34551
0.285921
0.309278
0.158343
0.182151
0.124817
0.138434
0.102055
0.103721
0.101015
0.100975
0.10063
0.10058
0.103169
0.102011
0.101188
0.10164
0.116848
0.113626
0.119852
0.112778
0.132066
0.13378
0.133516
0.134091
0.136561
0.131359
0.130278
0.130914
0.208217
0.175647
0.154485
0.143018
0.41159
0.358904
0.301823
0.247298
0.544491
0.492495
0.522416
0.456128
0.601595
0.589387
0.562987
0.576506
0.621364
0.629479
0.628521
0.612092
0.630751
0.45284
0.399187
0.582025
0.62923
0.620707
0.533714
0.294501
0.273343
0.354775
0.32204
0.172651
0.118198
0.146223
0.243178
0.209616
0.100001
0.1
0.100001
0.100001
0.100001
0.100004
0.100041
0.100472
0.102938
0.115866
0.14157
0.152112
0.140788
0.125901
0.117833
0.110979
0.106147
0.10541
0.114046
0.134327
0.172034
0.223908
0.272174
0.296699
0.283718
0.22643
0.262774
0.236554
0.300828
0.284234
0.316157
0.311382
0.311251
0.315566
0.289798
0.302508
0.254198
0.273479
0.207701
0.232502
0.116844
0.125912
0.106264
0.110386
0.100594
0.100641
0.100638
0.100902
0.100721
0.100536
0.100463
0.106395
0.102948
0.101349
0.102662
0.130988
0.126238
0.137282
0.125898
0.151471
0.154812
0.156104
0.156045
0.140042
0.140251
0.143247
0.146885
0.20248
0.172363
0.156833
0.152299
0.412411
0.362094
0.308262
0.255944
0.547292
0.495299
0.528501
0.463151
0.601965
0.591773
0.569677
0.581422
0.621899
0.632599
0.630343
0.613807
0.634928
0.476176
0.418506
0.600747
0.634419
0.628875
0.558091
0.298756
0.275925
0.369132
0.331237
0.179365
0.105215
0.131229
0.248331
0.218056
0.1
0.1
0.100001
0.100001
0.100002
0.100015
0.100203
0.101173
0.108216
0.128906
0.150421
0.148674
0.135544
0.126011
0.118134
0.108596
0.103555
0.103624
0.109587
0.123313
0.147065
0.173988
0.192089
0.186782
0.155305
0.119233
0.175786
0.158608
0.209262
0.1939
0.226132
0.220251
0.223355
0.2268
0.2026
0.215083
0.170098
0.187144
0.137834
0.152633
0.103303
0.105524
0.101151
0.101941
0.10041
0.100434
0.100191
0.10022
0.101084
0.100696
0.100568
0.100432
0.114451
0.105915
0.102187
0.105143
0.153421
0.146849
0.163283
0.146791
0.179543
0.185411
0.188185
0.187841
0.152663
0.157638
0.164882
0.172559
0.212398
0.183175
0.172675
0.17174
0.424594
0.379812
0.330814
0.282547
0.556554
0.506559
0.54191
0.480179
0.605922
0.597427
0.579397
0.588849
0.624233
0.636187
0.633268
0.618339
0.638482
0.500077
0.440556
0.613788
0.638732
0.635571
0.58078
0.303242
0.279333
0.385261
0.340065
0.175374
0.10077
0.113049
0.253986
0.220941
0.1
0.1
0.100001
0.100001
0.100005
0.100071
0.100604
0.103794
0.117589
0.142601
0.150564
0.144581
0.134403
0.12669
0.116982
0.10556
0.101752
0.102222
0.105881
0.113491
0.123093
0.13043
0.1289
0.117341
0.105834
0.101875
0.115469
0.101624
0.120545
0.135597
0.128474
0.144064
0.141105
0.142365
0.144256
0.132256
0.138065
0.119116
0.125618
0.108842
0.113381
0.100433
0.100733
0.100179
0.100275
0.100334
0.10027
0.100154
0.100178
0.101673
0.100799
0.100617
0.100456
0.12897
0.113191
0.104013
0.110152
0.185262
0.176575
0.197226
0.175138
0.218433
0.226505
0.230031
0.229676
0.174912
0.185021
0.197006
0.208694
0.24102
0.212216
0.203097
0.203705
0.448752
0.412304
0.372117
0.33151
0.56962
0.525405
0.559606
0.50669
0.612359
0.605695
0.591923
0.598852
0.628763
0.638581
0.636527
0.623298
0.641046
0.526696
0.463084
0.623368
0.641782
0.639263
0.6003
0.308802
0.283317
0.400842
0.351238
0.160785
0.100188
0.105806
0.258384
0.218676
0.1
0.1
0.100001
0.100003
0.100026
0.100327
0.101614
0.10945
0.130056
0.149172
0.149848
0.142588
0.134804
0.126192
0.113146
0.10266
0.100864
0.101231
0.103022
0.10548
0.107587
0.107209
0.10399
0.101228
0.100175
0.102209
0.100155
0.100115
0.103109
0.106401
0.104737
0.108584
0.10779
0.108202
0.10865
0.105824
0.10719
0.103039
0.104359
0.101233
0.101984
0.100059
0.100074
0.100089
0.100071
0.100053
0.100345
0.100243
0.100111
0.100161
0.10286
0.101217
0.100912
0.100529
0.150332
0.126676
0.10738
0.119528
0.225927
0.214589
0.237297
0.209238
0.268794
0.27775
0.280637
0.280769
0.212815
0.226599
0.24187
0.256442
0.295171
0.268188
0.258153
0.258767
0.485169
0.460739
0.433352
0.404732
0.585282
0.548946
0.578606
0.538561
0.617322
0.611239
0.598748
0.604791
0.632439
0.641635
0.640347
0.627454
0.644986
0.551487
0.485681
0.632302
0.644992
0.641887
0.61274
0.314067
0.287594
0.419878
0.36032
0.142459
0.100074
0.103385
0.260864
0.212211
0.1
0.1
0.100001
0.10001
0.100116
0.100715
0.104551
0.118743
0.142485
0.150678
0.148963
0.142402
0.134627
0.122623
0.107683
0.101037
0.100427
0.100599
0.101078
0.101522
0.101468
0.100792
0.100232
0.10005
0.100008
0.1002
0.100014
0.100012
0.100304
0.10066
0.100459
0.100934
0.100848
0.100874
0.100935
0.100579
0.100747
0.100279
0.100417
0.100114
0.100179
0.100026
0.10002
0.10008
0.100062
0.100031
0.100041
0.100424
0.100251
0.100135
0.100232
0.104917
0.101944
0.101379
0.100665
0.177264
0.145697
0.112664
0.13358
0.274306
0.259295
0.281027
0.246416
0.32918
0.337244
0.337814
0.339174
0.268986
0.284126
0.300727
0.316466
0.377894
0.357201
0.34565
0.345428
0.527994
0.516963
0.504866
0.49194
0.594421
0.572427
0.590927
0.566275
0.622633
0.618697
0.614129
0.614989
0.637051
0.645807
0.645087
0.63397
0.649111
0.576464
0.511009
0.636014
0.65184
0.646584
0.623777
0.320167
0.29111
0.433417
0.371235
0.133656
0.100045
0.102712
0.26095
0.206074
0.1
0.100001
0.100003
0.100041
0.100427
0.10203
0.110387
0.13062
0.149099
0.151864
0.14878
0.142189
0.131576
0.116385
0.102787
0.100378
0.100208
0.100257
0.100296
0.100264
0.10015
0.100065
0.100014
0.100006
0.100006
0.100006
0.100006
0.100017
0.100006
0.100024
0.100047
0.100034
0.100066
0.100059
0.10006
0.100065
0.100041
0.100052
0.100025
0.100033
0.100019
0.10002
0.100033
0.100026
0.10002
0.100016
0.1001
0.100061
0.100048
0.100459
0.100364
0.100228
0.10033
0.108171
0.103128
0.10218
0.101004
0.207134
0.167617
0.11975
0.149707
0.327739
0.308381
0.326957
0.285307
0.397861
0.402856
0.399432
0.403199
0.349808
0.361818
0.374754
0.387505
0.478739
0.468149
0.461839
0.460629
0.560659
0.555577
0.551241
0.54781
0.617861
0.589586
0.612978
0.589973
0.632369
0.631873
0.633189
0.633601
0.644901
0.651087
0.655406
0.645862
0.656235
0.592499
0.526437
0.638534
0.658731
0.655583
0.627119
0.324999
0.294276
0.451035
0.379576
0.132578
0.100089
0.103755
0.260949
0.206369
0.1