/*--------------------------------*- C++ -*----------------------------------*\
  =========                 |
  \\      /  F ield         | OpenFOAM: The Open Source CFD Toolbox
   \\    /   O peration     | Website:  https://openfoam.org
    \\  /    A nd           | Version:  dev
     \\/     M anipulation  |
\*---------------------------------------------------------------------------*/
FoamFile
{
    version     2.0;
    format      ascii;
    class       volScalarField;
    location    "2500";
    object      alphat;
}
// * * * * * * * * * * * * * * * * * * * * * * * * * * * * * * * * * * * * * //

dimensions      [1 -1 -1 0 0 0 0];

internalField   nonuniform List<scalar> 
9851
(
0.000153245
0.000157358
0.000147047
0.000144857
0.00018073
0.000130446
0.000131251
0.000191916
0.000167081
0.000124101
0.000127492
0.000189098
0.000189474
0.000143202
0.000121963
0.000123899
0.000177197
0.000203773
0.000170325
0.000130957
0.000120861
0.000121758
0.000160181
0.000208589
0.000194547
0.000146312
0.00012594
0.000120014
0.000121214
0.000147904
0.000206037
0.000207482
0.000168945
0.00013294
0.000123839
0.000119301
0.000120911
0.000139268
0.000196639
0.000217465
0.000193058
0.000146178
0.000127504
0.000122147
0.000118758
0.0001203
0.00013273
0.000179295
0.00022056
0.000210624
0.000165607
0.00013328
0.000125269
0.000120783
0.000118333
0.000119252
0.000128226
0.000161183
0.000218174
0.000219764
0.000188193
0.000144192
0.000127993
0.000123363
0.000119943
0.000118049
0.000118303
0.000125715
0.000150108
0.000209996
0.000227262
0.000208047
0.000162057
0.000132583
0.0001256
0.000121653
0.000119529
0.000117864
0.00011767
0.000124606
0.000141823
0.000193654
0.0002306
0.000221465
0.000180848
0.000142393
0.000127551
0.000123513
0.000120643
0.000119257
0.000117748
0.000117317
0.000123942
0.000135825
0.000175697
0.000228798
0.000229444
0.000201319
0.000157338
0.000131654
0.000125269
0.000121608
0.000120084
0.000119024
0.000117689
0.000117252
0.000123496
0.000131798
0.000160763
0.000222086
0.000234993
0.000218397
0.000174633
0.000140715
0.000126987
0.000123342
0.000120369
0.000119722
0.000118855
0.000117653
0.000117422
0.000122944
0.000128982
0.000151166
0.000208169
0.000239392
0.00022971
0.000192376
0.000153422
0.000130972
0.000124783
0.000121561
0.000119616
0.000119521
0.000118711
0.000117626
0.000117653
0.000122193
0.000127099
0.00014362
0.000190745
0.000238592
0.000237361
0.000210545
0.000167756
0.000139254
0.000126472
0.000123099
0.00012027
0.000119223
0.000119388
0.000118579
0.000117603
0.000117911
0.000121633
0.000126014
0.000138088
0.000174579
0.000233654
0.000241747
0.000225449
0.000184431
0.000149592
0.000130608
0.000124323
0.00012152
0.000119439
0.000119047
0.000119277
0.000118463
0.000117573
0.000118172
0.000121249
0.000125278
0.000134327
0.00016209
0.000222725
0.000247334
0.00023651
0.000200406
0.000161953
0.000137876
0.000126118
0.000122839
0.000120284
0.000118957
0.000118976
0.000119174
0.00011836
0.000117526
0.000118434
0.000121012
0.000124738
0.000131724
0.00015386
0.00020743
0.000247715
0.000244662
0.000216643
0.000175879
0.000146385
0.000130416
0.000123956
0.000121474
0.000119414
0.000118738
0.000118985
0.000119071
0.000118262
0.000117469
0.000118723
0.000120914
0.000124358
0.000129952
0.00014732
0.000190898
0.000244787
0.000248781
0.000231022
0.000191211
0.000156338
0.000136625
0.000125965
0.000122588
0.000120346
0.000118901
0.000118674
0.000119001
0.000118975
0.000118158
0.000117399
0.000119026
0.00012091
0.000124094
0.000128753
0.000142579
0.000177112
0.000236684
0.000254269
0.000242805
0.000206625
0.000168438
0.000143402
0.000130203
0.000123729
0.000121468
0.000119553
0.000118658
0.000118724
0.000118999
0.000118875
0.000118042
0.000117317
0.000119353
0.000120982
0.000123929
0.000127941
0.000139254
0.000166607
0.000222106
0.000256239
0.000251232
0.000221587
0.000182306
0.000151692
0.000135333
0.00012599
0.000122442
0.000120533
0.00011907
0.000118567
0.000118829
0.000118985
0.000118749
0.000117897
0.000117229
0.000119721
0.000121121
0.000123824
0.000127407
0.00013692
0.000159003
0.000206643
0.00025425
0.000255982
0.000236117
0.000197063
0.000162071
0.000141069
0.000129975
0.000123709
0.000121556
0.000119854
0.000118813
0.00011863
0.000118952
0.000118936
0.000118582
0.000117732
0.000117141
0.000120087
0.000121326
0.000123758
0.000127064
0.000135289
0.00015339
0.000192367
0.000248068
0.000260309
0.000248353
0.0002122
0.000174535
0.000148055
0.000134361
0.000126346
0.000122483
0.000120853
0.000119434
0.000118749
0.000118832
0.000119034
0.000118832
0.000118376
0.000117557
0.000117073
0.00012046
0.000121571
0.00012377
0.000126872
0.000134111
0.000149227
0.000180686
0.000235118
0.000263137
0.000257319
0.000226299
0.000188523
0.000157039
0.000139326
0.000129786
0.000124032
0.000121764
0.000120347
0.000119269
0.000118876
0.000119065
0.00011906
0.000118682
0.00011814
0.000117374
0.000117047
0.000120845
0.00012185
0.000123871
0.000126834
0.000133206
0.00014602
0.000171622
0.000220517
0.000261963
0.000262115
0.000240741
0.00020301
0.000168112
0.000145363
0.00013377
0.000126756
0.000122789
0.000121325
0.000120154
0.000119276
0.000119163
0.000119291
0.000119047
0.000118503
0.00011788
0.000117204
0.000117075
0.000121234
0.000122175
0.000124013
0.000126866
0.000132544
0.000143504
0.000164679
0.000206346
0.000257246
0.000265364
0.000252686
0.000217954
0.000181021
0.000153152
0.000138075
0.000129905
0.000124717
0.000122204
0.000121195
0.000120179
0.0001195
0.000119569
0.000119506
0.000118996
0.000118297
0.00011765
0.000117145
0.000117195
0.00012159
0.000122545
0.000124207
0.000126922
0.00013206
0.000141583
0.000159387
0.000193982
0.000246619
0.000268684
0.000262571
0.000232128
0.000195274
0.000163039
0.000143526
0.000133445
0.000127338
0.000123525
0.000122097
0.000121294
0.000120498
0.000119897
0.000120035
0.000119739
0.00011892
0.000118131
0.000117553
0.000117298
0.00011748
0.000121921
0.000122961
0.000124455
0.000127019
0.000131788
0.000140205
0.000155351
0.000184018
0.000232816
0.00026817
0.000267511
0.00024545
0.000209841
0.000175039
0.000150461
0.00013761
0.000130351
0.00012579
0.000123191
0.000122327
0.000121662
0.000121124
0.000120628
0.000120514
0.000119974
0.000118903
0.000118043
0.000117717
0.000117848
0.000117974
0.00012222
0.000123359
0.000124738
0.000127153
0.000131607
0.000139266
0.000152286
0.000176343
0.000219233
0.000264979
0.000270088
0.000256887
0.00022436
0.000188706
0.000159533
0.000142579
0.000133929
0.000128472
0.000125077
0.000123462
0.000122917
0.000122373
0.000121892
0.000121694
0.000121292
0.000120413
0.000119243
0.000118287
0.000118258
0.000119007
0.000119018
0.000122449
0.000123707
0.000125038
0.000127331
0.000131485
0.000138553
0.000150013
0.00017049
0.000207036
0.000257119
0.000273754
0.000266928
0.000238201
0.000203318
0.000170903
0.000149376
0.000137998
0.000131755
0.000127624
0.000125285
0.000124121
0.000123859
0.000123467
0.000123032
0.000122702
0.000122054
0.000120908
0.000119909
0.000119378
0.000119792
0.000120951
9.6634e-05
0.000122612
0.000124017
0.000125322
0.000127542
0.000131457
0.000138006
0.000148353
0.000166048
0.000196951
0.000244796
0.000274068
0.000273098
0.000250698
0.00021813
0.000184225
0.000158057
0.000143419
0.000135546
0.000130856
0.000127903
0.00012613
0.000125424
0.00012524
0.000124775
0.000124569
0.000124019
0.00012301
0.000121946
0.000121128
0.000121314
0.0001094
9.00082e-05
7.18491e-05
0.0001227
0.0001243
0.000125576
0.000127739
0.000131463
0.000137548
0.000147089
0.000162733
0.000189048
0.000232808
0.000272322
0.000275498
0.000261826
0.00023247
0.000199109
0.000169162
0.000150217
0.000140259
0.000134664
0.000131282
0.000128928
0.000127846
0.000127426
0.000127382
0.000126766
0.000126484
0.000126023
0.000123765
0.000114739
0.000106571
9.53617e-05
8.20801e-05
6.845e-05
5.57253e-05
5.85941e-05
0.000122746
0.00012455
0.00012582
0.000127915
0.000131446
0.000137161
0.00014608
0.0001602
0.000183051
0.000221631
0.00026815
0.000279091
0.000271788
0.000246003
0.000214672
0.000182732
0.000159443
0.000146238
0.000139449
0.000135342
0.000132658
0.000131114
0.000130469
0.00013029
0.000130533
0.000122886
0.000114531
0.000107355
9.90284e-05
9.03676e-05
8.2607e-05
7.21973e-05
6.43225e-05
5.82247e-05
5.8119e-05
4.89104e-05
5.26507e-05
0.000122681
0.000124767
0.000126056
0.000128092
0.000131409
0.000136869
0.00014525
0.000158141
0.000178528
0.000212019
0.000259421
0.00028232
0.000279321
0.000258444
0.000230214
0.000198235
0.000171114
0.000154434
0.000145779
0.000140479
0.000137248
0.000135403
0.000134188
0.00013422
0.00012142
0.000111855
0.000103388
9.49248e-05
8.7302e-05
7.98007e-05
7.27009e-05
6.61986e-05
6.85601e-05
6.46431e-05
5.53542e-05
6.04434e-05
5.34851e-05
5.37067e-05
5.21308e-05
4.4006e-05
4.70601e-05
0.000122544
0.000124879
0.000126248
0.000128254
0.000131387
0.00013664
0.000144576
0.000156404
0.000174995
0.000204203
0.000249104
0.000281979
0.000283693
0.000269408
0.000245279
0.000215391
0.000185634
0.00016506
0.000154461
0.000147307
0.000143307
0.000141176
0.000140308
0.000126606
0.000114461
0.000103412
9.48288e-05
8.70795e-05
7.90266e-05
7.21461e-05
6.58322e-05
6.00671e-05
5.97827e-05
5.8181e-05
5.72736e-05
5.13776e-05
5.01575e-05
5.05014e-05
4.80833e-05
4.78e-05
3.95648e-05
4.24928e-05
0.00012233
0.000124894
0.000126357
0.000128378
0.000131377
0.000136449
0.00014402
0.000154961
0.000172051
0.000197964
0.000239871
0.000280012
0.000287828
0.000279309
0.000259253
0.000233153
0.000203073
0.000179248
0.000165847
0.000156947
0.000151713
0.000148688
0.00013348
0.000119264
0.00010847
9.88681e-05
8.88633e-05
8.13772e-05
7.43425e-05
6.68065e-05
6.12494e-05
5.66545e-05
5.41125e-05
5.41657e-05
5.62441e-05
5.35624e-05
5.0784e-05
4.73858e-05
4.96172e-05
4.67309e-05
4.36227e-05
4.41201e-05
3.61656e-05
3.88426e-05
0.000122016
0.000124816
0.000126358
0.000128448
0.000131362
0.000136248
0.000143527
0.000153772
0.000169552
0.00019296
0.000230989
0.000277432
0.000293063
0.000288091
0.000272044
0.000250756
0.000222239
0.000197116
0.000181241
0.000170091
0.000163317
0.000151363
0.000129239
0.000114389
0.000103345
9.4305e-05
8.66025e-05
7.76872e-05
7.05704e-05
6.45824e-05
5.88949e-05
5.51831e-05
5.19923e-05
5.4192e-05
5.2339e-05
5.21469e-05
5.04851e-05
5.04291e-05
4.86668e-05
4.40963e-05
4.61224e-05
4.38885e-05
4.01438e-05
4.11057e-05
3.32045e-05
3.58972e-05
0.000121599
0.000124598
0.000126245
0.000128435
0.000131322
0.000136024
0.00014308
0.000152772
0.0001674
0.00018886
0.000222999
0.000271999
0.000297176
0.000295459
0.000283869
0.000267648
0.00024334
0.000218767
0.000201058
0.000188757
0.000179936
0.000149369
0.000126209
0.000110501
9.96239e-05
9.14059e-05
8.4216e-05
7.71373e-05
7.00356e-05
6.30293e-05
5.84394e-05
5.718e-05
5.43309e-05
6.05991e-05
5.22553e-05
6.04078e-05
5.04391e-05
5.39121e-05
4.82548e-05
4.93226e-05
4.59145e-05
4.15468e-05
4.37329e-05
4.15131e-05
3.733e-05
3.84658e-05
3.08887e-05
3.35551e-05
0.000121115
0.000124196
0.000126013
0.000128313
0.000131221
0.000135791
0.000142655
0.000151872
0.000165522
0.000185423
0.000216136
0.000263361
0.000299116
0.000302831
0.000294776
0.000282879
0.000264213
0.000242572
0.000224726
0.000211068
0.000187654
0.000151025
0.000125739
0.000108398
9.68358e-05
8.83795e-05
8.19301e-05
7.62776e-05
7.05988e-05
6.44401e-05
5.95568e-05
6.57839e-05
7.35705e-05
0.000103702
7.23285e-05
0.000116655
6.75863e-05
0.000104996
5.60033e-05
8.18269e-05
4.77546e-05
5.8894e-05
4.59763e-05
3.93078e-05
4.36347e-05
4.08542e-05
3.51251e-05
3.64049e-05
2.92158e-05
3.19224e-05
0.000120536
0.000123607
0.000125644
0.00012809
0.000131017
0.000135542
0.000142232
0.00015108
0.000163833
0.000182454
0.000210181
0.000255118
0.000299756
0.000310928
0.000304918
0.000296583
0.000283683
0.00026622
0.000249868
0.00023836
0.000213653
0.000172228
0.000134853
0.000109417
9.42088e-05
8.51377e-05
7.87112e-05
7.39455e-05
6.92187e-05
6.64719e-05
6.26985e-05
8.42045e-05
0.000130307
0.000145711
0.000131174
0.000156024
0.000129154
0.00015322
0.000123893
0.000142009
0.000100945
0.000129747
6.05073e-05
0.000114882
5.98931e-05
3.78999e-05
5.6316e-05
5.00764e-05
3.35199e-05
3.43563e-05
2.82736e-05
3.08163e-05
0.000119829
0.000122833
0.000125137
0.000127779
0.000130728
0.000135238
0.00014178
0.000150382
0.000162322
0.000179768
0.000205066
0.000247171
0.000298669
0.000318639
0.00031481
0.000309113
0.000301796
0.000288568
0.000276232
0.000268322
0.000259989
0.000244342
0.000217646
0.000148163
0.000104992
8.41784e-05
7.51346e-05
7.08039e-05
6.76303e-05
6.65912e-05
6.40051e-05
0.000111377
0.000153768
0.000172278
0.000174319
0.000205201
0.000187664
0.00022672
0.000181211
0.000231719
0.000159642
0.000214488
0.000135751
0.000176748
0.000114501
0.000140506
0.000111905
4.23948e-05
0.000107105
0.000100141
3.19375e-05
3.53881e-05
2.8431e-05
3.03236e-05
0.000119015
0.000121862
0.000124548
0.000127381
0.000130409
0.000134865
0.00014127
0.000149684
0.000161026
0.000177272
0.000200652
0.000238828
0.000294999
0.000325311
0.000325212
0.00032074
0.000317852
0.000310431
0.000303614
0.00030067
0.000289092
0.000276269
0.000251057
0.000227844
0.000207784
0.000116654
8.06221e-05
6.87222e-05
6.59754e-05
6.48472e-05
6.50494e-05
0.000103616
0.00017748
0.000193782
0.000226085
0.000253861
0.000269451
0.000314264
0.000291122
0.000357761
0.000287268
0.000368254
0.000253507
0.000347605
0.000193898
0.000293591
0.000142563
0.000207276
0.000140127
7.72351e-05
0.000133145
0.000121895
3.10785e-05
5.17342e-05
3.0838e-05
2.9895e-05
0.000118263
0.000121112
0.000124037
0.000126892
0.000130103
0.0001345
0.000140699
0.000148966
0.000159843
0.000175025
0.000196722
0.000231003
0.000287276
0.000330557
0.000336348
0.000331855
0.000331668
0.000330841
0.000333662
0.000337626
0.000344304
0.000354885
0.00032922
0.000280626
0.00023181
0.000206568
0.00014255
8.04924e-05
6.52729e-05
6.20912e-05
6.4976e-05
0.000105191
0.000189787
0.000145058
0.000271889
0.000295905
0.000360585
0.000402014
0.000420515
0.000476868
0.000443811
0.000509609
0.000436106
0.000513649
0.000397908
0.000490796
0.000325568
0.000436851
0.000213139
0.000344225
0.000209035
0.000106474
0.000195373
0.000174091
3.58466e-05
9.05981e-05
3.8869e-05
2.97943e-05
0.000118142
0.000121128
0.000123762
0.000126474
0.00012996
0.000134146
0.000140083
0.000148252
0.000158745
0.000173062
0.000193203
0.00022393
0.000276272
0.000332861
0.00034751
0.000343013
0.000343753
0.000349043
0.000360846
0.000388397
0.000445763
0.000513127
0.00055318
0.000522993
0.00041106
0.000275565
0.000208468
0.000167172
8.21668e-05
6.31132e-05
6.40801e-05
0.000111615
0.0002661
0.000305562
0.000330935
0.000440028
0.000470394
0.000524876
0.00056522
0.000566237
0.000614142
0.000581101
0.000638419
0.000571695
0.000637151
0.000534933
0.000614152
0.000465132
0.000567346
0.000348846
0.000479558
0.000341039
0.000147174
0.000318386
0.000279764
6.68312e-05
0.000115716
3.3558e-05
3.23893e-05
0.000119067
0.000121748
0.000124008
0.000126553
0.000130074
0.000134058
0.000139586
0.000147542
0.000157671
0.000171362
0.000190093
0.000217513
0.000265855
0.000330613
0.000357838
0.000354892
0.000354661
0.000363664
0.000384457
0.000439098
0.00054409
0.000683464
0.000763753
0.000756797
0.000677361
0.000525476
0.000327117
0.000211022
0.000177724
8.42339e-05
6.54487e-05
0.000103959
0.000242415
0.000520179
0.000522577
0.000496438
0.000512017
0.000598101
0.000625923
0.00065485
0.00068851
0.00068346
0.000717193
0.000680818
0.000705613
0.000661571
0.000683424
0.000635255
0.000661809
0.000585779
0.000638167
0.000480195
0.000590861
0.000469962
0.000229408
0.000446185
0.000406344
8.7082e-05
0.000174699
2.32178e-05
4.89586e-05
0.000120452
0.000124702
0.000126572
0.000128305
0.000130996
0.000134168
0.000139519
0.000147378
0.00015701
0.000169776
0.000187358
0.00021197
0.000254882
0.000324749
0.000366366
0.000367785
0.000364611
0.000374571
0.000402169
0.000480205
0.000632584
0.000820237
0.000896816
0.000895203
0.000849782
0.000753545
0.000592223
0.000368433
0.000210657
0.000172364
8.44618e-05
0.000100317
0.000203294
0.00051877
0.000508262
0.000672746
0.000677942
0.000647873
0.000663573
0.000715912
0.000739237
0.000741517
0.000762637
0.000721656
0.000735561
0.000694184
0.000704011
0.000671522
0.000673329
0.000653338
0.000654203
0.000636835
0.000645161
0.000586937
0.000632835
0.000573818
0.000346568
0.000549169
0.000509748
0.000120696
0.00026945
1.96281e-05
9.08932e-05
0.000123406
0.000135712
0.000137695
0.000135739
0.000134459
0.000135225
0.000139699
0.000147381
0.000156819
0.000168555
0.000184926
0.000207307
0.000244242
0.000312024
0.000371269
0.000381086
0.000374642
0.000380997
0.000411334
0.000503251
0.000695731
0.000893807
0.000945098
0.000947266
0.000910381
0.00085062
0.000759312
0.000603911
0.000380767
0.000206746
0.000169776
0.000116098
0.000207462
0.000481035
0.000404719
0.000678217
0.000674701
0.000778347
0.000783131
0.000757769
0.000770681
0.000782648
0.000803229
0.000750754
0.000768366
0.000709041
0.00071144
0.000663661
0.000644705
0.000635455
0.000601166
0.000629402
0.000588609
0.000635149
0.000602125
0.000627719
0.000627228
0.000619842
0.000457044
0.000607649
0.000583655
0.000186645
0.000379159
4.42095e-05
0.000124127
0.000125688
0.000148741
0.000159355
0.000153917
0.00014442
0.000139154
0.000140833
0.000147797
0.000156728
0.000168163
0.000182788
0.000203437
0.000234923
0.000295181
0.000369848
0.000393249
0.000385835
0.000386219
0.000413462
0.000510259
0.000728943
0.000923651
0.000959858
0.000936095
0.000890688
0.000843674
0.000793151
0.00072587
0.000590323
0.000375631
0.000201772
0.000169936
0.000207835
0.000514835
0.000660988
0.00067839
0.000784103
0.000781754
0.000859614
0.000869712
0.000823753
0.000843139
0.000787679
0.000809146
0.000712505
0.000718633
0.000619609
0.000597592
0.000562864
0.000534245
0.000543437
0.000510967
0.00054473
0.00050359
0.000579374
0.000513748
0.000622818
0.000566747
0.00061946
0.000542853
0.000614863
0.000606446
0.000276242
0.000477838
9.18386e-05
0.000178908
0.000145501
0.000170075
0.00017876
0.000166897
0.00014984
0.000144645
0.000149137
0.000157085
0.000167823
0.000181027
0.000200136
0.000227249
0.000280216
0.000363761
0.00040337
0.000398702
0.000392482
0.000413967
0.000507829
0.000735081
0.000933652
0.000951564
0.000884218
0.000804583
0.000776088
0.000762866
0.000730863
0.000678327
0.000551927
0.000356112
0.000201892
0.000213889
0.000426897
0.000742941
0.00072648
0.0007704
0.000761287
0.000876094
0.000875677
0.000889115
0.000918144
0.00083403
0.000861224
0.000730946
0.000751351
0.000583377
0.000582299
0.000512518
0.000498171
0.000484327
0.000464088
0.000467492
0.00043929
0.000467744
0.00042928
0.000492969
0.000439031
0.000566353
0.000482693
0.00057702
0.000587412
0.000592434
0.000599197
0.000372702
0.000546072
0.000134995
0.000251313
0.000158296
0.000183606
0.000192238
0.000174029
0.000154326
0.000152584
0.000158308
0.000167902
0.000179666
0.000197286
0.000220961
0.000265496
0.000350781
0.000408784
0.000412612
0.000399779
0.000409245
0.000490616
0.000722634
0.000934368
0.000940312
0.000796866
0.000667396
0.00067341
0.000690552
0.000699995
0.0006835
0.000633846
0.000507013
0.00033593
0.000235462
0.000352372
0.00070922
0.000669951
0.000840672
0.000823264
0.000869187
0.000858542
0.000943826
0.000957602
0.00087406
0.000922771
0.000784329
0.000826421
0.000594034
0.000621722
0.000494542
0.00050226
0.000450073
0.000444574
0.000420971
0.00041448
0.000406671
0.000400313
0.000401139
0.000388877
0.000419651
0.000382464
0.00048415
0.000410976
0.00050028
0.000596233
0.000534375
0.00055371
0.000587379
0.000454858
0.000575468
0.000179627
0.000321678
0.000164861
0.000193118
0.000200812
0.000176082
0.000160349
0.000161061
0.000168644
0.00017897
0.000194743
0.000216165
0.000252252
0.00032694
0.000406853
0.000426175
0.000408378
0.000406119
0.000462061
0.000674915
0.000929055
0.00093804
0.000738272
0.000554191
0.000572693
0.000631774
0.000659406
0.000665527
0.000648496
0.000584478
0.00046335
0.00033374
0.000347092
0.000680942
0.000793392
0.000788261
0.000952294
0.000934961
0.000964548
0.000963703
0.00096831
0.00100879
0.000806223
0.000886269
0.000668987
0.000732858
0.000518148
0.000543811
0.000452185
0.000470041
0.000415217
0.000428536
0.000404425
0.000417618
0.000392194
0.000407056
0.00037541
0.000386588
0.000368416
0.000364469
0.000414111
0.000361149
0.000381478
0.000469965
0.000420816
0.000568014
0.000590908
0.000580071
0.000504265
0.000447397
0.000431631
0.00052355
0.000508155
0.000584376
0.000584526
0.000572665
0.00019833
0.000372735
0.00017007
0.000201829
0.000205987
0.000177021
0.000166624
0.000170359
0.000178755
0.000192417
0.000212113
0.000241308
0.000305517
0.000400304
0.000436467
0.000421184
0.000406165
0.000437034
0.000604346
0.000907131
0.000938064
0.000726427
0.000478256
0.000476468
0.000553783
0.000611579
0.000636104
0.000639751
0.000610069
0.000535887
0.000445878
0.000394451
0.00064786
0.000860066
0.000806458
0.000910183
0.000880742
0.00106309
0.0010617
0.00104066
0.00105687
0.000963121
0.00102946
0.000742023
0.000847788
0.000587533
0.000650827
0.000495484
0.000523295
0.000454727
0.000483675
0.000443008
0.000474909
0.000425437
0.000450825
0.000402845
0.000418094
0.000376647
0.000387796
0.000395172
0.00035731
0.000355241
0.000365636
0.000360321
0.00035868
0.000383936
0.000356187
0.000350907
0.000388615
0.000544349
0.000562967
0.000466501
0.000415395
0.000400292
0.000490014
0.000577524
0.000501532
0.000556781
0.000576105
0.000580889
0.000194099
0.000517646
0.00045127
0.000354132
0.000178733
0.000211654
0.00020605
0.000177435
0.000173837
0.000179139
0.000189912
0.000208865
0.000232498
0.000285792
0.000386967
0.000440774
0.000435575
0.000410779
0.000418213
0.000537771
0.000856705
0.000935749
0.000737737
0.000444748
0.000397784
0.000462768
0.000564791
0.000614906
0.000641119
0.000631849
0.000579636
0.000511606
0.000443097
0.000619564
0.000849948
0.000988584
0.000973316
0.00104542
0.00102412
0.00116203
0.00117842
0.00108572
0.00113023
0.000947127
0.00103722
0.000716194
0.000831975
0.00056673
0.00062277
0.00050424
0.000520891
0.000497159
0.000506665
0.000480144
0.000502019
0.000442164
0.000471359
0.000401389
0.000410681
0.000418793
0.000432559
0.000372946
0.000381051
0.000388324
0.000395042
0.000349835
0.000352924
0.000364323
0.000357769
0.000346337
0.000358393
0.000342741
0.00034351
0.00036245
0.000516137
0.000541396
0.000433488
0.000370556
0.000384842
0.000456306
0.000578153
0.000565389
0.000562551
0.000574982
0.000304825
8.28845e-05
0.000154581
0.000531322
0.00046372
0.000193632
0.000224571
0.000201611
0.000180512
0.000180713
0.000188123
0.000205769
0.000226653
0.00026839
0.000357805
0.000437094
0.000450076
0.000419102
0.000406878
0.000483621
0.000768898
0.000926909
0.000765822
0.000446308
0.000349089
0.000384599
0.000486708
0.000598753
0.000645385
0.000667632
0.000633292
0.000567435
0.000517885
0.000627356
0.000797943
0.00110989
0.00104904
0.00115915
0.00113565
0.00118051
0.00117724
0.00123544
0.00127386
0.00111529
0.00118197
0.000940788
0.00104284
0.000649019
0.000767639
0.000556756
0.000577879
0.000490512
0.00041073
0.000489482
0.00042461
0.000470305
0.000414748
0.000444127
0.000462403
0.000470281
0.000394489
0.000402303
0.000410502
0.000421656
0.000433973
0.000371597
0.000377852
0.00038705
0.000393903
0.000344888
0.000348847
0.000361118
0.000354318
0.000337344
0.00034093
0.000331719
0.000336999
0.000341851
0.000485177
0.000516828
0.000404193
0.000346711
0.000357358
0.000426536
0.000577032
0.000570163
0.000545637
0.000567497
0.00024661
3.96929e-05
0.000149235
0.000540595
0.000374854
0.000216477
0.000232984
0.000193907
0.000184341
0.000188049
0.000202254
0.000222163
0.000254888
0.000329046
0.000429993
0.000461535
0.000430017
0.000403614
0.000438193
0.000651291
0.000902978
0.000819596
0.000468032
0.000342765
0.000329578
0.000395281
0.000554896
0.000639255
0.000691723
0.000698776
0.00064552
0.000594404
0.000665456
0.000776038
0.00111367
0.00128548
0.00128295
0.00131206
0.00130584
0.001299
0.00131231
0.00128377
0.00133919
0.00113515
0.00121533
0.000906593
0.0010309
0.000493207
0.000603798
0.000380297
0.000413453
0.000331559
0.000261583
0.00036578
0.00027347
0.000426818
0.000353286
0.000375057
0.000304707
0.00044736
0.000436338
0.000392831
0.000381296
0.000400805
0.000409739
0.000420176
0.000431755
0.000367922
0.0003844
0.000373848
0.000390359
0.000339508
0.000343759
0.000356794
0.000349199
0.000329249
0.000327729
0.000322373
0.000330184
0.000325901
0.000454729
0.000490601
0.000375993
0.000327686
0.000334986
0.000400035
0.000576304
0.000572981
0.000527017
0.000557696
0.000244154
2.8597e-05
0.000116276
0.00049045
0.000344012
0.000241236
0.000222983
0.000190783
0.000188805
0.000198822
0.000218675
0.000244341
0.000305435
0.00041715
0.000466169
0.00044939
0.000407915
0.00040792
0.000546104
0.000854079
0.00086256
0.000537994
0.000355259
0.00030798
0.00033411
0.000443404
0.000611947
0.000690356
0.000742662
0.000739765
0.00068421
0.00069925
0.000800816
0.00104979
0.00139359
0.00135086
0.00142877
0.00141858
0.00142807
0.00143292
0.0013813
0.00141106
0.00130196
0.00136712
0.00113567
0.00122478
0.00072363
0.000835704
0.000373308
0.00047198
0.000260187
0.00029933
0.000186111
0.00015559
0.000233204
0.000147161
0.000358953
0.000354491
0.000336879
0.000313934
0.00040676
0.000366661
0.000340308
0.000322952
0.000397438
0.00040529
0.000414514
0.000391545
0.000362117
0.000379924
0.000368437
0.000385479
0.000332881
0.000337078
0.000350323
0.000343007
0.000321216
0.000316747
0.000313252
0.000322197
0.000312982
0.000427679
0.000464365
0.000350376
0.000312244
0.000316419
0.000374877
0.000574814
0.000539584
0.000507932
0.000546368
0.000238715
5.42225e-06
6.87534e-05
0.000435242
0.000324108
0.000250436
0.000204521
0.000191566
0.000196162
0.000215362
0.000237111
0.000285051
0.000387429
0.000461644
0.000462959
0.000416313
0.000391884
0.000470757
0.000753202
0.000878523
0.000648433
0.000397936
0.000316169
0.000302194
0.000362698
0.000501967
0.000661549
0.000746684
0.000803727
0.00080074
0.00076307
0.000824465
0.00104748
0.00137317
0.00148868
0.00147988
0.00150788
0.0015038
0.0014885
0.00150413
0.00142043
0.00146092
0.00116009
0.00126361
0.000943338
0.00105184
0.000567184
0.000662841
0.000279779
0.000361195
0.000169266
0.000209214
0.000102881
0.000102387
0.000180717
0.000141383
0.000109766
0.000122565
0.000306039
0.00028866
0.000257634
0.000207749
0.000345428
0.000313912
0.000293296
0.000278766
0.000390762
0.000397179
0.000395326
0.000339013
0.000355199
0.000373369
0.000361133
0.000376973
0.000324597
0.000328923
0.00034173
0.00033541
0.000312109
0.000306469
0.000303262
0.000312521
0.000301409
0.000404279
0.000440154
0.000328343
0.000298955
0.000300788
0.000351386
0.000544846
0.000476527
0.000487635
0.000532329
0.000200637
1.21131e-05
5.99699e-05
0.000402614
0.0002908
0.000239295
0.000196881
0.00019629
0.000210644
0.00023129
0.000269665
0.000354226
0.000453894
0.00047455
0.000429625
0.000388191
0.00041576
0.00061844
0.000866449
0.000748942
0.000509065
0.000354763
0.000306499
0.000309238
0.000399764
0.000540961
0.00071423
0.00081195
0.000876086
0.000889528
0.000892104
0.00106086
0.00132538
0.0014586
0.00142493
0.00151099
0.00149217
0.00152098
0.00151935
0.00149163
0.00151264
0.00135
0.00143666
0.000959525
0.00105287
0.000759246
0.000858447
0.000441115
0.000518103
0.000198646
0.000282179
0.000112748
0.000139025
0.000107393
0.000103399
0.000107223
0.00013563
0.000119112
0.000104089
0.000109616
0.000258175
0.000229989
0.000194971
0.000156566
0.000300111
0.000275997
0.0002603
0.000241018
0.000380971
0.000384475
0.000354377
0.000303696
0.000347278
0.000365403
0.000352359
0.000368476
0.000314936
0.000319465
0.000332007
0.000326256
0.000301322
0.000295759
0.000291688
0.000301278
0.000289986
0.000382787
0.000419351
0.000309701
0.000286481
0.000286894
0.000329851
0.000489802
0.00044184
0.000467794
0.000488445
0.00018057
8.31481e-05
9.47474e-05
0.000377774
0.000273258
0.000217812
0.000197904
0.000206131
0.000227352
0.000257301
0.000326732
0.000442087
0.000482258
0.000454975
0.000394301
0.000381935
0.000508997
0.000802494
0.00081777
0.000617543
0.000472119
0.000336866
0.000304627
0.000326056
0.00042614
0.00057529
0.000768291
0.000882127
0.000955559
0.001006
0.0011118
0.00129931
0.00136771
0.00143175
0.00139961
0.00147999
0.00146361
0.00148217
0.00148548
0.00134302
0.00143736
0.00114851
0.00124669
0.000766926
0.000851137
0.000601334
0.00068501
0.000357643
0.000416971
0.000148209
0.000212891
0.000103492
0.000116325
0.000102957
0.000110759
0.000126558
0.000126345
0.000121579
0.000117274
0.000113816
0.000115096
0.000213119
0.000181803
0.000153269
0.000132402
0.000272169
0.000252952
0.000232394
0.000204604
0.000369291
0.000368322
0.000335863
0.000291036
0.000337474
0.000355597
0.000342295
0.000357166
0.000304032
0.000308696
0.000321072
0.000315166
0.000288627
0.000283536
0.000277788
0.000288558
0.000277439
0.000362671
0.000401096
0.000293641
0.000273618
0.000273106
0.000311487
0.000460712
0.000426117
0.00044855
0.000462634
0.000205986
8.39918e-05
0.000142929
0.000368387
0.000328508
0.000205574
0.000203963
0.00022266
0.000248282
0.00030316
0.000416989
0.000481319
0.000471157
0.000403931
0.000366361
0.000430119
0.000666108
0.000831572
0.000709118
0.000606009
0.000457334
0.00032945
0.000303456
0.000334172
0.000440419
0.000593241
0.000800609
0.000942469
0.00102997
0.00111964
0.00126925
0.00130443
0.00129718
0.00127451
0.00135569
0.00132553
0.00139248
0.00137963
0.00133516
0.00139547
0.00113382
0.00123532
0.000941381
0.00103596
0.000599498
0.000671835
0.000472377
0.000535384
0.000280067
0.00035634
0.00011922
0.000155222
0.000113426
0.000107657
0.000104782
0.000113171
0.000114744
0.000125092
0.000116902
0.000140782
0.000146513
0.00015787
0.000151804
0.000177301
0.000155423
0.000141314
0.000136874
0.00026255
0.000238613
0.00020764
0.000181793
0.000357409
0.00035426
0.000345527
0.000300174
0.000326052
0.000345336
0.000330934
0.0003459
0.000291446
0.000296106
0.00030824
0.000301713
0.000274688
0.000269249
0.000262655
0.000274825
0.000262762
0.000344393
0.000384651
0.000279204
0.000258577
0.000259277
0.000295715
0.000448675
0.000426359
0.000431385
0.000448515
0.000230849
0.000144187
0.000231702
0.00041367
0.000388944
0.000204691
0.000219208
0.000240196
0.000286005
0.000385082
0.000473462