/*--------------------------------*- C++ -*----------------------------------*\
  =========                 |
  \\      /  F ield         | OpenFOAM: The Open Source CFD Toolbox
   \\    /   O peration     | Website:  https://openfoam.org
    \\  /    A nd           | Version:  dev
     \\/     M anipulation  |
\*---------------------------------------------------------------------------*/
FoamFile
{
    version     2.0;
    format      ascii;
    class       volScalarField;
    location    "2500";
    object      CO2;
}
// * * * * * * * * * * * * * * * * * * * * * * * * * * * * * * * * * * * * * //

dimensions      [0 0 0 0 0 0 0];

internalField   nonuniform List<scalar> 
9851
(
2.7835e-28
8.00061e-28
5.70217e-28
1.36127e-27
2.08954e-27
2.88986e-28
2.64169e-27
4.44985e-27
2.21724e-27
1.17368e-28
2.81917e-27
6.97569e-27
4.83596e-27
1.67964e-27
5.89287e-29
5.25455e-27
1.40463e-26
8.51125e-27
3.75825e-27
7.57645e-28
3.10024e-29
5.86643e-27
1.82508e-26
1.93312e-26
7.97257e-27
2.78963e-27
1.95784e-28
7.94107e-30
6.23049e-27
2.38884e-26
2.96726e-26
1.57427e-26
5.57139e-27
1.05094e-27
9.58953e-29
3.14397e-30
6.15002e-27
3.19153e-26
4.12858e-26
3.50065e-26
1.20527e-26
4.47386e-27
3.2244e-28
4.81375e-29
2.03323e-30
7.56213e-27
3.98455e-26
5.82773e-26
5.96252e-26
3.1372e-26
9.43887e-27
1.65968e-27
2.04017e-28
1.6173e-29
7.35519e-31
9.17668e-27
4.59842e-26
8.4168e-26
8.76999e-26
5.78181e-26
2.39965e-26
6.92472e-27
7.27098e-28
1.092e-28
5.05911e-30
1.0773e-31
5.03246e-27
5.16257e-26
1.07034e-25
1.17239e-25
9.8852e-26
4.35512e-26
1.72746e-26
2.66571e-27
4.17091e-28
4.61036e-29
1.63742e-30
6.00821e-32
8.84782e-27
4.64733e-26
1.13246e-25
1.69543e-25
1.42083e-25
9.10361e-26
2.98363e-26
1.14044e-26
1.44257e-27
2.35019e-28
1.17169e-29
4.80185e-31
3.35645e-32
4.30615e-27
4.58148e-26
1.4724e-25
2.31358e-25
2.07935e-25
1.40547e-25
6.63889e-26
2.26259e-26
6.83763e-27
8.30172e-28
1.0933e-28
6.0911e-30
3.13449e-31
2.80978e-33
5.875e-27
4.7913e-26
1.29562e-25
2.75451e-25
2.87489e-25
2.21252e-25
1.18346e-25
4.95583e-26
1.59301e-26
2.48652e-27
4.03911e-28
2.80794e-29
2.29246e-30
6.08642e-32
1.08764e-32
3.86403e-27
3.35866e-26
1.25136e-25
3.63259e-25
4.24125e-25
2.99031e-25
1.76056e-25
8.91967e-26
3.35348e-26
9.17727e-27
1.2098e-27
2.05524e-28
1.10503e-29
6.14726e-31
1.90632e-31
1.08951e-31
8.1631e-27
3.34069e-26
1.62118e-25
4.18342e-25
5.33546e-25
4.83254e-25
3.04751e-25
1.43628e-25
6.08454e-26
1.90927e-26
5.18879e-27
7.4121e-28
8.48499e-29
7.08977e-30
2.71946e-30
2.57107e-30
3.27919e-30
9.55777e-27
4.47961e-26
1.63943e-25
4.19476e-25
6.83943e-25
7.1395e-25
4.93191e-25
2.18657e-25
1.16155e-25
4.29514e-26
1.30104e-26
2.36071e-27
3.36077e-28
4.53667e-29
2.2004e-29
3.85298e-29
4.89084e-29
3.39473e-29
1.10839e-26
4.30222e-26
1.61812e-25
4.42874e-25
7.9804e-25
9.21035e-25
7.38531e-25
4.5832e-25
1.68131e-25
7.69304e-26
2.92554e-26
5.77062e-27
9.47658e-28
2.9823e-28
1.78741e-28
2.72478e-28
5.9199e-28
6.41216e-28
3.75797e-28
1.73596e-26
6.93507e-26
1.80502e-25
4.93911e-25
8.67036e-25
1.20768e-24
1.05153e-24
6.998e-25
3.4901e-25
1.54393e-25
5.81705e-26
1.82281e-26
4.37068e-27
1.51753e-27
2.33842e-27
2.97272e-27
5.64094e-27
7.20629e-27
7.55619e-27
3.28716e-27
1.64682e-26
9.23268e-26
2.08315e-25
5.58296e-25
1.07801e-24
1.59949e-24
1.44132e-24
9.69572e-25
6.10088e-25
2.82664e-25
1.18091e-25
4.33685e-26
1.70176e-26
1.08553e-26
2.94562e-26
3.41661e-26
4.52568e-26
7.86668e-26
6.46053e-26
1.00724e-25
7.50765e-26
2.64377e-26
1.37325e-25
2.61142e-25
6.7449e-25
1.12424e-24
1.87804e-24
1.91719e-24
1.49362e-24
8.90489e-25
4.96467e-25
2.04267e-25
1.14734e-25
9.31208e-26
1.006e-25
2.21003e-25
4.81629e-25
5.41709e-25
7.57827e-25
8.83689e-25
9.32548e-25
9.09863e-25
6.58201e-25
6.05513e-26
1.97738e-25
3.88431e-25
9.29924e-25
1.33046e-24
2.36132e-24
2.50781e-24
1.97168e-24
1.35977e-24
7.55255e-25
4.82148e-25
3.96763e-25
6.701e-25
1.14477e-24
1.96981e-24
5.04176e-24
4.68042e-24
9.71655e-24
1.3088e-23
1.46277e-23
1.35927e-23
1.04127e-23
3.08101e-24
8.95665e-26
3.09269e-25
6.5105e-25
1.28521e-24
1.8304e-24
2.87414e-24
3.01942e-24
2.71382e-24
2.10424e-24
1.5151e-24
1.20797e-24
1.94337e-24
5.05315e-24
8.36057e-24
1.69856e-23
4.87707e-23
6.7509e-23
5.70504e-23
9.18329e-23
1.2557e-22
1.30382e-22
1.05613e-22
8.21692e-23
3.57322e-23
1.79053e-25
4.7934e-25
8.82073e-25
1.67828e-24
2.61008e-24
3.41243e-24
4.09829e-24
4.60517e-24
4.26205e-24
4.48132e-24
4.93874e-24
1.28407e-23
3.36851e-23
8.08283e-23
1.7274e-22
3.26298e-22
7.51288e-22
6.19336e-22
9.84995e-22
1.6259e-21
1.14008e-21
9.44903e-22
8.33722e-22
1.18907e-21
5.6317e-22
2.88517e-25
8.36074e-25
1.53653e-24
2.74274e-24
3.54452e-24
4.60198e-24
5.92188e-24
9.06888e-24
1.14788e-23
2.55481e-23
3.63795e-23
7.21987e-23
2.00242e-22
5.97813e-22
1.47504e-21
3.51656e-21
5.46037e-21
7.22715e-21
6.25766e-21
1.48264e-20
1.14107e-20
7.4139e-21
7.25507e-21
1.15246e-20
8.9217e-21
1.53099e-21
4.81059e-25
1.39634e-24
2.52376e-24
4.4941e-24
5.47378e-24
6.39023e-24
1.02458e-23
2.77689e-23
7.26694e-23
1.33727e-22
3.66671e-22
4.87045e-22
1.07486e-21
4.07921e-21
1.35348e-20
2.19081e-20
3.62172e-20
4.50744e-20
8.0088e-20
7.44397e-20
1.38628e-19
7.03347e-20
6.11916e-20
9.22726e-20
9.57256e-20
3.73602e-20
3.24621e-20
1.15779e-24
2.45983e-24
4.4894e-24
6.24062e-24
8.02241e-24
1.12505e-23
2.17613e-23
9.45484e-23
3.9556e-22
1.02429e-21
1.97936e-21
5.2226e-21
8.92853e-21
2.10777e-20
6.61117e-20
1.92764e-19
3.76673e-19
3.1966e-19
4.99807e-19
4.48892e-19
9.76906e-19
7.55439e-19
9.27801e-19
6.98263e-19
5.90418e-19
5.72323e-19
3.99484e-19
1.8717e-19
3.94686e-24
6.49208e-24
9.51856e-24
1.18416e-23
1.29046e-23
1.84168e-23
4.93126e-23
3.11061e-22
1.61292e-21
5.84923e-21
1.52206e-20
3.07858e-20
6.21556e-20
1.39113e-19
4.45366e-19
1.06358e-18
2.13783e-18
3.78479e-18
4.4723e-18
4.29423e-18
5.52444e-18
4.81024e-18
6.02083e-18
5.17224e-18
4.31187e-18
3.75208e-18
2.66475e-18
2.42131e-18
6.15086e-19
1.52992e-23
1.72726e-23
2.27806e-23
2.5809e-23
2.63788e-23
3.35953e-23
1.13923e-22
9.53917e-22
7.54559e-21
2.91317e-20
1.03506e-19
2.27682e-19
5.86334e-19
9.19052e-19
2.86306e-18
6.57384e-18
1.51372e-17
2.20029e-17
2.89694e-17
4.30148e-17
4.57419e-17
5.4716e-17
4.07207e-17
3.04639e-17
2.04514e-17
2.16101e-17
2.13535e-17
2.08867e-17
8.36785e-18
4.49234e-18
4.9207e-23
6.24469e-23
5.64334e-23
5.35763e-23
5.66826e-23
5.68601e-23
2.93293e-22
3.26462e-21
2.57591e-20
1.41739e-19
4.13634e-19
1.67494e-18
2.72776e-18
8.13684e-18
1.32441e-17
3.67281e-17
8.12124e-17
1.20737e-16
2.01851e-16
2.10211e-16
2.14247e-16
2.69809e-16
2.60326e-16
1.56971e-16
8.85845e-17
1.57003e-16
1.19953e-16
1.06926e-16
9.90519e-17
3.60984e-17
1.95235e-17
1.52782e-22
2.42448e-22
1.80211e-22
1.44126e-22
1.22444e-22
1.20616e-22
5.63255e-22
8.53402e-21
8.93357e-20
6.01606e-19
2.14306e-18
7.61713e-18
2.38722e-17
4.08864e-17
1.16376e-16
1.84258e-16
4.00355e-16
8.21678e-16
1.11239e-15
9.01841e-16
8.86777e-16
8.79127e-16
8.93425e-16
6.94731e-16
7.20237e-16
5.49958e-16
6.23415e-16
5.22457e-16
6.02398e-16
2.40024e-16
1.81802e-16
4.29615e-17
4.84367e-22
7.46451e-22
6.96973e-22
4.59936e-22
3.08276e-22
2.34685e-22
1.00961e-21
1.98084e-20
2.42635e-19
2.11841e-18
1.08345e-17
3.91915e-17
1.1003e-16
3.10484e-16
6.15704e-16
1.30365e-15
2.27752e-15
3.62388e-15
4.79608e-15
5.86441e-15
5.94805e-15
5.02181e-15
4.30011e-15
4.32138e-15
3.5742e-15
3.1144e-15
2.97076e-15
3.4843e-15
3.97885e-15
3.01064e-15
1.65082e-15
3.62867e-16
7.0105e-17
1.56712e-21
2.41072e-21
1.8615e-21
1.51774e-21
9.27618e-22
4.85401e-22
1.58351e-21
3.6798e-20
6.83849e-19
6.11051e-18
4.09723e-17
1.71621e-16
5.1752e-16
1.34102e-15
3.8014e-15
9.13337e-15
1.68387e-14
2.88784e-14
3.85928e-14
4.53985e-14
4.68104e-14
4.05998e-14
2.9499e-14
2.45816e-14
2.24297e-14
1.96219e-14
1.88898e-14
2.23568e-14
4.55265e-14
6.65673e-14
3.79837e-14
1.00108e-14
1.1894e-15
1.8011e-17
2.05624e-16
6.06649e-21
7.21475e-21
6.73299e-21
4.6779e-21
2.65937e-21
1.45403e-21
2.49296e-21
5.62408e-20
1.37448e-18
1.90921e-17
1.41222e-16
6.89847e-16
2.60676e-15
8.65502e-15
2.45099e-14
6.27968e-14
1.36898e-13
2.43819e-13
3.43109e-13
3.96285e-13
4.06249e-13
3.45344e-13
2.19611e-13
1.59057e-13
1.31268e-13
1.19543e-13
1.04256e-13
1.3698e-13
4.11277e-13
1.28622e-12
1.75965e-12
6.15719e-13
7.70758e-14
2.51107e-15
4.37729e-14
6.13351e-17
9.64433e-16
3.12347e-20
2.64734e-20
1.9137e-20
1.46275e-20
1.10153e-20
6.57771e-21
4.04555e-21
8.10323e-20
2.3243e-18
4.48928e-17
4.53723e-16
2.46919e-15
1.25523e-14
5.04518e-14
1.54687e-13
4.45719e-13
1.05827e-12
2.02443e-12
3.02177e-12
3.54572e-12
3.53283e-12
3.01424e-12
1.78104e-12
1.07033e-12
7.69889e-13
6.42014e-13
5.72157e-13
6.21141e-13
2.91832e-12
1.52717e-11
3.99765e-11
2.63341e-11
2.28534e-12
1.88366e-11
7.79354e-13
1.50879e-11
1.32028e-11
2.2033e-14
4.86582e-13
2.39111e-16
8.44599e-15
2.02058e-19
1.48401e-19
8.45799e-20
5.35627e-20
2.88946e-20
1.94604e-20
1.00298e-20
1.0186e-19
3.6303e-18
8.46829e-17
1.17109e-15
9.72159e-15
5.11366e-14
2.49901e-13
8.95567e-13
2.90945e-12
7.67473e-12
1.60352e-11
2.58544e-11
3.17616e-11
3.1202e-11
2.62176e-11
1.57389e-11
7.55551e-12
4.63121e-12
3.39692e-12
2.83455e-12
2.84683e-12
1.36408e-11
1.27413e-10
5.20892e-10
8.00042e-10
1.1471e-10
7.8106e-10
1.45182e-10
9.45952e-12
1.68352e-10
1.50109e-10
2.31623e-13
5.39624e-12
2.03076e-15
8.50196e-14
1.76581e-18
1.08379e-18
4.47253e-19
1.79092e-19
1.07027e-19
4.57212e-20
3.33002e-20
1.61174e-19
4.75159e-18
1.47503e-16
2.65608e-15
2.6446e-14
1.82812e-13
1.08922e-12
4.59272e-12
1.70319e-11
5.05328e-11
1.18534e-10
2.10296e-10
2.80769e-10
2.82953e-10
2.26778e-10
1.45376e-10
5.92624e-11
2.93097e-11
1.84461e-11
1.35801e-11
1.21835e-11
6.2899e-11
7.06399e-10
4.60029e-09
1.35396e-08
4.3778e-09
2.136e-08
1.2517e-09
8.64321e-09
1.73595e-09
1.04212e-10
1.87233e-09
1.59363e-09
2.43571e-12
5.70312e-11
1.967e-14
8.54076e-13
1.50647e-17
8.44757e-18
2.99074e-18
1.04912e-18
3.62776e-19
2.09514e-19
7.51142e-20
2.15363e-19
7.58268e-18
2.07545e-16
5.06603e-15
6.97943e-14
5.78424e-13
3.91654e-12
2.10885e-11
8.73653e-11
2.96736e-10
7.82903e-10
1.59518e-09
2.36118e-09
2.59298e-09
2.06307e-09
1.25416e-09
5.0629e-10
2.03595e-10
1.04977e-10
6.65225e-11
5.2245e-11
9.2157e-11
2.69763e-09
2.72754e-08
1.18269e-07
8.29919e-08
2.98906e-07
4.76003e-08
2.14949e-07
1.37089e-08
8.71328e-08
1.79599e-08
1.07396e-09
1.87216e-08
1.55748e-08
2.46445e-11
5.67459e-10
1.9562e-13
8.3038e-12
1.15844e-16
7.77178e-17
2.41029e-17
7.15535e-18
1.66637e-18
6.08995e-19
3.47217e-19
2.84084e-19
8.04048e-18
3.16364e-16
7.99632e-15
1.48585e-13
1.75408e-12
1.24498e-11
8.10748e-11
3.89296e-10
1.50603e-09
4.55939e-09
1.04546e-08
1.87559e-08
2.29184e-08
1.96242e-08
1.12128e-08
4.62002e-09
1.57214e-09
6.65014e-10
3.45328e-10
2.27197e-10
2.22391e-10
4.91186e-09
9.23073e-08
7.17758e-07
8.91037e-07
2.44761e-06
8.18041e-07
2.65947e-06
4.44038e-07
1.84945e-06
1.31796e-07
7.65052e-07
1.65839e-07
1.0244e-08
1.69074e-07
1.38692e-07
2.35593e-10
5.25004e-09
1.91318e-12
7.73097e-11
7.77464e-16
6.06805e-16
2.19097e-16
5.37468e-17
1.34225e-17
3.62712e-18
1.25184e-18
5.00379e-19
7.87165e-18
3.51198e-16
1.23423e-14
2.6552e-13
3.83932e-12
3.44701e-11
2.61115e-10
1.48274e-09
6.59556e-09
2.22331e-08
5.99732e-08
1.19828e-07
2.09372e-07
1.97726e-07
1.04681e-07
4.19192e-08
1.36024e-08
4.76707e-09
2.01392e-09
1.05022e-09
7.648e-10
3.84693e-09
2.4376e-07
2.49888e-06
5.75495e-06
1.3525e-05
7.47989e-06
1.86968e-05
6.45241e-06
1.86512e-05
3.54253e-06
1.3075e-05
1.11275e-06
5.74213e-06
1.3533e-06
8.96491e-08
1.3617e-06
1.11226e-06
2.11422e-09
4.48715e-08
1.80788e-11
6.78184e-10
5.47467e-15
4.65397e-15
1.84897e-15
4.63406e-16
1.37647e-16
2.37441e-17
5.51045e-18
1.73418e-18
5.27864e-18
3.02908e-16
1.3743e-14
4.01795e-13
7.35745e-12
8.89223e-11
7.29276e-10
4.87815e-09
2.44341e-08
9.24406e-08
2.69786e-07
6.9653e-07
1.21841e-06
1.1022e-06
6.92125e-07
3.63372e-07
1.27627e-07
3.83249e-08
1.33064e-08
5.4801e-09
3.04204e-09
4.19902e-09
2.57718e-07
6.17163e-06
2.25027e-05
3.93829e-05
3.97626e-05
7.79779e-05
4.66376e-05
0.000102456
3.92889e-05
9.78716e-05
2.27218e-05
6.99767e-05
7.9901e-06
3.38992e-05
9.42457e-06
7.14167e-07
9.4039e-06
7.7486e-06
1.75953e-08
3.52223e-07
1.63856e-10
5.57411e-09
3.77769e-14
3.79889e-14
1.53273e-14
4.20689e-15
1.03489e-15
1.96252e-16
3.18002e-17
7.23952e-18
3.65554e-18
1.88356e-16
1.20578e-14
4.52794e-13
1.08291e-11
1.82507e-10
1.89398e-09
1.427e-08
7.98244e-08
3.16091e-07
1.02873e-06
2.74888e-06
4.88722e-06
5.7007e-06
4.55477e-06
2.48101e-06
1.00685e-06
3.53159e-07
1.02393e-07
3.34003e-08
1.35141e-08
9.50808e-09
1.42413e-07
8.46578e-06
5.37148e-05
7.33562e-05
0.000122831
0.000182207
0.000188615
0.000303511
0.000213183
0.000382356
0.000178163
0.00037813
0.00010948
0.000279518
4.42942e-05
0.000150027
5.02997e-05
5.04858e-06
4.96435e-05
4.16275e-05
1.35459e-07
2.51046e-06
1.40067e-09
4.21058e-08
2.66827e-13
3.10143e-13
1.38563e-13
4.03051e-14
9.17353e-15
1.93987e-15
3.29989e-16
3.77687e-17
7.52141e-18
9.1661e-17
7.41408e-15
4.02353e-13
1.21407e-11
2.4436e-10
3.38216e-09
3.03395e-08
2.20713e-07
9.70615e-07
2.9595e-06
8.47254e-06
1.80612e-05
2.65503e-05
2.55331e-05
1.65225e-05
7.53492e-06
2.55746e-06
7.31324e-07
2.11703e-07
6.75033e-08
3.26435e-08
1.07109e-07
6.22689e-06
8.49396e-05
9.89813e-05
0.000238084
0.00029757
0.000430842
0.000563135
0.000588191
0.000797007
0.000649567
0.000942583
0.000587779
0.000955095
0.00039727
0.000802699
0.000183725
0.000500923
0.000200603
2.83572e-05
0.000195285
0.000166758
9.51246e-07
1.49585e-05
1.10721e-08
2.87372e-07
1.66286e-12
2.31532e-12
1.16744e-12
3.69281e-13
8.99258e-14
1.60484e-14
2.4015e-15
3.1289e-16
2.82611e-17
3.90293e-17
3.60958e-15
2.51023e-13
1.08591e-11
2.67959e-10
4.46426e-09
4.55787e-08
4.11684e-07
1.90923e-06
6.94676e-06
2.23146e-05
5.35859e-05
9.1295e-05
0.000105299
8.47696e-05
4.77319e-05
1.90823e-05
5.85545e-06
1.54564e-06
3.9997e-07
1.31774e-07
1.44908e-07
6.22214e-06
9.8115e-05
6.41107e-05
0.000338364
0.00037917
0.000680377
0.000782904
0.000996572
0.00116446
0.00120747
0.0014115
0.00128991
0.00151234
0.00123941
0.00152567
0.00101173
0.00145215
0.00057365
0.00116428
0.000601188
0.000119545
0.000575613
0.000496455
5.89203e-06
6.77852e-05
7.85527e-08
1.72716e-06
9.00875e-12
1.38707e-11
8.5253e-12
3.10382e-12
8.57782e-13
1.6178e-13
2.60153e-14
2.41701e-15
1.9084e-16
3.85296e-17
1.43392e-15
1.27438e-13
6.92299e-12
2.37254e-10
4.72525e-09
5.41628e-08
5.67761e-07
2.84648e-06
1.23213e-05
4.4994e-05
0.000116306
0.000212633
0.000282964
0.000285832
0.00020898
0.000103047
3.69704e-05
1.02644e-05
2.54153e-06
6.35145e-07
3.37358e-07
4.83893e-06
0.000218882
0.000389529
0.000440292
0.000854655
0.000913363
0.0012912
0.00138475
0.00154085
0.0016248
0.00163903
0.00171709
0.00167117
0.00175189
0.00165993
0.00175759
0.00157366
0.00174419
0.00125135
0.00165248
0.00127224
0.000373478
0.00121873
0.00107569
2.81137e-05
0.000228906
4.68439e-07
8.68721e-06
4.11696e-11
7.64163e-11
5.01186e-11
2.43888e-11
7.65623e-12
1.45992e-12
2.72388e-13
2.63319e-14
1.98875e-15
1.90988e-16
4.90373e-16
5.29816e-14
3.66225e-12
1.51514e-10
4.27401e-09
5.41939e-08
6.44591e-07
3.49487e-06
1.7492e-05
6.92395e-05
0.000187842
0.000353082
0.000491335
0.00054388
0.000489559
0.000339964
0.000156731
5.2118e-05
1.38056e-05
3.30035e-06
1.08385e-06
3.21168e-06
0.000150442
0.000914822
0.000881876
0.000936068
0.000931765
0.00144464
0.00148693
0.0016797
0.0017166
0.00177056
0.00180782
0.00180339
0.00184209
0.0018098
0.00184797
0.00180678
0.00184148
0.0017975
0.00183752
0.00170148
0.00183621
0.00172363
0.000857552
0.00170778
0.00162
0.00010444
0.000578996
2.38e-06
3.61082e-05
1.47804e-10
3.38053e-10
2.77088e-10
1.31951e-10
4.93148e-11
1.1698e-11
2.59066e-12
2.6915e-13
2.05582e-14
1.09828e-15
2.56536e-16
1.82422e-14
1.60093e-12
8.31884e-11
2.66623e-09
5.26905e-08
6.29232e-07
3.74481e-06
2.08233e-05
8.88891e-05
0.000250027
0.000480231
0.000689076
0.000808772
0.00080496
0.000671383
0.000441775
0.000191368
5.90389e-05
1.50159e-05
3.8083e-06
3.37302e-06
7.4038e-05
0.000816977
0.000729247
0.00146968
0.00143396
0.00149842
0.00149164
0.00173931
0.00175513
0.00183193
0.00184462
0.00187323
0.00189988
0.0018864
0.0019357
0.00187852
0.0019419
0.00186356
0.00191422
0.00185949
0.0018807
0.00186954
0.00188276
0.00189927
0.00140649
0.00191143
0.00187998
0.000297248
0.00107765
1.28538e-05
0.000120731
3.78161e-10
1.11615e-09
1.18782e-09
7.26362e-10
2.89838e-10
9.40365e-11
2.15792e-11
2.58188e-12
2.0604e-13
1.08589e-14
8.89783e-16
5.32851e-15
5.8806e-13
3.81821e-11
1.49624e-09
3.31698e-08
4.96604e-07
3.60626e-06
2.14696e-05
9.93684e-05
0.000294213
0.000576547
0.00085169
0.00104768
0.00112368
0.00104597
0.000816164
0.000499234
0.000195301
5.71088e-05
1.44753e-05
5.7831e-06
4.82456e-05
0.000630567
0.000428211
0.00136292
0.00129576
0.00175488
0.00174466
0.00176271
0.00176053
0.0018483
0.00184583
0.00191628
0.00191773
0.00199287
0.00204691
0.00204248
0.00217783
0.00202719
0.00223052
0.00195613
0.00215553
0.00189141
0.00200359
0.00190899
0.00190397
0.00194061
0.00177009
0.00196754
0.00197204
0.000646857
0.00152448
4.27325e-05
0.000291088
5.63274e-10
2.45009e-09
3.73067e-09
3.0579e-09
1.5815e-09
4.44068e-10
1.73608e-10
2.25227e-11
2.00522e-12
1.11193e-13
4.97786e-15
1.6718e-15
1.82545e-13
1.49436e-11
7.08862e-10
2.02558e-08
2.98013e-07
3.02616e-06
2.02027e-05
0.000100082
0.000314239
0.00064019
0.000960529
0.0012214
0.00139015
0.0014177
0.00125392
0.000913166
0.000506235
0.000180065
5.08063e-05
1.49423e-05
3.39701e-05
0.000580905
0.00115237
0.00111945
0.00172295
0.00168914
0.00182831
0.00183023
0.00183901
0.0018301
0.00191001
0.00189115
0.00207335
0.00206757
0.00232025
0.00242922
0.00250142
0.0027892
0.0025109
0.00296576
0.00231476
0.00285237
0.00204288
0.00246758
0.00191882
0.00206061
0.00193928
0.00192713
0.00196878
0.00199006
0.00108741
0.00178458
0.000108201
0.000553655
2.97326e-09
7.33255e-09
9.83526e-09
6.5056e-09
2.43382e-09
7.40052e-10
1.76082e-10
1.79152e-11
1.0735e-12
4.79251e-14
2.4209e-15
4.86477e-14
4.98005e-12
2.90093e-10
1.03203e-08
1.64157e-07
2.20293e-06
1.53615e-05
9.37424e-05
0.000314366
0.000665349
0.00101877
0.00130982
0.0015487
0.00169935
0.00167398
0.00140451
0.000944299
0.000473141
0.000151799
4.30235e-05
3.45641e-05
0.000349408
0.00142454
0.00130143
0.00161457
0.0015516
0.00183725
0.00184084
0.00179857
0.00179899
0.00185197
0.00181638
0.00203941
0.00196355
0.0024621
0.00242794
0.00302615
0.00314912
0.00342854
0.00382514
0.00351777
0.00417359
0.00319963
0.00405741
0.00256472
0.00346257
0.00204755
0.00256969
0.00201838
0.0019769
0.00199177
0.00198499
0.00145974
0.00190014
0.000229954
0.000881431
8.0957e-09
1.6769e-08
2.10989e-08
1.05004e-08
3.82104e-09
9.70321e-10
1.43527e-10
9.53327e-12
4.59634e-13
1.83455e-14
1.21421e-14
1.42894e-12
1.02943e-10
4.32569e-09
8.89327e-08
1.38315e-06
1.02732e-05
7.37751e-05
0.00029512
0.000664305
0.00101799
0.00130551
0.00157373
0.00181727
0.00196094
0.00186636
0.00145216
0.000898639
0.000406194
0.000118558
5.28593e-05
0.000221569
0.0011267
0.000869155
0.00177493
0.00171595
0.00183544
0.00181915
0.00181208
0.0018406
0.00170692
0.00170265
0.00184529
0.00175342
0.00232445
0.00206928
0.00314171
0.00298125
0.00403849
0.00400973
0.00464423
0.00478851
0.00485699
0.0052455
0.00452831
0.00535995
0.00359564
0.00480725
0.00246905
0.00355311
0.0023055
0.00198664
0.00212428
0.00204847
0.00198573
0.00168179
0.00194452
0.000370808
0.00112837
1.81719e-08
3.47329e-08
3.74328e-08
1.64596e-08
3.9143e-09
8.88695e-10
7.75862e-11
4.07144e-12
1.69012e-13
1.03372e-14
3.62549e-13
3.18817e-11
1.61758e-09
4.58408e-08
7.1552e-07
6.43138e-06
5.07738e-05
0.000242736
0.000626362
0.000949185
0.0011938
0.00150087
0.00180515
0.00205648
0.00217145
0.00194709
0.00140588
0.000789379
0.000310761
0.000109871
0.000191387
0.000994054
0.00158001
0.00156016
0.00192146
0.00191799
0.00187357
0.00190762
0.00171562
0.00176076
0.00159746
0.00159592
0.00182659
0.00166429
0.00255072
0.00207513
0.00374025
0.00320322
0.00466306
0.00435278
0.00525351
0.00508332
0.00562968
0.00555357
0.00568021
0.00589758
0.00492472
0.00585202
0.0033071
0.00490705
0.00412321
0.00250908
0.00306306
0.00200924
0.00197952
0.00199414
0.00223672
0.00264199
0.00285568
0.00213441
0.00178122
0.00198513
0.00197615
0.00193508
0.000404707
0.00120866
3.83102e-08
6.29334e-08
6.19399e-08
1.88374e-08
3.53275e-09
5.41205e-10
3.28489e-11
1.46885e-12
5.69685e-14
8.81172e-14
8.85712e-12
5.31211e-10
1.96551e-08
3.0799e-07
3.77182e-06
3.12832e-05
0.000180841
0.000542183
0.000850165
0.00101592
0.00122484
0.00163003
0.0020172
0.00227379
0.00232177
0.00194091
0.00127375
0.000628206
0.000244135
0.000209976
0.000768085
0.00178685
0.00161155
0.00189206
0.00186034
0.00195785
0.00200574
0.0018275
0.00189729
0.00162741
0.00170978
0.0014652
0.00149668
0.00170337
0.00150573
0.00251918
0.00185654
0.00381989
0.00305296
0.00476412
0.00424551
0.00534872
0.00496405
0.00578146
0.00547016
0.00607209
0.00601212
0.00590183
0.0054193
0.00593648
0.00620651
0.00610705
0.00479259
0.00374671
0.00462954
0.00542819
0.00353377
0.00206365
0.00202437
0.00243771
0.00297603
0.00325755
0.00227553
0.001945
0.00170788
0.00187929
0.00200484
0.0019901
0.000346026
0.00172106
0.00141237
0.00100203
7.24202e-08
1.04748e-07
8.44795e-08
1.58703e-08
2.66295e-09
2.39595e-10
1.17771e-11
4.77932e-13
4.38741e-14
2.31077e-12
1.60725e-10
6.76353e-09
1.31213e-07
2.16682e-06
1.73721e-05
0.000122213
0.000439998
0.000767366
0.000890986
0.000936376
0.001151
0.00173747
0.00223028
0.00246509
0.00239177
0.00185386
0.00107683
0.000480324
0.000290373
0.000678155
0.00172866
0.00203951
0.00206467
0.00203894
0.00204727
0.00199332
0.00207285
0.00180617
0.00190296
0.00159458
0.00172613
0.00131976
0.00145462
0.0014301
0.00128683
0.00214039
0.0014194
0.00346721
0.0024672
0.00439054
0.00361991
0.00493823
0.00428188
0.00572456
0.00543891
0.00515096
0.00476684
0.00615222
0.00602398
0.00595643
0.00574635
0.00590225
0.00617082
0.00622078
0.00624755
0.00532273
0.00435397
0.00515534
0.00586484
0.00407014
0.00215685
0.00208003
0.00270723
0.00373835
0.00339009
0.00247374
0.00195958
0.00188727
0.00203795
0.00201057
0.000961094
9.01473e-05
0.000376799
0.00171953
0.00139235
1.28982e-07
1.49367e-07
6.75225e-08
9.72239e-09
1.64442e-09
8.57723e-11
3.79662e-12
1.4728e-13
5.9305e-13
4.58231e-11
2.1949e-09
6.03328e-08
1.01492e-06
8.74647e-06
7.40783e-05
0.000328847
0.00068824
0.000810131
0.000762499
0.000725388
0.00114942
0.00193379
0.00244115
0.00261197
0.00239812
0.00169987
0.000903073
0.000471209
0.000697273
0.00163698
0.00223965
0.00218435
0.00221625
0.00225007
0.00213857
0.00218827
0.00209694
0.00219576
0.00185921
0.00198422
0.00164082
0.00182654
0.00122386
0.00147741
0.00108832
0.00107519
0.0015003
0.00094061
0.00265626
0.00158857
0.00351637
0.00259794
0.00443682
0.00402639
0.00369049
0.00326886
0.00545646
0.00511327
0.00473034
0.0043295
0.00608922
0.00586322
0.00579764
0.00549296
0.00618589
0.00629199
0.00616236
0.00627604
0.00578298
0.00492441
0.00564424
0.00617442
0.00462502
0.00229218
0.00216601
0.00304322
0.00426005
0.00385552
0.00272785
0.00197293
0.00189129
0.00208894
0.00203946
0.000873364
3.49744e-05
0.000253301
0.00170801
0.001348
2.01521e-07
1.84263e-07
4.38453e-08
5.64112e-09
5.55657e-10
2.77845e-11
1.11587e-12
2.04239e-13
1.27675e-11
6.70204e-10
2.35926e-08
3.81431e-07
5.07818e-06
4.01789e-05
0.000224853
0.00059306
0.000752001
0.000692233
0.000471914
0.000678067
0.00126487
0.0021976
0.00261077
0.00270428
0.00236495
0.00158396
0.000839157
0.000812055
0.00163467
0.00236296
0.00248103
0.00253652
0.00240426
0.00245318
0.00227968
0.00235007
0.00227971
0.00239132
0.00199786
0.00214902
0.00173202
0.00196792
0.00118541
0.00148579
0.000795699
0.000905901
0.000818449
0.000572417
0.00159493
0.000681962
0.00290092
0.0024236
0.00197192
0.00141275
0.00392475
0.00353017
0.0031394
0.00273754
0.00512727
0.00471505
0.00427627
0.00383229
0.00594895
0.00555792
0.00565158
0.00518259
0.00632275
0.00632935
0.00604261
0.00624271
0.00612844
0.0054414
0.0060338
0.00633686
0.00515506
0.00247032
0.00228167
0.00343251
0.0047844
0.00434462
0.00303183
0.00198822
0.00189286
0.00215812
0.00207816
0.000749286
1.16228e-05
0.000145424
0.00168824
0.00127289
2.53234e-07
1.51107e-07
2.07729e-08
3.36481e-09
1.85643e-10
8.19517e-12
3.50107e-13
3.42551e-12
1.99629e-10
7.69068e-09
1.31119e-07
2.47593e-06
1.93348e-05
0.000137675
0.000466513
0.000700585
0.000669037
0.000388364
0.00037848
0.000712035
0.00148255
0.00239029
0.00272046
0.00275809
0.00234206
0.00155179
0.00110191
0.00169566
0.00238962
0.00281524
0.00280553
0.00273631
0.00278371
0.00263549
0.00269273
0.00248663
0.0025681
0.00250071
0.00262582
0.00217578
0.00235216
0.00176934
0.00203557
0.00105308
0.0013645
0.000567945
0.000756256
0.000351176
0.000288523
0.000623227
0.000220868
0.00233284
0.00190279
0.00148325
0.00105184
0.00340349
0.00299005
0.00257901
0.00217013
0.00474875
0.0042762
0.00378934
0.0033149
0.00576572
0.00528171
0.0054159
0.00484357
0.00637532
0.00631198
0.00589118
0.00614047
0.00632855
0.00587532
0.00628607
0.00640439
0.00562501
0.00268937
0.00242694
0.00385738
0.00527866
0.00483015
0.00337622
0.00200666
0.00189378
0.00224562
0.00212714
0.000602741
2.30979e-06
5.88603e-05
0.00166157
0.00117635
2.92421e-07
8.27061e-08
9.13905e-09
1.11048e-09
5.52485e-11
2.18693e-12
9.75669e-13
5.79382e-11
2.34663e-09
5.66655e-08
9.90592e-07
8.71146e-06
7.49766e-05
0.000329489
0.000638146
0.000666396
0.000391129
0.000242019
0.000368141
0.000801077
0.00161422
0.0024963
0.00279539
0.00280927
0.00239181
0.0017841
0.00190234
0.00247928
0.00303811
0.00310302
0.00316893
0.00301338
0.00306126
0.00289923
0.00296174
0.00273318
0.00282418
0.00268513
0.0028386
0.00228051
0.0024998
0.00168333
0.00199403
0.000740324
0.00101697
0.00032405
0.000498126
0.000119297
0.000104783
0.000395172
0.000201597
8.15723e-05
0.000127677
0.00176478
0.00137126
0.000996776
0.00066159
0.00286529
0.00243212
0.00201429
0.00161679
0.00434848
0.00382196
0.00329499
0.00279507
0.00557278
0.00499339
0.00518414
0.00450122
0.00637953
0.00623986
0.00573489
0.00601716
0.00642308
0.00619422
0.00642011
0.00642778
0.00601579
0.00294508
0.00259926
0.00429937
0.00572084
0.00528553
0.00374768
0.0020301
0.00189836
0.00235173
0.00218727
0.000431864
3.0516e-06
4.15515e-05
0.00162946
0.00106171
2.62896e-07
3.84965e-08
5.11973e-09
3.43184e-10
1.49714e-11
8.89429e-13
1.63013e-11
7.18336e-10
2.14875e-08
3.45416e-07
4.9304e-06
3.6326e-05
0.000208269
0.000539694
0.000659973
0.000426008
0.00021207
0.000202993
0.000380457
0.000834736
0.00166063
0.00254608
0.00285517
0.00289527
0.00262484
0.00243544
0.00269281
0.00316564
0.00348492
0.00350792
0.00338484
0.00344035
0.00328311
0.0033361
0.00315189
0.00322306
0.00296505
0.00306798
0.00274761
0.00293484
0.00227867
0.00252928
0.00133823
0.00167879
0.000329608
0.000531551
0.000120035
0.00019225
6.88266e-05
5.40588e-05
4.56073e-05
0.000217387
0.000131828
7.19964e-05
9.24973e-05
0.00124586
0.000908683
0.000614122
0.000379321
0.00232692
0.00189143
0.00149452
0.00113991
0.00395181
0.00337791
0.00281709
0.00229656
0.00539265
0.00472129
0.0049811
0.00418423
0.00633238
0.00614012
0.00559458
0.00589076
0.00646658
0.00638015
0.00648378
0.00641148
0.00627989
0.00322939
0.00279537
0.00474049
0.00607918
0.00570341
0.00413265
0.00206077
0.00190476
0.00247593
0.0022591
0.000322431
4.73502e-05
7.58073e-05
0.00159442
0.000957434
1.85823e-07
1.58993e-08
2.17019e-09
9.58035e-11
3.77032e-12
4.5148e-12
2.16332e-10
6.97639e-09
1.04015e-07
2.16482e-06
1.57302e-05
0.000116414
0.000404482
0.00063091
0.000512622
0.000222402
0.000156685
0.000189415
0.00037692
0.000831581
0.00164505
0.00256177
0.00291933
0.00304323
0.00306715
0.00316028
0.00342383
0.00375127
0.00371615
0.00376374
0.00361159
0.00366615
0.00349217
0.00355513
0.00333297
0.00341958
0.0030932
0.00322492
0.00260399
0.0028469
0.00201298
0.00232443
0.00080153
0.00111535
0.00010862
0.000182182
4.42191e-05
6.5194e-05
5.93392e-05
5.07685e-05
4.03944e-05
3.15733e-05
0.000157347
0.000116669
7.8307e-05
9.41621e-05
0.00083063
0.000571234
0.000367681
0.000232572
0.00182562
0.00141368
0.00106356
0.000772285
0.00358832
0.00297313
0.00238447
0.00185548
0.00524512
0.00449313
0.00483017
0.00392408
0.00625257
0.00603517
0.00548376
0.00577861
0.00647672
0.00648189
0.00651826
0.00636001
0.00643759
0.00353283
0.00301127
0.00516262
0.00631625
0.00605391
0.00451799
0.00209802
0.00191448
0.00261507
0.00234041
0.000349586
6.52271e-05
0.000169385
0.00155913
0.000959838
9.90652e-08
7.42246e-09
5.91505e-10
2.49858e-11
2.46735e-12
6.33944e-11
2.17816e-09
4.59799e-08
7.5618e-07
7.04593e-06
5.7568e-05
0.000267606
0.000558092
0.000576605
0.000274608
0.000158916
0.000135842
0.000172984
0.000342052
0.0007662
0.00154068
0.00251523
0.00299064
0.00323636
0.00343225
0.00363682
0.00380633
0.00383324
0.003814
0.0038046
0.00383282
0.00370598
0.00376084
0.00356634
0.00364209
0.00336131
0.00347442
0.00305241
0.00322249
0.00212928
0.00243305
0.0014523
0.00179805
0.000300385
0.000487118
3.01509e-05
5.23463e-05
2.73822e-05
2.38759e-05
2.14745e-05
6.50219e-05
5.18058e-05
5.45533e-05
3.42646e-05
0.000165798
0.000151065
0.00012588
0.000140711
0.000538743
0.000366613
0.000257601
0.00019769
0.00140263
0.00103488
0.000747546
0.000531338
0.00329109
0.00264091
0.00203099
0.00150822
0.0051459
0.00434101
0.00474632
0.00376137
0.00616848
0.00594286
0.00541482
0.00569184
0.00645689
0.00653667
0.0065337
0.00629702
0.00653146
0.00384505
0.00323895
0.00555755
0.00647104
0.00629854
0.00488745
0.00214096
0.00192634
0.00276563
0.00243075
0.000435606
0.00023433
0.000377633
0.00154909
0.00100688
4.63377e-08
4.04595e-09
1.68136e-10
6.44253e-12
1.80551e-11
6.71712e-10
1.76228e-08
2.55865e-07
3.90639e-06
2.54035e-05
0.000155123
0.000440882
0.00058765
0.000408378
0.000191066
0.00013816
0.000121027
0.00013803
0.000283709
0.00067072
0.00137344
0.00236193
0.00302992
0.00337164
0.00361291
0.00373843
0.00360271
0.003666
0.00358584
0.00368037
0.00368969
0.0035833
0.00364219
0.00340886
0.00350666
0.0031265
0.00328359
0.002703
0.002934
0.00136959
0.00169247
0.000738467
0.00104292
8.90891e-05
0.000149529
1.21371e-05
1.21897e-05
1.22022e-05
2.5359e-05
2.21878e-05
1.24177e-05
1.43729e-05
0.000105703
8.03958e-05
0.000105156
5.81853e-05
0.000249688
0.000252313
0.00023205
0.000248473
0.000385213
0.000302124
0.000258813
0.000249044