/*--------------------------------*- C++ -*----------------------------------*\
  =========                 |
  \\      /  F ield         | OpenFOAM: The Open Source CFD Toolbox
   \\    /   O peration     | Website:  https://openfoam.org
    \\  /    A nd           | Version:  dev
     \\/     M anipulation  |
\*---------------------------------------------------------------------------*/
FoamFile
{
    version     2.0;
    format      ascii;
    class       volScalarField;
    location    "2500";
    object      G;
}
// * * * * * * * * * * * * * * * * * * * * * * * * * * * * * * * * * * * * * //

dimensions      [1 0 -3 0 0 0 0];

internalField   nonuniform List<scalar> 
9851
(
4136.83
4142.91
4144.47
4148.2
4150.58
4153.01
4152.69
4155.9
4159.14
4162.39
4156.37
4160.4
4164.46
4168.53
4172.63
4159.26
4164.09
4168.95
4173.85
4178.78
4183.75
4161.38
4166.98
4172.63
4178.33
4184.1
4189.91
4195.76
4162.75
4169.09
4175.5
4181.98
4188.56
4195.21
4201.93
4208.7
4163.38
4170.44
4177.57
4184.81
4192.17
4199.64
4207.22
4214.87
4222.59
4163.31
4171.05
4178.89
4186.85
4194.95
4203.2
4211.6
4220.13
4228.76
4237.47
4162.55
4170.95
4179.46
4188.1
4196.91
4205.91
4215.1
4224.47
4234
4243.64
4253.37
4161.14
4170.17
4179.31
4188.61
4198.09
4207.79
4217.72
4227.89
4238.27
4248.84
4259.54
4270.36
4159.1
4168.72
4178.47
4188.38
4198.5
4208.87
4219.5
4230.41
4241.59
4253.04
4264.7
4276.52
4288.48
4156.46
4166.65
4176.96
4187.45
4198.17
4209.16
4220.45
4232.05
4243.98
4256.24
4268.8
4281.62
4294.63
4307.79
4153.26
4163.97
4174.81
4185.85
4197.13
4208.7
4220.59
4232.84
4245.47
4258.48
4271.87
4285.62
4299.66
4313.93
4328.37
4149.53
4160.73
4172.07
4183.61
4195.4
4207.51
4219.97
4232.82
4246.08
4259.79
4273.94
4288.53
4303.52
4318.87
4334.48
4350.3
4145.3
4156.95
4168.75
4180.76
4193.03
4205.63
4218.61
4232
4245.85
4260.19
4275.03
4290.39
4306.25
4322.58
4339.33
4356.38
4373.67
4140.61
4152.67
4164.89
4177.33
4190.04
4203.09
4216.54
4230.43
4244.8
4259.71
4275.18
4291.23
4307.87
4325.09
4342.86
4361.11
4379.71
4398.59
4135.48
4147.93
4160.53
4173.36
4186.47
4199.93
4213.8
4228.14
4242.99
4258.4
4274.43
4291.1
4308.43
4326.44
4345.11
4364.43
4384.29
4404.58
4425.19
4129.94
4142.75
4155.71
4168.89
4182.36
4196.19
4210.44
4225.17
4240.44
4256.3
4272.82
4290.02
4307.97
4326.67
4346.14
4366.38
4387.36
4408.99
4431.12
4453.62
4124.04
4137.16
4150.44
4163.94
4177.74
4191.89
4206.47
4221.55
4237.19
4253.45
4270.39
4288.06
4306.53
4325.83
4346
4367.04
4388.97
4411.77
4435.31
4459.46
4484.04
4117.81
4131.2
4144.77
4158.56
4172.64
4187.08
4201.96
4217.34
4233.3
4249.89
4267.19
4285.27
4304.17
4323.97
4344.72
4366.46
4389.2
4412.97
4437.74
4463.4
4489.77
4516.65
4111.29
4124.91
4138.73
4152.77
4167.1
4181.79
4196.92
4212.57
4228.79
4245.67
4263.28
4281.68
4300.95
4321.16
4342.38
4364.69
4388.12
4412.7
4438.48
4465.42
4493.42
4522.25
4551.7
4104.51
4118.32
4132.36
4146.61
4161.15
4176.06
4191.4
4207.27
4223.72
4240.84
4258.69
4277.36
4296.92
4317.46
4339.06
4361.8
4385.77
4411.03
4437.63
4465.6
4494.94
4525.53
4557.13
4589.49
4097.5
4111.48
4125.69
4140.12
4154.84
4169.92
4185.44
4201.48
4218.12
4235.42
4253.48
4272.36
4292.15
4312.94
4334.82
4357.9
4382.26
4408.03
4435.28
4464.06
4494.46
4526.47
4559.97
4594.7
4630.41
4090.29
4104.41
4118.76
4133.33
4148.2
4163.42
4179.08
4195.25
4212.03
4229.48
4247.68
4266.72
4286.68
4307.66
4329.75
4353.05
4377.7
4403.81
4431.52
4460.93
4492.13
4525.21
4560.21
4596.99
4635.33
4674.84
4082.92
4097.14
4111.61
4126.29
4141.26
4156.59
4172.35
4188.62
4205.49
4223.04
4241.35
4260.49
4280.57
4301.67
4323.89
4347.35
4372.16
4398.49
4426.47
4456.29
4488.07
4521.93
4558.01
4596.37
4636.95
4679.43
4723.24
4075.41
4089.71
4104.26
4119.02
4134.07
4149.47
4165.29
4181.63
4198.55
4216.15
4234.52
4253.73
4273.87
4295.04
4317.33
4340.86
4365.76
4392.18
4420.29
4450.3
4482.41
4516.79
4553.61
4593.05
4635.29
4680.22
4727.39
4776.21
4067.8
4082.15
4096.75
4111.56
4126.65
4142.09
4157.95
4174.31
4191.25
4208.86
4227.24
4246.46
4266.63
4287.81
4310.12
4333.66
4358.56
4384.99
4413.11
4443.14
4475.33
4509.95
4547.2
4587.32
4630.62
4677.3
4727.17
4779.81
4834.48
4060.1
4074.48
4089.11
4103.95
4119.05
4134.49
4150.35
4166.7
4183.63
4201.22
4219.56
4238.75
4258.88
4280.04
4302.31
4325.81
4350.66
4377
4405.03
4434.95
4467.04
4501.6
4538.96
4579.41
4623.28
4670.98
4722.7
4778.32
4837.37
4898.97
4052.34
4066.73
4081.37
4096.2
4111.29
4126.72
4142.54
4158.85
4175.72
4193.25
4211.52
4230.64
4250.68
4271.76
4293.96
4317.37
4342.11
4368.32
4396.17
4425.89
4457.72
4492.01
4529.14
4569.53
4613.57
4661.71
4714.39
4771.94
4834.29
4900.96
4970.82
4044.55
4058.92
4073.54
4088.35
4103.41
4118.79
4134.56
4150.79
4167.57
4185
4203.17
4222.17
4242.1
4263.04
4285.11
4308.38
4332.98
4359.01
4386.63
4416.05
4447.53
4481.4
4518.06
4557.99
4601.74
4649.84
4702.79
4761.19
4825.54
4895.87
4971.64
5051.46
4036.75
4051.08
4065.67
4080.44
4095.44
4110.75
4126.43
4142.56
4159.23
4176.53
4194.55
4213.39
4233.15
4253.93
4275.82
4298.91
4323.32
4349.13
4376.49
4405.56
4436.61
4469.95
4505.97
4545.17
4588.18
4635.7
4688.33
4746.75
4811.78
4884.13
4964
5050.8
5142.73
4028.95
4043.23
4057.77
4072.47
4087.4
4102.62
4118.19
4134.2
4150.72
4167.85
4185.69
4204.34
4223.9
4244.47
4266.15
4289.02
4313.18
4338.75
4365.81
4394.51
4425.08
4457.8
4493.08
4531.38
4573.34
4619.76
4671.45
4729.17
4793.87
4866.65
4948.47
5039.95
5140.15
5219.6
5220.97
4021.18
4035.39
4049.85
4064.48
4079.32
4094.43
4109.88
4125.74
4142.09
4159.03
4176.65
4195.07
4214.38
4234.7
4256.12
4278.74
4302.64
4327.9
4354.64
4382.97
4413.03
4445.11
4479.57
4516.86
4557.58
4602.55
4652.7
4709
4772.51
4844.47
4926.37
5019.43
5125.56
5218.62
5212.55
5275.68
5276.68
4013.45
4027.58
4041.95
4056.49
4071.22
4086.21
4101.52
4117.21
4133.38
4150.1
4167.47
4185.62
4204.64
4224.66
4245.78
4268.1
4291.71
4316.67
4343.06
4370.98
4400.55
4431.99
4465.6
4501.82
4541.2
4584.53
4632.74
4686.92
4748.39
4818.49
4898.89
4991.66
5086.38
5071.37
5203.1
5128.38
5190.14
5273.47
5266.21
5336.03
5336.63
4005.77
4019.8
4034.08
4048.51
4063.13
4077.99
4093.14
4108.65
4124.61
4141.09
4158.2
4176.04
4194.74
4214.41
4235.18
4257.15
4280.42
4305.06
4331.1
4358.62
4387.7
4418.51
4451.3
4486.43
4524.43
4566.01
4612.08
4663.73
4722.35
4789.59
4867.26
4957.52
5054.54
5035.64
5112.1
5255.11
5174.01
5240.32
5332.48
5323.81
5401.18
5401.32
3998.15
4012.08
4026.26
4040.57
4055.07
4069.78
4084.76
4100.09
4115.82
4132.05
4148.86
4166.38
4184.71
4204
4224.36
4245.93
4268.81
4293.09
4318.79
4345.93
4374.56
4404.76
4436.75
4470.85
4507.47
4547.28
4591.13
4640.04
4695.35
4758.83
4832.56
4918.93
5015.56
4993.99
5093.15
5072.08
5155.28
5310.87
5222.14
5293.91
5396.1
5385.78
5471.72
5471.34
3990.61
4004.43
4018.49
4032.68
4047.04
4061.6
4076.41
4091.54
4107.04
4123
4139.52
4156.68
4174.63
4193.48
4213.39
4234.49
4256.93
4280.78
4306.11
4332.9
4361.14
4390.82
4422.07
4455.16
4490.48
4528.55
4570.17
4616.31
4668.15
4727.35
4796.12
4877.18
4971.6
4948.04
5049.57
5025.7
5133.84
5110.22
5200.9
5370.71
5273.25
5351.23
5464.87
5452.64
5548.34
5547.35
3983.16
3996.85
4010.8
4024.86
4039.07
4053.47
4068.11
4083.03
4098.3
4113.99
4130.19
4146.99
4164.52
4182.91
4202.32
4222.9
4244.81
4268.17
4293.07
4319.51
4347.4
4376.68
4407.33
4439.51
4473.57
4510
4549.46
4592.86
4641.24
4696.07
4759.36
4833.88
4924.04
4899.25
5000.77
4974.91
5085.05
5058.51
5176.74
5150.24
5249.22
5435.09
5327.69
5412.66
5539.43
5524.99
5631.8
5630.13
3975.8
3989.37
4003.18
4017.11
4031.18
4045.42
4059.87
4074.58
4089.61
4105.03
4120.91
4137.34
4154.45
4172.35
4191.22
4211.22
4232.52
4255.31
4279.7
4305.73
4333.31
4362.29
4392.51
4423.97
4456.9
4491.76
4529.18
4569.96
4615.01
4665.56
4723.35
4790.87
4874.64
4849.87
4948.4
4921.46
5030.87
5002.37
5122.06
5092.56
5222.07
5192.35
5300.49
5504.54
5385.77
5478.66
5620.53
5603.54
5723.05
5720.55
3968.54
3981.98
3995.66
4009.44
4023.36
4037.44
4051.71
4066.21
4081.01
4096.15
4111.71
4127.77
4144.45
4161.86
4180.15
4199.52
4220.15
4242.26
4266.03
4291.56
4318.8
4347.56
4377.53
4408.52
4440.57
4474.03
4509.51
4547.78
4589.69
4636.22
4688.76
4749.41
4825.83
4802.03
4894.58
4867.95
4973.34
4944.15
5062.03
5030.83
5160.82
5128.21
5269.99
5236.73
5354.95
5579.67
5447.94
5549.76
5708.99
5688.99
5823.09
5819.6
3961.38
3974.69
3988.23
4001.87
4015.64
4029.55
4043.63
4057.93
4072.49
4087.36
4102.61
4118.31
4134.56
4151.47
4169.18
4187.88
4207.78
4229.11
4252.12
4277.01
4303.82
4332.38
4362.27
4393.06
4424.54
4456.9
4490.65
4526.56
4565.47
4608.27
4655.99
4710.23
4779.18
4756.85
4841.97
4816.65
4915.14
4886.64
4999.41
4968.09
5094.89
5061.22
5201.8
5166.32
5320.77
5284.03
5413.16
5661.13
5514.82
5626.71
5805.76
5782.25
5933.31
5928.71
3954.34
3967.51
3980.91
3994.41
4008.01
4021.76
4035.66
4049.75
4064.08
4078.69
4093.63
4108.98
4124.81
4141.23
4158.36
4176.39
4195.51
4215.98
4238.09
4262.16
4288.35
4316.62
4346.53
4377.42
4408.73
4440.35
4472.69
4506.49
4542.59
4581.87
4625.19
4673.74
4735.56
4714.82
4792.21
4768.66
4858.91
4832.07
4937.09
4906.78
5027.56
4994.23
5130.56
5094.65
5246.15
5208.27
5375.41
5335.81
5476.3
5749.91
5587.76
5711.02
5912.15
5884.53
6055.33
6049.37
3947.42
3960.44
3973.7
3987.05
4000.5
4014.07
4027.79
4041.69
4055.79
4070.14
4084.79
4099.8
4115.22
4131.17
4147.74
4165.09
4183.42
4202.97
4224.08
4247.14
4272.49
4300.24
4330.06
4361.23
4392.85
4424.27
4455.61
4487.62
4521.23
4557.26
4596.55
4639.88
4695.14
4676.54
4746.08
4724.34
4806.22
4781.47
4877.46
4849.19
4961.38
4929.27
5058.93
5023.45
5170.43
5132.23
5295.76
5255.77
5435.82
5394.43
5546.61
5847.5
5669.36
5805.64
6029.55
5997.34
6190.97
6183.31
3940.61
3953.48
3966.6
3979.8
3993.09
4006.5
4020.04
4033.74
4047.63
4061.73
4076.1
4090.78
4105.82
4121.32
4137.35
4154.05
4171.6
4190.21
4210.24
4232.14
4256.4
4283.31
4312.75
4344.08
4376.28
4408.22
4439.26
4469.94
4501.37
4534.52
4570.2
4609.04
4652.54
4703.64
4683.84
4757.78
4735.06
4822.04
4796.14
4898.19
4868.23
4988.31
4953.81
5093.85
5055.28
5215.27
5173.62
5352.38
5309.18
5504.87
5461.74
5627.52
5956.91
5763.67
5915.17
6159.76
6123.51
6342.56
6332.79
3933.91
3946.65
3959.62
3972.67
3985.81
3999.05
4012.41
4025.92
4039.59
4053.46
4067.56
4081.92
4096.61
4111.68
4127.21
4143.31
4160.1
4177.81
4196.73
4217.37
4240.31
4266.02
4294.62
4325.74
4358.45
4391.35
4423.06
4453.25
4482.96
4513.58
4546.06
4581.06
4619.42
4673.64
4654.92
4713.43
4692.99
4771.39
4747.72
4839.53
4812.22
4920.29
4887.99
5016.74
4978.82
5131.04
5088.09
5264.06
5217.17
5415.74
5366.83
5584.48
5536.98
5721.23
6083.16
5873.71
6043.59
6305.3
6267.71
6513.08
6500.73
3927.34
3939.94
3952.76
3965.66
3978.65
3991.72
4004.91
4018.23
4031.69
4045.33
4059.17
4073.25
4087.6
4102.28
4117.35
4132.87
4148.97
4165.82
4183.67
4203.01
4224.5
4248.72
4276.01
4306.32
4339.02
4372.81
4405.92
4436.86
4465.78
4494.32
4523.98
4555.6
4589.8
4637.11
4620.13
4683.7
4664.2
4725.22
4703.95
4786.26
4761.58
4857.18
4828.11
4942.12
4906.97
5045.25
5003.3
5169.26
5121.11
5315.45
5262.18
5484.43
5427.99
5673.52
5618.88
5826.64
6230.96
5998.71
6190.9
6470.26
6436.12
6706.82
6691.87
3920.9
3933.34
3946.03
3958.78
3971.61
3984.52
3997.54
4010.67
4023.93
4037.35
4050.95
4064.75
4078.79
4093.11
4107.74
4122.76
4138.23
4154.29
4171.15
4189.24
4209.23
4231.81
4257.4
4286.25
4318.18
4352.28
4386.76
4419.49
4449.12
4476.51
4503.79
4532.4
4563.06
4604.16
4589.43
4645.49
4627.6
4695.25
4675.03
4738.23
4716.22
4800.75
4775
4873.73
4842.71
4962.94
4924.57
5073.37
5026.92
5208.13
5154.21
5369.1
5308.65
5557.91
5492.67
5771.01
5707.12
5943.25
6402.22
6138.25
6356.2
6661.45
6633.09
6929.45
6912.9
3914.65
3926.88
3939.41
3952.02
3964.69
3977.45
3990.29
4003.24
4016.31
4029.52
4042.89
4056.43
4070.18
4084.16
4098.4
4112.96
4127.88
4143.23
4159.18
4176.12
4194.7
4215.6
4239.28
4266.12
4296.45
4329.95
4365.22
4399.86
4431.54
4459.41
4485.17
4511.22
4538.78
4569.68
4610.68
4594.41
4655.55
4636.87
4706.88
4686.18
4750.91
4728.34
4813.88
4787.13
4888.65
4855.55
4982.5
4940.6
5101.04
5049.55
5247.75
5187.24
5425.27
5356.65
5636.45
5561.43
5877.23
5802.39
6071.62
6596.44
6292.73
6539.97
6886.54
6860
7187.61
7171.54
3920.62
3932.93
3945.38
3957.91
3970.5
3983.18
3995.96
4008.84
4021.84
4034.99
4048.28
4061.76
4075.43
4089.32
4103.47
4117.89
4132.65
4147.81
4163.71
4181.01
4200.36
4222.09
4246.6
4274.63
4306.47
4341.45
4377.51
4411.62
4441.6
4467.48
4491.7
4516.65
4543.76
4585.71
4570.42
4618.98
4601.89
4666.17
4646.87
4717.78
4696.77
4762.44
4739.53
4825.22
4797.6
4901.78
4866.46
5000.64
4954.94
5127.89
5070.84
5287.7
5219.54
5484.08
5405.52
5720.86
5634.4
5993.16
5905.7
6212.67
6814.24
6463.14
6743.48
7150.11
7117.46
7489.96
7476.14
3926.66
3938.88
3951.26
3963.7
3976.21
3988.81
4001.51
4014.32
4027.25
4040.32
4053.54
4066.93
4080.5
4094.27
4108.27
4122.51
4137.03
4152.03
4168.16
4186.19
4206.16
4228.25
4253.5
4282.82
4316.22
4352.49
4388.73
4421.55
4449.36
4473.23
4496.2
4520.49
4555.99
4542.8
4593.09
4576.71
4628.23
4610.28
4676.4
4656.63
4727.67
4706.46
4772.57
4749.55
4834.65
4806.44
4913.1
4875.51
5017.11
4967.43
5153.24
5090.12
5326.99
5249.96
5544.82
5453.97
5811.47
5710.88
6120.29
6017.9
6367.76
7057.79
6651.86
6889.25
6937.14
7453.34
7406.17
7845.53
7831.05
3932.61
3944.73
3957.02
3969.38
3981.81
3994.33
4006.94
4019.67
4032.52
4045.5
4058.63
4071.91
4085.36
4098.98
4112.79
4126.78
4141.05
4156.16
4173.03
4191.68
4211.67
4233.8
4259.9
4290.74
4325.69
4362.83
4398.45
4429.28
4454.67
4476.85
4499.02
4524.76
4561.24
4546.5
4600.73
4583.47
4637.4
4618.73
4685.81
4665.63
4736.68
4715.31
4781.45
4758.57
4842.48
4814.15
4922.51
4883.04
5031.48
4978
5176.2
5107.21
5364.25
5277.95
5606.22
5500.84
5908.09
5789.84
6261.03
6079.45
6139.6
6525.64
6468.52
7054.59
7282.1
7236.55
6835.33
6778.6
6616.12
7004.38
7795.26
7420.6
7623.52
7666.57
8248.16
8227.48
3938.45
3950.48
3962.68
3974.95
3987.29
3999.73
4012.26
4024.9
4037.65
4050.54
4063.55
4076.71
4090.01
4103.44
4116.99
4130.71
4144.96
4160.78
4178.52
4197.13
4216.54
4238.66
4266.01
4298.51
4334.75
4372.05
4406.3
4434.63
4457.67
4478.67
4501.26
4536.84
4523.31
4567.03
4551.45
4607.86
4589.84
4645.86
4626.57
4694.35
4673.71
4745.07
4723.47
4789.53
4766.94
4849.39
4821.3
4930.42
4889.56
5043.84
4986.75
5196.72
5121.73
5399.27
5302.96
5667.85
5563.9
5506.53
6016.57
5951.95
5816.66
5884.31
6205.08
6407.74
6343.56
6139.99
6555.67
7184.01
7373.69
6947.06
6885.12
6715.16
7127.27
7828.62
8095.45
8054.77
7574.06
7785.66
8680.87
8281.84
8528.44
8562.56
3944.19
3956.12
3968.23
3980.41
3992.67
4005.01
4017.45
4029.99
4042.64
4055.41
4068.3
4081.3
4094.41
4107.61
4120.88
4134.47
4149.33
4166.28
4184.19
4202.02
4220.6
4243.25
4272.11
4306.06
4343.04
4379.82
4412
4437.58
4458.71
4479.43
4504.56
4540.77
4526.01
4572.59
4556.23
4614.08
4595.38
4653.38
4633.46
4702.08
4680.86
4752.84
4730.89
4797.16
4774.79
4855.75
4828.16
4936.87
4895.3
5053.84
4993.74
5214.01
5133.62
5450.71
5396.05
5344.42
5293.93
5747.64
5679.6
5588.58
5526.78
6071.85
6001.29
5854.97
5928.44
6274.49
6490.3
6420.53
6202.69
6648.08
7318.16
7519.9
7064.89
6817.62
6997.34
7256.59
8008.86
8243.62
7733.09
7957.88
8767.35
9013.22
9009.67
8488.98
8741.07
3949.82
3961.66
3973.67
3985.76
3997.92
4010.16
4022.5
4034.93
4047.47
4060.11
4072.85
4085.68
4098.56
4111.49
4124.56
4138.55
4154.7
4172.23
4189.49
4206.02
4224.36
4247.87
4278.21
4313.06
4350.18
4385.78
4415.35
4438.25
4458.24
4480.15
4514.14
4500.35
4544.24
4528.78
4577.48
4560.44
4619.28
4599.96
4659.88
4639.31
4708.9
4686.97
4759.71
4737.19
4804.4
4782
4861.96
4834.79
4942.35
4900.98
5062.11
5000.05
5247.74
5202.41
5161.73
5121.58
5466.97
5409.49
5354.85
5302.93
5781.08
5707.6
5612.11
5546.2
6128.49
6051.88
5894.25
5973.36
6345.56
6576.39
6500.03
6267.12
6744.49
7459.3
7673.67
7188.88
6924.27
7115.18
7392.51
8194.4
8442.2
7899.8
8137.68
8993.3
9230.44
9231.24
8699.4
8961.49
3955.34
3967.08
3979
3990.98
4003.04
4015.18
4027.41
4039.73
4052.14
4064.63
4077.2
4089.82
4102.45
4115.14
4128.4
4143.61
4160.81
4178.03
4193.9
4209.57
4228.07
4252.62
4283.93
4319.13
4355.8
4389.49
4416.12
4436.85
4456.98
4480.49
4515.56
4500.96
4546.93
4530.83
4581.48
4563.81
4623.39
4603.52
4665.28
4644.03
4714.48
4691.8
4765.09
4741.76
4810.91
4788.06
4868.26
4840.82
4947.94
4907.36
5086.08
5051.11
5020.5
4991.48
5254.47
5208.82
5166.51
5126.72
5482.53
5421.94
5364.72
5310.99
5814.92
5635.41
5736.02
5565.18
6186.57
6103.85
5934.59
6019.46
6418.59
6665.81
6582.3
6333.52
6844.71
7607.76
7834.88
7319.08
7035.4
7238.64
7535.28
8387.12
8647.15
8073.96
8324.79
9217.56
9445.59
9448.16
8915.08
9184.34
3960.75
3972.39
3984.2
3996.08
4008.03
4020.06
4032.17
4044.36
4056.63
4068.96
4081.33
4093.72
4106.11
4118.81
4133.03
4149.71
4167.05
4183.05
4197.61
4212.98
4231.81
4257.16
4288.87
4323.89
4359.37
4390.54
4414.22
4433.99
4455.03
4487.01
4473.15
4516.39
4501.37
4548.73
4532.15
4584.45
4566.18
4626.33
4605.95
4669.39
4647.5
4718.3
4694.94
4768.07
4743.96
4815.96
4792.02
4874.4
4845.39
4955.29
4914.6
5090.12
5055.83
5024.39
4995.31
5261.02
5214.6
5171.58
5131.67
5497.6
5433.78
5374.06
5318.53
5849.55
5658.84
5765.12
5584.06
6246.43
6157.5
5976.41
6067.2
6494.19
6758.71
6667.58
6402.41
6948.69
7763.27
8003.3
7455.49
7150.97
7367.44
7684.54
8586.57
8857.8
8255.53
8518.96
9439.03
9659.48
9661.61
9134.69
9407.41
3966.04
3977.57
3989.27
4001.04
4012.87
4024.79
4036.77
4048.82
4060.93
4073.09
4085.25
4097.41
4109.69
4123
4138.82
4156.21
4172.66
4187.16
4201.11
4216.39
4235.53
4261.17
4292.72
4326.89
4360.39
4388.5
4410.08
4430.13
4451.89
4486.21
4471.76
4516.53
4501.07
4549.66
4532.69
4586.33
4567.53
4627.97
4607.13
4671.95
4649.58
4719.88
4696
4767.94
4743.13
4818.6
4793.04
4879.69
4847.74
4975.83
4951.69
4910.33
4930.89
5094.89
5060.86
5029.54
5001.11
5267.34
5220.25
5176.91
5137.03
5512.43
5445.29
5383.06
5325.82
5885.47
5682.76
5795.36
5603.21
6308.46
6213.14
6019.99
6116.82
6572.48
6854.76
6755.62
6473.71
7056.05
7925.69
8179.19
7597.64
7271.02
7501.42
7840.37
8792.37
9073.52
8444.52
8719.89
9655.95
9875.53
9876.07
9356.87
9629
3971.21
3982.62
3994.21
4005.86
4017.58
4029.36
4041.21
4053.12
4065.06
4077.02
4088.98
4100.96
4113.53
4128.24
4145.34
4162.37
4177.28
4190.95
4204.6
4219.86
4239.03
4264.4
4295.17
4327.74
4358.45
4383.62
4404.65
4425.19
4455.69
4441.54
4484.81
4470.04
4515.9
4500.06
4549.69
4532.41
4587.05
4567.87
4628
4606.84
4672.61
4649.93
4718.66
4694.57
4764.53
4739.11
4818.32
4790.8
4891.71
4874.02
4847.51
4981.3
4957.12
4913.49
4934.78
5100.41
5066.66
5035.57
5007.21
5273.62
5226.12
5182.79
5143.16
5527.36
5456.78
5392.03
5333.19
5923.09
5707.65
5827.26
5623.14
6372.76
6271
6065.54
6168.56
6653.19
6953.93
6846.8
6547.36
7167.27
8095.41
8362.59
7745.8
7395.93
7640.8
8002.94
9004.07
9293.76
8640.4
8927.44
9870.61
10102.4
10100.1
9581.05
9849.55
3976.25
3987.54
3999.01
4010.54
4022.14
4033.79
4045.49
4057.24
4069.01
4080.77
4092.53
4104.57
4118.15
4134.47
4151.89
4167.51
4181.42
4194.69
4208.18
4223.31
4242.17
4266.7
4296.03
4326.26
4353.84
4377.23
4398.22
4419.06
4453.02
4438.63
4482.74
4467.67
4514.43
4498.3
4548.75
4531.22
4586.5
4567.14
4626.18
4604.91
4671.07
4648.27
4714.43
4690.39
4758.18
4732.2
4815.38
4785.7
4893.49
4874.47
4854.53
4836.65
4987.22
4962.12
4915.92
4938.43
5106.86
5073.39
5042.39
5013.8
5280.21
5232.57
5189.48
5150.23
5542.9
5468.73
5401.4
5341.03
5962.72
5734.09
5861.31
5644.48
6439.55
6331.29
6113.27
6222.5
6736.76
7056.91
6941.74
6623.96
7282.9
8272.27
8552.84
7899.84
7525.84
7785.13
8171.89
9221.57
9518.33
8843.19
9141.56
10093.4
10346.9
10342.5
9807.94
10076.8
3981.17
3992.33
4003.68
4015.09
4026.55
4038.06
4049.62
4061.2
4072.78
4084.36
4096.04
4108.66
4123.8
4141.07
4157.62
4172.02
4185.46
4198.49
4211.81
4226.72
4244.99
4268.18
4295.39
4322.9
4347.95
4370.25
4391.28
4421.33
4407.32
4449.99
4435.52
4480.02
4464.79
4512.11
4495.78
4546.73
4529.06
4584.57
4565.19
4622.42
4601.37
4667.03
4644.35
4707.52
4683.75
4749.8
4723.41
4819.15
4803.43
4778.1
4894.58
4874.23
4852.9
4833.84
4993.01
4966.65
4917.67
4941.56
5114.26
5080.94
5049.78
5020.61
5287.45
5239.85
5197.11
5158.23
5559.7
5481.79
5411.74
5349.79
6004.68
5762.72
5897.92
5668
6509.26
6394.08
6163.4
6278.7
6823.7
7163.9
7040.34
6703.63
7402.99
8455.69
8749.96
8059.33
7660.22
7934.18
8346.88
9445.07
9748.29
9053.17
9362.56
10334.8
10623.2
10617.2
10041.7
10320.5
3985.95
3996.98
4008.21
4019.49
4030.81
4042.18
4053.58
4064.99
4076.4
4087.84
4099.76
4113.59
4130.14
4147.28
4162.52
4176.35
4189.51
4202.33
4215.47
4230.11
4247.62
4269.11
4293.75
4318.71
4341.92
4363.58
4384.77
4418.13
4404.28
4446.73
4432.27
4476.79
4461.54
4508.95
4492.57
4543.61
4525.94
4581.26
4562.03
4616.93
4596.38
4660.68
4638.37
4698.73
4675.16
4748.73
4735.37
4712.92
4816.01
4799.56
4763.32
4778.21
4894.97
4873.4
4850.08
4830.09
4998.39
4970.61
4918.69
4944.03
5122.47
5089.03
5057.31
5027.22
5295.63
5248.08
5205.64
5166.98
5578.69
5496.87
5423.8
5359.96
6049.21
5794.1
5937.21
5694.33
6581.86
6459.52
6216.21
6337.47
6913.96
7274.8
7142.78
6786.18
7527.52
8645.73
8954.41
8224.21
7799.06
8088.61
8527.93
9675.4
9986.32
9270.31
9591.25
10604.9
10944.3
10933.4
10288.7
10587.7
3990.59
4001.5
4012.59
4023.74
4034.92
4046.14
4057.38
4068.63
4079.89
4091.35
4104.04
4119.37
4136.45
4152.64
4167.09
4180.62
4193.54
4206.14
4219.13
4233.54
4250.27
4270.01
4292.14
4314.78
4336.73
4358.25
4387.96
4375.13
4415.01
4401.35
4443.36
4429.01
4473.21
4458.07
4505.1
4488.86
4539.46
4521.95
4576.67
4557.7
4610.23
4590.29
4652.56
4630.93
4688.72
4665.53
4743.01
4729.58
4710.15
4698
4811.65
4794.54
4757.35
4772.52
4894.56
4871.64
4846.24
4825.33
5003.13
4973.85
4918.94
4945.74
5131.12
5097.2
5064.63
5033.34
5304.96
5257.24
5214.8
5176
5600.6
5514.84
5438.35
5372.06
6096.44
5828.19
5979.06
5723.61
6657.21
6527.67
6271.6
6398.9
7008.02
7389.98
7249.28
6871.97
7656.93
8842.69
9166.13
8394.89
7943.62
8248.97
8715.32
9914.59
10235.9
9495.3
9829.08
10910.2
11283.2
11272.5
10554.3
10881.8
3995.09
4005.87
4016.83
4027.84
4038.88
4049.96
4061.04
4072.13
4083.31
4095.15
4109.08
4125.49
4142.21
4157.47
4171.54
4184.82
4197.46
4209.88
4222.85
4237.1
4253.25
4271.66
4291.85
4312.89
4334.29
4356.53
4386.49
4374.5
4412.34
4399.16
4440.1
4426.01
4469.52
4454.59
4500.87
4484.92
4534.59
4517.4
4571.05
4552.47
4602.52
4583.28
4643.5
4622.54
4686.05
4674.73
4654.93
4736.46
4723.07
4703.62
4691.63
4806.27
4788.8
4750.63
4765.75
4893.34
4869
4841.49
4819.62
5007.01
4976.23
4918.31
4946.61
5139.69
5104.93
5071.27
5038.68
5315.64
5267.24
5224.28
5184.75
5625.69
5535.96
5455.83
5386.49
6146.01
5864.99
6023.13
5756.01
6735.33
6598.48
6328.8
6462.76
7105.85
7509.98
7359.98
6961.15
7792.05
9046.68
9385.25
8572.04
8094.22
8415.92
8909.69
10164.9
10500.5
9729.63
10078.2
11240.1
11609.1
11606.3
10840.7
11197.8
3999.44
4010.1
4020.93
4031.8
4042.7
4053.62
4064.56
4075.53
4086.82
4099.49
4114.75
4131.38
4147.37
4162.08
4175.89
4188.87
4201.21
4213.58
4226.66
4240.93
4256.84
4274.56
4293.83
4314.3
4335.87
4358.8
4385.9
4374.36
4410.51
4397.93
4437.29
4423.65
4465.98
4451.39
4496.61
4481.04
4529.44
4512.73
4564.7
4546.76
4594.32
4575.77
4633.74
4613.6
4679.99
4668.7
4641.24
4651.52
4729.26
4716.15
4696.57
4684.88
4799.87
4782.07
4743.13
4758.02
4891.23
4865.48
4835.76
4812.93
5009.71
4977.49
4916.59
4946.39
5147.58
5111.82
5076.9
5042.83
5327.75
5277.77
5233.55
5192.76
5654.03
5560.23
5476.24
5403.29
6197.06
5904.21
6068.68
5791.11
6816.3
6671.94
6387.5
6528.77
7207.75
7635.22
7475.29
7054.19
7932.83
9257.76
9613.47
8756.5
8251.25
8590.36
9111.31
10428.2
10782.4
9975.17
10339.3
11575.8
11919.2
11921.7
11145.7
11525.5
4003.66
4014.19
4024.88
4035.61
4046.37
4057.15
4067.96
4078.9
4090.63
4104.49
4120.53
4136.82
4152.18
4166.55
4180.07
4192.65
4204.79
4217.28
4230.59
4245.07
4261.06
4278.65
4297.74
4318.12
4339.51
4365.35
4375.26
4355.82
4386.13
4409.56
4397.56
4435.17
4422.11
4462.79
4448.74
4492.36
4477.32
4523.97
4507.91
4557.88
4540.61
4585.63
4567.87
4623.28
4604.09
4673.51
4662.4
4635.34
4645.45
4721.39
4708.7
4689.08
4677.76
4792.48
4774.31
4734.85
4749.39
4888.01
4860.91
4828.98
4805.28
5010.79
4977.19
4913.49
4944.69
5154.35
5117.35
5081.02
5045.42
5341.27
5288.57
5242.18
5199.58
5685.18
5587.37
5499.34
5422.28
6249.14
5945.09
6114.92
5827.91
6900.59
6747.95
6447.24
6596.52
7313.62
7765.78
7595.19
7150.5
8079.41
9477.46
9852.76
8948.29
8415.23
8772.58
9321.43
10706.7
11080.4
10232.6
10614
11902.7
12223.4
12226.3
11464
11853.9
4007.74
4018.13
4028.69
4039.28
4049.9
4060.55
4071.27
4082.38
4094.95
4109.94
4126.07
4141.88
4156.79
4170.85
4183.95
4196.13
4208.26
4221
4234.64
4249.47
4265.69
4283.37
4302.33
4322.17
4342.08
4375.71
4365.94
4356.42
4386.35
4408.94
4397.41
4433.42
4420.95
4459.77
4446.36
4488.06
4473.66
4518.31
4502.93
4550.76
4534.25
4576.34
4559.47
4619.66
4610.46
4593.88
4666.73
4655.94
4629.33
4639.16
4712.95
4700.76
4681.22
4670.32
4784.16
4765.63
4725.89
4740.06
4883.49
4855.15
4821.12
4796.67
5009.74
4974.78
4908.64
4941.07
5159.45
5120.8
5082.99
5045.88
5356.11
5299.51
5249.85
5204.57
5717.96
5616.13
5523.95
5442.39
6301.39
5986.38
6160.18
5864.66
6987.33
6825.32
6506.56
6664.79
7423.03
7901.67
7719.64
7249.67
8232.43
9707.79
10103.7
9148.13
8586.75
8962.24
9541.19
10999.9
11391.5
10502.6
10903.1
12216.4
12527.3
12530.7
11789.1
12177.3
4011.67
4021.94
4032.36
4042.81
4053.3
4063.84
4074.57
4086.16
4099.82
4115.41
4131.32
4146.67
4161.21
4174.87
4187.43
4199.35
4211.66
4224.71
4238.72
4253.87
4270.28
4287.85
4306.26
4324.96
4343.33
4375.92
4366.06
4356.68
4386.27
4408.12
4397
4431.6
4419.66
4456.73
4443.95
4483.62
4469.94
4512.38
4497.75
4543.22
4527.54
4566.4
4550.47
4613.8
4604.66
4581.65
4589.96
4659.67
4649.27
4623.16
4632.68
4704.04
4692.42
4673.05
4662.59
4774.98
4756.17
4716.38
4730.12
4877.48
4848.12
4812.04
4787.08
5005.95
4969.75
4901.65
4935.03
5162.14
5121.51
5082.08
5043.51
5371.43
5309.98
5256
5207.13
5750.11
5643.88
5547.23
5460.88
6351.62
6025.47
6201.65
5897.96
7076.18
6903.77
6557.29
6732.72
7535.76
8042.96
7847.94
7351.39
8392.39
9949.7
10366.9
9356.91
8765.48
9159.43
9771.66
11306.1
11712.2
10786
11205
12525.3
12831.4
12839.4
12116.5
12498.5
4015.46
4025.6
4035.88
4046.21
4056.58
4067.07
4078.01
4090.4
4105.04
4120.72
4136.3
4151.25
4165.38
4178.47
4190.5
4202.43
4214.99
4228.36
4242.66
4257.99
4274.34
4291.5
4309.06
4326.53
4347.61
4356.71
4339.39
4375.78
4365.83
4385.83
4406.95
4396.22
4429.47
4418.03
4453.42
4441.26
4478.89
4465.95
4506.06
4492.25
4535.13
4520.34
4576.04
4562.28
4554.78
4540.9
4607.7
4598.76
4584.29
4652.37
4642.41
4616.8
4626.05
4694.74
4683.72
4664.64
4654.68
4765.02
4746.08
4706.49
4719.77
4869.66
4839.62
4801.73
4776.53
4998.85
4961.71
4892.3
4926.26
5161.74
5118.77
5077.53
5037.58
5384.8
5318.1
5259.16
5206.03
5777.74
5666.11
5564.44
5473.19
6389.79
6059.25
6234.33
5919.6
7166.24
6979.13
6629.81
6797.6
7650.97
8190.33
7976.69
7451.36
8558.85
10203.4
10642.1
9575.33
8950.91
9365.28
10013.8
11623.1
12040.9
11082.3
11518.2
12839.5
13134.6
13155.8
12448.4
12826.3
4019.11
4029.12
4039.27
4049.48
4059.77
4070.3
4081.74
4095.13
4110.3
4125.83
4141.05
4155.57
4169.14
4181.56
4193.3
4205.42
4218.23
4231.83
4246.29
4261.61
4277.67
4294.21
4310.83
4327.04
4356.36
4347.38
4339.2
4375.28
4365.3
4385.03
4405.41
4395.08
4426.99
4416.05
4449.78
4438.24
4473.83
4461.64
4499.33
4486.39
4526.54
4512.7
4570.31
4556.8
4549.39
4530.05
4536.74
4601.44
4592.77
4578.39
4644.94
4635.41
4610.28
4619.25
4685.2
4674.78
4656.19
4646.73
4754.37
4735.51
4696.37
4709.15
4859.92
4829.6
4790.27
4765.16
4987.84
4950.19
4880.38
4914.41
5157.2
5111.59
5068.48
5027.34
5392.11
5320.4
5256.7
5199.33
5790.83
5675.11
5569.86
5475.05
6391.16
6091.78
6240.08
5964.83
7252.97
7073.08
6605.75
6818.21
7763.72
8342.91
8123.46
7567.67
8731.37
10469
10930.4
9804.96
9144.36
9582.3
10268.7
11951.5
12379.1
11389.9
11844.1
13168
13426.6
13494.5
12791.9
13174.4
4022.61
4032.49
4042.53
4052.64
4062.9
4073.69
4085.9
4100.19
4115.46
4130.74
4145.54
4159.51
4172.37
4184.2
4195.97
4208.3
4221.31
4235.03
4249.49
4264.62
4280.24
4296.06
4311.71
4326.85
4355.85
4346.89
4338.8
4374.49
4364.55
4383.93
4403.55
4393.61
4424.19
4413.74
4445.84
4434.89
4468.47
4457.02
4492.26
4480.2
4517.48
4504.67
4564.5
4551.11
4543.88
4525
4531.55
4595.05
4586.63
4572.35
4637.47
4628.32
4603.63
4612.34
4675.63
4665.8
4647.79
4638.82
4743.14
4724.54
4686.2
4698.44
4848.17
4818.06
4777.61
4753.05
4972.5
4934.75
4865.65
4899.17
5147.14
5099.09
5054.31
5012.36
5390.42
5315.25
5248.49
5188.44
5782.22
5669.1
5565.48
5470.99
6387.2
6105.66
6236.45
5945.1
7284.32
7051.04
6600.87
6814.63
7806.37
8509.89
8102.94
7545.87
8919.13
10748.3
11231.2
10047.9
9353.13
9813.9
10544.1
12292.5
12733.8
11710.7
12184.7
13539.6
13821.2
13978
13159.6
13574.3
4025.97
4035.73
4045.66
4055.71
4066.07
4077.38
4090.54
4105.32
4120.47
4135.4
4149.66
4162.92
4175.02
4186.61
4198.54
4211.04
4224.15
4237.88
4252.21
4267.01
4282.07
4297.14
4311.88
4326.01
4338.35
4355.16
4346.23
4373.46
4363.61
4382.58
4401.43
4391.9
4421.13
4411.18
4441.62
4431.28
4462.82
4452.13
4484.87
4473.73
4508.05
4496.29
4558.53
4545.28
4538.33
4519.77
4526.13
4588.54
4580.35
4566.12
4629.95
4621.12
4596.88
4605.33
4666.16
4656.86
4639.45
4630.94
4731.53
4713.37
4676.13
4687.75
4834.17
4804.79
4763.69
4740.19
4953.37
4915.68
4848.22
4880.75
5134.32
5084.75
5037.39
4993.4
5385.77
5309.68
5242.14
5181.36
5779.05
5666.06
5562.51
5468.06
6383.6
6102.94
6233.03
5940.96
7280.63
7045.56
6596.77
6810.95
7802.36
8494.96
8096.6
7539.79
8907.22
11040.3
11545.3
10307.4
9344.48
9808.5
10831.8
12652.8
13115.7
12048.5
12545.9
14051.1
15742.5
14910.7
13576.5
14087.8
4029.19
4038.84
4048.68
4058.75
4069.42
4081.52
4095.5
4110.38
4125.27
4139.7
4153.26
4165.7
4177.28
4188.92
4201
4213.58
4226.7
4240.33
4254.41
4268.78
4283.25
4297.56
4311.45
4324.66
4337.64
4336.92
4354.29
4345.4
4372.25
4362.51
4381.05
4399.15
4390.02
4417.89
4408.44
4437.18
4427.47
4456.94
4447
4477.22
4467.01
4503.32
4514.56
4497.96
4487.57
4552.41
4539.29
4532.63
4520.58
4581.88
4573.9
4559.73
4622.41
4613.85
4590.02
4598.25
4656.78
4648
4631.23
4623.1
4719.57
4702.08
4666.18
4677.13
4817.89
4789.7
4748.33
4726.47
4933.09
4894.29
4828.11
4859.54
5126.65
5076.51
5011.86
4972.72
5382.82
5306.69
5239.07
5178.18
5775.98
5663.13
5559.69
5465.24