/*--------------------------------*- C++ -*----------------------------------*\
  =========                 |
  \\      /  F ield         | OpenFOAM: The Open Source CFD Toolbox
   \\    /   O peration     | Website:  https://openfoam.org
    \\  /    A nd           | Version:  dev
     \\/     M anipulation  |
\*---------------------------------------------------------------------------*/
FoamFile
{
    version     2.0;
    format      ascii;
    class       volScalarField;
    location    "2500";
    object      H2O;
}
// * * * * * * * * * * * * * * * * * * * * * * * * * * * * * * * * * * * * * //

dimensions      [0 0 0 0 0 0 0];

internalField   nonuniform List<scalar> 
9851
(
2.65289e-28
7.6252e-28
5.43461e-28
1.2974e-27
1.99149e-27
2.75426e-28
2.51773e-27
4.24105e-27
2.1132e-27
1.1186e-28
2.68688e-27
6.64837e-27
4.60904e-27
1.60083e-27
5.61636e-29
5.00799e-27
1.33872e-26
8.11187e-27
3.5819e-27
7.22094e-28
2.95476e-29
5.59116e-27
1.73944e-26
1.84241e-26
7.59847e-27
2.65874e-27
1.86597e-28
7.56845e-30
5.93814e-27
2.27675e-26
2.82802e-26
1.5004e-26
5.30997e-27
1.00163e-27
9.13956e-29
2.99645e-30
5.86144e-27
3.04178e-26
3.93485e-26
3.33639e-26
1.14872e-26
4.26394e-27
3.0731e-28
4.58787e-29
1.93783e-30
7.20729e-27
3.79759e-26
5.55427e-26
5.68274e-26
2.98999e-26
8.99597e-27
1.5818e-27
1.94444e-28
1.54141e-29
7.01006e-31
8.74608e-27
4.38265e-26
8.02186e-26
8.35848e-26
5.51051e-26
2.28705e-26
6.59979e-27
6.9298e-28
1.04076e-28
4.82172e-30
1.02675e-31
4.79632e-27
4.92033e-26
1.02011e-25
1.11738e-25
9.42136e-26
4.15076e-26
1.64641e-26
2.54063e-27
3.9752e-28
4.39402e-29
1.56058e-30
5.72629e-32
8.43266e-27
4.42926e-26
1.07932e-25
1.61587e-25
1.35416e-25
8.67644e-26
2.84363e-26
1.08693e-26
1.37488e-27
2.23992e-28
1.11671e-29
4.57653e-31
3.19895e-32
4.1041e-27
4.3665e-26
1.40331e-25
2.20502e-25
1.98178e-25
1.33952e-25
6.32738e-26
2.15642e-26
6.51678e-27
7.91218e-28
1.04199e-28
5.80529e-30
2.98741e-31
2.67793e-33
5.59933e-27
4.56647e-26
1.23482e-25
2.62526e-25
2.73999e-25
2.10871e-25
1.12792e-25
4.72329e-26
1.51826e-26
2.36985e-27
3.84958e-28
2.67619e-29
2.18489e-30
5.80083e-32
1.03661e-32
3.68272e-27
3.20106e-26
1.19264e-25
3.46214e-25
4.04224e-25
2.85e-25
1.67795e-25
8.50114e-26
3.19613e-26
8.74665e-27
1.15303e-27
1.9588e-28
1.05318e-29
5.85881e-31
1.81687e-31
1.03839e-31
7.78007e-27
3.18394e-26
1.54511e-25
3.98712e-25
5.0851e-25
4.60579e-25
2.90451e-25
1.36888e-25
5.79903e-26
1.81968e-26
4.94532e-27
7.06431e-28
8.08685e-29
6.7571e-30
2.59185e-30
2.45042e-30
3.12532e-30
9.10929e-27
4.26941e-26
1.5625e-25
3.99793e-25
6.5185e-25
6.80449e-25
4.70049e-25
2.08397e-25
1.10704e-25
4.0936e-26
1.23999e-26
2.24994e-27
3.20308e-28
4.3238e-29
2.09715e-29
3.67219e-29
4.66135e-29
3.23544e-29
1.05639e-26
4.10035e-26
1.54219e-25
4.22093e-25
7.60593e-25
8.77818e-25
7.03877e-25
4.36814e-25
1.60242e-25
7.33206e-26
2.78826e-26
5.49985e-27
9.03191e-28
2.84236e-28
1.70354e-28
2.59693e-28
5.64212e-28
6.11128e-28
3.58163e-28
1.6545e-26
6.60965e-26
1.72032e-25
4.70736e-25
8.26352e-25
1.15101e-24
1.00219e-24
6.66963e-25
3.32633e-25
1.47148e-25
5.5441e-26
1.73728e-26
4.16559e-27
1.44632e-27
2.22869e-27
2.83323e-27
5.37625e-27
6.86814e-27
7.20163e-27
3.13291e-27
1.56954e-26
8.79946e-26
1.98541e-25
5.32099e-25
1.02742e-24
1.52444e-24
1.37369e-24
9.24077e-25
5.81461e-25
2.694e-25
1.12549e-25
4.13335e-26
1.62191e-26
1.03459e-26
2.8074e-26
3.25629e-26
4.31332e-26
7.49755e-26
6.15738e-26
9.59975e-26
7.15537e-26
2.51972e-26
1.30881e-25
2.48889e-25
6.42841e-25
1.07149e-24
1.78992e-24
1.82723e-24
1.42354e-24
8.48705e-25
4.73171e-25
1.94682e-25
1.0935e-25
8.87513e-26
9.58799e-26
2.10633e-25
4.5903e-25
5.1629e-25
7.22268e-25
8.42224e-25
8.8879e-25
8.67169e-25
6.27316e-25
5.77101e-26
1.88459e-25
3.70205e-25
8.86289e-25
1.26803e-24
2.25052e-24
2.39014e-24
1.87916e-24
1.29596e-24
7.19816e-25
4.59524e-25
3.78146e-25
6.38656e-25
1.09105e-24
1.87738e-24
4.80518e-24
4.4608e-24
9.26062e-24
1.24739e-23
1.39414e-23
1.29549e-23
9.9241e-24
2.93644e-24
8.53638e-26
2.94757e-25
6.205e-25
1.22491e-24
1.74451e-24
2.73927e-24
2.87774e-24
2.58648e-24
2.0055e-24
1.444e-24
1.15129e-24
1.85218e-24
4.81604e-24
7.96827e-24
1.61886e-23
4.64822e-23
6.43412e-23
5.43734e-23
8.75238e-23
1.19678e-22
1.24264e-22
1.00657e-22
7.83136e-23
3.40555e-23
1.70651e-25
4.56848e-25
8.40684e-25
1.59953e-24
2.4876e-24
3.25231e-24
3.90599e-24
4.38908e-24
4.06206e-24
4.27105e-24
4.707e-24
1.22382e-23
3.21045e-23
7.70356e-23
1.64635e-22
3.10987e-22
7.16035e-22
5.90275e-22
9.38776e-22
1.54961e-21
1.08658e-21
9.00565e-22
7.94601e-22
1.13328e-21
5.36744e-22
2.74979e-25
7.96843e-25
1.46443e-24
2.61404e-24
3.3782e-24
4.38605e-24
5.64401e-24
8.64334e-24
1.09402e-23
2.43493e-23
3.46724e-23
6.88109e-23
1.90846e-22
5.69762e-22
1.40583e-21
3.35155e-21
5.20415e-21
6.88803e-21
5.96403e-21
1.41307e-20
1.08753e-20
7.06602e-21
6.91464e-21
1.09838e-20
8.50307e-21
1.45915e-21
4.58486e-25
1.33082e-24
2.40533e-24
4.28323e-24
5.21693e-24
6.09038e-24
9.76504e-24
2.64659e-23
6.92595e-23
1.27452e-22
3.49466e-22
4.64191e-22
1.02443e-21
3.88781e-21
1.28998e-20
2.08801e-20
3.45178e-20
4.29593e-20
7.63301e-20
7.09468e-20
1.32123e-19
6.70344e-20
5.83203e-20
8.79429e-20
9.12338e-20
3.56072e-20
3.09389e-20
1.10347e-24
2.34441e-24
4.27874e-24
5.9478e-24
7.64597e-24
1.07226e-23
2.07402e-23
9.01119e-23
3.76999e-22
9.7623e-22
1.88649e-21
4.97754e-21
8.50958e-21
2.00887e-20
6.30096e-20
1.83719e-19
3.58999e-19
3.0466e-19
4.76354e-19
4.27828e-19
9.31067e-19
7.19992e-19
8.84265e-19
6.65499e-19
5.62714e-19
5.45468e-19
3.80739e-19
1.78388e-19
3.76166e-24
6.18745e-24
9.07192e-24
1.12859e-23
1.22991e-23
1.75526e-23
4.69987e-23
2.96465e-22
1.53724e-21
5.57476e-21
1.45064e-20
2.93412e-20
5.92391e-20
1.32585e-19
4.24468e-19
1.01367e-18
2.03751e-18
3.6072e-18
4.26245e-18
4.09273e-18
5.26522e-18
4.58453e-18
5.73831e-18
4.92955e-18
4.10954e-18
3.57602e-18
2.53971e-18
2.30769e-18
5.86224e-19
1.45813e-23
1.64621e-23
2.17117e-23
2.4598e-23
2.5141e-23
3.20189e-23
1.08577e-22
9.09157e-22
7.19153e-21
2.77648e-20
9.86495e-20
2.16999e-19
5.58822e-19
8.75927e-19
2.72872e-18
6.26538e-18
1.44269e-17
2.09705e-17
2.761e-17
4.09964e-17
4.35956e-17
5.21485e-17
3.88099e-17
2.90344e-17
1.94917e-17
2.05961e-17
2.03515e-17
1.99066e-17
7.97521e-18
4.28154e-18
4.6898e-23
5.95167e-23
5.37854e-23
5.10623e-23
5.40229e-23
5.4192e-23
2.7953e-22
3.11143e-21
2.45504e-20
1.35088e-19
3.94225e-19
1.59634e-18
2.59976e-18
7.75503e-18
1.26227e-17
3.50047e-17
7.74017e-17
1.15071e-16
1.9238e-16
2.00347e-16
2.04194e-16
2.57148e-16
2.48111e-16
1.49605e-16
8.44279e-17
1.49636e-16
1.14324e-16
1.01909e-16
9.44041e-17
3.44045e-17
1.86074e-17
1.45613e-22
2.31071e-22
1.71755e-22
1.37363e-22
1.16698e-22
1.14956e-22
5.36825e-22
8.13358e-21
8.51438e-20
5.73376e-19
2.0425e-18
7.25971e-18
2.2752e-17
3.89679e-17
1.10915e-16
1.75612e-16
3.8157e-16
7.83122e-16
1.06019e-15
8.59524e-16
8.45167e-16
8.37875e-16
8.51503e-16
6.62132e-16
6.86441e-16
5.24153e-16
5.94163e-16
4.97942e-16
5.74131e-16
2.28762e-16
1.73271e-16
4.09457e-17
4.61639e-22
7.11425e-22
6.64269e-22
4.38355e-22
2.93811e-22
2.23673e-22
9.62236e-22
1.88789e-20
2.3125e-19
2.01901e-18
1.03261e-17
3.73525e-17
1.04867e-16
2.95915e-16
5.86813e-16
1.24248e-15
2.17065e-15
3.45384e-15
4.57103e-15
5.58923e-15
5.66895e-15
4.78617e-15
4.09834e-15
4.1186e-15
3.40649e-15
2.96826e-15
2.83136e-15
3.32081e-15
3.79215e-15
2.86937e-15
1.57336e-15
3.4584e-16
6.68155e-17
1.49359e-21
2.2976e-21
1.77415e-21
1.44653e-21
8.84092e-22
4.62624e-22
1.50921e-21
3.50714e-20
6.5176e-19
5.82378e-18
3.90498e-17
1.63568e-16
4.93236e-16
1.27809e-15
3.62302e-15
8.70481e-15
1.60486e-14
2.75233e-14
3.67819e-14
4.32682e-14
4.46139e-14
3.86947e-14
2.81148e-14
2.34281e-14
2.13772e-14
1.87011e-14
1.80034e-14
2.13078e-14
4.33903e-14
6.34437e-14
3.62014e-14
9.5411e-15
1.13358e-15
1.71658e-17
1.95975e-16
5.78183e-21
6.87621e-21
6.41706e-21
4.4584e-21
2.53458e-21
1.3858e-21
2.37599e-21
5.36018e-20
1.30999e-18
1.81963e-17
1.34595e-16
6.57478e-16
2.48444e-15
8.2489e-15
2.33598e-14
5.98502e-14
1.30474e-13
2.32378e-13
3.2701e-13
3.7769e-13
3.87186e-13
3.29139e-13
2.09306e-13
1.51593e-13
1.25109e-13
1.13934e-13
9.93638e-14
1.30552e-13
3.91979e-13
1.22587e-12
1.67709e-12
5.86828e-13
7.34592e-14
2.39324e-15
4.17189e-14
5.84571e-17
9.19179e-16
2.97691e-20
2.52311e-20
1.8239e-20
1.39412e-20
1.04984e-20
6.26906e-21
3.85572e-21
7.723e-20
2.21523e-18
4.27863e-17
4.32433e-16
2.35333e-15
1.19633e-14
4.80844e-14
1.47429e-13
4.24804e-13
1.00862e-12
1.92944e-12
2.87998e-12
3.37935e-12
3.36706e-12
2.8728e-12
1.69746e-12
1.02011e-12
7.33764e-13
6.11888e-13
5.4531e-13
5.91995e-13
2.78138e-12
1.45551e-11
3.81007e-11
2.50985e-11
2.17811e-12
1.79527e-11
7.42784e-13
1.438e-11
1.25833e-11
2.09992e-14
4.6375e-13
2.27891e-16
8.04968e-15
1.92577e-19
1.41437e-19
8.06112e-20
5.10494e-20
2.75388e-20
1.85473e-20
9.55919e-21
9.70802e-20
3.45995e-18
8.07093e-17
1.11614e-15
9.26543e-15
4.87371e-14
2.38175e-13
8.53544e-13
2.77293e-12
7.31461e-12
1.52828e-11
2.46413e-11
3.02713e-11
2.97379e-11
2.49874e-11
1.50004e-11
7.20098e-12
4.4139e-12
3.23753e-12
2.70154e-12
2.71325e-12
1.30007e-11
1.21434e-10
4.9645e-10
7.62502e-10
1.09328e-10
7.44411e-10
1.3837e-10
9.01565e-12
1.60452e-10
1.43066e-10
2.20754e-13
5.14303e-12
1.93547e-15
8.10302e-14
1.68296e-18
1.03294e-18
4.26267e-19
1.70689e-19
1.02005e-19
4.35758e-20
3.17377e-20
1.53611e-19
4.52863e-18
1.40581e-16
2.53145e-15
2.52051e-14
1.74234e-13
1.03811e-12
4.37722e-12
1.62327e-11
4.81616e-11
1.12972e-10
2.00428e-10
2.67594e-10
2.69676e-10
2.16137e-10
1.38554e-10
5.64816e-11
2.79344e-11
1.75806e-11
1.29428e-11
1.16118e-11
5.99476e-11
6.73252e-10
4.38443e-09
1.29043e-08
4.17238e-09
2.03578e-08
1.19297e-09
8.23764e-09
1.6545e-09
9.93216e-11
1.78448e-09
1.51885e-09
2.32142e-12
5.43552e-11
1.8747e-14
8.14e-13
1.43578e-17
8.05119e-18
2.8504e-18
9.99893e-19
3.45753e-19
1.99683e-19
7.15896e-20
2.05258e-19
7.22687e-18
1.97807e-16
4.82831e-15
6.65193e-14
5.51283e-13
3.73277e-12
2.0099e-11
8.32659e-11
2.82812e-10
7.46167e-10
1.52033e-09
2.25038e-09
2.47131e-09
1.96626e-09
1.19531e-09
4.82533e-10
1.94042e-10
1.00051e-10
6.34011e-11
4.97935e-11
8.78327e-11
2.57105e-09
2.59955e-08
1.1272e-07
7.90976e-08
2.84881e-07
4.53667e-08
2.04863e-07
1.30656e-08
8.30442e-08
1.71171e-08
1.02356e-09
1.78431e-08
1.4844e-08
2.34881e-11
5.40833e-10
1.86441e-13
7.91416e-12
1.10408e-16
7.4071e-17
2.2972e-17
6.8196e-18
1.58818e-18
5.80419e-19
3.30924e-19
2.70753e-19
7.6632e-18
3.01519e-16
7.62111e-15
1.41613e-13
1.67177e-12
1.18656e-11
7.72705e-11
3.71029e-10
1.43537e-09
4.34545e-09
9.96407e-09
1.78758e-08
2.1843e-08
1.87033e-08
1.06867e-08
4.40324e-09
1.49837e-09
6.33809e-10
3.29124e-10
2.16536e-10
2.11956e-10
4.68138e-09
8.7976e-08
6.84078e-07
8.49227e-07
2.33276e-06
7.79656e-07
2.53468e-06
4.23202e-07
1.76267e-06
1.25612e-07
7.29153e-07
1.58057e-07
9.76329e-09
1.61141e-07
1.32184e-07
2.24538e-10
5.00369e-09
1.82341e-12
7.36821e-11
7.40983e-16
5.78331e-16
2.08816e-16
5.12249e-17
1.27927e-17
3.45693e-18
1.1931e-18
4.769e-19
7.50229e-18
3.34719e-16
1.17631e-14
2.53061e-13
3.65917e-12
3.28526e-11
2.48862e-10
1.41317e-09
6.28608e-09
2.11899e-08
5.7159e-08
1.14205e-07
1.99548e-07
1.88449e-07
9.97691e-08
3.99523e-08
1.29641e-08
4.54338e-09
1.91943e-09
1.00094e-09
7.28913e-10
3.66642e-09
2.32322e-07
2.38162e-06
5.48491e-06
1.28904e-05
7.12891e-06
1.78195e-05
6.14964e-06
1.7776e-05
3.3763e-06
1.24615e-05
1.06053e-06
5.4727e-06
1.2898e-06
8.54425e-08
1.2978e-06
1.06007e-06
2.01501e-09
4.2766e-08
1.72305e-11
6.46362e-10
5.21779e-15
4.43559e-15
1.76221e-15
4.41661e-16
1.31188e-16
2.26299e-17
5.25189e-18
1.65281e-18
5.03095e-18
2.88695e-16
1.30982e-14
3.82941e-13
7.01222e-12
8.47498e-11
6.95056e-10
4.64926e-09
2.32875e-08
8.8103e-08
2.57127e-07
6.63847e-07
1.16123e-06
1.05048e-06
6.59649e-07
3.46321e-07
1.21639e-07
3.65265e-08
1.2682e-08
5.22296e-09
2.8993e-09
4.00199e-09
2.45625e-07
5.88204e-06
2.14468e-05
3.75349e-05
3.78968e-05
7.43189e-05
4.44492e-05
9.76485e-05
3.74453e-05
9.32792e-05
2.16556e-05
6.66932e-05
7.61518e-06
3.23085e-05
8.98234e-06
6.80656e-07
8.96264e-06
7.38502e-06
1.67697e-08
3.35695e-07
1.56167e-10
5.31256e-09
3.60043e-14
3.62064e-14
1.46081e-14
4.00949e-15
9.86332e-16
1.87044e-16
3.0308e-17
6.89982e-18
3.48401e-18
1.79517e-16
1.1492e-14
4.31548e-13
1.0321e-11
1.73943e-10
1.80511e-09
1.36005e-08
7.60788e-08
3.01259e-07
9.80459e-07
2.61989e-06
4.6579e-06
5.43321e-06
4.34105e-06
2.36459e-06
9.59609e-07
3.36588e-07
9.75885e-08
3.1833e-08
1.288e-08
9.06193e-09
1.3573e-07
8.06854e-06
5.11943e-05
6.99141e-05
0.000117067
0.000173658
0.000179764
0.000289269
0.00020318
0.000364414
0.000169803
0.000360387
0.000104343
0.000266402
4.22157e-05
0.000142987
4.79395e-05
4.81169e-06
4.73141e-05
3.96743e-05
1.29103e-07
2.39266e-06
1.33494e-09
4.01301e-08
2.54307e-13
2.9559e-13
1.32062e-13
3.84139e-14
8.74308e-15
1.84884e-15
3.14505e-16
3.59964e-17
7.16849e-18
8.73599e-17
7.06618e-15
3.83474e-13
1.15711e-11
2.32894e-10
3.22345e-09
2.89159e-08
2.10357e-07
9.25071e-07
2.82063e-06
8.07499e-06
1.72137e-05
2.53045e-05
2.4335e-05
1.57472e-05
7.18136e-06
2.43746e-06
6.97008e-07
2.0177e-07
6.43358e-08
3.11117e-08
1.02083e-07
5.9347e-06
8.0954e-05
9.43368e-05
0.000226912
0.000283607
0.000410626
0.000536711
0.000560591
0.000759609
0.000619087
0.000898354
0.000560199
0.000910279
0.000378629
0.000765034
0.000175105
0.000477419
0.00019119
2.70266e-05
0.000186121
0.000158933
9.06611e-07
1.42566e-05
1.05526e-08
2.73888e-07
1.58484e-12
2.20668e-12
1.11266e-12
3.51953e-13
8.57062e-14
1.52954e-14
2.28882e-15
2.98209e-16
2.6935e-17
3.7198e-17
3.44021e-15
2.39244e-13
1.03495e-11
2.55385e-10
4.25479e-09
4.344e-08
3.92366e-07
1.81964e-06
6.6208e-06
2.12676e-05
5.10715e-05
8.70111e-05
0.000100358
8.0792e-05
4.54922e-05
1.81869e-05
5.58069e-06
1.47311e-06
3.81202e-07
1.2559e-07
1.38108e-07
5.93018e-06
9.35111e-05
6.11024e-05
0.000322486
0.000361378
0.000648452
0.000746168
0.00094981
0.00110982
0.00115082
0.00134527
0.00122938
0.00144137
0.00118126
0.00145408
0.000964261
0.00138401
0.000546733
0.00110965
0.000572979
0.000113936
0.000548604
0.00047316
5.61556e-06
6.46045e-05
7.48668e-08
1.64612e-06
8.58603e-12
1.32199e-11
8.12526e-12
2.95818e-12
8.17532e-13
1.54189e-13
2.47946e-14
2.3036e-15
1.81885e-16
3.67217e-17
1.36663e-15
1.21458e-13
6.59814e-12
2.26122e-10
4.50353e-09
5.16213e-08
5.41119e-07
2.71291e-06
1.17431e-05
4.28828e-05
0.000110848
0.000202655
0.000269686
0.00027242
0.000199174
9.82119e-05
3.52356e-05
9.78278e-06
2.42227e-06
6.05342e-07
3.21528e-07
4.61187e-06
0.000208612
0.000371251
0.000419632
0.000814552
0.000870505
0.00123061
0.00131978
0.00146855
0.00154856
0.00156212
0.00163652
0.00159275
0.00166969
0.00158204
0.00167512
0.00149982
0.00166234
0.00119263
0.00157494
0.00121254
0.000355953
0.00116154
0.00102521
2.67945e-05
0.000218165
4.46459e-07
8.27958e-06
3.92378e-11
7.28306e-11
4.77669e-11
2.32444e-11
7.29698e-12
1.39141e-12
2.59606e-13
2.50963e-14
1.89543e-15
1.82026e-16
4.67363e-16
5.04955e-14
3.4904e-12
1.44404e-10
4.07346e-09
5.16509e-08
6.14345e-07
3.33088e-06
1.66712e-05
6.59906e-05
0.000179028
0.000336514
0.00046828
0.000518359
0.000466587
0.000324012
0.000149377
4.96724e-05
1.31578e-05
3.14549e-06
1.03299e-06
3.06098e-06
0.000143383
0.000871896
0.000840496
0.000892145
0.000888044
0.00137686
0.00141715
0.00160088
0.00163606
0.00168748
0.00172299
0.00171877
0.00175566
0.00172488
0.00176126
0.001722
0.00175507
0.00171316
0.0017513
0.00162164
0.00175005
0.00164275
0.000817313
0.00162764
0.00154399
9.95398e-05
0.000551828
2.26832e-06
3.44139e-05
1.40869e-10
3.22191e-10
2.64086e-10
1.25759e-10
4.70008e-11
1.11491e-11
2.46909e-12
2.56521e-13
1.95935e-14
1.04674e-15
2.44499e-16
1.73862e-14
1.52581e-12
7.92849e-11
2.54112e-09
5.02181e-08
5.99706e-07
3.56909e-06
1.98462e-05
8.47181e-05
0.000238295
0.000457698
0.000656742
0.000770822
0.000767189
0.00063988
0.000421046
0.000182389
5.62686e-05
1.43113e-05
3.62961e-06
3.21475e-06
7.05639e-05
0.000778642
0.000695028
0.00140072
0.00136667
0.00142811
0.00142165
0.0016577
0.00167277
0.00174597
0.00175807
0.00178533
0.00181073
0.00179789
0.00184487
0.00179038
0.00185078
0.00177612
0.0018244
0.00177224
0.00179245
0.00178181
0.00179442
0.00181015
0.00134049
0.00182174
0.00179176
0.0002833
0.00102708
1.22507e-05
0.000115066
3.60417e-10
1.06378e-09
1.13209e-09
6.92279e-10
2.76238e-10
8.96241e-11
2.05666e-11
2.46073e-12
1.96372e-13
1.03494e-14
8.48032e-16
5.07848e-15
5.60467e-13
3.63905e-11
1.42603e-09
3.16134e-08
4.73302e-07
3.43704e-06
2.04622e-05
9.47057e-05
0.000280408
0.000549493
0.000811726
0.000998515
0.00107095
0.000996886
0.000777868
0.000475809
0.000186137
5.44291e-05
1.3796e-05
5.51174e-06
4.59818e-05
0.000600979
0.000408118
0.00129897
0.00123496
0.00167254
0.0016628
0.00168
0.00167792
0.00176157
0.00175922
0.00182636
0.00182775
0.00189936
0.00195086
0.00194664
0.00207564
0.00193207
0.00212585
0.00186434
0.00205439
0.00180266
0.00190957
0.00181941
0.00181463
0.00184955
0.00168703
0.00187521
0.00187951
0.000616505
0.00145295
4.07274e-05
0.000277429
5.36843e-10
2.33512e-09
3.55562e-09
2.91441e-09
1.50729e-09
4.23231e-10
1.65462e-10
2.14659e-11
1.91113e-12
1.05976e-13
4.74428e-15
1.59336e-15
1.7398e-13
1.42424e-11
6.756e-10
1.93054e-08
2.84029e-07
2.88417e-06
1.92548e-05
9.53855e-05
0.000299494
0.00061015
0.000915458
0.00116409
0.00132492
0.00135118
0.00119508
0.000870317
0.000482481
0.000171615
4.84223e-05
1.42412e-05
3.23762e-05
0.000553647
0.0010983
0.00106692
0.0016421
0.00160988
0.00174252
0.00174435
0.00175272
0.00174423
0.00182039
0.00180241
0.00197606
0.00197055
0.00221137
0.00231524
0.00238404
0.00265832
0.00239308
0.0028266
0.00220615
0.00271853
0.00194702
0.00235179
0.00182878
0.00196392
0.00184829
0.0018367
0.0018764
0.00189668
0.00103638
0.00170085
0.000103124
0.000527676
2.83375e-09
6.98849e-09
9.37376e-09
6.20034e-09
2.31962e-09
7.05327e-10
1.6782e-10
1.70745e-11
1.02313e-12
4.56763e-14
2.3073e-15
4.6365e-14
4.74637e-12
2.76481e-10
9.836e-09
1.56455e-07
2.09956e-06
1.46407e-05
8.93437e-05
0.000299615
0.000634129
0.000970966
0.00124836
0.00147603
0.00161961
0.00159543
0.00133861
0.00089999
0.00045094
0.000144676
4.10047e-05
3.29423e-05
0.000333012
0.00135769
0.00124036
0.00153881
0.0014788
0.00175104
0.00175446
0.00171417
0.00171458
0.00176507
0.00173115
0.00194371
0.00187142
0.00234657
0.00231401
0.00288415
0.00300135
0.00326767
0.00364565
0.0033527
0.00397775
0.00304949
0.00386702
0.00244438
0.0033001
0.00195147
0.00244911
0.00192367
0.00188414
0.00189831
0.00189185
0.00139124
0.00181098
0.000219164
0.000840071
7.71582e-09
1.59821e-08
2.01089e-08
1.00077e-08
3.64175e-09
9.24791e-10
1.36792e-10
9.08594e-12
4.38066e-13
1.74847e-14
1.15724e-14
1.36189e-12
9.81121e-11
4.12272e-09
8.47597e-08
1.31825e-06
9.79112e-06
7.03133e-05
0.000281272
0.000633134
0.000970224
0.00124425
0.00149989
0.00173199
0.00186893
0.00177878
0.00138402
0.000856472
0.000387135
0.000112995
5.03789e-05
0.000211172
0.00107384
0.000828372
0.00169164
0.00163544
0.00174931
0.00173379
0.00172705
0.00175424
0.00162683
0.00162276
0.0017587
0.00167115
0.00221537
0.00197219
0.00299429
0.00284136
0.00384899
0.00382158
0.00442631
0.00456381
0.00462909
0.00499937
0.00431583
0.00510845
0.00342692
0.00458168
0.00235319
0.00338638
0.00219731
0.00189342
0.00202461
0.00195235
0.00189255
0.00160288
0.00185328
0.000353408
0.00107542
1.73193e-08
3.31031e-08
3.56764e-08
1.56872e-08
3.73063e-09
8.46994e-10
7.39456e-11
3.8804e-12
1.61082e-13
9.85213e-15
3.45537e-13
3.03857e-11
1.54168e-09
4.36898e-08
6.81946e-07
6.1296e-06
4.83913e-05
0.000231346
0.000596971
0.000904646
0.00113778
0.00143045
0.00172044
0.00195998
0.00206955
0.00185572
0.00133991
0.000752339
0.000296179
0.000104715
0.000182407
0.00094741
0.00150587
0.00148695
0.0018313
0.00182799
0.00178566
0.00181811
0.00163512
0.00167814
0.00152251
0.00152104
0.00174088
0.00158619
0.00243103
0.00197775
0.00356475
0.00305291
0.00444426
0.00414854
0.005007
0.0048448
0.00536551
0.00529298
0.00541368
0.00562085
0.00469364
0.00557742
0.00315192
0.0046768
0.00392974
0.00239135
0.00291933
0.00191496
0.00188663
0.00190057
0.00213177
0.00251802
0.00272168
0.00203426
0.00169764
0.00189198
0.00188342
0.00184428
0.000385717
0.00115194
3.65126e-08
5.99803e-08
5.90335e-08
1.79535e-08
3.36699e-09
5.1581e-10
3.13075e-11
1.39993e-12
5.42953e-14
8.39825e-14
8.44152e-12
5.06285e-10
1.87328e-08
2.93538e-07
3.59484e-06
2.98153e-05
0.000172355
0.000516743
0.000810273
0.000968249
0.00116737
0.00155355
0.00192255
0.0021671
0.00221283
0.00184984
0.00121398
0.000598729
0.00023268
0.000200123
0.000732044
0.001703
0.00153593
0.00180328
0.00177305
0.00186598
0.00191162
0.00174174
0.00180827
0.00155104
0.00162955
0.00139645
0.00142645
0.00162344
0.00143508
0.00240097
0.00176943
0.00364065
0.0029097
0.00454057
0.0040463
0.00509774
0.00473112
0.00551018
0.00521348
0.00578717
0.00573001
0.00562489
0.00516501
0.00565792
0.00591528
0.00582048
0.00456771
0.0035709
0.00441231
0.00517348
0.00336795
0.00196682
0.00192938
0.00232333
0.00283639
0.0031047
0.00216876
0.00185373
0.00162774
0.00179111
0.00191076
0.00189672
0.00032979
0.0016403
0.0013461
0.000955014
6.9022e-08
9.98333e-08
8.05155e-08
1.51256e-08
2.538e-09
2.28353e-10
1.12245e-11
4.55506e-13
4.18154e-14
2.20234e-12
1.53183e-10
6.44616e-09
1.25056e-07
2.06514e-06
1.65569e-05
0.000116478
0.000419352
0.000731359
0.000849178
0.000892438
0.00109699
0.00165595
0.00212563
0.00234942
0.00227954
0.00176687
0.0010263
0.000457786
0.000276748
0.000646334
0.00164754
0.00194381
0.00196779
0.00194327
0.00195121
0.00189979
0.00197559
0.00172142
0.00181366
0.00151976
0.00164513
0.00125783
0.00138637
0.001363
0.00122645
0.00203996
0.00135279
0.00330452
0.00235143
0.00418452
0.00345005
0.00470651
0.00408096
0.00545594
0.0051837
0.00490926
0.00454316
0.00586354
0.00574131
0.00567693
0.00547672
0.0056253
0.00588126
0.00592889
0.0059544
0.00507297
0.00414967
0.00491344
0.00558964
0.00387916
0.00205565
0.00198242
0.0025802
0.00356294
0.00323102
0.00235767
0.00186763
0.00179871
0.00194232
0.00191623
0.000915996
8.59173e-05
0.000359119
0.00163884
0.00132701
1.2293e-07
1.42358e-07
6.43541e-08
9.26619e-09
1.56725e-09
8.17476e-11
3.61847e-12
1.40369e-13
5.65222e-13
4.36729e-11
2.09191e-09
5.75018e-08
9.67298e-07
8.33606e-06
7.06023e-05
0.000313416
0.000655946
0.000772117
0.000726721
0.00069135
0.00109549
0.00184305
0.00232661
0.00248941
0.00228559
0.00162011
0.000860698
0.000449098
0.000664555
0.00156017
0.00213456
0.00208185
0.00211226
0.00214449
0.00203823
0.00208559
0.00199854
0.00209272
0.00177197
0.00189111
0.00156383
0.00174083
0.00116643
0.00140808
0.00103725
0.00102474
0.0014299
0.000896473
0.00253162
0.00151403
0.00335137
0.00247604
0.00422863
0.00383746
0.00351732
0.00311547
0.00520042
0.00487334
0.00450838
0.00412635
0.0058035
0.0055881
0.0055256
0.00523522
0.00589563
0.00599675
0.0058732
0.00598155
0.00551162
0.00469334
0.00537939
0.00588469
0.004408
0.00218462
0.00206438
0.00290042
0.00406016
0.00367461
0.00259985
0.00188035
0.00180255
0.00199092
0.00194376
0.000832383
3.33333e-05
0.000241415
0.00162787
0.00128475
1.92065e-07
1.75616e-07
4.1788e-08
5.37642e-09
5.29584e-10
2.64807e-11
1.06351e-12
1.94656e-13
1.21684e-11
6.38756e-10
2.24856e-08
3.63533e-07
4.8399e-06
3.82936e-05
0.000214303
0.000565232
0.000716715
0.000659751
0.00044977
0.00064625
0.00120551
0.00209448
0.00248826
0.00257739
0.00225398
0.00150963
0.000799781
0.000773951
0.00155797
0.00225209
0.00236462
0.0024175
0.00229145
0.00233807
0.00217271
0.0022398
0.00217274
0.00227911
0.00190412
0.00204818
0.00165075
0.00187558
0.00112978
0.00141607
0.000758363
0.000863393
0.000780044
0.000545557
0.00152009
0.000649963
0.0027648
0.00230988
0.0018794
0.00134646
0.00374059
0.00336452
0.00299209
0.00260908
0.00488668
0.00449381
0.00407561
0.00365247
0.0056698
0.00529712
0.00538639
0.00493941
0.00602607
0.00603235
0.00575907
0.00594979
0.00584087
0.00518607
0.00575068
0.00603951
0.00491317
0.00235441
0.0021746
0.00327144
0.0045599
0.00414075
0.00288957
0.00189492
0.00180404
0.00205685
0.00198065
0.000714127
1.10775e-05
0.0001386
0.00160902
0.00121316
2.41351e-07
1.44016e-07
1.97982e-08
3.20692e-09
1.76932e-10
7.81063e-12
3.33679e-13
3.26478e-12
1.90262e-10
7.32981e-09
1.24967e-07
2.35975e-06
1.84275e-05
0.000131215
0.000444622
0.000667711
0.000637644
0.00037014
0.000360721
0.000678624
0.00141299
0.00227813
0.00259281
0.00262867
0.00223217
0.00147897
0.00105021
0.0016161
0.00227749
0.00268314
0.00267388
0.00260791
0.00265309
0.00251182
0.00256638
0.00236995
0.0024476
0.00238337
0.00250261
0.00207369
0.00224179
0.00168632
0.00194005
0.00100367
0.00130047
0.000541296
0.000720771
0.000334698
0.000274985
0.000593984
0.000210504
0.00222338
0.0018135
0.00141365
0.00100248
0.00324378
0.00284975
0.002458
0.0020683
0.00452592
0.00407554
0.00361153
0.00315935
0.00549517
0.00503388
0.00516177
0.0046163
0.00607617
0.0060158
0.00561475
0.00585234
0.0060316
0.00559964
0.00599111
0.00610388
0.00536107
0.00256318
0.00231306
0.00367638
0.00503097
0.00460351
0.0032178
0.0019125
0.00180492
0.00214025
0.00202733
0.000574458
2.2014e-06
5.60984e-05
0.00158361
0.00112116
2.787e-07
7.88253e-08
8.71022e-09
1.05837e-09
5.2656e-11
2.08432e-12
9.29887e-13
5.52196e-11
2.23652e-09
5.40066e-08
9.44111e-07
8.30269e-06
7.14584e-05
0.000314028
0.000608202
0.000635127
0.000372776
0.000230663
0.000350867
0.000763488
0.00153847
0.00237917
0.00266422
0.00267745
0.00227958
0.00170038
0.00181308
0.00236295
0.00289555
0.00295741
0.00302024
0.00287198
0.00291762
0.00276319
0.00282277
0.00260493
0.00269166
0.00255913
0.0027054
0.0021735
0.0023825
0.00160434
0.00190046
0.000705586
0.000969248
0.000308844
0.000474753
0.000113699
9.98665e-05
0.00037663
0.000192138
7.77447e-05
0.000121686
0.00168197
0.00130691
0.000950004
0.000630546
0.00273084
0.002318
0.00191977
0.00154093
0.00414444
0.00364262
0.00314038
0.00266392
0.00531129
0.00475908
0.00494089
0.00429001
0.00608019
0.00594706
0.0054658
0.00573482
0.00612169
0.00590357
0.00611886
0.00612616
0.00573351
0.00280689
0.00247729
0.00409763
0.0054524
0.00503752
0.00357183
0.00193484
0.00180928
0.00224138
0.00208464
0.0004116
2.90841e-06
3.96017e-05
0.001553
0.00101189
2.5056e-07
3.66902e-08
4.87949e-09
3.27081e-10
1.42689e-11
8.47695e-13
1.55363e-11
6.8463e-10
2.04792e-08
3.29208e-07
4.69905e-06
3.46215e-05
0.000198497
0.00051437
0.000629005
0.000406019
0.000202119
0.000193468
0.000362605
0.000795568
0.00158271
0.00242661
0.00272119
0.00275941
0.00250168
0.00232116
0.00256646
0.00301709
0.0033214
0.00334332
0.00322602
0.00327891
0.00312906
0.00317956
0.00300399
0.00307183
0.00282592
0.00292402
0.00261868
0.00279713
0.00217175
0.0024106
0.00127544
0.00160001
0.000314141
0.000506609
0.000114402
0.000183229
6.55971e-05
5.15222e-05
4.34673e-05
0.000207186
0.000125642
6.86182e-05
8.81571e-05
0.0011874
0.000866045
0.000585306
0.000361522
0.00221773
0.00180268
0.0014244
0.00108643
0.00376638
0.00321941
0.00268491
0.00218879
0.00513961
0.00449975
0.00474737
0.00398789
0.00603524
0.005852
0.00533207
0.00561435
0.00616315
0.00608077
0.00617954
0.00611063
0.00598522
0.00307786
0.0026642
0.00451805
0.00579392
0.00543579
0.00393873
0.00196407
0.00181538
0.00235975
0.00215309
0.000307302
4.51284e-05
7.22502e-05
0.0015196
0.000912508
1.77104e-07
1.51532e-08
2.06836e-09
9.13081e-11
3.59341e-12
4.30296e-12
2.06181e-10
6.64903e-09
9.91343e-08
2.06324e-06
1.4992e-05
0.000110951
0.000385502
0.000601306
0.000488568
0.000211966
0.000149333
0.000180527
0.000359234
0.000792561
0.00156786
0.00244157
0.00278235
0.00290043
0.00292323
0.00301199
0.00326318
0.00357525
0.00354178
0.00358713
0.00344212
0.00349413
0.0033283
0.00338831
0.00317658
0.00325912
0.00294805
0.0030736
0.0024818
0.00271332
0.00191852
0.00221536
0.00076392
0.00106301
0.000103523
0.000173633
4.21442e-05
6.21349e-05
5.65548e-05
4.83863e-05
3.84989e-05
3.00918e-05
0.000149963
0.000111194
7.46326e-05
8.97438e-05
0.000791654
0.00054443
0.000350429
0.000221659
0.00173995
0.00134734
0.00101365
0.000736047
0.00341995
0.00283362
0.00227259
0.00176842
0.004999
0.0042823
0.00460352
0.00373995
0.00595918
0.00575198
0.00522644
0.00550746
0.00617281
0.00617774
0.0062124
0.00606158
0.00613552
0.00336706
0.00286997
0.00492038
0.00601987
0.00576984
0.00430599
0.00199958
0.00182465
0.00249237
0.00223059
0.000333183
6.21665e-05
0.000161437
0.00148597
0.0009148
9.44168e-08
7.07418e-09
5.6375e-10
2.38134e-11
2.35157e-12
6.04197e-11
2.07595e-09
4.38224e-08
7.20698e-07
6.71532e-06
5.48668e-05
0.000255049
0.000531904
0.000549549
0.000261722
0.000151459
0.000129468
0.000164867
0.000326002
0.000730248
0.00146838
0.00239721
0.00285031
0.0030845
0.00327119
0.00346617
0.00362773
0.00365337
0.00363503
0.00362608
0.00365297
0.00353208
0.00358437
0.00339899
0.00347119
0.00320359
0.00331139
0.00290918
0.00307128
0.00202937
0.00231889
0.00138415
0.00171368
0.00028629
0.000464261
2.87361e-05
4.98901e-05
2.60973e-05
2.27556e-05
2.04669e-05
6.19708e-05
4.9375e-05
5.19935e-05
3.26568e-05
0.000158018
0.000143977
0.000119973
0.000134109
0.000513463
0.000349411
0.000245513
0.000188414
0.00133682
0.000986318
0.000712469
0.000506406
0.00313666
0.00251699
0.00193569
0.00143745
0.00490444
0.00413732
0.0045236
0.00358487
0.00587904
0.005664
0.00516074
0.00542476
0.00615391
0.00622995
0.00622712
0.00600154
0.00622498
0.00366463
0.00308697
0.00529678
0.0061674
0.00600299
0.00465812
0.0020405
0.00183595
0.00263586
0.00231669
0.000415166
0.000223335
0.000359914
0.0014764
0.000959631
4.41634e-08
3.8561e-09
1.60247e-10
6.14023e-12
1.72079e-11
6.40193e-10
1.67959e-08
2.43859e-07
3.72309e-06
2.42115e-05
0.000147844
0.000420194
0.000560076
0.000389216
0.000182101
0.000131677
0.000115348
0.000131553
0.000270397
0.000639247
0.00130899
0.0022511
0.00288775
0.00321344
0.00344338
0.00356301
0.00343366
0.00349398
0.00341758
0.00350768
0.00351656
0.00341516
0.00347129
0.0032489
0.00334212
0.0029798
0.00312951
0.00257617
0.00279633
0.00130533
0.00161306
0.000703816
0.000993983
8.49087e-05
0.000142512
1.15676e-05
1.16177e-05
1.16296e-05
2.41691e-05
2.11467e-05
1.1835e-05
1.36985e-05
0.000100744
7.66234e-05
0.000100222
5.5455e-05
0.000237972
0.000240474
0.000221162
0.000236814
0.000367138
0.000287947
0.000246669
0.000237358
0.00103739