/*--------------------------------*- C++ -*----------------------------------*\
  =========                 |
  \\      /  F ield         | OpenFOAM: The Open Source CFD Toolbox
   \\    /   O peration     | Website:  https://openfoam.org
    \\  /    A nd           | Version:  dev
     \\/     M anipulation  |
\*---------------------------------------------------------------------------*/
FoamFile
{
    version     2.0;
    format      ascii;
    class       volScalarField;
    location    "2500";
    object      k;
}
// * * * * * * * * * * * * * * * * * * * * * * * * * * * * * * * * * * * * * //

dimensions      [0 2 -2 0 0 0 0];

internalField   nonuniform List<scalar> 
9851
(
0.000162948
0.000168611
0.00015017
0.000145966
0.000203551
0.00012058
0.000121998
0.000217773
0.000176722
0.000108979
0.000113036
0.000210425
0.000210929
0.000135393
0.000105528
0.000107466
0.000187301
0.000229649
0.000175222
0.000116091
0.000103823
0.000104169
0.000157425
0.000234134
0.000211215
0.000135241
0.000108751
0.000102603
0.000102198
0.000136116
0.000227367
0.000229655
0.000167011
0.000115994
0.000105392
0.000101755
0.000100898
0.000123047
0.000208847
0.00024094
0.000202142
0.000130931
0.000108046
0.000103313
0.000101161
9.97264e-05
0.000113717
0.000180085
0.000243417
0.000227133
0.000156605
0.000113493
0.000104221
0.00010176
0.000100714
9.85896e-05
0.000107473
0.000151845
0.000237871
0.000239596
0.000188623
0.000125176
0.000105971
0.000101829
0.000100796
0.00010042
9.77808e-05
0.000103431
0.000133807
0.00022302
0.000247645
0.000216956
0.000147143
0.000110174
0.000102117
0.000100065
0.000100306
0.000100227
9.72128e-05
0.000100705
0.000121248
0.000196788
0.000250705
0.000235677
0.000173191
0.000120142
0.000103342
9.95517e-05
9.90871e-05
0.000100008
0.000100086
9.68287e-05
9.88574e-05
0.000112324
0.000168512
0.000246924
0.000246265
0.000201448
0.000137626
0.000106985
9.97364e-05
9.76443e-05
9.85793e-05
9.97878e-05
0.000100012
9.66716e-05
9.75746e-05
0.000106309
0.000144902
0.000235665
0.000252628
0.000224828
0.000160452
0.000115724
0.000100852
9.72998e-05
9.65241e-05
9.82811e-05
9.96624e-05
9.99698e-05
9.66932e-05
9.65091e-05
0.000102193
0.000129579
0.000214133
0.000257192
0.000240709
0.000184406
0.000129942
0.000104262
9.75185e-05
9.54987e-05
9.58938e-05
9.81796e-05
9.95845e-05
9.99325e-05
9.67674e-05
9.55446e-05
9.92899e-05
0.000118601
0.000187413
0.000255507
0.000250964
0.000208281
0.000148178
0.000111914
9.86793e-05
9.53324e-05
9.43405e-05
9.56288e-05
9.81848e-05
9.95163e-05
9.98984e-05
9.6848e-05
9.48153e-05
9.7293e-05
0.00011084
0.000162303
0.000247985
0.000256939
0.000228065
0.000169575
0.000123081
0.000102098
9.55976e-05
9.36832e-05
9.36667e-05
9.5608e-05
9.82115e-05
9.94594e-05
9.98567e-05
9.69222e-05
9.42609e-05
9.58749e-05
0.000105562
0.000142565
0.000231692
0.000263327
0.00024324
0.000190301
0.000138004
0.00010859
9.68575e-05
9.36288e-05
9.25608e-05
9.3344e-05
9.57131e-05
9.82577e-05
9.94096e-05
9.97966e-05
9.70008e-05
9.38613e-05
9.48571e-05
0.000101943
0.000129349
0.000208667
0.000263691
0.00025536
0.000210882
0.000155322
0.000117467
0.000100306
9.39663e-05
9.21523e-05
9.18507e-05
9.33091e-05
9.59053e-05
9.82975e-05
9.93567e-05
9.97196e-05
9.71083e-05
9.36038e-05
9.41495e-05
9.9487e-05
0.000119857
0.000183576
0.00025964
0.000261874
0.000229599
0.000174381
0.000128929
0.000105695
9.53833e-05
9.21667e-05
9.11012e-05
9.15209e-05
9.34629e-05
9.6111e-05
9.83336e-05
9.92836e-05
9.96249e-05
9.72436e-05
9.34713e-05
9.3684e-05
9.78425e-05
0.000113186
0.000161645
0.000248178
0.00026882
0.000245861
0.0001938
0.000143232
0.000112538
9.86914e-05
9.26165e-05
9.09046e-05
9.04738e-05
9.14864e-05
9.37184e-05
9.63006e-05
9.8353e-05
9.91787e-05
9.95094e-05
9.74275e-05
9.34566e-05
9.34179e-05
9.67615e-05
0.000108618
0.00014477
0.000227053
0.000271541
0.000259071
0.000212372
0.000160109
0.000121574
0.000103027
9.42054e-05
9.09997e-05
9.00292e-05
9.01887e-05
9.16309e-05
9.40338e-05
9.64786e-05
9.83275e-05
9.90193e-05
9.93822e-05
9.76891e-05
9.35686e-05
9.33101e-05
9.60771e-05
0.000105535
0.000132767
0.000203293
0.000268903
0.000267054
0.000230896
0.000178078
0.000133389
0.000108577
9.72522e-05
9.1619e-05
8.99815e-05
8.95171e-05
9.01535e-05
9.19361e-05
9.4386e-05
9.66054e-05
9.82275e-05
9.88155e-05
9.92545e-05
9.79883e-05
9.38082e-05
9.33308e-05
9.56459e-05
0.000103455
0.000124492
0.000180885
0.000260382
0.000273298
0.000247868
0.000196595
0.000148058
0.000115918
0.000100877
9.34712e-05
9.01775e-05
8.93212e-05
8.93036e-05
9.03496e-05
9.239e-05
9.46958e-05
9.66483e-05
9.80567e-05
9.85831e-05
9.91525e-05
9.83288e-05
9.41277e-05
9.34991e-05
9.53967e-05
0.00010201
0.000118693
0.000162256
0.000242459
0.000276795
0.000261594
0.000214001
0.000164797
0.00012577
0.000105527
9.60611e-05
9.10578e-05
8.93657e-05
8.89819e-05
8.9385e-05
9.0766e-05
9.28772e-05
9.49349e-05
9.66161e-05
9.78324e-05
9.83285e-05
9.91037e-05
9.8735e-05
9.45238e-05
9.37803e-05
9.53539e-05
0.000100979
0.000114496
0.000147988
0.000220622
0.000275323
0.000270384
0.000232325
0.000182223
0.000138452
0.000111663
9.92749e-05
9.29622e-05
8.97427e-05
8.89819e-05
8.90016e-05
8.97038e-05
9.13462e-05
9.33647e-05
9.51205e-05
9.65297e-05
9.75605e-05
9.80968e-05
9.91371e-05
9.92034e-05
9.50191e-05
9.41247e-05
9.54475e-05
0.000100293
0.000111464
0.000137565
0.00019865
0.000269169
0.000275812
0.000248531
0.00020024
0.000153635
0.000119971
0.000103228
9.53049e-05
9.09491e-05
8.91646e-05
8.90187e-05
8.9334e-05
9.0271e-05
9.2062e-05
9.38556e-05
9.52567e-05
9.63857e-05
9.73137e-05
9.80252e-05
9.9309e-05
9.96987e-05
9.56094e-05
9.45467e-05
9.56628e-05
9.99018e-05
0.000109319
0.000130152
0.000179147
0.00025526
0.000280137
0.000262805
0.000217605
0.00017056
0.000131011
0.000108602
9.8138e-05
9.27978e-05
8.98639e-05
8.919e-05
8.94022e-05
9.00105e-05
9.10584e-05
9.28724e-05
9.43662e-05
9.53549e-05
9.62745e-05
9.72294e-05
9.82609e-05
9.97327e-05
0.000100213
9.62904e-05
9.50591e-05
9.59667e-05
9.97575e-05
0.000107886
0.00012488
0.000163527
0.000235576
0.000279683
0.000272237
0.000234405
0.000187954
0.000144927
0.000115867
0.000101887
9.50497e-05
9.14108e-05
8.97128e-05
8.96625e-05
9.01768e-05
9.10513e-05
9.21935e-05
9.37433e-05
9.48955e-05
9.55236e-05
9.62851e-05
9.74984e-05
9.90539e-05
0.00010052
0.000100729
9.70002e-05
9.56466e-05
9.63627e-05
9.97907e-05
0.000106993
0.00012112
0.000151844
0.000214908
0.000275763
0.000277522
0.000249459
0.000205427
0.000161135
0.000125872
0.000106817
9.79685e-05
9.3385e-05
9.10239e-05
9.02606e-05
9.06443e-05
9.13639e-05
9.23779e-05
9.37107e-05
9.49101e-05
9.56394e-05
9.60558e-05
9.67193e-05
9.8355e-05
0.000100739
0.000101943
0.000101198
9.76959e-05
9.62862e-05
9.68509e-05
9.99281e-05
0.000106435
0.00011854
0.000143392
0.000195862
0.000265939
0.00028262
0.000263539
0.000222277
0.000178682
0.000138986
0.000113878
0.000101794
9.59615e-05
9.2928e-05
9.16134e-05
9.14645e-05
9.21728e-05
9.30256e-05
9.41502e-05
9.53546e-05
9.61787e-05
9.65553e-05
9.70721e-05
9.81936e-05
0.000100571
0.000103672
0.000103264
0.000101621
9.83738e-05
9.69268e-05
9.74002e-05
0.000100174
0.000106079
0.000116825
0.000137416
0.00018007
0.000249839
0.000283719
0.000273786
0.000237995
0.000196612
0.000154956
0.00012354
0.000107225
9.93446e-05
9.54932e-05
9.36488e-05
9.30614e-05
9.3432e-05
9.43995e-05
9.52768e-05
9.64941e-05
9.74188e-05
9.7831e-05
9.81859e-05
9.89137e-05
0.000101039
0.000104264
0.000106442
0.000104227
0.000101979
9.90356e-05
9.75504e-05
9.79326e-05
0.000100478
0.00010587
0.000115632
0.000133307
0.000167965
0.000232252
0.000282083
0.000279859
0.000252661
0.00021411
0.000173248
0.000136532
0.000114587
0.000104054
9.88936e-05
9.64459e-05
9.54273e-05
9.55497e-05
9.63037e-05
9.74811e-05
9.8388e-05
9.95538e-05
0.000100435
0.000100528
0.000100741
0.000102046
0.000104832
0.000107999
0.000108816
0.000102476
0.000106993
0.000102315
9.96715e-05
9.81818e-05
9.8435e-05
0.000100785
0.000105774
0.000114779
0.000130449
0.0001592
0.00021528
0.000277361
0.000285637
0.000266205
0.000230817
0.000192746
0.000153143
0.000125063
0.000110495
0.000103757
0.00010019
9.87828e-05
9.86582e-05
9.9237e-05
0.000100298
0.000101862
0.00010259
0.000103134
0.000103267
0.000103177
0.000103755
0.000105893
0.000109461
0.000112435
0.000109758
0.000111969
0.000102899
0.000107565
0.000102509
0.000100284
9.88189e-05
9.89543e-05
0.000101093
0.000105808
0.000114165
0.00012831
0.000153056
0.000200511
0.000267293
0.000290589
0.000277473
0.000246501
0.00021249
0.00017304
0.000139234
0.000119833
0.000110645
0.000105612
0.000103351
0.000102913
0.000103239
0.000104548
0.000105268
0.00010593
0.000106109
0.000106347
0.000106251
0.00010619
0.000107715
0.000110823
0.000112927
0.000113509
0.000114474
0.000114674
0.00011656
0.000110646
0.000113648
0.000103188
0.000108182
0.000102602
0.000100772
9.94032e-05
9.94803e-05
0.000101429
0.000105935
0.00011374
0.000126641
0.000148651
0.000188601
0.000254422
0.000292304
0.000285733
0.00026096
0.000231825
0.00019579
0.000157914
0.000132917
0.000120672
0.000113402
0.000110107
0.000109277
0.000109748
0.000109982
0.000109732
0.000109617
0.000109895
0.000109585
0.000109578
0.000109881
0.000110557
0.000113372
0.000114493
0.000115653
0.000116212
0.000116506
0.000119437
0.000119261
0.000111951
0.000115408
0.000103567
0.000108931
0.000102594
0.000101138
9.98725e-05
9.99747e-05
0.00010177
0.00010611
0.000113485
0.000125351
0.000145252
0.000179461
0.000241128
0.000292155
0.000293613
0.000274486
0.000250327
0.000220142
0.000181535
0.000151463
0.00013493
0.000125106
0.00012025
0.000118008
0.000116254
0.00011564
0.000115355
0.000114605
0.000113798
0.00011393
0.000113974
0.000113897
0.000114535
0.00011704
0.000117435
0.000119657
0.000118025
0.000119721
0.000121562
0.000118845
0.000121769
0.00012222
0.000113137
0.000117347
0.000104043
0.000109694
0.000102432
0.000101374
0.000100196
0.000100401
0.000102093
0.000106278
0.000113328
0.00012438
0.000142551
0.000172534
0.000228128
0.000290866
0.000302686
0.000287238
0.000267555
0.000244767
0.000209466
0.000176522
0.000155605
0.000142539
0.000135658
0.000129992
0.000125784
0.000123184
0.000121452
0.00012037
0.000119586
0.000118306
0.000118069
0.00011866
0.000119678
0.000121782
0.000122079
0.000126914
0.000122538
0.000125489
0.000123629
0.000125987
0.000124109
0.000121545
0.000125343
0.000125531
0.000114482
0.000119594
0.000104534
0.000110448
0.00010211
0.000101397
0.000100366
0.000100706
0.000102394
0.000106416
0.000113224
0.000123635
0.00014038
0.000167171
0.000216454
0.00028602
0.000311351
0.000299333
0.000283628
0.000268773
0.000241118
0.000208595
0.000184533
0.000169304
0.000157956
0.000147918
0.000139184
0.000133115
0.000129539
0.000127066
0.000125811
0.000124992
0.000123882
0.000123491
0.000125902
0.000133082
0.000133589
0.000148394
0.000131872
0.000146595
0.000130051
0.000140721
0.000126699
0.000132626
0.000128424
0.000124605
0.000129031
0.000128699
0.000116012
0.000122119
0.000105036
0.000111241
0.000101669
0.000101138
0.000100369
0.000100838
0.000102631
0.000106532
0.000113145
0.000123011
0.000138592
0.000162981
0.000206372
0.000276963
0.00031858
0.000312351
0.00029884
0.000291006
0.00027419
0.000246837
0.000222717
0.00020429
0.000188641
0.000172772
0.000158341
0.00014645
0.000138736
0.000134091
0.00013186
0.000131291
0.00013145
0.00013243
0.000135497
0.000158035
0.000176438
0.000241963
0.000181731
0.000259449
0.000171016
0.000248514
0.000150694
0.000207075
0.000136121
0.000163258
0.000138042
0.000127427
0.000138161
0.000136047
0.000117817
0.000124721
0.000105509
0.000112104
0.000101052
0.0001006
0.000100158
0.000100811
0.000102733
0.000106612
0.00011306
0.000122506
0.000137031
0.000159607
0.000197797
0.00026697
0.000324377
0.000327146
0.000313816
0.000311365
0.000306547
0.000288077
0.000268114
0.000256658
0.000243881
0.000223517
0.000196722
0.000172424
0.000154877
0.000143824
0.000137948
0.000136274
0.000137203
0.000140476
0.000146849
0.000204015
0.000317789
0.00047555
0.000412152
0.000683568
0.000423815
0.000767613
0.000358323
0.00069018
0.00025557
0.000506546
0.000173964
0.000305644
0.000179312
0.000132065
0.000176841
0.000166607
0.000120029
0.000126886
0.000105906
0.000113258
0.000100184
9.97511e-05
9.97088e-05
0.000100652
0.000102703
0.00010659
0.000112919
0.000122104
0.000135673
0.000156691
0.000190715
0.000255563
0.000327812
0.000342947
0.000329679
0.000329993
0.000337227
0.000330364
0.000325196
0.00033918
0.000356364
0.000342348
0.000297987
0.000240835
0.000193736
0.000164409
0.000148836
0.000142111
0.000141219
0.000145425
0.0001529
0.000257583
0.000589924
0.000817199
0.00100925
0.00147101
0.00131374
0.00203856
0.00133476
0.00228484
0.00106375
0.00209072
0.000675547
0.00150012
0.000345565
0.000828664
0.000361132
0.00015181
0.000346611
0.000302649
0.000121203
0.000136686
0.000106201
0.00011419
9.91166e-05
9.85656e-05
9.90365e-05
0.000100362
0.000102603
0.000106446
0.00011267
0.000121681
0.000134588
0.000154068
0.000184879
0.000243185
0.00032741
0.000358926
0.000347585
0.000347248
0.000364783
0.000376155
0.000402064
0.000481015
0.000565169
0.000603404
0.000551324
0.00043028
0.000314444
0.000223038
0.000174832
0.000154029
0.000146984
0.000148766
0.00015689
0.000245559
0.000921993
0.00114673
0.00191847
0.00243982
0.00288206
0.00375095
0.00342984
0.00462463
0.00345322
0.00488739
0.00293084
0.00458699
0.00193108
0.00370026
0.000933022
0.00225849
0.000956521
0.000240421
0.000891229
0.0007477
0.000124026
0.000182026
0.000106336
0.000114449
9.80223e-05
9.7432e-05
9.83005e-05
9.99304e-05
0.000102465
0.000106254
0.000112306
0.000121197
0.000133646
0.00015182
0.000179919
0.000231399
0.000320421
0.000373924
0.000368176
0.000364191
0.000388498
0.00042403
0.000508871
0.000703095
0.000983245
0.00127849
0.00128531
0.00102337
0.000674827
0.000411397
0.000260595
0.000186603
0.000159849
0.000154258
0.000160275
0.000253918
0.00118993
0.000872511
0.002839
0.00331692
0.00461052
0.00535266
0.00573606
0.00672243
0.00621281
0.0073723
0.0061473
0.00751359
0.00553775
0.00717618
0.00430606
0.00628322
0.00242187
0.00468659
0.00239582
0.000549528
0.00218737
0.00182466
0.000140972
0.000358211
0.000105959
0.000117706
9.74548e-05
9.70177e-05
9.78115e-05
9.95596e-05
0.000102446
0.00010605
0.000111855
0.000120691
0.000132763
0.00014998
0.00017569
0.000220723
0.000307313
0.000385262
0.000391003
0.000382097
0.000408277
0.000469317
0.000623625
0.00101476
0.00171196
0.00248141
0.00289674
0.00269591
0.00191744
0.00104415
0.000530714
0.000294687
0.000198121
0.000167427
0.000166207
0.000247978
0.00248594
0.00352387
0.00424907
0.0060368
0.00656339
0.00755821
0.00825073
0.00835631
0.0091912
0.00870282
0.00974545
0.00862725
0.00986246
0.00805094
0.00955626
0.00683805
0.00874957
0.00481298
0.00717379
0.00470961
0.00135022
0.00435113
0.00372281
0.000210829
0.000843102
0.000105959
0.000137432
9.83617e-05
9.79562e-05
9.82131e-05
9.97325e-05
0.000102652
0.000106087
0.000111526
0.000120214
0.000131961
0.000148429
0.00017219
0.000211254
0.000291528
0.000389997
0.000414811
0.00040249
0.00042436
0.00050463
0.000727697
0.00134778
0.00252583
0.00389741
0.00463273
0.00458799
0.00391611
0.00273244
0.00139947
0.00062556
0.000319172
0.000208668
0.000180298
0.000239732
0.00213104
0.00742976
0.00745637
0.00703557
0.00732448
0.00881493
0.00927529
0.0099041
0.0104926
0.0106117
0.0113152
0.0107954
0.0114188
0.0106097
0.0112288
0.0102027
0.0109476
0.00928119
0.010527
0.00725283
0.00954413
0.00713382
0.00287544
0.0067411
0.00603505
0.000438769
0.00191731
0.000110181
0.00022039
0.000101071
0.000102978
0.000102023
0.000101878
0.00010373
0.000106376
0.000111603
0.000120243
0.000131585
0.000147109
0.000169244
0.000203432
0.000273564
0.000387571
0.000437556
0.000426365
0.000438083
0.000524631
0.000800713
0.00162842
0.00328968
0.00507888
0.0058324
0.00585025
0.00543688
0.00457058
0.00322617
0.00166066
0.000673426
0.000335791
0.000222085
0.000245921
0.0014741
0.00737255
0.00717692
0.00999558
0.0100513
0.00963121
0.00986825
0.0109716
0.0113589
0.0118461
0.012285
0.0118625
0.012194
0.0115716
0.0118308
0.0112858
0.0114299
0.011017
0.011169
0.0107106
0.0110389
0.00959995
0.0107888
0.00942381
0.00499878
0.00899877
0.00824794
0.00101473
0.00367862
0.000143495
0.000492092
0.000105957
0.000118735
0.00011732
0.000111192
0.000107869
0.000107752
0.000112023
0.000120515
0.00013171
0.0001462
0.000166656
0.000197171
0.000256085
0.000372937
0.000455761
0.000453497
0.000451699
0.000531576
0.000829146
0.00179453
0.0038478
0.00574532
0.00631941
0.00637678
0.00605471
0.00550524
0.00465894
0.0033219
0.00172916
0.000679729
0.00034699
0.000282938
0.00121068
0.00667572
0.00532821
0.0100444
0.00998275
0.0118919
0.0118779
0.0116436
0.0118212
0.0126726
0.0130269
0.0125007
0.0128012
0.0119699
0.0120183
0.0113362
0.0110435
0.0109484
0.0104699
0.010886
0.0103394
0.0110007
0.0105505
0.0108061
0.0109813
0.0107253
0.00722427
0.0105046
0.0100182
0.00218984
0.00580488
0.000239235
0.00107042
0.000108826
0.000138632
0.00014954
0.000137415
0.000120869
0.00011265
0.000113642
0.000121329
0.000132156
0.000146178
0.000164454
0.000192168
0.000240815
0.000349269
0.000464393
0.000481954
0.000468399
0.000528408
0.00082157
0.00183533
0.0041343
0.00602542
0.00646728
0.00631723
0.00592929
0.00551388
0.00505823
0.00441698
0.00321714
0.00168874
0.000661179
0.000395023
0.000963709
0.00696487
0.00973667
0.0101032
0.0118143
0.0116695
0.0137982
0.0138337
0.013347
0.0136185
0.0131134
0.0134451
0.0120158
0.0120693
0.0106247
0.0102192
0.00992158
0.00949274
0.00980534
0.00954078
0.00982147
0.00958031
0.0102874
0.00952268
0.0110024
0.0101809
0.0110117
0.00918822
0.0109637
0.0108095
0.00392732
0.00788344
0.000487898
0.0021361
0.000134843
0.00016717
0.000174937
0.000153762
0.000126808
0.000118675
0.000123381
0.000133167
0.000146456
0.000162904
0.000188093
0.000228572
0.000322617
0.000463119
0.000509525
0.00049049
0.000521322
0.000773416
0.00178334
0.00417955
0.00609243
0.00638593
0.00587538
0.00521371
0.00495527
0.00486497
0.00457931
0.00405409
0.00293432
0.001557
0.000673629
0.000888394
0.00510875
0.0108093
0.0104866
0.0113816
0.0111866
0.0137765
0.0135764
0.0145978
0.0149916
0.0138142
0.014207
0.0122219
0.0124964
0.00989725
0.00977025
0.00912246
0.00881393
0.00931621
0.00905432
0.00950785
0.00944145
0.00944424
0.0096001
0.0093502
0.00933911
0.0102579
0.00927485
0.0105037
0.0104024
0.010812
0.0109547
0.00587836
0.00949884
0.00105655
0.00362889
0.000150945
0.000184795
0.000192631
0.000162388
0.000131905
0.000128276
0.000135195
0.000147237
0.000161853
0.000184824
0.00021898
0.000296141
0.000447915
0.000530889
0.000517847
0.000518719
0.000696102
0.00157575
0.00404929
0.00607095
0.00623538
0.00506195
0.00408466
0.0041415
0.0043134
0.00441113
0.00422917
0.00369257
0.00260107
0.0014634
0.00101479
0.00352475
0.0100684
0.00914445
0.0124447
0.0120369
0.0132549
0.0128854
0.0153092
0.0154042
0.0142967
0.0150476
0.0129589
0.0135743
0.00982913
0.010087
0.00860919
0.0085674
0.00878702
0.00858251
0.00932913
0.00922343
0.00983635
0.0100697
0.00976105
0.0104504
0.0092445
0.00991957
0.00930344
0.00916435
0.00951497
0.0109013
0.0100391
0.0103741
0.0108465
0.00766111
0.0104203
0.0018601
0.00514158
0.000157693
0.000196918
0.000203941
0.000164823
0.000139392
0.000139295
0.000148696
0.00016162
0.000181891
0.000212068
0.000272328
0.000414459
0.000540034
0.000548296
0.000523826
0.000628352
0.00128902
0.00359968
0.00597476
0.00614254
0.00447507
0.00314961
0.00338867
0.00385278
0.00412901
0.00421279
0.003978
0.00331388
0.00234265
0.00162565
0.00299145
0.00904573
0.0113881
0.0111676
0.0146667
0.0141181
0.0153462
0.0151077
0.0157504
0.0163723
0.0127068
0.0139883
0.0106832
0.0115811
0.00860568
0.00867118
0.00849024
0.00851741
0.00916732
0.00922909
0.0102294
0.0104155
0.0110304
0.0114835
0.0109787
0.0119846
0.00995527
0.0113714
0.00905535
0.00995694
0.0093952
0.00923417
0.00897815
0.010645
0.0109108
0.0108626
0.00967708
0.009069
0.00896982
0.0099675
0.00898589
0.0109708
0.0109543
0.0104887
0.00242675
0.00645728
0.000162802
0.000209195
0.000210813
0.000165867
0.000147538
0.000151584
0.000161879
0.000179344
0.000206479
0.000253129
0.000376251
0.000538275
0.00057719
0.000540697
0.000579868
0.00102534
0.00291515
0.00573064
0.00607921
0.00430309
0.00246635
0.00262772
0.00328767
0.00384849
0.00417348
0.00417579
0.0037684
0.00302318
0.00240741
0.00305573
0.00800793
0.0122239
0.0110927
0.0134436
0.0127715
0.0170173
0.0168162
0.0168507
0.017042
0.0152822
0.0164607
0.0110589
0.0127243
0.00896216
0.00971232
0.0085285
0.00832508
0.0093836
0.00937528
0.0106362
0.0108051
0.0116961
0.0117381
0.0125743
0.0125472
0.0127068
0.0130136
0.0132823
0.0106501
0.0115264
0.0130675
0.012244
0.00982979
0.00911656
0.00963306
0.0105685
0.00897398
0.010324
0.010665
0.00924193
0.00890141
0.0089246
0.0095466
0.0108151
0.00902033
0.0103899
0.0109342
0.0110483
0.00276693
0.00965306
0.00848099
0.00631526
0.000174712
0.000225081
0.000210688
0.000165372
0.0001569
0.00016298
0.000176454
0.000202385
0.000238341
0.000337658
0.000521634
0.000598139
0.000566706
0.000555133
0.000814255
0.00221785
0.00526357
0.006009
0.00434549
0.00216759
0.00195379
0.00260261
0.0035538
0.00419933
0.00451376
0.00431713
0.00368222
0.00308455
0.00336225
0.00712728
0.0115951
0.0147651
0.014337
0.0162869
0.0156633
0.0188805
0.0191617
0.0174854
0.0183067
0.0144596
0.0161247
0.0101252
0.0119638
0.00832446
0.0088001
0.00890598
0.00821373
0.0105484
0.00987835
0.0117362
0.0114353
0.0123633
0.0121985
0.0132466
0.0131327
0.0129262
0.0127249
0.0135827
0.0140426
0.013667
0.0136871
0.0114422
0.0123197
0.0138059
0.013131
0.0103945
0.00939229
0.0101414
0.0113072
0.00917676
0.00995288
0.0104011
0.00897093
0.00896772
0.0088561
0.00917259
0.0110347
0.0108299
0.0108241
0.0111234
0.00686234
0.00119748
0.00409984
0.0102585
0.00909362
0.00019842
0.000248407
0.000203527
0.000167326
0.00016574
0.000174575
0.000198185
0.000228947
0.000303773
0.000479625
0.00060541
0.000598747
0.00055137
0.000668838
0.00160299
0.00449431
0.00589665
0.00452205
0.00217579
0.00151782
0.00192035
0.00299258
0.00415059
0.0048129
0.00504323
0.00458148
0.00390788
0.0040211
0.00667725
0.0103444
0.0171501
0.0156625
0.0184474
0.0178155
0.0191423
0.0189505
0.0200641
0.0208828
0.0176329
0.0189647
0.0139109
0.0158304
0.00958712
0.0114846
0.00787344
0.00827169
0.00873119
0.00738663
0.0105968
0.00898726
0.0118473
0.0106736
0.0124558
0.0122953
0.0118589
0.0114492
0.0135341
0.0132335
0.0129073
0.0125426
0.0142706
0.0144459
0.0140753
0.0139483
0.0122276
0.0131043
0.0144507
0.013864
0.011077
0.00984304
0.0107486
0.0120372
0.00951136
0.00956727
0.0101049
0.00884981
0.00917702
0.00891751
0.00893765
0.0112592
0.0112643
0.0106759
0.0111942
0.00705908
0.000538321
0.00311169
0.0108621
0.0096366
0.000239338
0.000259606
0.000188993
0.00017119
0.000174693
0.00019331
0.000222202
0.000278019
0.000430096
0.000602433
0.000629523
0.000563254
0.000585076
0.00112561
0.00343866
0.00566519
0.0048897
0.00232522
0.00140937
0.00141501
0.00219653
0.00379218
0.00485839
0.00560735
0.00570584
0.00510539
0.00490192
0.00675604
0.00943899
0.0169024
0.0209644
0.0209597
0.0216904
0.0215278
0.0214233
0.021697
0.0207223
0.0219316
0.0176424
0.0192795
0.0135172
0.0155458
0.0087006
0.0106062
0.00680166
0.00720209
0.00672516
0.00531176
0.00853876
0.00574007
0.0107337
0.00989652
0.00878463
0.0074239
0.0121748
0.0117032
0.011119
0.0103328
0.013583
0.0131232
0.0126056
0.0120799
0.0147572
0.014365
0.0147755
0.0139914
0.0129626
0.0137977
0.01497
0.0144837
0.0117436
0.0103753
0.01137
0.0127206
0.00994697
0.00923371
0.00980337
0.00880727
0.0095039
0.00911237
0.00882859
0.0115343
0.011707
0.0105178
0.0112506
0.00682713
0.000272483
0.00214701
0.0114373
0.00991475
0.000285759
0.000240822
0.000181114
0.000176168
0.000188457
0.000217215
0.000259207
0.000381134
0.000585457
0.000651086
0.000594056
0.000549688
0.000807249
0.00238142
0.00521699
0.00522104
0.00277587
0.0014732
0.0011835
0.0015147
0.00277986
0.00458517
0.00572618
0.00659009
0.0066485
0.00620115
0.00714224
0.00938747
0.0152464
0.0231971
0.022097
0.024057
0.0238246
0.0240024
0.0241443
0.0228833
0.0235807
0.0208996
0.0222935
0.0174957
0.0192963
0.0126515
0.0147336
0.00722511
0.00901844
0.00501918
0.00564571
0.00356248
0.00292313
0.00476977
0.00239814
0.00943259
0.0083858
0.00731431
0.00619296
0.011502
0.0107994
0.00993
0.0089304
0.0134307
0.0127479
0.0120406
0.0113109
0.0151133
0.014488
0.0149982
0.0138922
0.0136063
0.014375
0.0153682
0.0149969
0.0123747
0.0109333
0.0119527
0.0133108
0.0104306
0.00901413
0.0095324
0.00885222
0.00990194
0.00939176
0.0087979
0.0118308
0.0121435
0.0103705
0.0113001
0.00635033
0.000142565
0.00112891
0.011911
0.0100215
0.000299567
0.000204632
0.000179879
0.000185406
0.000211512
0.000246783
0.000339188
0.000541521
0.000657464
0.00062754
0.000545103
0.00062467
0.00155802
0.00436135
0.00535457
0.00348917
0.00173299
0.00118809
0.00115626
0.001799
0.00344383
0.00539871
0.0067925
0.0078702
0.00808862
0.00806166
0.00972735
0.0148101
0.022504
0.025184
0.0250194
0.0256032
0.0255362
0.0250765
0.0254769
0.0234735
0.0244096
0.0203294
0.0218177
0.0167584
0.0186382
0.0109774
0.0130399
0.00499126
0.00651066
0.0029145
0.00365481
0.00164534
0.00146873
0.00331713
0.00234058
0.00142957
0.0018086
0.0078432
0.00671187
0.00555835
0.00441269
0.0104893
0.00952463
0.00845057
0.00733186
0.0130708
0.0121626
0.0112339
0.0102737
0.0154129
0.0144793
0.0151309
0.0136257
0.0141306
0.0148454
0.0156912
0.0154143
0.012911
0.0114657
0.0124502
0.0137743
0.0109105
0.00891863
0.00933161
0.0089908
0.0103178
0.00971735
0.00883333
0.0121193
0.0125536
0.0102159
0.0113158
0.00557367
0.000186711
0.00103173
0.0123064
0.010031
0.000273701
0.000187666
0.000184932
0.000205136
0.000236483
0.00030802
0.000486887
0.000654495
0.000659916
0.000561345
0.000538645
0.0010035
0.00314503
0.00525206
0.00417916
0.00238612
0.00136823
0.00109615
0.00121604
0.00213077
0.00399258
0.00636872
0.00813322
0.00952346
0.0101698
0.0109146
0.0150523
0.0212315
0.0243327
0.0235939
0.0255258
0.0251296
0.0256699
0.0256832
0.0249033
0.0254189
0.0230858
0.0241219
0.0187188
0.0202506
0.0150709
0.0169816
0.00829243
0.0102546
0.00249245
0.00358942
0.00147022
0.00178211
0.00128086
0.0011186
0.00102524
0.00254759
0.00203577
0.0014285
0.00167803
0.00622604
0.00515914
0.0041446
0.00325052
0.00920885
0.00807187
0.00693895
0.00587638
0.0125817
0.011439
0.010286
0.00910605
0.0156737
0.0144446
0.0152869
0.0134108
0.0145422
0.0152229
0.0159875
0.0157574
0.0133235
0.0119224
0.0128195
0.0141135
0.01133
0.0089012
0.00922365
0.00920298
0.0106932
0.0100405
0.00891481
0.0123606
0.0129298
0.0100621
0.0112959
0.0047936
0.00142563
0.00159704
0.012649
0.00993043
0.000225127
0.000186621
0.000198017
0.000229781
0.000283696
0.000433136
0.000639722
0.000685114
0.000602425
0.000512438
0.000684137
0.00202357
0.00472548
0.00470567
0.00306661
0.00199559
0.0012165
0.00106121
0.00131289
0.00236014
0.0045021
0.00746968
0.00968804
0.0114796
0.0131025
0.015987
0.0204443
0.022134
0.0234861
0.0228161
0.0244977
0.0241762
0.0244626
0.0245728
0.0234875
0.024107
0.0215587
0.0226383
0.0159216
0.0174994
0.0122388
0.0141521
0.00501875
0.00669341
0.00125644
0.00167139
0.00095432
0.00103305
0.00124359
0.00110635
0.00102479
0.000902777
0.00241234
0.00210428
0.00167377
0.00188351
0.00490855
0.00405545
0.00335475
0.00282547
0.00789327
0.00673384
0.00570904
0.00484437
0.0121058
0.0107241
0.00936285
0.00805266
0.0159486
0.014458
0.0155423
0.0132636
0.0148561
0.015518
0.0162906
0.0160382
0.0135862
0.0122439
0.0130066
0.0143279
0.0116224
0.00892707
0.00918072
0.00944027
0.0109635
0.0102732
0.00903112
0.0125489
0.0132514
0.00993174
0.0112558
0.00486609
0.00209637
0.00332724
0.01289
0.00991228
0.000197837
0.000194266
0.000222658
0.000266475
0.000383852
0.000602367
0.000695673
0.000642008
0.000516021
0.000528277
0.00123028
0.00361289
0.00484089
0.00368278
0.00278508
0.00178678
0.00113959
0.00104306
0.00135551
0.00247479
0.00478268
0.00831248
0.0112389
0.0135128
0.0160862
0.0195095
0.0203729
0.020048
0.0194978
0.0213966
0.020692
0.0221725
0.0219181
0.0220631
0.0222195
0.020948
0.0216359
0.0188673
0.0200202
0.0121018
0.0137313
0.00850553
0.0103365
0.00231458
0.00331239
0.000794522
0.000927761
0.000834609
0.000790749
0.000761104
0.00144701
0.00121568
0.00123656
0.000949355
0.00285007
0.00273281
0.00232093
0.00257462
0.00415199
0.00363503
0.00324521
0.0029882
0.00683931
0.0058192
0.00503239
0.00445834
0.0118208
0.0102682
0.00876187
0.00742498
0.0162761
0.0147097
0.0159441
0.013437
0.015058
0.0157154
0.0165689
0.0162415
0.0137144
0.0123821
0.0130375
0.0144377
0.0117237
0.00896303
0.00917931
0.00961612
0.0110178
0.0103274
0.00911719
0.0126764
0.0134869
0.0098422
0.011189
0.00541891
0.00611033
0.00613854
0.0128825
0.00997782
0.000193788
0.000217029
0.000251658
0.000345988
0.000551151
0.000694867
0.000673165
0.000547128
0.000470589
0.000759323
0.0023836
0.00465315
0.00419265
0.00333576
0.00271744
0.00160935
0.00108561
0.00101028
0.00134916
0.00249935
0.00482793
0.0086186
0.012247
0.0150842
0.0174652
0.0181347
0.0165887
0.0171472
0.0164207
0.018509
0.0178841
0.0190977
0.0189163
0.0188115
0.0190742
0.0174886
0.018281
0.0151939
0.0164543
0.00777234
0.00935378
0.0046347
0.00617216
0.00115426
0.00151884
0.000678524
0.000673838
0.000670591
0.000825424
0.00077737
0.000683203
0.000706551
0.00198808
0.00160426
0.0017624
0.00120962
0.00402276
0.00399338
0.00351127
0.00384983
0.00409112
0.0039148
0.00391263
0.00396625
0.00632419
0.00553181
0.00502754
0.00482624
0.0118701
0.010177
0.00860601
0.00734009
0.0166149
0.0151927
0.0164784
0.0140269
0.0151616
0.0158227
0.0167674
0.016371
0.0136882
0.0122991
0.0128328
0.0143875
0.0115377
0.00901623
0.00920903
0.00968324
0.0107719
0.0101279
0.00920739
0.0127398
0.0135329
0.00982108
0.0111241
0.00678502
0.00987549
0.0105381
0.0127812
0.0102117
0.000202013
0.000246325
0.000312394
0.000501597
0.000685617
0.000699874
0.000595562
0.000463759
0.000523992
0.00142613
0.00381705
0.00442403
0.00372078
0.00337331
0.0026404
0.00148534
0.00103228
0.000928118
0.00127246
0.00236366
0.00458307
0.00791675
0.0113232
0.0132402
0.0142388
0.0130473
0.0118322
0.0107813
0.0138158
0.012907
0.0150843
0.0145447
0.015463
0.0153958
0.0148974
0.0152938
0.0133274
0.0142303
0.010862
0.0121943
0.00389776
0.00514177
0.00206194
0.00282736
0.000734686