/*--------------------------------*- C++ -*----------------------------------*\
  =========                 |
  \\      /  F ield         | OpenFOAM: The Open Source CFD Toolbox
   \\    /   O peration     | Website:  https://openfoam.org
    \\  /    A nd           | Version:  dev
     \\/     M anipulation  |
\*---------------------------------------------------------------------------*/
FoamFile
{
    version     2.0;
    format      ascii;
    class       volScalarField;
    location    "2500";
    object      N2;
}
// * * * * * * * * * * * * * * * * * * * * * * * * * * * * * * * * * * * * * //

dimensions      [0 0 0 0 0 0 0];

internalField   nonuniform List<scalar> 
9851
(
0.76699
0.76699
0.76699
0.76699
0.76699
0.76699
0.76699
0.76699
0.76699
0.76699
0.76699
0.76699
0.76699
0.76699
0.76699
0.76699
0.76699
0.76699
0.76699
0.76699
0.76699
0.76699
0.76699
0.76699
0.76699
0.76699
0.76699
0.76699
0.76699
0.76699
0.76699
0.76699
0.76699
0.76699
0.76699
0.76699
0.76699
0.76699
0.76699
0.76699
0.76699
0.76699
0.76699
0.76699
0.76699
0.76699
0.76699
0.76699
0.76699
0.76699
0.76699
0.76699
0.76699
0.76699
0.76699
0.76699
0.76699
0.76699
0.76699
0.76699
0.76699
0.76699
0.76699
0.76699
0.76699
0.76699
0.76699
0.76699
0.76699
0.76699
0.76699
0.76699
0.76699
0.76699
0.76699
0.76699
0.76699
0.76699
0.76699
0.76699
0.76699
0.76699
0.76699
0.76699
0.76699
0.76699
0.76699
0.76699
0.76699
0.76699
0.76699
0.76699
0.76699
0.76699
0.76699
0.76699
0.76699
0.76699
0.76699
0.76699
0.76699
0.76699
0.76699
0.76699
0.76699
0.76699
0.76699
0.76699
0.76699
0.76699
0.76699
0.76699
0.76699
0.76699
0.76699
0.76699
0.76699
0.76699
0.76699
0.76699
0.76699
0.76699
0.76699
0.76699
0.76699
0.76699
0.76699
0.76699
0.76699
0.76699
0.76699
0.76699
0.76699
0.76699
0.76699
0.76699
0.76699
0.76699
0.76699
0.76699
0.76699
0.76699
0.76699
0.76699
0.76699
0.76699
0.76699
0.76699
0.76699
0.76699
0.76699
0.76699
0.76699
0.76699
0.76699
0.76699
0.76699
0.76699
0.76699
0.76699
0.76699
0.76699
0.76699
0.76699
0.76699
0.76699
0.76699
0.76699
0.76699
0.76699
0.76699
0.76699
0.76699
0.76699
0.76699
0.76699
0.76699
0.76699
0.76699
0.76699
0.76699
0.76699
0.76699
0.76699
0.76699
0.76699
0.76699
0.76699
0.76699
0.76699
0.76699
0.76699
0.76699
0.76699
0.76699
0.76699
0.76699
0.76699
0.76699
0.76699
0.76699
0.76699
0.76699
0.76699
0.76699
0.76699
0.76699
0.76699
0.76699
0.76699
0.76699
0.76699
0.76699
0.76699
0.76699
0.76699
0.76699
0.76699
0.76699
0.76699
0.76699
0.76699
0.76699
0.76699
0.76699
0.76699
0.76699
0.76699
0.76699
0.76699
0.76699
0.76699
0.76699
0.76699
0.76699
0.76699
0.76699
0.76699
0.76699
0.76699
0.76699
0.76699
0.76699
0.76699
0.76699
0.76699
0.76699
0.76699
0.76699
0.76699
0.76699
0.76699
0.76699
0.76699
0.76699
0.76699
0.76699
0.76699
0.76699
0.76699
0.76699
0.76699
0.76699
0.76699
0.76699
0.76699
0.76699
0.76699
0.76699
0.76699
0.76699
0.76699
0.76699
0.76699
0.76699
0.76699
0.76699
0.76699
0.76699
0.76699
0.76699
0.76699
0.76699
0.76699
0.76699
0.76699
0.76699
0.76699
0.76699
0.76699
0.76699
0.76699
0.76699
0.76699
0.76699
0.76699
0.76699
0.76699
0.76699
0.76699
0.76699
0.76699
0.76699
0.76699
0.76699
0.76699
0.76699
0.76699
0.76699
0.76699
0.76699
0.76699
0.76699
0.76699
0.76699
0.76699
0.76699
0.76699
0.76699
0.76699
0.76699
0.76699
0.76699
0.76699
0.76699
0.76699
0.76699
0.76699
0.76699
0.76699
0.76699
0.76699
0.76699
0.76699
0.76699
0.76699
0.76699
0.76699
0.76699
0.76699
0.76699
0.76699
0.76699
0.76699
0.76699
0.76699
0.76699
0.76699
0.76699
0.76699
0.76699
0.76699
0.76699
0.76699
0.76699
0.76699
0.76699
0.76699
0.76699
0.76699
0.76699
0.76699
0.76699
0.76699
0.76699
0.76699
0.76699
0.76699
0.76699
0.76699
0.76699
0.76699
0.76699
0.76699
0.76699
0.76699
0.76699
0.76699
0.76699
0.76699
0.76699
0.76699
0.76699
0.76699
0.76699
0.76699
0.76699
0.76699
0.76699
0.76699
0.76699
0.76699
0.76699
0.76699
0.76699
0.76699
0.76699
0.76699
0.76699
0.76699
0.76699
0.76699
0.76699
0.76699
0.76699
0.76699
0.76699
0.76699
0.76699
0.76699
0.76699
0.76699
0.76699
0.76699
0.76699
0.76699
0.76699
0.76699
0.76699
0.76699
0.76699
0.76699
0.76699
0.76699
0.76699
0.76699
0.76699
0.76699
0.76699
0.76699
0.76699
0.76699
0.76699
0.76699
0.76699
0.76699
0.76699
0.76699
0.76699
0.76699
0.76699
0.76699
0.76699
0.76699
0.76699
0.76699
0.76699
0.76699
0.76699
0.76699
0.76699
0.76699
0.76699
0.76699
0.76699
0.76699
0.76699
0.76699
0.76699
0.76699
0.76699
0.76699
0.76699
0.76699
0.76699
0.76699
0.76699
0.76699
0.76699
0.76699
0.76699
0.76699
0.76699
0.76699
0.76699
0.76699
0.76699
0.76699
0.76699
0.76699
0.76699
0.76699
0.76699
0.76699
0.76699
0.76699
0.76699
0.76699
0.76699
0.76699
0.76699
0.76699
0.76699
0.76699
0.76699
0.76699
0.76699
0.76699
0.76699
0.76699
0.76699
0.76699
0.76699
0.76699
0.76699
0.76699
0.76699
0.76699
0.76699
0.76699
0.76699
0.76699
0.76699
0.76699
0.76699
0.76699
0.76699
0.76699
0.76699
0.76699
0.76699
0.76699
0.76699
0.76699
0.76699
0.76699
0.76699
0.76699
0.76699
0.76699
0.76699
0.76699
0.76699
0.76699
0.76699
0.76699
0.76699
0.76699
0.76699
0.76699
0.76699
0.76699
0.76699
0.76699
0.76699
0.76699
0.76699
0.76699
0.76699
0.76699
0.76699
0.76699
0.76699
0.76699
0.76699
0.76699
0.76699
0.76699
0.76699
0.76699
0.76699
0.76699
0.76699
0.76699
0.76699
0.76699
0.76699
0.76699
0.76699
0.76699
0.76699
0.76699
0.76699
0.76699
0.76699
0.76699
0.76699
0.76699
0.76699
0.76699
0.76699
0.76699
0.76699
0.76699
0.76699
0.76699
0.76699
0.76699
0.76699
0.76699
0.76699
0.76699
0.76699
0.76699
0.76699
0.76699
0.76699
0.76699
0.76699
0.76699
0.76699
0.76699
0.76699
0.76699
0.76699
0.76699
0.76699
0.76699
0.76699
0.76699
0.76699
0.76699
0.76699
0.76699
0.76699
0.76699
0.76699
0.76699
0.76699
0.76699
0.76699
0.76699
0.76699
0.76699
0.76699
0.76699
0.76699
0.76699
0.76699
0.76699
0.76699
0.76699
0.76699
0.76699
0.76699
0.76699
0.76699
0.76699
0.76699
0.76699
0.76699
0.76699
0.76699
0.76699
0.76699
0.76699
0.76699
0.76699
0.76699
0.76699
0.76699
0.76699
0.76699
0.76699
0.76699
0.76699
0.76699
0.76699
0.76699
0.76699
0.76699
0.76699
0.76699
0.76699
0.76699
0.76699
0.76699
0.76699
0.76699
0.76699
0.76699
0.76699
0.76699
0.76699
0.76699
0.76699
0.76699
0.76699
0.76699
0.76699
0.76699
0.76699
0.76699
0.76699
0.76699
0.76699
0.76699
0.76699
0.76699
0.76699
0.76699
0.76699
0.76699
0.76699
0.76699
0.76699
0.76699
0.76699
0.76699
0.76699
0.76699
0.76699
0.76699
0.76699
0.76699
0.76699
0.76699
0.76699
0.76699
0.76699
0.76699
0.76699
0.76699
0.76699
0.76699
0.76699
0.76699
0.76699
0.76699
0.76699
0.76699
0.76699
0.76699
0.76699
0.76699
0.76699
0.76699
0.76699
0.76699
0.76699
0.76699
0.76699
0.76699
0.76699
0.76699
0.76699
0.76699
0.76699
0.76699
0.76699
0.76699
0.76699
0.76699
0.76699
0.76699
0.76699
0.76699
0.76699
0.76699
0.76699
0.76699
0.76699
0.76699
0.76699
0.76699
0.76699
0.76699
0.76699
0.76699
0.76699
0.76699
0.76699
0.76699
0.76699
0.76699
0.76699
0.76699
0.76699
0.76699
0.76699
0.76699
0.76699
0.76699
0.76699
0.76699
0.76699
0.76699
0.76699
0.76699
0.76699
0.76699
0.76699
0.76699
0.76699
0.76699
0.76699
0.76699
0.76699
0.76699
0.76699
0.76699
0.76699
0.76699
0.76699
0.76699
0.76699
0.76699
0.76699
0.76699
0.76699
0.76699
0.76699
0.76699
0.76699
0.76699
0.76699
0.76699
0.76699
0.76699
0.76699
0.76699
0.76699
0.76699
0.76699
0.76699
0.76699
0.76699
0.76699
0.76699
0.76699
0.76699
0.76699
0.76699
0.76699
0.76699
0.76699
0.76699
0.76699
0.76699
0.76699
0.76699
0.76699
0.76699
0.76699
0.76699
0.76699
0.76699
0.76699
0.76699
0.766989
0.76699
0.766989
0.76699
0.766989
0.76699
0.76699
0.76699
0.76699
0.76699
0.76699
0.76699
0.76699
0.76699
0.76699
0.76699
0.76699
0.76699
0.76699
0.76699
0.76699
0.76699
0.76699
0.76699
0.76699
0.76699
0.76699
0.76699
0.76699
0.76699
0.76699
0.76699
0.76699
0.76699
0.76699
0.76699
0.76699
0.76699
0.76699
0.76699
0.76699
0.76699
0.76699
0.76699
0.76699
0.76699
0.766989
0.766988
0.766984
0.766987
0.766982
0.766987
0.766982
0.766989
0.766985
0.76699
0.766988
0.766989
0.76699
0.766989
0.76699
0.76699
0.76699
0.76699
0.76699
0.76699
0.76699
0.76699
0.76699
0.76699
0.76699
0.76699
0.76699
0.76699
0.76699
0.76699
0.76699
0.76699
0.76699
0.76699
0.76699
0.76699
0.76699
0.76699
0.76699
0.76699
0.76699
0.76699
0.76699
0.76699
0.76699
0.76699
0.76699
0.76699
0.76699
0.76699
0.766987
0.766981
0.766974
0.766974
0.766958
0.766971
0.766948
0.766974
0.76695
0.766981
0.766962
0.766987
0.766976
0.766986
0.76699
0.766986
0.766987
0.76699
0.76699
0.76699
0.76699
0.76699
0.76699
0.76699
0.76699
0.76699
0.76699
0.76699
0.76699
0.76699
0.76699
0.76699
0.76699
0.76699
0.76699
0.76699
0.76699
0.76699
0.76699
0.76699
0.766989
0.766988
0.766988
0.766988
0.766989
0.76699
0.76699
0.76699
0.76699
0.76699
0.76699
0.76699
0.766987
0.766968
0.76696
0.76694
0.766916
0.766913
0.766867
0.766903
0.766834
0.766918
0.766836
0.766945
0.766876
0.766972
0.766929
0.76697
0.766988
0.76697
0.766973
0.76699
0.766989
0.76699
0.76699
0.76699
0.76699
0.76699
0.76699
0.76699
0.76699
0.76699
0.76699
0.76699
0.76699
0.76699
0.76699
0.76699
0.76699
0.76699
0.76699
0.76699
0.76699
0.766989
0.766987
0.766983
0.766979
0.76698
0.766983
0.766987
0.766989
0.76699
0.76699
0.76699
0.76699
0.76699
0.766987
0.766955
0.76695
0.766893
0.766869
0.766815
0.766761
0.766751
0.766666
0.766726
0.766607
0.766751
0.766601
0.766828
0.766663
0.766915
0.766786
0.766908
0.766978
0.766911
0.766922
0.76699
0.766984
0.76699
0.76699
0.76699
0.76699
0.76699
0.76699
0.76699
0.76699
0.76699
0.76699
0.76699
0.76699
0.76699
0.76699
0.76699
0.76699
0.76699
0.76699
0.76699
0.766989
0.766987
0.766981
0.766968
0.766953
0.766947
0.766956
0.766971
0.766982
0.766988
0.766989
0.76699
0.76699
0.76699
0.766987
0.76695
0.766964
0.766852
0.766836
0.766713
0.766671
0.766585
0.766516
0.766499
0.766416
0.766465
0.766375
0.766486
0.766369
0.766578
0.766399
0.766757
0.766516
0.766745
0.766941
0.766756
0.766788
0.766988
0.766962
0.76699
0.766989
0.76699
0.76699
0.76699
0.76699
0.76699
0.76699
0.76699
0.76699
0.76699
0.76699
0.76699
0.76699
0.76699
0.76699
0.76699
0.76699
0.76699
0.766989
0.766985
0.766972
0.766943
0.766903
0.766875
0.766874
0.766905
0.766948
0.766975
0.766986
0.766989
0.76699
0.76699
0.766988
0.766901
0.766832
0.766811
0.766642
0.766618
0.766465
0.766427
0.766363
0.766329
0.766323
0.766291
0.76631
0.766277
0.766315
0.766275
0.76635
0.76628
0.766481
0.766318
0.766472
0.766838
0.766494
0.766552
0.766979
0.766897
0.76699
0.766986
0.76699
0.76699
0.76699
0.76699
0.76699
0.76699
0.76699
0.76699
0.76699
0.76699
0.76699
0.76699
0.76699
0.76699
0.76699
0.76699
0.76699
0.766989
0.766983
0.766962
0.766914
0.766846
0.76679
0.766769
0.766791
0.766852
0.766926
0.766969
0.766984
0.766989
0.76699
0.766989
0.766928
0.766618
0.766631
0.766609
0.766611
0.766402
0.766385
0.766307
0.766292
0.76627
0.766254
0.766256
0.766241
0.766254
0.766238
0.766255
0.766241
0.766259
0.766242
0.766298
0.766243
0.766289
0.766641
0.766295
0.766331
0.766948
0.766754
0.766989
0.766975
0.76699
0.76699
0.76699
0.76699
0.76699
0.76699
0.76699
0.76699
0.76699
0.76699
0.76699
0.76699
0.76699
0.76699
0.76699
0.76699
0.76699
0.766988
0.766982
0.766954
0.766888
0.766795
0.76671
0.766661
0.766663
0.766717
0.76681
0.766912
0.766966
0.766984
0.766988
0.766989
0.76696
0.766658
0.766693
0.766392
0.766407
0.76638
0.766383
0.766282
0.766276
0.766245
0.76624
0.766228
0.766217
0.766223
0.766202
0.766226
0.7662
0.766232
0.766211
0.766233
0.766225
0.766229
0.766224
0.766217
0.766418
0.766212
0.766225
0.766869
0.766552
0.766985
0.766941
0.76699
0.76699
0.76699
0.76699
0.76699
0.76699
0.76699
0.76699
0.76699
0.76699
0.76699
0.76699
0.76699
0.76699
0.76699
0.76699
0.76699
0.766989
0.766981
0.76695
0.76687
0.766755
0.766643
0.766564
0.766533
0.766564
0.766658
0.766787
0.766911
0.766967
0.766984
0.766988
0.76697
0.766733
0.766816
0.766435
0.766463
0.766276
0.76628
0.766273
0.766274
0.766238
0.766239
0.76621
0.76621
0.766179
0.766157
0.766159
0.766104
0.766165
0.766083
0.766194
0.766113
0.76622
0.766175
0.766213
0.766215
0.7662
0.76627
0.76619
0.766188
0.766727
0.76637
0.766973
0.766872
0.76699
0.76699
0.76699
0.76699
0.76699
0.76699
0.76699
0.76699
0.76699
0.76699
0.76699
0.76699
0.76699
0.76699
0.76699
0.76699
0.76699
0.766989
0.766982
0.766949
0.766862
0.76673
0.766599
0.766493
0.766424
0.766413
0.76648
0.766618
0.766784
0.766917
0.766969
0.766984
0.766976
0.766754
0.766521
0.766535
0.766289
0.766303
0.766246
0.766245
0.766242
0.766245
0.766213
0.766221
0.766146
0.766149
0.766046
0.766002
0.765972
0.765855
0.765968
0.765783
0.766048
0.76583
0.766159
0.765986
0.766209
0.766152
0.766201
0.766206
0.766189
0.76618
0.766548
0.766264
0.766946
0.766765
0.76699
0.76699
0.76699
0.76699
0.76699
0.76699
0.76699
0.76699
0.76699
0.76699
0.76699
0.76699
0.76699
0.76699
0.76699
0.76699
0.766989
0.766984
0.766952
0.766862
0.766719
0.766576
0.766457
0.76636
0.766299
0.766309
0.766419
0.766606
0.766798
0.766928
0.766972
0.766976
0.766848
0.76641
0.76646
0.766333
0.766359
0.766243
0.766241
0.766258
0.766258
0.766237
0.766251
0.76616
0.766191
0.765988
0.766002
0.765759
0.765709
0.765595
0.765434
0.765559
0.765292
0.765688
0.765339
0.765947
0.765581
0.766157
0.765945
0.766169
0.766186
0.76618
0.766182
0.766396
0.766217
0.766896
0.766631
0.76699
0.76699
0.76699
0.76699
0.76699
0.76699
0.76699
0.76699
0.76699
0.76699
0.76699
0.76699
0.76699
0.76699
0.76699
0.766989
0.766986
0.76696
0.76687
0.76672
0.766576
0.766459
0.76635
0.766251
0.766192
0.766231
0.766399
0.766624
0.766825
0.766942
0.766968
0.7669
0.766532
0.766636
0.766268
0.766292
0.766243
0.76625
0.766253
0.766241
0.766296
0.766297
0.766239
0.766277
0.766044
0.766148
0.765712
0.765777
0.765347
0.765359
0.765101
0.765042
0.765014
0.764856
0.765148
0.764809
0.765527
0.765034
0.765985
0.765544
0.766052
0.766182
0.766126
0.766157
0.766182
0.766306
0.766199
0.766839
0.766531
0.76699
0.76699
0.76699
0.76699
0.76699
0.76699
0.76699
0.76699
0.76699
0.76699
0.76699
0.76699
0.76699
0.76699
0.76699
0.766987
0.766969
0.766891
0.766735
0.766604
0.766504
0.766379
0.766256
0.766153
0.766107
0.766198
0.766418
0.766669
0.766864
0.766945
0.766912
0.766586
0.766347
0.766355
0.766208
0.76621
0.766228
0.766214
0.766292
0.766274
0.76634
0.766341
0.766247
0.766313
0.765952
0.766146
0.765468
0.765687
0.765093
0.765219
0.764853
0.764922
0.7647
0.764731
0.764679
0.764591
0.764986
0.764609
0.765645
0.764994
0.765312
0.765969
0.765744
0.766173
0.766185
0.766179
0.76608
0.765915
0.765828
0.766122
0.766265
0.766182
0.766186
0.766203
0.766825
0.766498
0.76699
0.76699
0.76699
0.76699
0.76699
0.76699
0.76699
0.76699
0.76699
0.76699
0.76699
0.76699
0.76699
0.76699
0.766988
0.766977
0.766916
0.766769
0.766644
0.766577
0.766492
0.766327
0.766169
0.766065
0.766045
0.7662
0.766472
0.766734
0.766891
0.766905
0.766677
0.766263
0.766334
0.76622
0.766233
0.766193
0.766174
0.766246
0.766218
0.766328
0.766294
0.766394
0.766381
0.766297
0.766377
0.765965
0.766235
0.765436
0.765748
0.765052
0.765263
0.764814
0.76497
0.764638
0.764764
0.76452
0.764544
0.764589
0.764785
0.764575
0.764465
0.764505
0.76504
0.765466
0.765106
0.764782
0.765552
0.76615
0.766166
0.765998
0.765779
0.765665
0.766064
0.766199
0.766295
0.766225
0.766174
0.76618
0.766849
0.76629
0.766415
0.766582
0.76699
0.76699
0.76699
0.76699
0.76699
0.76699
0.76699
0.76699
0.76699
0.76699
0.76699
0.76699
0.76699
0.766989
0.766983
0.76694
0.766811
0.766678
0.766628
0.766609
0.766522
0.766283
0.766083
0.765987
0.766017
0.766236
0.766552
0.766795
0.766872
0.766714
0.766287
0.76616
0.76615
0.76616
0.766157
0.766179
0.766147
0.766255
0.766216
0.766341
0.766288
0.766453
0.766398
0.766408
0.766466
0.766119
0.766413
0.765579
0.765986
0.765204
0.765517
0.764981
0.765248
0.764661
0.764777
0.764894
0.765051
0.764487
0.764539
0.764567
0.764652
0.764589
0.764479
0.764459
0.764448
0.764824
0.765219
0.764893
0.764604
0.765334
0.766112
0.766144
0.765889
0.765469
0.765611
0.765984
0.766193
0.766222
0.766161
0.766172
0.766599
0.766953
0.766837
0.76629
0.766424
0.76699
0.76699
0.76699
0.76699
0.76699
0.76699
0.76699
0.76699
0.76699
0.76699
0.76699
0.76699
0.76699
0.766986
0.76696
0.766856
0.76671
0.76666
0.76668
0.766695
0.766522
0.766203
0.765997
0.765927
0.766014
0.766298
0.766623
0.766798
0.766706
0.766324
0.766079
0.766101
0.766088
0.766075
0.76612
0.7661
0.766137
0.766097
0.766234
0.766183
0.766322
0.766247
0.766492
0.766389
0.766547
0.766553
0.76638
0.766607
0.765909
0.766344
0.765559
0.765933
0.765185
0.765352
0.765489
0.76566
0.76477
0.76491
0.765065
0.765229
0.764513
0.764605
0.764631
0.764755
0.764473
0.76443
0.764483
0.764437
0.764637
0.764987
0.764694
0.764478
0.765108
0.766057
0.766109
0.765752
0.765257
0.765421
0.76588
0.766187
0.766221
0.76614
0.76616
0.766635
0.766976
0.766887
0.766295
0.766442
0.76699
0.76699
0.76699
0.76699
0.76699
0.76699
0.76699
0.76699
0.76699
0.76699
0.76699
0.76699
0.766988
0.766974
0.766899
0.766749
0.766684
0.766708
0.766798
0.766714
0.766475
0.766096
0.765928
0.76589
0.766028
0.766346
0.766649
0.76666
0.766325
0.766029
0.765981
0.765958
0.766012
0.765992
0.766063
0.766034
0.766063
0.766017
0.766177
0.766116
0.766285
0.766189
0.766508
0.766386
0.766666
0.766621
0.766657
0.766757
0.766341
0.766713
0.76581
0.766004
0.766188
0.766415
0.765393
0.765554
0.765713
0.765876
0.764904
0.765072
0.76525
0.765431
0.76457
0.764729
0.764691
0.764881
0.764418
0.764415
0.764532
0.76445
0.764497
0.764776
0.764535
0.764412
0.764893
0.765985
0.766062
0.765593
0.765043
0.765222
0.765757
0.766181
0.76622
0.766112
0.766145
0.766685
0.766985
0.766931
0.766303
0.766472
0.76699
0.76699
0.76699
0.76699
0.76699
0.76699
0.76699
0.76699
0.76699
0.76699
0.76699
0.766989
0.766982
0.766934
0.7668
0.766705
0.766718
0.766832
0.766836
0.7667
0.766387
0.766018
0.765883
0.765868
0.766037
0.766359
0.766542
0.7663
0.766018
0.765845
0.765849
0.765877
0.765857
0.765918
0.765894
0.765978
0.765945
0.765973
0.765922
0.766105
0.766033
0.76627
0.766162
0.766562
0.766435
0.766759
0.766682
0.766847
0.766873
0.766736
0.7669
0.766041
0.766216
0.766387
0.766562
0.765605
0.765774
0.765941
0.766107
0.765058
0.76525
0.765448
0.765641
0.764644
0.764841
0.764787
0.765019
0.764396
0.764422
0.764593
0.764492
0.764415
0.7646
0.764433
0.764384
0.764701
0.765896
0.766003
0.765421
0.764842
0.765025
0.765616
0.766174
0.76622
0.766076
0.766125
0.766745
0.766989
0.766966
0.766314
0.766511
0.76699
0.76699
0.76699
0.76699
0.76699
0.76699
0.76699
0.76699
0.76699
0.76699
0.76699
0.766986
0.766959
0.766856
0.76673
0.766719
0.766831
0.766892
0.76684
0.766664
0.766333
0.765974
0.765853
0.765847
0.766017
0.766264
0.766216
0.765981
0.765754
0.765728
0.765701
0.765764
0.765745
0.76581
0.765785
0.765878
0.765841
0.765898
0.765835
0.766062
0.765973
0.766305
0.766179
0.766689
0.766576
0.766858
0.766787
0.766941
0.766947
0.766829
0.766908
0.766957
0.766938
0.766272
0.766432
0.766584
0.766721
0.765824
0.766001
0.76617
0.766332
0.765221
0.765435
0.765649
0.765853
0.764723
0.764958
0.764881
0.765159
0.764395
0.764451
0.764657
0.764542
0.764377
0.76447
0.764378
0.764375
0.764542
0.765792
0.765933
0.765241
0.764662
0.76484
0.765465
0.766164
0.766218
0.766033
0.7661
0.766814
0.766989
0.766973
0.766327
0.766558
0.76699
0.76699
0.76699
0.76699
0.76699
0.76699
0.76699
0.76699
0.76699
0.76699
0.766988
0.766975
0.766905
0.76677
0.766721
0.766817
0.766904
0.766907
0.766835
0.76665
0.766314
0.765954
0.765828
0.765812
0.765922
0.765999
0.765894
0.765702
0.765572
0.765563
0.765613
0.76559
0.765654
0.765633
0.765708
0.765679
0.765784
0.765742
0.765872
0.765796
0.766063
0.765961
0.766446
0.766307
0.766856
0.766774
0.766941
0.766912
0.766962
0.766968
0.766971
0.766902
0.766936
0.766961
0.766952
0.766483
0.76662
0.76674
0.766836
0.766043
0.76622
0.766382
0.766526
0.765382
0.765616
0.765844
0.766056
0.764796
0.765069
0.764963
0.765288
0.764414
0.764492
0.764714
0.764593
0.764359
0.764394
0.764352
0.764382
0.764435
0.765676
0.765853
0.765061
0.764517
0.76467
0.765309
0.766152
0.766215
0.765983
0.766071
0.766859
0.766971
0.766959
0.766341
0.7666
0.76699
0.76699
0.76699
0.76699
0.76699
0.76699
0.76699
0.76699
0.76699
0.766989
0.766984
0.766943
0.766825
0.766733
0.766781
0.7669
0.766926
0.766913
0.766837
0.766652
0.766321
0.765948
0.765802
0.765752
0.765742
0.765704
0.765597
0.765464
0.765478
0.765459
0.765521
0.765498
0.765569
0.765544
0.765634
0.765599
0.765732
0.765678
0.765931
0.765832
0.766171
0.766044
0.766664
0.766536
0.766946
0.766916
0.766972
0.766963
0.766966
0.766969
0.766974
0.766977
0.766926
0.766943
0.766958
0.766952
0.766652
0.766758
0.76684
0.766895
0.766247
0.766415
0.766557
0.766676
0.76553
0.76578
0.76602
0.766235
0.764856
0.765162
0.765025
0.765394
0.764446
0.764535
0.764759
0.764639
0.764355
0.764353
0.764338
0.764402
0.764371
0.765553
0.765765
0.76489
0.76442
0.764527
0.765152
0.766136
0.766211
0.765926
0.766038
0.766848
0.766963
0.766921
0.766356
0.766599
0.76699
0.76699
0.76699
0.76699
0.76699
0.76699
0.76699
0.76699
0.76699
0.766987
0.766967
0.766881
0.766763
0.766755
0.766878
0.766925
0.766935
0.76692
0.766851
0.766678
0.766363
0.765967
0.765773
0.765673
0.765594
0.76551
0.765441
0.76543
0.765438
0.765442
0.765431
0.765482
0.76546
0.765539
0.765508
0.765622
0.765576
0.765748
0.765679
0.766124
0.766
0.766399
0.766258
0.766868
0.766792
0.766978
0.766969
0.766979
0.76698
0.766981
0.766964
0.766969
0.766968
0.766976
0.766923
0.766929
0.766939
0.766933
0.766771
0.766841
0.766885
0.76691
0.766419
0.766569
0.766686
0.766774
0.765651
0.765916
0.766164
0.766376
0.764896
0.765224
0.765059
0.76546
0.76448
0.764572
0.764787
0.764674
0.764363
0.764331
0.764332
0.764428
0.764333
0.765426
0.765672
0.764729
0.764357
0.764427
0.765002
0.766119
0.766206
0.765865
0.766001
0.766813
0.766895
0.766836
0.76636
0.76658
0.76699
0.76699
0.76699
0.76699
0.76699
0.76699
0.76699
0.76699
0.766988
0.76698
0.766927
0.766811
0.766751
0.766824
0.766912
0.766934
0.766941
0.766934
0.766875
0.766717
0.766431
0.766029
0.765757
0.765618
0.76552
0.765469
0.765524
0.765499
0.765531
0.765493
0.765489
0.765532
0.765508
0.765603
0.765563
0.765718
0.765654
0.76589
0.765796
0.766433
0.766301
0.76669
0.766566
0.766954
0.766929
0.766985
0.766985
0.766985
0.76698
0.766981
0.766985
0.766984
0.766947
0.766957
0.766947
0.766966
0.766888
0.766887
0.766896
0.766889
0.766833
0.766867
0.766885
0.766889
0.766547
0.766675
0.766763
0.766817
0.765723
0.765996
0.766252
0.766464
0.764915
0.765255
0.765073
0.765486
0.764511
0.7646
0.764796
0.764694
0.764378
0.764316
0.764329
0.764449
0.764307
0.765299
0.765577
0.76459
0.764315
0.764361
0.764862
0.766099
0.7662
0.765799
0.765961
0.766738
0.766849
0.766765
0.766354
0.766538
0.76699
0.76699
0.76699
0.76699
0.76699
0.76699
0.76699
0.766989
0.766986
0.766958
0.766866
0.766762
0.766781
0.766874
0.766919
0.766938
0.766951
0.76695
0.766897
0.766763
0.766519
0.766161
0.765837
0.765663
0.765611
0.765691
0.765835
0.765925
0.765707
0.765764
0.765673
0.765679
0.765714
0.765687
0.765805
0.765752
0.765958
0.765874
0.766173
0.766058
0.766756
0.766653
0.766893
0.766838
0.766982
0.766976
0.766986
0.766986
0.766988
0.766988
0.766978
0.766982
0.766986
0.766984
0.766908
0.766927
0.766903
0.766938
0.766823
0.766817
0.766822
0.766816
0.766842
0.766848
0.766844
0.766833
0.766623
0.766728
0.766786
0.766803
0.765747
0.766023
0.766283
0.766494
0.764917
0.765264
0.765065
0.765488
0.764528
0.764611
0.764787
0.764697
0.764389
0.764302
0.76433
0.764457
0.764286
0.765173
0.765477
0.764477
0.764283
0.764313
0.764725
0.766078
0.766192
0.76573
0.765918
0.766659
0.766891
0.766768
0.766336
0.766491
0.76699
0.76699
0.76699
0.76699
0.76699
0.76699
0.76699
0.766988
0.766975
0.766915
0.766803
0.766767
0.766823
0.766885
0.766918
0.766945
0.766964
0.766963
0.766918
0.766817
0.76663
0.766379
0.766141
0.766032
0.766106
0.766395
0.76624
0.766358
0.76607
0.766145
0.766006
0.766024
0.766037
0.766012
0.766148
0.766083
0.766322
0.766229
0.76654
0.766425
0.766924
0.766888
0.766966
0.76695
0.766988
0.766988
0.766988
0.766987
0.766987
0.766988
0.766988
0.766967
0.766979
0.766985
0.766981
0.76684
0.766868
0.766826
0.766885
0.766721
0.766709
0.766709
0.766706
0.766802
0.766792
0.766766
0.766744
0.766638
0.766722
0.766747
0.766747
0.765738
0.765998
0.766245
0.76645
0.764893
0.765237
0.765016
0.765436
0.764525
0.764592
0.76474
0.764662
0.764387
0.764287
0.764324
0.764443
0.764265
0.765049
0.765375
0.7644
0.764261
0.764277
0.764602
0.766054
0.766177
0.765652
0.765868
0.766624
0.766959
0.766833
0.766314
0.766453
0.76699
0.76699
0.76699
0.76699
0.76699
0.76699
0.766989
0.766984
0.766951
0.766858
0.766772
0.766785
0.766844
0.766884
0.766918
0.766956
0.766975
0.766971
0.76694
0.766871
0.766754
0.766623
0.766539
0.76657
0.766726
0.766899
0.766645
0.76672
0.766502
0.766568
0.766433
0.766456
0.766453
0.766435
0.766554
0.766495
0.766702
0.766625
0.766839
0.766777
0.766977
0.766969
0.766986
0.766983
0.766988
0.766988
0.766989
0.766989
0.766986
0.766987
0.766988
0.766988
0.766938
0.766969
0.766983
0.766973
0.766733
0.766773
0.766714
0.766799
0.766577
0.766556
0.766554
0.76655
0.766724
0.766689
0.766648
0.76661
0.766589
0.76665
0.766658
0.766645
0.765659
0.765895
0.766124
0.766318
0.764825
0.765159
0.76492
0.765323
0.764498
0.764553
0.764669
0.76461
0.764371
0.764272
0.764307
0.764411
0.764249
0.764923
0.765257
0.764343
0.764241
0.764249
0.764493
0.766029
0.76616
0.765566
0.76582
0.76664
0.766985
0.766921
0.766288
0.766441
0.76699
0.76699
0.76699
0.76699
0.76699
0.76699
0.766987
0.766971
0.766908
0.7668
0.766773
0.766804
0.766848
0.766881
0.766923
0.766969
0.766982
0.766978
0.766959
0.766921
0.766873
0.766838
0.766847
0.766905
0.766961
0.766981
0.766918
0.766982
0.766896
0.766834
0.766863
0.766801
0.766812
0.766812
0.766803
0.766858
0.766832
0.766914
0.766886
0.766956
0.766937
0.766988
0.766987
0.766989
0.766989
0.766989
0.766989
0.766989
0.766989
0.766984
0.766987
0.766988
0.766988
0.766883
0.766949
0.766977
0.766958
0.766584
0.766639
0.766568
0.766684
0.76638
0.766354
0.766353
0.766347
0.766598
0.76654
0.766479
0.766425
0.766454
0.766508
0.766509
0.766468
0.765506
0.765702
0.765896
0.766066
0.76473
0.765025
0.764792
0.765142
0.764452
0.764497
0.764585
0.764541
0.764344
0.764261
0.76429
0.764385
0.764236
0.76478
0.765138
0.764299
0.764227
0.76424
0.764414
0.765998
0.766141
0.765481
0.765758
0.766701
0.766989
0.76696
0.766269
0.766452
0.76699
0.76699
0.76699
0.76699
0.76699
0.766988
0.766982
0.766945
0.766853
0.766777
0.766778
0.766812
0.766845
0.766883
0.76694
0.76698
0.766986
0.766983
0.766974
0.766962
0.766951
0.766953
0.76697
0.766984
0.766989
0.766979
0.766989
0.766989
0.766976
0.766962
0.766969
0.766953
0.766956
0.766956
0.766954
0.766967
0.766961
0.766978
0.766973
0.766985
0.766982
0.76699
0.76699
0.76699
0.76699
0.76699
0.766989
0.766989
0.76699
0.766989
0.766981
0.766986
0.766987
0.766988
0.766803
0.766904
0.766967
0.766932
0.766396
0.766469
0.766395
0.766544
0.76613
0.766103
0.766112
0.766099
0.766403
0.766327
0.766251
0.766183
0.766191
0.766246
0.766246
0.766199
0.765269
0.765405
0.765543
0.765669
0.764625
0.764856
0.764664
0.764918
0.764426
0.764468
0.764547
0.764509
0.764328
0.764246
0.764274
0.764368
0.76422
0.76465
0.765012
0.764271
0.764213
0.764227
0.764356
0.76597
0.76612
0.765375
0.765709
0.766787
0.76699
0.766974
0.766259
0.766482
0.76699
0.76699
0.76699
0.76699
0.766989
0.766987
0.766968
0.766903
0.766801
0.766772
0.766783
0.766812
0.766846
0.766899
0.766962
0.766986
0.766988
0.766987
0.766984
0.766982
0.766982
0.766986
0.766989
0.76699
0.76699
0.766989
0.76699
0.76699
0.766989
0.766987
0.766988
0.766986
0.766986
0.766986
0.766986
0.766988
0.766987
0.766989
0.766988
0.76699
0.766989
0.76699
0.76699
0.76699
0.76699
0.76699
0.76699
0.766988
0.766989
0.76699
0.766989
0.766975
0.766984
0.766985
0.766988
0.7667
0.766838
0.766952
0.766891
0.766172
0.766268
0.766205
0.766391
0.765829
0.765809
0.765841
0.765808
0.766123
0.766038
0.765955
0.765882
0.765767
0.765819
0.765821
0.765797
0.76498
0.765042
0.765105
0.765165
0.764574
0.7647
0.764592
0.764732
0.764408
0.764444
0.764482
0.764472
0.764311
0.764231
0.764261
0.764347
0.764209
0.764536
0.764867
0.764264
0.764193
0.764203
0.764324
0.765937
0.766103
0.765301
0.765649
0.766838
0.76699
0.76698
0.766261
0.766522
0.76699
0.76699
0.76699
0.76699
0.766988
0.76698
0.766941
0.766851
0.766777
0.766768
0.766784
0.766813
0.76686
0.766926
0.76698
0.766988
0.766989
0.766989
0.766989
0.766989
0.766989
0.76699
0.76699
0.76699
0.76699
0.76699
0.76699
0.76699
0.76699
0.76699
0.76699
0.76699
0.76699
0.76699
0.76699
0.76699
0.76699
0.76699
0.76699
0.76699
0.76699
0.76699
0.76699
0.76699
0.76699
0.76699
0.76699
0.76699
0.76699
0.766988
0.766989
0.766989
0.766989
0.766966
0.76698
0.766983
0.766986
0.766584
0.766759
0.766931
0.76684
0.765921
0.766044
0.766
0.766227
0.765485
0.765476
0.765541
0.765486
0.765728
0.765655
0.765585
0.765524
0.765214
0.765237
0.765235
0.765218
0.76476
0.764782
0.764798
0.764805
0.764478
0.764604
0.764504
0.764609
0.764373
0.764384
0.764395
0.764384
0.764292
0.764219
0.764241
0.764306
0.764189
0.764462
0.764789
0.764252
0.764173
0.764176
0.764307
0.765913
0.766088
0.765207
0.765606
0.766859
0.76699
0.766979
0.766264
0.766531
0.76699
0.76699
0.76699
0.766989
0.766986
0.766965
0.7669
0.766801
0.766766
0.766764
0.766784
0.766825
0.766887
0.766959
0.766987
0.76699
0.76699
0.76699
0.76699
0.76699
0.76699
0.76699
0.76699
0.76699
0.76699
0.76699
0.76699
0.76699
0.76699
0.76699
0.76699
0.76699
0.76699
0.76699
0.76699
0.76699
0.76699
0.76699
0.76699
0.76699
0.76699
0.76699
0.76699
0.76699
0.76699
0.76699
0.76699
0.766989
0.76699
0.76699
0.766988
0.766988
0.766989
0.766988
0.766954
0.766975
0.766978
0.766984
0.766463
0.766677
0.766906
0.766787
0.765653
0.765802
0.765778
0.766051
0.765098
0.765104
0.765222
0.765143
0.765177
0.765147
0.765127
0.765109
0.764805
0.764801
0.764781
0.764759
0.764609
0.764615
0.764623
0.76463
0.764313
0.764523
0.76434
0.764545
0.764309
0.764323
0.764313
0.764284
0.76425
0.764195
0.764205
0.764263
0.76417
0.764436
0.764664
0.764236
0.764156
0.764156
0.764303
0.765876
0.766076
0.765139
0.765535
0.766846
0.766981
0.766962
0.766263
0.766511
0.76699
0.76699
0.76699
0.766988
0.766978
0.766937
0.766849
0.766773
0.766756
0.766763
0.766794
0.766851
0.766926
0.766981
0.766989
0.76699
0.76699
0.76699
0.76699