/*--------------------------------*- C++ -*----------------------------------*\
  =========                 |
  \\      /  F ield         | OpenFOAM: The Open Source CFD Toolbox
   \\    /   O peration     | Website:  https://openfoam.org
    \\  /    A nd           | Version:  dev
     \\/     M anipulation  |
\*---------------------------------------------------------------------------*/
FoamFile
{
    version     2.0;
    format      ascii;
    class       volScalarField;
    location    "2500";
    object      nut;
}
// * * * * * * * * * * * * * * * * * * * * * * * * * * * * * * * * * * * * * //

dimensions      [0 2 -1 0 0 0 0];

internalField   nonuniform List<scalar> 
9851
(
0.000130787
0.000134314
0.000125507
0.000123646
0.000154312
0.000111331
0.000112037
0.000163895
0.000142662
0.00010591
0.00010882
0.0001615
0.000161831
0.000122265
0.000104082
0.000105758
0.000151347
0.000174076
0.000145468
0.000111797
0.00010314
0.000103928
0.000136808
0.000178217
0.000166202
0.000124951
0.000107504
0.000102414
0.000103462
0.000126317
0.000176043
0.000177291
0.00014432
0.000113516
0.000105709
0.000101804
0.0001032
0.000118942
0.000168011
0.000185857
0.000164965
0.000124866
0.000108865
0.000104262
0.00010134
0.00010268
0.000113358
0.000153196
0.000188527
0.000180021
0.000141501
0.000113832
0.000106954
0.000103093
0.000100977
0.000101787
0.000109509
0.000137728
0.000186495
0.000187868
0.000160842
0.000123194
0.000109308
0.000105324
0.000102373
0.000100733
0.000100974
0.000107365
0.000128264
0.000179505
0.000194301
0.000177851
0.000138492
0.000113258
0.000107261
0.000103859
0.000102018
0.000100575
0.00010044
0.000106417
0.000121174
0.000165535
0.000197168
0.000189359
0.000154585
0.000121677
0.000108953
0.000105474
0.000102993
0.000101785
0.000100476
0.000100135
0.000105848
0.000116057
0.000150192
0.000195637
0.000196205
0.000172124
0.000134479
0.000112488
0.000106999
0.000103844
0.000102515
0.000101585
0.000100423
0.000100085
0.000105474
0.00011261
0.000137419
0.000189902
0.000200971
0.000186762
0.000149296
0.000120261
0.000108489
0.000105349
0.00010278
0.000102203
0.000101439
0.000100393
0.000100228
0.000104997
0.000110204
0.000129222
0.000178008
0.000204745
0.000196462
0.000164499
0.000131149
0.000111923
0.000106601
0.000103824
0.000102135
0.000102029
0.000101315
0.00010037
0.000100431
0.000104361
0.000108602
0.000122771
0.000163104
0.000204076
0.000203037
0.000180067
0.000143432
0.000119024
0.000108071
0.00010516
0.000102717
0.000101799
0.000101916
0.000101203
0.000100351
0.000100653
0.000103884
0.000107676
0.000118038
0.000149284
0.000199864
0.000206807
0.000192843
0.000157725
0.00012789
0.000111628
0.000106227
0.000103806
0.000102005
0.000101646
0.00010182
0.000101103
0.000100324
0.000100876
0.000103556
0.000107044
0.000114821
0.000138602
0.00019051
0.000211603
0.00020234
0.000171413
0.000138486
0.000117864
0.000107781
0.000104953
0.000102747
0.00010159
0.000101583
0.00010173
0.000101015
0.000100284
0.000101104
0.00010336
0.000106585
0.000112596
0.00013156
0.000177431
0.000211943
0.000209336
0.000185337
0.000150428
0.000125163
0.00011148
0.00010593
0.000103783
0.000102002
0.000101401
0.00010159
0.000101641
0.00010093
0.000100234
0.000101348
0.000103278
0.000106259
0.000111081
0.000125969
0.000163296
0.000209444
0.000212876
0.000197668
0.000163571
0.000133701
0.00011681
0.000107667
0.000104756
0.000102818
0.000101561
0.000101345
0.000101602
0.000101558
0.000100841
0.000100175
0.000101609
0.000103279
0.000106034
0.000110056
0.000121909
0.000151496
0.000202512
0.000217589
0.000207774
0.000176787
0.000144075
0.000122628
0.000111311
0.00010575
0.000103794
0.000102139
0.000101352
0.000101385
0.000101599
0.000101471
0.00010074
0.000100105
0.000101893
0.000103341
0.000105893
0.000109361
0.000119064
0.000142511
0.000190039
0.000219283
0.000215005
0.000189612
0.000155968
0.00012974
0.000115718
0.000107702
0.000104646
0.000102994
0.000101723
0.000101273
0.000101475
0.000101587
0.000101364
0.000100617
0.000100029
0.000102207
0.000103458
0.000105806
0.000108904
0.00011707
0.000136003
0.000176801
0.000217587
0.000219086
0.000202074
0.000168618
0.000138642
0.000120644
0.000111128
0.000105747
0.000103886
0.000102412
0.000101502
0.000101324
0.000101579
0.000101544
0.00010122
0.000100475
9.99542e-05
0.000102523
0.000103635
0.000105747
0.000108609
0.000115673
0.00013119
0.000164581
0.000212305
0.000222804
0.000212567
0.000181598
0.000149331
0.000126642
0.000114899
0.000108019
0.000104694
0.000103283
0.000102051
0.000101445
0.000101497
0.000101648
0.000101454
0.000101044
0.000100326
9.98963e-05
0.000102842
0.000103843
0.000105757
0.000108443
0.000114663
0.000127625
0.000154585
0.00020122
0.000225234
0.000220261
0.000193689
0.000161324
0.000134349
0.000119164
0.000110979
0.000106036
0.000104079
0.000102849
0.000101908
0.000101553
0.000101695
0.000101669
0.000101325
0.000100842
0.00010017
9.98739e-05
0.000103171
0.000104081
0.000105842
0.000108408
0.000113885
0.000124878
0.000146823
0.00018872
0.000224237
0.000224382
0.000206074
0.000173747
0.000143845
0.00012435
0.000114405
0.000108382
0.00010497
0.000103701
0.000102683
0.000101912
0.000101798
0.000101886
0.000101657
0.000101171
0.00010062
0.000100024
9.98985e-05
0.000103502
0.000104358
0.000105964
0.000108433
0.000113314
0.000122723
0.000140878
0.000176586
0.000220201
0.000227176
0.000216319
0.000186565
0.000154917
0.000131034
0.000118105
0.000111093
0.000106635
0.000104468
0.000103588
0.000102702
0.000102104
0.000102144
0.00010207
0.000101613
0.000100995
0.000100424
9.99745e-05
0.000100001
0.000103807
0.000104674
0.000106129
0.000108478
0.000112898
0.000121078
0.000136346
0.000166
0.000211103
0.000230027
0.0002248
0.000198719
0.000167141
0.000139517
0.000122789
0.000114138
0.000108893
0.000105614
0.000104375
0.000103671
0.000102973
0.000102443
0.000102542
0.000102268
0.000101548
0.000100853
0.000100339
0.000100105
0.000100244
0.00010409
0.000105028
0.000106339
0.000108557
0.000112663
0.000119894
0.000132889
0.000157466
0.000199286
0.000229593
0.000229045
0.000210147
0.000179634
0.00014981
0.000128742
0.000117719
0.000111486
0.000107565
0.000105326
0.000104571
0.000103986
0.000103509
0.000103067
0.00010295
0.000102466
0.000101533
0.000100778
0.000100481
0.000100574
0.000100666
0.000104344
0.000105366
0.000106578
0.000108669
0.000112504
0.000119087
0.00013026
0.00015089
0.000187655
0.000226863
0.000231262
0.000219958
0.000192085
0.000161531
0.000136526
0.000121988
0.000114563
0.000109874
0.000106953
0.000105555
0.000105073
0.000104592
0.000104164
0.000103976
0.000103613
0.000102843
0.000101823
0.000100986
0.000100944
0.000101564
0.000101558
0.000104538
0.000105661
0.000106832
0.000108818
0.000112397
0.000118473
0.000128312
0.000145874
0.000177206
0.000220134
0.00023441
0.000228572
0.000203959
0.000174062
0.000146281
0.000127823
0.000118062
0.000112699
0.000109146
0.000107128
0.000106117
0.000105877
0.000105526
0.000105136
0.000104837
0.000104263
0.000103265
0.000102391
0.000101919
0.000102254
0.000103226
8.24589e-05
0.000104676
0.000105924
0.000107071
0.000108995
0.00011237
0.000118001
0.000126885
0.000142067
0.000168568
0.000209581
0.000234684
0.000233869
0.000214678
0.000186766
0.000157705
0.000135273
0.000122717
0.000115957
0.000111925
0.000109382
0.000107849
0.00010723
0.000107057
0.000106643
0.00010645
0.000105961
0.000105079
0.000104151
0.000103432
0.000103573
9.3385e-05
7.68186e-05
6.13103e-05
0.000104749
0.000106164
0.000107285
0.000109161
0.000112372
0.000117604
0.000125797
0.000139222
0.000161792
0.000199314
0.000233192
0.000235935
0.000224223
0.000199063
0.000170468
0.000144798
0.000128553
0.000120005
0.000115198
0.000112286
0.000110256
0.000109315
0.000108941
0.000108887
0.000108345
0.000108086
0.000107674
0.000105725
9.79963e-05
9.1004e-05
8.14178e-05
7.00656e-05
5.84204e-05
4.75476e-05
5.00007e-05
0.000104787
0.000106375
0.000107491
0.000109308
0.000112354
0.000117268
0.000124929
0.000137049
0.00015665
0.000189734
0.000229621
0.00023902
0.000232771
0.000210672
0.000183813
0.000156434
0.000136467
0.000125139
0.000119307
0.000115774
0.000113461
0.000112124
0.000111558
0.000111389
0.000111581
0.000105028
9.78715e-05
9.1724e-05
8.45946e-05
7.71828e-05
7.05426e-05
6.1642e-05
5.49065e-05
4.96904e-05
4.96051e-05
4.1733e-05
4.49294e-05
0.00010473
0.000106556
0.000107688
0.000109456
0.000112317
0.000117013
0.000124214
0.000135278
0.000152772
0.000181496
0.000222142
0.000241792
0.000239236
0.000221345
0.000197143
0.000169727
0.000146476
0.00013217
0.00012474
0.000120184
0.000117402
0.000115808
0.000114752
0.000114764
0.000103805
9.56138e-05
8.83635e-05
8.11174e-05
7.45909e-05
6.81709e-05
6.20955e-05
5.6532e-05
5.85344e-05
5.51953e-05
4.725e-05
5.16016e-05
4.56598e-05
4.58353e-05
4.44951e-05
3.75485e-05
4.01592e-05
0.000104609
0.000106649
0.000107849
0.000109592
0.000112295
0.000116814
0.000123632
0.000133785
0.000149738
0.000174797
0.000213301
0.000241502
0.000242992
0.000230752
0.000210063
0.000184436
0.000158924
0.000141282
0.000132185
0.000126042
0.000122601
0.00012076
0.000120001
0.000108268
9.78689e-05
8.84095e-05
8.10597e-05
7.44249e-05
6.75321e-05
6.16427e-05
5.62397e-05
5.13061e-05
5.10501e-05
4.96878e-05
4.89015e-05
4.3857e-05
4.2824e-05
4.31141e-05
4.10371e-05
4.07999e-05
3.37593e-05
3.62624e-05
0.000104426
0.00010666
0.00010794
0.000109695
0.000112283
0.000116647
0.00012315
0.000132546
0.000147212
0.000169444
0.000205387
0.000239818
0.000246542
0.000239247
0.000222051
0.000199666
0.000173873
0.000153444
0.000141946
0.000134307
0.000129809
0.000127202
0.000114176
0.000102003
9.27582e-05
8.45357e-05
7.59708e-05
6.95613e-05
6.35384e-05
5.70898e-05
5.23338e-05
4.84004e-05
4.62178e-05
4.62683e-05
4.80283e-05
4.5744e-05
4.33643e-05
4.04511e-05
4.23643e-05
3.9897e-05
3.72312e-05
3.76603e-05
3.08592e-05
3.31482e-05
0.000104156
0.00010659
0.000107938
0.000109751
0.000112266
0.00011647
0.000122725
0.000131521
0.000145063
0.000165153
0.000197772
0.000237605
0.000251032
0.000246784
0.000233024
0.000214761
0.000190304
0.000168759
0.000155139
0.000145572
0.000139754
0.000129506
0.000110562
9.78448e-05
8.83868e-05
8.06443e-05
7.40476e-05
6.64158e-05
6.03244e-05
5.51965e-05
5.03296e-05
4.71519e-05
4.44164e-05
4.63005e-05
4.47047e-05
4.45461e-05
4.31145e-05
4.30722e-05
4.15582e-05
3.76447e-05
3.93827e-05
3.74725e-05
3.42631e-05
3.50887e-05
2.8333e-05
3.06354e-05
0.000103798
0.0001064
0.000107836
0.000109736
0.000112229
0.000116274
0.000122336
0.00013066
0.000143215
0.000161627
0.000190919
0.000232947
0.000254558
0.000253108
0.000243172
0.00022925
0.000208394
0.000187315
0.000172121
0.000161564
0.000153993
0.000127815
0.000107983
9.45312e-05
8.52146e-05
7.81749e-05
7.20162e-05
6.59541e-05
5.98743e-05
5.38789e-05
4.99467e-05
4.88664e-05
4.64245e-05
5.17863e-05
4.46444e-05
5.16169e-05
4.30864e-05
4.60599e-05
4.1212e-05
4.213e-05
3.92108e-05
3.54703e-05
3.73451e-05
3.54469e-05
3.18627e-05
3.2837e-05
2.63574e-05
2.86375e-05
0.000103382
0.000106053
0.000107635
0.000109628
0.000112139
0.00011607
0.000121967
0.000129883
0.0001416
0.000158676
0.000185027
0.000225538
0.00025622
0.000259432
0.000252531
0.000242317
0.000226292
0.000207719
0.000192402
0.00018068
0.000160616
0.000129248
0.000107594
9.2743e-05
8.28398e-05
7.55958e-05
7.007e-05
6.52271e-05
6.03631e-05
5.50917e-05
5.09117e-05
5.62289e-05
6.28817e-05
8.86555e-05
6.18151e-05
9.97281e-05
5.77542e-05
8.9752e-05
4.78453e-05
6.99287e-05
4.07888e-05
5.0315e-05
3.92677e-05
3.35611e-05
3.72654e-05
3.48881e-05
2.99821e-05
3.10797e-05
2.49304e-05
2.72451e-05
0.000102886
0.000105548
0.000107318
0.000109434
0.000111962
0.000115853
0.0001216
0.000129199
0.000140147
0.000156126
0.000179918
0.000218464
0.000256764
0.000266374
0.000261235
0.000254076
0.000242989
0.000227989
0.000213948
0.000204063
0.000182891
0.000147413
0.000115408
9.36272e-05
8.06024e-05
7.28317e-05
6.73252e-05
6.32405e-05
5.91902e-05
5.68342e-05
5.36034e-05
7.19866e-05
0.000111427
0.000124647
0.000112195
0.000133554
0.00011047
0.000131202
0.000105942
0.000121578
8.62805e-05
0.00011101
5.16931e-05
9.82096e-05
5.11671e-05
3.23622e-05
4.81083e-05
4.27736e-05
2.86136e-05
2.93332e-05
2.41271e-05
2.63024e-05
0.000102281
0.000104883
0.000106882
0.000109163
0.00011171
0.00011559
0.000121208
0.000128595
0.000138848
0.000153817
0.000175526
0.000211648
0.000255824
0.000272982
0.00026972
0.000264827
0.000258524
0.000247147
0.000236543
0.000229743
0.000222592
0.000209176
0.000186298
0.000126803
8.98411e-05
7.20201e-05
6.42736e-05
6.05607e-05
5.78387e-05
5.69425e-05
5.47256e-05
9.52402e-05
0.000131581
0.000147484
0.000149347
0.000176007
0.000160963
0.000194884
0.000155484
0.000199451
0.000136876
0.000184592
0.00011623
0.000151822
9.78998e-05
0.000120388
9.56866e-05
3.62071e-05
9.15761e-05
8.56034e-05
2.72648e-05
3.02183e-05
2.42621e-05
2.58833e-05
0.000101584
0.000104052
0.000106376
0.00010882
0.000111433
0.000115267
0.000120767
0.000127993
0.000137732
0.000151673
0.000171735
0.000204491
0.000252672
0.000278697
0.000278639
0.000274803
0.000272295
0.000265891
0.000260017
0.000257486
0.000247591
0.000236627
0.00021501
0.000195074
0.000177846
9.98223e-05
6.89773e-05
5.87875e-05
5.64299e-05
5.54576e-05
5.56243e-05
8.86068e-05
0.000151973
0.000165988
0.000194128
0.000218224
0.000232164
0.000271439
0.000251536
0.000310296
0.000248465
0.000320214
0.000219001
0.000302306
0.00016691
0.000254611
0.000122223
0.00017876
0.000120168
6.59999e-05
0.000114164
0.000104456
2.65341e-05
4.41921e-05
2.63172e-05
2.55193e-05
0.000100942
0.000103411
0.000105937
0.0001084
0.000111168
0.000114951
0.000120275
0.000127373
0.000136712
0.000149739
0.000168357
0.00019777
0.000246045
0.000283188
0.000288185
0.000284337
0.000284146
0.000283393
0.000285786
0.000289226
0.000295097
0.00030437
0.000282417
0.000240615
0.000198593
0.000176844
0.000121988
6.88662e-05
5.58359e-05
5.31068e-05
5.55662e-05
8.996e-05
0.000162571
0.000124181
0.000233906
0.000254761
0.000312121
0.000348636
0.00036605
0.000416371
0.00038777
0.0004469
0.00038157
0.000451224
0.000347809
0.00043122
0.000283398
0.000383288
0.000184054
0.000300448
0.000180594
9.1153e-05
0.000168707
0.000150105
3.06109e-05
7.7477e-05
3.31721e-05
2.54359e-05
0.00010084
0.000103425
0.000105702
0.000108042
0.000111042
0.000114644
0.000119744
0.000126757
0.000135765
0.000148051
0.000165331
0.000191698
0.000236602
0.000285156
0.000297751
0.000293907
0.000294514
0.000299004
0.000309115
0.000332876
0.000382538
0.000441155
0.000476227
0.000450241
0.000353317
0.000236334
0.00017853
0.000143068
7.02983e-05
5.39875e-05
5.48062e-05
9.54567e-05
0.000228464
0.000263141
0.000285263
0.000382113
0.000408921
0.000459346
0.000495497
0.000497729
0.000540674
0.000511664
0.000562947
0.000503629
0.00056215
0.000471107
0.000541869
0.000408968
0.000500394
0.000304944
0.000422225
0.000298218
0.000126602
0.000278133
0.000243761
5.71003e-05
9.92648e-05
2.86407e-05
2.76571e-05
0.000101631
0.000103957
0.000105913
0.000108108
0.000111138
0.000114565
0.000119313
0.000126145
0.000134838
0.000146587
0.000162658
0.000186189
0.000227661
0.000283214
0.0003066
0.000304092
0.000303873
0.000311549
0.000329388
0.000376517
0.000467583
0.000589237
0.000660217
0.000654847
0.000585457
0.000452815
0.000280837
0.000180766
0.000152104
7.20658e-05
5.59836e-05
8.89182e-05
0.000207879
0.000452253
0.00045408
0.000431758
0.000445284
0.000524905
0.000549753
0.00057711
0.00060721
0.000603291
0.000633544
0.00060129
0.000623688
0.000584307
0.00060411
0.000560972
0.000584876
0.000517131
0.000563855
0.000423136
0.000521954
0.000414259
0.000199093
0.000393168
0.000357488
7.45165e-05
0.000150837
1.98169e-05
4.18301e-05
0.000102818
0.000106486
0.000108108
0.000109607
0.000111926
0.000114658
0.00011925
0.000126001
0.000134265
0.000145222
0.000160307
0.000181426
0.000218244
0.000278171
0.000313902
0.000315147
0.000312409
0.00032091
0.000344599
0.000411935
0.000544307
0.000708929
0.000778253
0.000778625
0.00073902
0.000653589
0.000511332
0.000316513
0.000180471
0.000147515
7.22591e-05
8.581e-05
0.000174107
0.00045026
0.000440453
0.000590739
0.00059493
0.000569174
0.000582905
0.00063167
0.00065247
0.00065538
0.000674262
0.000638311
0.000651001
0.000614128
0.000623464
0.000593937
0.000596302
0.000577625
0.000579005
0.000562892
0.000570577
0.000518773
0.000559568
0.000507408
0.000303734
0.000485678
0.000450531
0.000103657
0.000234751
1.67579e-05
7.77867e-05
0.000105346
0.0001159
0.000117618
0.000115964
0.000114886
0.000115561
0.0001194
0.000125999
0.000134094
0.000144168
0.000158217
0.00017742
0.00020911
0.00026725
0.00031809
0.00032655
0.000321022
0.00032643
0.000352471
0.000431805
0.000599172
0.000773982
0.000822759
0.00082773
0.000796603
0.000743144
0.000660397
0.000521983
0.000327117
0.000177107
0.000145292
9.93238e-05
0.000177607
0.000416132
0.000348853
0.000594426
0.000590644
0.000687031
0.000691124
0.000668953
0.000680333
0.000692058
0.000710275
0.00066475
0.000680444
0.000628647
0.00063147
0.000588856
0.000573465
0.000563597
0.000535129
0.000557452
0.000523183
0.000561805
0.000533711
0.000555271
0.000554895
0.000548566
0.00040314
0.000537981
0.00051673
0.000161329
0.000332968
3.77679e-05
0.000106568
0.000107302
0.000127039
0.000136137
0.000131508
0.000123405
0.000118919
0.000120367
0.000126351
0.00013401
0.000143824
0.000156378
0.000174093
0.000201112
0.000252801
0.000316856
0.000336972
0.00033063
0.000330926
0.000354303
0.000437839
0.000628033
0.000800832
0.000837384
0.000820711
0.000783346
0.000742306
0.000695617
0.000632438
0.000510273
0.000322596
0.000172818
0.000145424
0.000177896
0.000445005
0.000577173
0.000592031
0.000691708
0.000689206
0.000759936
0.000768881
0.000728372
0.000745407
0.000697511
0.000716335
0.000632836
0.000638282
0.000552592
0.000534066
0.000503425
0.000480236
0.000486011
0.000460515
0.000485458
0.000452892
0.000513866
0.000458983
0.00055111
0.000502786
0.000548297
0.000480179
0.000544464
0.000537138
0.000240681
0.000421569
7.85556e-05
0.000154346
0.000124273
0.000145304
0.000152753
0.000142627
0.000128058
0.000123626
0.000127494
0.00013431
0.000143525
0.000154861
0.000171256
0.000194523
0.000239961
0.000311619
0.00034564
0.000341665
0.000336313
0.000354735
0.000435715
0.000633332
0.000809914
0.000831097
0.000776552
0.000709748
0.000686457
0.00067434
0.000642709
0.000591298
0.000476753
0.000305649
0.000172881
0.000183094
0.000367481
0.000651915
0.000636082
0.000678293
0.000669515
0.000774599
0.000774242
0.000785923
0.000811574
0.000737884
0.000761499
0.000648958
0.000666245
0.000521773
0.00052057
0.000462636
0.000450746
0.000439915
0.000424356
0.000425077
0.000403711
0.000422992
0.000393634
0.000441085
0.000398654
0.000502289
0.000431883
0.00051146
0.000520092
0.000524847
0.000530735
0.000326893
0.000482779
0.000115734
0.000218109
0.000135227
0.000156893
0.000164299
0.000148746
0.000131906
0.00013044
0.000135352
0.000143585
0.000153687
0.000168805
0.000189125
0.000227331
0.000300476
0.000350264
0.000353591
0.000342584
0.000350685
0.000420815
0.000622391
0.000810531
0.000821269
0.000699781
0.000589008
0.000596933
0.000613644
0.000620817
0.000601481
0.000551985
0.000437365
0.000288124
0.000201651
0.000302667
0.000619053
0.00058212
0.000742336
0.000726179
0.000768406
0.000758738
0.000834423
0.000846968
0.000771648
0.000814573
0.000694097
0.000730194
0.000530187
0.000552479
0.000447495
0.000453336
0.000413085
0.000407991
0.000389844
0.000384822
0.000377631
0.000374009
0.000370459
0.000363765
0.000381808
0.000354653
0.000432424
0.000373607
0.000445586
0.000528046
0.000474488
0.000491012
0.000520281
0.000400536
0.000509201
0.000154398
0.000280424
0.000140849
0.000165044
0.000171653
0.000150517
0.000137082
0.000137704
0.000144214
0.000153082
0.000166618
0.000185007
0.000215968
0.000280027
0.000348591
0.000365215
0.000349968
0.000348009
0.000396181
0.000580726
0.000805343
0.000818219
0.000646955
0.000488426
0.000507533
0.000562371
0.000588058
0.000590949
0.00057007
0.00050789
0.000398946
0.000286165
0.000298004
0.000593001
0.000698142
0.000693377
0.000843251
0.000827805
0.000853554
0.000853239
0.000854942
0.00089134
0.000710539
0.000781056
0.000591977
0.000646651
0.000464316
0.000483328
0.000413254
0.000425853
0.000384881
0.000395415
0.000378003
0.000389441
0.000368379
0.00038198
0.000352712
0.000364381
0.000342159
0.000343185
0.000374923
0.000335254
0.000349878
0.000419985
0.000379473
0.000503341
0.00052328
0.00051387
0.000448586
0.000400661
0.000387904
0.000464939
0.00044827
0.000517572
0.000517578
0.000506646
0.000170574
0.000325397
0.00014531
0.000172512
0.000176097
0.000151348
0.000142461
0.000145676
0.000152891
0.000164618
0.000181524
0.000206577
0.000261651
0.000342958
0.000374029
0.000360953
0.000348058
0.000374617
0.000519408
0.000785073
0.000816705
0.000634444
0.000419315
0.000420877
0.000492579
0.000546387
0.000568614
0.000567838
0.000534855
0.000464207
0.000383371
0.000338811
0.000561983
0.000759634
0.000710068
0.000805462
0.000778923
0.000942279
0.000941758
0.000920499
0.000935884
0.000849241
0.000908999
0.000652467
0.000745889
0.000518801
0.000572686
0.000443765
0.000463303
0.00041612
0.000437087
0.000411253
0.000437441
0.000398112
0.000419563
0.000379085
0.000391673
0.000355729
0.000365957
0.000372324
0.000334226
0.000334797
0.000345838
0.000340367
0.000332343
0.000350004
0.000329185
0.000328241
0.000353058
0.000482822
0.000498987
0.000416363
0.000374004
0.000362052
0.000436172
0.000511053
0.000441842
0.000492076
0.000510437
0.000514502
0.000166747
0.000456153
0.00039542
0.000307974
0.000152728
0.000180936
0.000176182
0.000151715
0.00014865
0.000153213
0.000162467
0.000178731
0.000199019
0.000244731
0.000331504
0.000377706
0.000373292
0.000352027
0.000358422
0.000461695
0.000739977
0.000813404
0.000642804
0.000387816
0.000348216
0.000409502
0.000504175
0.00055106
0.000573602
0.000559733
0.000506214
0.000441895
0.000381231
0.000536662
0.000749939
0.000877168
0.000863971
0.000927743
0.00090888
0.00103093
0.00104681
0.000960243
0.00100123
0.00083473
0.000916245
0.000628092
0.000731422
0.000497974
0.000545822
0.000448611
0.000457556
0.000452293
0.000453268
0.000443059
0.000457703
0.000411014
0.000433917
0.000377202
0.000384294
0.000390232
0.000400783
0.000352459
0.000359433
0.00036603
0.0003712
0.000329482
0.000333618
0.000344557
0.000338517
0.000323423
0.000329794
0.000319236
0.000323308
0.00033204
0.000458512
0.000480321
0.000388589
0.00033769
0.00034877
0.000407482
0.000511757
0.000499766
0.000498715
0.000509462
0.00026489
7.08538e-05
0.000132873
0.000468196
0.00040618
0.000165487
0.000192014
0.000172405
0.000154361
0.000154556
0.000160929
0.000176069
0.000194
0.000229805
0.000306492
0.000374532
0.000385721
0.000359175
0.000348684
0.000414855
0.000662718
0.000804499
0.000666256
0.000387909
0.000303137
0.000336623
0.000432118
0.000536342
0.000579671
0.000597161
0.00055922
0.000493879
0.000447136
0.000543652
0.000702952
0.000988317
0.000933181
0.00103194
0.0010115
0.00104975
0.00104764
0.00109828
0.00113429
0.000987489
0.00104877
0.00082986
0.000922919
0.00056816
0.000675117
0.000486153
0.000504494
0.000431446
0.000357639
0.000439233
0.000374024
0.000427867
0.000371704
0.000409498
0.000423743
0.00042877
0.000357322
0.000376407
0.000382142
0.00039031
0.000399324
0.000350716
0.000355405
0.000363842
0.000368615
0.000326042
0.000330216
0.000341087
0.00033527
0.000317093
0.000316421
0.000311147
0.000318493
0.000315815
0.000431968
0.00045918
0.000364275
0.000318499
0.00032621
0.000382457
0.000510895
0.00050403
0.000484139
0.000503083
0.000213953
3.38928e-05
0.000127975
0.000476272
0.000328074
0.000185057
0.000199246
0.000165829
0.000157659
0.000160861
0.000173051
0.000190141
0.000218223
0.000281828
0.000368422
0.000395537
0.000368543
0.000345886
0.000375678
0.000560244
0.00078229
0.000712252
0.000406262
0.000296229
0.000285911
0.000346638
0.000494864
0.000574151
0.000622068
0.000624367
0.000568673
0.000516608
0.00057792
0.000683652
0.000993744
0.00114968
0.00114845
0.00117216
0.00116746
0.00115824
0.0011714
0.00114506
0.00119671
0.00100763
0.00108162
0.000800995
0.000914652
0.000431431
0.000531086
0.000330263
0.000359799
0.000288027
0.000226202
0.000322196
0.000236944
0.000384331
0.000315621
0.000332494
0.000267491
0.000409149
0.000396679
0.000354966
0.000342341
0.000373056
0.000379048
0.000386164
0.000394155
0.000346389
0.000359937
0.000350414
0.000363497
0.000321464
0.000325457
0.000336257
0.000330139
0.000310934
0.000306466
0.000304006
0.000312657
0.000303445
0.00040603
0.000436705
0.000340938
0.000303396
0.00030807
0.00036043
0.000510394
0.00050654
0.000468155
0.000494721
0.000211332
2.44067e-05
9.95036e-05
0.000431942
0.000300667
0.000206286
0.000190718
0.000163175
0.000161504
0.000170108
0.000187142
0.000209177
0.000261575
0.000357388
0.000399493
0.000385152
0.000349586
0.000349623
0.000468999
0.000738118
0.000748853
0.000466795
0.000306561
0.000265667
0.000289987
0.000390305
0.000547472
0.000621034
0.000668244
0.00066049
0.000602173
0.000610383
0.000706261
0.000937129
0.00125349
0.00121478
0.00128368
0.00127544
0.00128112
0.0012866
0.00123626
0.00126454
0.00116585
0.00122676
0.00101129
0.00109397
0.000639754
0.000742348
0.000325732
0.000414194
0.000224974
0.000259739
0.000160253
0.000133809
0.000201816
0.000126392
0.000320141
0.000313864
0.000296094
0.00027381
0.000368912
0.000330412
0.000304661
0.000287187
0.000367716
0.000372338
0.000378016
0.00035448
0.00033986
0.000354171
0.000344014
0.000357026
0.000315309
0.000318916
0.000329278
0.000323622
0.000304098
0.000298003
0.000296363
0.000305266
0.00029338
0.00038322
0.000414325
0.000319798
0.000291187
0.0002931
0.000339586
0.00050924
0.000477026
0.000451849
0.000485069
0.000206057
4.62671e-06
5.87361e-05
0.000383136
0.000282767
0.000214212
0.000174937
0.000163868
0.000167827
0.000184295
0.000202969
0.000244091
0.000331893
0.000395592
0.000396783
0.000356802
0.000335845
0.000403837
0.000649219
0.000761794
0.000562598
0.000343419
0.000272042
0.000260601
0.000315269
0.000442849
0.000592798
0.000672362
0.000723579
0.000715243
0.000674075
0.000729675
0.000936414
0.00123962
0.00134575
0.00133918
0.00136135
0.00135861
0.00134155
0.00135692
0.00127683
0.00131515
0.00104216
0.00113808
0.000841568
0.000941933
0.000500631
0.000588326
0.000242687
0.000314928
0.000145668
0.000180647
8.81844e-05
8.77337e-05
0.000155713
0.000121376
9.40109e-05
0.000105067
0.000270283
0.00025319
0.000224467
0.000179897
0.000310544
0.000280267
0.000260072
0.000245531
0.000359249
0.00036225
0.000357653
0.000304321
0.000332291
0.000346452
0.000335919
0.000347244
0.000307357
0.000310706
0.000320324
0.000315727
0.000295754
0.000289559
0.000287342
0.000296071
0.000284048
0.000363721
0.000393808
0.000301697
0.000280535
0.000280459
0.00032013
0.000482886
0.000421315
0.000434539
0.000473074
0.000172631
1.03358e-05
5.1215e-05
0.000354206
0.00025317
0.000204714
0.000168421
0.000167935
0.00018025
0.00019797
0.000230899
0.000303418
0.000388924
0.000406711
0.000368226
0.000332681
0.000356433
0.000531833
0.000749892
0.000649725
0.000439633
0.000305092
0.000263506
0.000266708
0.000347683
0.000477589
0.000640426
0.000731656
0.000789641
0.000797542
0.000796848
0.000951697
0.0011988
0.00132693
0.00129668
0.00137256
0.00135659
0.00137958
0.00137918
0.00135026
0.00137078
0.00121842
0.00129879
0.000862912
0.000949853
0.000677292
0.000769128
0.000386893
0.000457235
0.000170966
0.000243795
9.66412e-05
0.000119333
9.19538e-05
8.85081e-05
9.1762e-05
0.000116464
0.000102111
8.91253e-05
9.38966e-05
0.000225927
0.00020005
0.000168677
0.000134857
0.000267397
0.000244165
0.000228743
0.000210496
0.00034803
0.000348156
0.000318106
0.000270364
0.000323895
0.000337573
0.000326655
0.000337685
0.000297834
0.00030117
0.000310442
0.0003064
0.000285598
0.000280067
0.000276509
0.000285204
0.000274212
0.000345917
0.000376361
0.00028643
0.000270131
0.000269071
0.000302262
0.000434327
0.000390689
0.00041769
0.000434585
0.000155043
7.10168e-05
8.09719e-05
0.00033214
0.000237438
0.000186351
0.000169319
0.000176383
0.000194587
0.000220291
0.000279837
0.000378777
0.000413302
0.000389959
0.000337934
0.000327346
0.000436971
0.000692725
0.000709036
0.000534224
0.000406112
0.000289381
0.00026181
0.000281176
0.000370554
0.000507628
0.000688844
0.000795542
0.000863259
0.000908751
0.00100557
0.0011804
0.00124978
0.00130773
0.00127935
0.00134966
0.00133582
0.00134923
0.00135352
0.00121953
0.00130697
0.00103887
0.00113011
0.000687966
0.00076669
0.00053387
0.000611506
0.000310571
0.000364204
0.000127007
0.0001827
8.85678e-05
9.95935e-05
8.8134e-05
9.47962e-05
0.00010829
0.000108089
0.000104271
0.000100498
9.746e-05
9.85875e-05
0.000185101
0.000157151
0.000131982
0.000113718
0.000240446
0.000221932
0.000202664
0.000177505
0.000335378
0.000331324
0.000299325
0.000257164
0.000313948
0.000327282
0.000316502
0.000325927
0.000287008
0.000290417
0.000299606
0.000295369
0.000273475
0.000268765
0.000263351
0.000272784
0.000262819
0.000329272
0.000361194
0.000273235
0.00025877
0.000257349
0.000287067
0.000408788
0.000376848
0.000401392
0.000412162
0.00017696
7.17576e-05
0.000122369
0.000323677
0.000285459
0.000175897
0.000174528
0.000190562
0.00021255
0.000259626
0.000357242
0.000412475
0.000403829
0.000346207
0.000313978
0.000368875
0.000573485
0.000719983
0.000614207
0.000521832
0.000392901
0.000282886
0.000260713
0.000287968
0.000382455
0.000522372
0.000717071
0.000850844
0.000933443
0.00101782
0.00115772
0.00119337
0.0011874
0.00116632
0.00124035
0.00121332
0.00127205
0.00126138
0.00121702
0.00127351
0.00103012
0.00112438
0.000850926
0.000939069
0.000533293
0.000600831
0.00041515
0.000473465
0.000240906
0.00030761
0.000101996
0.00013286
9.70296e-05
9.20881e-05
8.96236e-05
9.68817e-05
9.82027e-05
0.000107057
0.00010001
0.000120749
0.000125624
0.000135291
0.000130131
0.00015316
0.000133828
0.000121425
0.000117473
0.000230255
0.000207951
0.000180043
0.000157011
0.000323002
0.000316918
0.000306104
0.000263657
0.000302761
0.000317008
0.000305505
0.000314769
0.000274633
0.00027806
0.000287222
0.000282275
0.000260029
0.000255303
0.000248927
0.000259397
0.000249127
0.000314159
0.000347604
0.000261242
0.000244975
0.000245077
0.000273992
0.000398391
0.000377134
0.000386945
0.00040016
0.000198642
0.000123593
0.000199157
0.000363396
0.000338272
0.000175159
0.000187604