/*--------------------------------*- C++ -*----------------------------------*\
  =========                 |
  \\      /  F ield         | OpenFOAM: The Open Source CFD Toolbox
   \\    /   O peration     | Website:  https://openfoam.org
    \\  /    A nd           | Version:  dev
     \\/     M anipulation  |
\*---------------------------------------------------------------------------*/
FoamFile
{
    version     2.0;
    format      ascii;
    class       volScalarField;
    location    "2500";
    object      O2;
}
// * * * * * * * * * * * * * * * * * * * * * * * * * * * * * * * * * * * * * //

dimensions      [0 0 0 0 0 0 0];

internalField   nonuniform List<scalar> 
9851
(
0.23301
0.23301
0.23301
0.23301
0.23301
0.23301
0.23301
0.23301
0.23301
0.23301
0.23301
0.23301
0.23301
0.23301
0.23301
0.23301
0.23301
0.23301
0.23301
0.23301
0.23301
0.23301
0.23301
0.23301
0.23301
0.23301
0.23301
0.23301
0.23301
0.23301
0.23301
0.23301
0.23301
0.23301
0.23301
0.23301
0.23301
0.23301
0.23301
0.23301
0.23301
0.23301
0.23301
0.23301
0.23301
0.23301
0.23301
0.23301
0.23301
0.23301
0.23301
0.23301
0.23301
0.23301
0.23301
0.23301
0.23301
0.23301
0.23301
0.23301
0.23301
0.23301
0.23301
0.23301
0.23301
0.23301
0.23301
0.23301
0.23301
0.23301
0.23301
0.23301
0.23301
0.23301
0.23301
0.23301
0.23301
0.23301
0.23301
0.23301
0.23301
0.23301
0.23301
0.23301
0.23301
0.23301
0.23301
0.23301
0.23301
0.23301
0.23301
0.23301
0.23301
0.23301
0.23301
0.23301
0.23301
0.23301
0.23301
0.23301
0.23301
0.23301
0.23301
0.23301
0.23301
0.23301
0.23301
0.23301
0.23301
0.23301
0.23301
0.23301
0.23301
0.23301
0.23301
0.23301
0.23301
0.23301
0.23301
0.23301
0.23301
0.23301
0.23301
0.23301
0.23301
0.23301
0.23301
0.23301
0.23301
0.23301
0.23301
0.23301
0.23301
0.23301
0.23301
0.23301
0.23301
0.23301
0.23301
0.23301
0.23301
0.23301
0.23301
0.23301
0.23301
0.23301
0.23301
0.23301
0.23301
0.23301
0.23301
0.23301
0.23301
0.23301
0.23301
0.23301
0.23301
0.23301
0.23301
0.23301
0.23301
0.23301
0.23301
0.23301
0.23301
0.23301
0.23301
0.23301
0.23301
0.23301
0.23301
0.23301
0.23301
0.23301
0.23301
0.23301
0.23301
0.23301
0.23301
0.23301
0.23301
0.23301
0.23301
0.23301
0.23301
0.23301
0.23301
0.23301
0.23301
0.23301
0.23301
0.23301
0.23301
0.23301
0.23301
0.23301
0.23301
0.23301
0.23301
0.23301
0.23301
0.23301
0.23301
0.23301
0.23301
0.23301
0.23301
0.23301
0.23301
0.23301
0.23301
0.23301
0.23301
0.23301
0.23301
0.23301
0.23301
0.23301
0.23301
0.23301
0.23301
0.23301
0.23301
0.23301
0.23301
0.23301
0.23301
0.23301
0.23301
0.23301
0.23301
0.23301
0.23301
0.23301
0.23301
0.23301
0.23301
0.23301
0.23301
0.23301
0.23301
0.23301
0.23301
0.23301
0.23301
0.23301
0.23301
0.23301
0.23301
0.23301
0.23301
0.23301
0.23301
0.23301
0.23301
0.23301
0.23301
0.23301
0.23301
0.23301
0.23301
0.23301
0.23301
0.23301
0.23301
0.23301
0.23301
0.23301
0.23301
0.23301
0.23301
0.23301
0.23301
0.23301
0.23301
0.23301
0.23301
0.23301
0.23301
0.23301
0.23301
0.23301
0.23301
0.23301
0.23301
0.23301
0.23301
0.23301
0.23301
0.23301
0.23301
0.23301
0.23301
0.23301
0.23301
0.23301
0.23301
0.23301
0.23301
0.23301
0.23301
0.23301
0.23301
0.23301
0.23301
0.23301
0.23301
0.23301
0.23301
0.23301
0.23301
0.23301
0.23301
0.23301
0.23301
0.23301
0.23301
0.23301
0.23301
0.23301
0.23301
0.23301
0.23301
0.23301
0.23301
0.23301
0.23301
0.23301
0.23301
0.23301
0.23301
0.23301
0.23301
0.23301
0.23301
0.23301
0.23301
0.23301
0.23301
0.23301
0.23301
0.23301
0.23301
0.23301
0.23301
0.23301
0.23301
0.23301
0.23301
0.23301
0.23301
0.23301
0.23301
0.23301
0.23301
0.23301
0.23301
0.23301
0.23301
0.23301
0.23301
0.23301
0.23301
0.23301
0.23301
0.23301
0.23301
0.23301
0.23301
0.23301
0.23301
0.23301
0.23301
0.23301
0.23301
0.23301
0.23301
0.23301
0.23301
0.23301
0.23301
0.23301
0.23301
0.23301
0.23301
0.23301
0.23301
0.23301
0.23301
0.23301
0.23301
0.23301
0.23301
0.23301
0.23301
0.23301
0.23301
0.23301
0.23301
0.23301
0.23301
0.23301
0.23301
0.23301
0.23301
0.23301
0.23301
0.23301
0.23301
0.23301
0.23301
0.23301
0.23301
0.23301
0.23301
0.23301
0.23301
0.23301
0.23301
0.23301
0.23301
0.23301
0.23301
0.23301
0.23301
0.23301
0.23301
0.23301
0.23301
0.23301
0.23301
0.23301
0.23301
0.23301
0.23301
0.23301
0.23301
0.23301
0.23301
0.23301
0.23301
0.23301
0.23301
0.23301
0.23301
0.23301
0.23301
0.23301
0.23301
0.23301
0.23301
0.23301
0.23301
0.23301
0.23301
0.23301
0.23301
0.23301
0.23301
0.23301
0.23301
0.23301
0.23301
0.23301
0.23301
0.23301
0.23301
0.23301
0.23301
0.23301
0.23301
0.23301
0.23301
0.23301
0.23301
0.23301
0.23301
0.23301
0.23301
0.23301
0.23301
0.23301
0.23301
0.23301
0.23301
0.23301
0.23301
0.23301
0.23301
0.23301
0.23301
0.23301
0.23301
0.23301
0.23301
0.23301
0.23301
0.23301
0.23301
0.23301
0.23301
0.23301
0.23301
0.23301
0.23301
0.23301
0.23301
0.23301
0.23301
0.23301
0.23301
0.23301
0.23301
0.23301
0.23301
0.23301
0.23301
0.23301
0.23301
0.23301
0.23301
0.23301
0.23301
0.23301
0.23301
0.23301
0.23301
0.23301
0.23301
0.23301
0.23301
0.23301
0.23301
0.23301
0.23301
0.23301
0.23301
0.23301
0.23301
0.23301
0.23301
0.23301
0.23301
0.23301
0.23301
0.23301
0.23301
0.23301
0.23301
0.23301
0.23301
0.23301
0.23301
0.23301
0.23301
0.23301
0.23301
0.23301
0.23301
0.23301
0.23301
0.23301
0.23301
0.23301
0.23301
0.23301
0.23301
0.23301
0.23301
0.23301
0.23301
0.23301
0.23301
0.23301
0.23301
0.23301
0.23301
0.23301
0.23301
0.23301
0.23301
0.23301
0.23301
0.23301
0.23301
0.23301
0.23301
0.23301
0.23301
0.23301
0.23301
0.23301
0.23301
0.23301
0.23301
0.23301
0.23301
0.23301
0.23301
0.23301
0.23301
0.23301
0.23301
0.23301
0.23301
0.23301
0.23301
0.23301
0.23301
0.23301
0.23301
0.23301
0.23301
0.23301
0.23301
0.23301
0.23301
0.23301
0.23301
0.23301
0.23301
0.23301
0.23301
0.23301
0.23301
0.23301
0.23301
0.23301
0.23301
0.23301
0.23301
0.23301
0.23301
0.23301
0.23301
0.23301
0.23301
0.23301
0.23301
0.23301
0.23301
0.23301
0.23301
0.23301
0.23301
0.23301
0.23301
0.23301
0.23301
0.23301
0.23301
0.23301
0.23301
0.23301
0.23301
0.23301
0.23301
0.23301
0.23301
0.23301
0.23301
0.23301
0.23301
0.23301
0.23301
0.23301
0.23301
0.23301
0.23301
0.23301
0.23301
0.23301
0.23301
0.23301
0.23301
0.23301
0.23301
0.23301
0.23301
0.23301
0.23301
0.23301
0.23301
0.23301
0.23301
0.23301
0.23301
0.23301
0.23301
0.23301
0.23301
0.23301
0.23301
0.23301
0.23301
0.23301
0.23301
0.23301
0.23301
0.23301
0.23301
0.23301
0.23301
0.23301
0.23301
0.23301
0.23301
0.23301
0.23301
0.23301
0.23301
0.23301
0.23301
0.23301
0.23301
0.23301
0.23301
0.23301
0.23301
0.23301
0.23301
0.23301
0.23301
0.23301
0.23301
0.23301
0.23301
0.23301
0.23301
0.23301
0.23301
0.23301
0.23301
0.23301
0.23301
0.23301
0.23301
0.23301
0.23301
0.23301
0.23301
0.23301
0.23301
0.23301
0.23301
0.23301
0.23301
0.23301
0.23301
0.23301
0.23301
0.23301
0.23301
0.23301
0.23301
0.23301
0.23301
0.23301
0.23301
0.23301
0.23301
0.23301
0.23301
0.23301
0.23301
0.23301
0.23301
0.23301
0.23301
0.23301
0.23301
0.23301
0.23301
0.23301
0.23301
0.23301
0.23301
0.23301
0.23301
0.23301
0.23301
0.23301
0.23301
0.23301
0.23301
0.23301
0.23301
0.23301
0.23301
0.23301
0.23301
0.23301
0.23301
0.23301
0.23301
0.23301
0.23301
0.23301
0.23301
0.23301
0.23301
0.23301
0.23301
0.23301
0.23301
0.23301
0.23301
0.23301
0.23301
0.23301
0.23301
0.23301
0.23301
0.23301
0.23301
0.23301
0.23301
0.23301
0.23301
0.23301
0.23301
0.23301
0.23301
0.23301
0.23301
0.23301
0.23301
0.23301
0.23301
0.23301
0.23301
0.23301
0.23301
0.23301
0.23301
0.23301
0.23301
0.233009
0.233009
0.233006
0.233009
0.233006
0.233009
0.233007
0.23301
0.233009
0.23301
0.23301
0.23301
0.23301
0.23301
0.23301
0.23301
0.23301
0.23301
0.23301
0.23301
0.23301
0.23301
0.23301
0.23301
0.23301
0.23301
0.23301
0.23301
0.23301
0.23301
0.23301
0.23301
0.23301
0.23301
0.23301
0.23301
0.23301
0.23301
0.23301
0.23301
0.23301
0.23301
0.23301
0.23301
0.23301
0.23301
0.23301
0.23301
0.233006
0.233001
0.232989
0.232998
0.232981
0.233
0.232981
0.233005
0.23299
0.233008
0.233001
0.233008
0.23301
0.233008
0.233008
0.23301
0.23301
0.23301
0.23301
0.23301
0.23301
0.23301
0.23301
0.23301
0.23301
0.23301
0.23301
0.23301
0.23301
0.23301
0.23301
0.23301
0.23301
0.23301
0.23301
0.23301
0.23301
0.23301
0.233009
0.233008
0.233008
0.233009
0.233009
0.23301
0.23301
0.23301
0.23301
0.23301
0.23301
0.23301
0.233
0.232975
0.232949
0.232949
0.232889
0.232938
0.232852
0.232949
0.232859
0.232975
0.232902
0.232998
0.232958
0.232995
0.233009
0.232995
0.232998
0.23301
0.233009
0.23301
0.23301
0.23301
0.23301
0.23301
0.23301
0.23301
0.23301
0.23301
0.23301
0.23301
0.23301
0.23301
0.23301
0.23301
0.23301
0.23301
0.23301
0.23301
0.23301
0.233008
0.233006
0.233002
0.233001
0.233003
0.233006
0.233008
0.233009
0.23301
0.23301
0.23301
0.23301
0.23301
0.232997
0.232927
0.232897
0.23282
0.232728
0.232718
0.232541
0.23268
0.232419
0.232735
0.232425
0.232841
0.232578
0.232942
0.232778
0.232932
0.233002
0.232933
0.232946
0.23301
0.233006
0.23301
0.23301
0.23301
0.23301
0.23301
0.23301
0.23301
0.23301
0.23301
0.23301
0.23301
0.23301
0.23301
0.23301
0.23301
0.23301
0.23301
0.23301
0.23301
0.233008
0.233005
0.232997
0.232982
0.232969
0.232971
0.232984
0.232998
0.233006
0.233009
0.23301
0.23301
0.23301
0.23301
0.233
0.232879
0.232857
0.232642
0.23255
0.232344
0.232139
0.232101
0.231778
0.232006
0.231553
0.232101
0.231533
0.232396
0.231769
0.232726
0.232235
0.2327
0.232966
0.232708
0.232752
0.233009
0.232987
0.23301
0.23301
0.23301
0.23301
0.23301
0.23301
0.23301
0.23301
0.23301
0.23301
0.23301
0.23301
0.23301
0.23301
0.23301
0.23301
0.23301
0.23301
0.233009
0.233007
0.232999
0.232975
0.232927
0.232869
0.232847
0.232879
0.232936
0.23298
0.233001
0.233008
0.233009
0.23301
0.23301
0.233
0.232858
0.232911
0.232487
0.232424
0.231958
0.231799
0.231469
0.231209
0.231143
0.230827
0.231016
0.230672
0.231094
0.230651
0.231446
0.230765
0.232123
0.23121
0.23208
0.232825
0.23212
0.232242
0.233001
0.232905
0.23301
0.233007
0.23301
0.23301
0.23301
0.23301
0.23301
0.23301
0.23301
0.23301
0.23301
0.23301
0.23301
0.23301
0.23301
0.23301
0.23301
0.23301
0.233009
0.233006
0.232991
0.23294
0.23283
0.232681
0.232572
0.232568
0.232687
0.232851
0.232953
0.232994
0.233006
0.233009
0.233009
0.233003
0.232672
0.232408
0.232329
0.231689
0.231598
0.231014
0.230869
0.230627
0.230498
0.230476
0.230355
0.230426
0.230301
0.230443
0.230292
0.230577
0.230313
0.231075
0.230455
0.231043
0.232433
0.231126
0.231347
0.232967
0.232656
0.233009
0.232997
0.23301
0.23301
0.23301
0.23301
0.23301
0.23301
0.23301
0.23301
0.23301
0.23301
0.23301
0.23301
0.23301
0.23301
0.23301
0.23301
0.233009
0.233005
0.232983
0.232903
0.23272
0.232464
0.23225
0.232169
0.232253
0.232484
0.232768
0.232929
0.232989
0.233005
0.233008
0.233005
0.232778
0.231595
0.231646
0.231563
0.231569
0.230776
0.230711
0.230413
0.230356
0.230272
0.230215
0.230222
0.230162
0.230212
0.230153
0.230216
0.230163
0.230231
0.230169
0.230379
0.230171
0.230345
0.231684
0.230369
0.230505
0.232849
0.232115
0.233006
0.232954
0.23301
0.23301
0.23301
0.23301
0.23301
0.23301
0.23301
0.23301
0.23301
0.23301
0.23301
0.23301
0.23301
0.23301
0.23301
0.23301
0.233009
0.233004
0.232978
0.232873
0.232623
0.232267
0.231945
0.231759
0.231765
0.231972
0.232327
0.232714
0.232919
0.232987
0.233004
0.233005
0.232896
0.231747
0.231882
0.230738
0.230793
0.230693
0.230704
0.230321
0.230296
0.230177
0.230158
0.230114
0.230072
0.230093
0.230017
0.230105
0.230007
0.230129
0.23005
0.230135
0.230102
0.230119
0.230099
0.230073
0.230835
0.230054
0.230103
0.23255
0.231344
0.23299
0.232823
0.23301
0.23301
0.23301
0.23301
0.23301
0.23301
0.23301
0.23301
0.23301
0.23301
0.23301
0.23301
0.23301
0.23301
0.23301
0.23301
0.233009
0.233004
0.232977
0.232856
0.232555
0.232119
0.231693
0.23139
0.231273
0.231393
0.231748
0.232238
0.232708
0.232922
0.232988
0.233001
0.232936
0.232035
0.232348
0.230903
0.231006
0.230297
0.230312
0.230284
0.230288
0.230152
0.230156
0.230047
0.230045
0.229929
0.229845
0.229852
0.229643
0.229876
0.229561
0.229985
0.229677
0.230085
0.229912
0.230058
0.230066
0.230009
0.230273
0.229968
0.229961
0.23201
0.230653
0.232944
0.23256
0.23301
0.23301
0.23301
0.23301
0.23301
0.23301
0.23301
0.23301
0.23301
0.23301
0.23301
0.23301
0.23301
0.23301
0.23301
0.23301
0.23301
0.233005
0.232979
0.232855
0.232524
0.23202
0.231525
0.231121
0.230861
0.230818
0.231071
0.231598
0.232227
0.232732
0.232931
0.232987
0.232958
0.232112
0.231228
0.231279
0.230346
0.230398
0.230183
0.23018
0.230166
0.23018
0.230057
0.230086
0.229804
0.229813
0.229422
0.229254
0.229142
0.228697
0.229128
0.228424
0.229431
0.2286
0.229851
0.229195
0.230043
0.229824
0.230011
0.23003
0.229966
0.229933
0.231329
0.230251
0.232843
0.232154
0.23301
0.23301
0.23301
0.23301
0.23301
0.23301
0.23301
0.23301
0.23301
0.23301
0.23301
0.23301
0.23301
0.23301
0.23301
0.23301
0.233007
0.232986
0.232865
0.232524
0.231981
0.231435
0.230985
0.230615
0.230382
0.230422
0.230838
0.23155
0.232278
0.232775
0.232943
0.232957
0.23247
0.230807
0.230998
0.230514
0.230611
0.230169
0.230164
0.230229
0.230228
0.230146
0.230201
0.229857
0.229974
0.229203
0.229256
0.228331
0.228141
0.227709
0.227095
0.227571
0.226557
0.228063
0.226736
0.229044
0.227656
0.229844
0.229037
0.229889
0.229953
0.22993
0.229941
0.230753
0.230072
0.232654
0.231647
0.23301
0.23301
0.23301
0.23301
0.23301
0.23301
0.23301
0.23301
0.23301
0.23301
0.23301
0.23301
0.23301
0.23301
0.23301
0.233008
0.232994
0.232896
0.232554
0.231983
0.231436
0.230991
0.230577
0.2302
0.229978
0.230124
0.230765
0.23162
0.232382
0.232827
0.232928
0.232667
0.231268
0.231666
0.230266
0.230357
0.230172
0.230197
0.230208
0.230164
0.230371
0.230377
0.230157
0.230299
0.229416
0.22981
0.228152
0.2284
0.226766
0.22681
0.225829
0.225606
0.2255
0.224899
0.226008
0.224722
0.22745
0.225577
0.229192
0.227516
0.229445
0.229938
0.229725
0.229843
0.22994
0.23041
0.230003
0.232437
0.231265
0.23301
0.23301
0.23301
0.23301
0.23301
0.23301
0.23301
0.23301
0.23301
0.23301
0.23301
0.23301
0.23301
0.23301
0.233009
0.233
0.232931
0.232635
0.232041
0.231542
0.231164
0.230689
0.230219
0.22983
0.229652
0.229999
0.230836
0.231789
0.232529
0.23284
0.232714
0.231473
0.230567
0.230598
0.230039
0.230044
0.230113
0.23006
0.230357
0.230287
0.23054
0.230542
0.230186
0.230437
0.229066
0.229801
0.227227
0.228057
0.2258
0.22628
0.224887
0.22515
0.224305
0.224423
0.224227
0.223891
0.225395
0.223961
0.227896
0.225423
0.226635
0.22913
0.228274
0.229903
0.229949
0.229927
0.229552
0.228925
0.228594
0.22971
0.230256
0.229941
0.229954
0.230018
0.232384
0.231141
0.23301
0.23301
0.23301
0.23301
0.23301
0.23301
0.23301
0.23301
0.23301
0.23301
0.23301
0.23301
0.23301
0.23301
0.233004
0.232962
0.23273
0.232172
0.231695
0.231439
0.231116
0.23049
0.229891
0.229494
0.22942
0.230009
0.23104
0.232039
0.232633
0.232685
0.231822
0.230247
0.230518
0.230084
0.230133
0.229983
0.229909
0.230184
0.230076
0.230494
0.230366
0.230744
0.230696
0.230376
0.230682
0.229115
0.230139
0.227104
0.228289
0.225644
0.226445
0.22474
0.225334
0.224071
0.224552
0.223621
0.223714
0.223884
0.224631
0.223831
0.223413
0.223567
0.2256
0.227217
0.225852
0.224617
0.227546
0.229819
0.22988
0.229241
0.228408
0.227973
0.229491
0.230003
0.230369
0.230104
0.22991
0.229933
0.232475
0.230349
0.230826
0.231461
0.23301
0.23301
0.23301
0.23301
0.23301
0.23301
0.23301
0.23301
0.23301
0.23301
0.23301
0.23301
0.23301
0.233007
0.232983
0.232821
0.23233
0.231823
0.231632
0.231562
0.23123
0.230323
0.229561
0.229198
0.229312
0.230144
0.231345
0.232267
0.232561
0.231961
0.230337
0.229856
0.229818
0.229857
0.229844
0.229928
0.229805
0.230217
0.230068
0.230544
0.230341
0.230969
0.230761
0.230799
0.23102
0.2297
0.230815
0.227649
0.229195
0.226221
0.227413
0.225374
0.226389
0.224159
0.2246
0.225045
0.225639
0.223497
0.223696
0.2238
0.224125
0.223884
0.223468
0.223391
0.22335
0.22478
0.226278
0.225039
0.223942
0.226717
0.229675
0.229794
0.228824
0.22723
0.227768
0.229185
0.22998
0.230092
0.229859
0.229901
0.231524
0.232871
0.232427
0.230351
0.230857
0.23301
0.23301
0.23301
0.23301
0.23301
0.23301
0.23301
0.23301
0.23301
0.23301
0.23301
0.23301
0.233008
0.232996
0.232895
0.232502
0.231946
0.231757
0.231831
0.231888
0.231233
0.23002
0.229235
0.228971
0.229302
0.230382
0.231614
0.232281
0.231932
0.230479
0.229547
0.229632
0.229583
0.229531
0.229703
0.229626
0.229768
0.229615
0.230135
0.229942
0.230473
0.230186
0.231118
0.230726
0.231327
0.231348
0.23069
0.231556
0.228903
0.230554
0.227573
0.228993
0.22615
0.226784
0.227304
0.227956
0.224573
0.225104
0.225696
0.226316
0.223595
0.223944
0.224046
0.224517
0.223445
0.223281
0.223482
0.223306
0.224068
0.225396
0.224283
0.223463
0.225859
0.229466
0.229661
0.228304
0.226423
0.227048
0.228792
0.229959
0.230086
0.22978
0.229857
0.23166
0.232956
0.232618
0.230369
0.230926
0.23301
0.23301
0.23301
0.23301
0.23301
0.23301
0.23301
0.23301
0.23301
0.23301
0.23301
0.233009
0.233002
0.232948
0.232662
0.232093
0.231847
0.23194
0.23228
0.231962
0.231054
0.229612
0.228973
0.228829
0.229353
0.230561
0.231712
0.231754
0.230482
0.229356
0.229174
0.229088
0.229292
0.229217
0.229485
0.229376
0.229485
0.229312
0.229921
0.229687
0.230332
0.229967
0.231177
0.230713
0.23178
0.231609
0.231744
0.232125
0.230544
0.231956
0.228525
0.229263
0.229961
0.230826
0.226941
0.227552
0.228156
0.228777
0.225082
0.225719
0.226398
0.227084
0.223812
0.224416
0.224271
0.224997
0.223234
0.223223
0.223667
0.223357
0.223534
0.224596
0.22368
0.223212
0.225039
0.22919
0.229482
0.227703
0.225612
0.226292
0.228322
0.229936
0.230083
0.229673
0.229797
0.231851
0.232992
0.232785
0.2304
0.231042
0.23301
0.23301
0.23301
0.23301
0.23301
0.23301
0.23301
0.23301
0.23301
0.23301
0.23301
0.233006
0.23298
0.232797
0.232289
0.231927
0.231976
0.23241
0.232425
0.231909
0.230718
0.229314
0.228804
0.228745
0.229389
0.230611
0.231306
0.230388
0.229315
0.228657
0.228672
0.228779
0.228706
0.228935
0.228846
0.229165
0.229039
0.229143
0.22895
0.229646
0.229373
0.230274
0.229863
0.231382
0.2309
0.232132
0.231841
0.232467
0.232564
0.232046
0.232668
0.229403
0.230068
0.230717
0.231384
0.227747
0.228387
0.229022
0.229654
0.225667
0.226398
0.227151
0.227884
0.224095
0.224843
0.224636
0.225521
0.223152
0.22325
0.223901
0.223515
0.223225
0.223925
0.22329
0.223107
0.224312
0.228852
0.229257
0.227046
0.224848
0.225541
0.22779
0.229907
0.230082
0.229538
0.229721
0.232078
0.233006
0.232919
0.230441
0.231191
0.23301
0.23301
0.23301
0.23301
0.23301
0.23301
0.23301
0.23301
0.23301
0.23301
0.233008
0.232997
0.232894
0.232501
0.232023
0.23198
0.232405
0.232636
0.232441
0.231771
0.230514
0.22915
0.228688
0.228666
0.229312
0.230251
0.230069
0.229176
0.228312
0.228212
0.22811
0.228351
0.228277
0.228527
0.22843
0.228784
0.228643
0.228858
0.228621
0.229484
0.229145
0.230407
0.229927
0.231865
0.231438
0.232509
0.23224
0.232826
0.232848
0.232399
0.232698
0.232884
0.232813
0.230281
0.23089
0.231469
0.231987
0.22858
0.229249
0.229895
0.23051
0.226286
0.2271
0.227915
0.228688
0.224393
0.225289
0.224994
0.22605
0.223146
0.223362
0.224143
0.223706
0.223078
0.223432
0.223083
0.223071
0.223708
0.228456
0.228991
0.226362
0.224164
0.224837
0.227215
0.229871
0.230075
0.229374
0.229628
0.232342
0.233005
0.232946
0.23049
0.231368
0.23301
0.23301
0.23301
0.23301
0.23301
0.23301
0.23301
0.23301
0.23301
0.233009
0.233002
0.232954
0.232688
0.232176
0.23199
0.232351
0.232682
0.232696
0.232422
0.231719
0.230442
0.229073
0.228595
0.228533
0.228951
0.229244
0.228846
0.228115
0.227622
0.227586
0.227776
0.22769
0.227934
0.227852
0.228136
0.228026
0.228425
0.228266
0.228762
0.228472
0.229487
0.229099
0.230941
0.230414
0.2325
0.232188
0.232824
0.232713
0.232904
0.232926
0.232939
0.232674
0.232806
0.232899
0.232867
0.231084
0.231605
0.23206
0.232423
0.229412
0.230085
0.230699
0.231247
0.2269
0.227787
0.228654
0.229459
0.224672
0.22571
0.225308
0.22654
0.223219
0.223516
0.224359
0.223902
0.223011
0.223145
0.222985
0.223096
0.2233
0.228017
0.228688
0.22568
0.22361
0.224191
0.22662
0.229824
0.230065
0.229182
0.229517
0.232511
0.232937
0.232893
0.230545
0.23153
0.23301
0.23301
0.23301
0.23301
0.23301
0.23301
0.23301
0.23301
0.23301
0.233007
0.232986
0.23283
0.232385
0.232034
0.232217
0.232666
0.232768
0.232717
0.232427
0.231724
0.230466
0.229049
0.228496
0.228304
0.228267
0.228123
0.227716
0.22721
0.227264
0.22719
0.227426
0.227341
0.22761
0.227513
0.227856
0.227723
0.228227
0.228024
0.228984
0.228608
0.229897
0.229416
0.231771
0.231285
0.232842
0.232728
0.232942
0.232909
0.232918
0.232932
0.232948
0.232961
0.232767
0.23283
0.232889
0.232864
0.231726
0.232127
0.232441
0.23265
0.230187
0.230824
0.231365
0.231816
0.227462
0.228413
0.229323
0.230141
0.2249
0.226063
0.225541
0.226942
0.223342
0.223678
0.224531
0.224075
0.222996
0.222988
0.222931
0.223176
0.223056
0.227547
0.228354
0.225027
0.223244
0.223649
0.226024
0.229766
0.23005
0.228966
0.229391
0.232469
0.232909
0.232748
0.230599
0.231526
0.23301
0.23301
0.23301
0.23301
0.23301
0.23301
0.23301
0.23301
0.233009
0.232999
0.232921
0.232596
0.232147
0.232118
0.232585
0.232764
0.2328
0.232743
0.232481
0.231825
0.230628
0.229121
0.228386
0.228006
0.227703
0.227387
0.227125
0.227083
0.227113
0.227127
0.227084
0.22728
0.227195
0.227496
0.227378
0.227813
0.227638
0.22829
0.228027
0.229718
0.229248
0.230764
0.23023
0.232546
0.232257
0.232963
0.232929
0.232968
0.232973
0.232977
0.232909
0.23293
0.232926
0.232957
0.232754
0.232776
0.232815
0.232792
0.232177
0.232443
0.232612
0.232704
0.230841
0.23141
0.231854
0.232188
0.227921
0.228927
0.22987
0.230678
0.225053
0.226298
0.225671
0.227194
0.223472
0.223821
0.224637
0.224209
0.223026
0.222903
0.222907
0.223273
0.222911
0.227065
0.228002
0.224417
0.223004
0.223271
0.225453
0.2297
0.230031
0.228734
0.229252
0.232336
0.232648
0.232426
0.230615
0.231453
0.23301
0.23301
0.23301
0.23301
0.23301
0.23301
0.23301
0.23301
0.233004
0.232971
0.23277
0.232328
0.232101
0.232379
0.232715
0.232796
0.232823
0.232797
0.232571
0.231973
0.230886
0.229358
0.228325
0.227797
0.227424
0.22723
0.227439
0.227342
0.227465
0.227319
0.227305
0.227469
0.227378
0.227739
0.227588
0.228176
0.227933
0.228831
0.228473
0.230892
0.230393
0.231868
0.231397
0.232872
0.232779
0.232991
0.232991
0.232991
0.232971
0.232976
0.232991
0.232988
0.232847
0.232886
0.232847
0.23292
0.232624
0.23262
0.232651
0.232626
0.232414
0.232543
0.23261
0.232625
0.231327
0.231811
0.232146
0.232351
0.228194
0.229234
0.230205
0.231012
0.225123
0.226416
0.225723
0.227296
0.223587
0.223926
0.224672
0.224284
0.223082
0.222847
0.222898
0.223354
0.222814
0.226583
0.227638
0.22389
0.222843
0.223018
0.224924
0.229624
0.230009
0.228485
0.229099
0.232051
0.232474
0.232155
0.230591
0.231292
0.23301
0.23301
0.23301
0.23301
0.23301
0.23301
0.23301
0.233008
0.232995
0.232888
0.232538
0.232143
0.232214
0.232568
0.232741
0.232814
0.232862
0.232859
0.232656
0.232148
0.231221
0.229859
0.228627
0.227968
0.227771
0.228073
0.22862
0.228961
0.228135
0.228352
0.228006
0.228028
0.22816
0.228056
0.228507
0.228306
0.229088
0.228767
0.229907
0.229468
0.232122
0.23173
0.23264
0.232431
0.23298
0.232956
0.232995
0.232996
0.233001
0.233002
0.232964
0.232981
0.232993
0.232987
0.2327
0.23277
0.232678
0.232814
0.232375
0.232353
0.23237
0.232349
0.232449
0.232469
0.232454
0.232413
0.231614
0.232013
0.232236
0.232301
0.228287
0.229333
0.230321
0.231127
0.225133
0.226451
0.225694
0.227301
0.223655
0.223968
0.224639
0.224294
0.223125
0.222793
0.222901
0.223381
0.222734
0.226106
0.227262
0.223459
0.222723
0.222835
0.224402
0.229545
0.229976
0.228221
0.228935
0.23175
0.232633
0.232166
0.230526
0.231112
0.23301
0.23301
0.23301
0.23301
0.23301
0.23301
0.233009
0.233001
0.232955
0.232726
0.232298
0.232162
0.232375
0.23261
0.232737
0.232841
0.232912
0.232908
0.232737
0.232351
0.231641
0.230688
0.229782
0.229368
0.229649
0.23075
0.230161
0.230607
0.229515
0.229797
0.229269
0.22934
0.229387
0.229294
0.229809
0.229564
0.23047
0.230116
0.231298
0.230862
0.232761
0.232621
0.232919
0.232858
0.233002
0.233001
0.233001
0.232997
0.233
0.233002
0.233004
0.232924
0.232968
0.232992
0.232975
0.232438
0.232545
0.232388
0.23261
0.231989
0.231943
0.231943
0.231931
0.232295
0.232258
0.232158
0.232077
0.231673
0.231992
0.232086
0.232086
0.22825
0.22924
0.23018
0.230958
0.225041
0.226349
0.225508
0.227103
0.223641
0.223895
0.224459
0.224161
0.223118
0.222739
0.222877
0.22333
0.222654
0.225634
0.226872
0.223167
0.222638
0.222701
0.223935
0.229454
0.229922
0.227925
0.228745
0.231618
0.232893
0.232413
0.230439
0.230967
0.23301
0.23301
0.23301
0.23301
0.23301
0.23301
0.233006
0.232988
0.23286
0.232507
0.23218
0.232231
0.232455
0.232605
0.232735
0.232882
0.232953
0.232939
0.232821
0.232557
0.232113
0.231615
0.231294
0.231412
0.232006
0.232665
0.2317
0.231984
0.231156
0.231404
0.230894
0.230981
0.230969
0.2309
0.231353
0.231127
0.231914
0.231624
0.232436
0.232201
0.232962
0.232929
0.232994
0.232982
0.233004
0.233004
0.233007
0.233007
0.232996
0.233
0.233002
0.233004
0.232814
0.232932
0.232982
0.232944
0.232033
0.232186
0.23196
0.232285
0.23144
0.231359
0.231352
0.231338
0.232
0.231865
0.231712
0.231565
0.231487
0.231718
0.23175
0.231698
0.227951
0.228849
0.229718
0.230455
0.224783
0.22605
0.225142
0.226673
0.22354
0.22375
0.224191
0.223964
0.223056
0.222678
0.222812
0.223207
0.222593
0.225156
0.226424
0.222951
0.222561
0.222594
0.223519
0.229358
0.229854
0.227599
0.228562
0.231679
0.232992
0.232747
0.230343
0.230923
0.23301
0.23301
0.23301
0.23301
0.23301
0.233009
0.232999
0.232939
0.232698
0.232286
0.232186
0.232303
0.232469
0.232595
0.232757
0.232929
0.232981
0.232966
0.232893
0.232746
0.232566
0.232432
0.232467
0.232685
0.232901
0.232975
0.232735
0.23298
0.232654
0.232416
0.232528
0.232291
0.232332
0.232333
0.232298
0.232508
0.232409
0.23272
0.232617
0.23288
0.23281
0.233004
0.233
0.233008
0.233006
0.233005
0.233006
0.233008
0.233008
0.232989
0.232999
0.233001
0.233003
0.232604
0.232853
0.232961
0.232887
0.231467
0.231676
0.231406
0.231846
0.230693
0.230591
0.230591
0.230567
0.23152
0.231298
0.231069
0.230861
0.230972
0.231177
0.231182
0.231028
0.227371
0.228116
0.228851
0.229497
0.224421
0.225543
0.224658
0.225985
0.223364
0.223535
0.223868
0.223703
0.222953
0.222637
0.222749
0.22311
0.222543
0.22461
0.22597
0.222784
0.222508
0.22256
0.223221
0.229241
0.229782
0.227276
0.228328
0.231913
0.233006
0.232895
0.23027
0.230965
0.23301
0.23301
0.23301
0.23301
0.23301
0.233004
0.23298
0.232839
0.23249
0.232201
0.232205
0.232333
0.232461
0.232604
0.232819
0.232972
0.232995
0.232985
0.232949
0.232902
0.232862
0.232871
0.232933
0.232986
0.233007
0.23297
0.233007
0.233008
0.232955
0.232903
0.232929
0.232871
0.232882
0.23288
0.232872
0.232921
0.232898
0.232965
0.232944
0.232992
0.232981
0.233009
0.233009
0.233009
0.233009
0.233009
0.233005
0.233007
0.233009
0.233008
0.232976
0.232995
0.232998
0.233002
0.232298
0.232684
0.232923
0.232791
0.230752
0.231029
0.23075
0.231316
0.22974
0.22964
0.229672
0.229624
0.230778
0.230489
0.2302
0.229942
0.229973
0.230183
0.230183
0.230004
0.226471
0.226987
0.227511
0.227989
0.224023
0.224901
0.224171
0.225136
0.223264
0.223424
0.223725
0.223582
0.222891
0.222581
0.222688
0.223044
0.222482
0.224117
0.225491
0.222676
0.222455
0.22251
0.223
0.229135
0.229702
0.226873
0.228141
0.23224
0.233009
0.23295
0.230232
0.231079
0.23301
0.23301
0.23301
0.23301
0.233008
0.232997
0.232926
0.23268
0.232292
0.232182
0.232222
0.232334
0.232464
0.232664
0.232903
0.232995
0.233003
0.232998
0.232988
0.23298
0.232981
0.232994
0.233006
0.233009
0.23301
0.233006
0.23301
0.23301
0.233005
0.232999
0.233002
0.232995
0.232996
0.232996
0.232995
0.233001
0.232998
0.233006
0.233004
0.233008
0.233007
0.23301
0.23301
0.233009
0.233009
0.23301
0.23301
0.233004
0.233007
0.233008
0.233007
0.232954
0.232986
0.232993
0.233001
0.231906
0.23243
0.232865
0.232635
0.229902
0.230265
0.230026
0.230734
0.228599
0.22852
0.228643
0.228518
0.229717
0.229393
0.229077
0.2288
0.22836
0.228559
0.228566
0.228474
0.22537
0.225605
0.225847
0.226075
0.223827
0.224305
0.223898
0.22443
0.223196
0.223334
0.223477
0.22344
0.222829
0.222524
0.222639
0.222967
0.22244
0.223685
0.224942
0.222649
0.222381
0.22242
0.222878
0.229009
0.22964
0.226592
0.227913
0.232434
0.23301
0.232972
0.230238
0.231231
0.23301
0.23301
0.23301
0.233009
0.233002
0.232972
0.232824
0.232483
0.232202
0.232165
0.232226
0.232337
0.232516
0.232765
0.232972
0.233004
0.233006
0.233005
0.233004
0.233005
0.233007
0.233009
0.23301
0.23301
0.23301
0.23301
0.23301
0.23301
0.23301
0.23301
0.233009
0.23301
0.233009
0.233009
0.233009
0.233009
0.233009
0.233009
0.23301
0.23301
0.23301
0.23301
0.23301
0.23301
0.23301
0.23301
0.233009
0.233009
0.233009
0.233003
0.233004
0.233007
0.233004
0.23292
0.232972
0.232982
0.232996
0.231469
0.232132
0.232785
0.232441
0.228949
0.229415
0.229246
0.230112
0.227291
0.227257
0.227502
0.227292
0.228212
0.227935
0.227671
0.22744
0.226259
0.226349
0.22634
0.226275
0.224534
0.224618
0.22468
0.224705
0.223463
0.223942
0.223563
0.223962
0.223063
0.223105
0.223149
0.223107
0.222756
0.222477
0.222561
0.222809
0.222366
0.223402
0.224644
0.222603
0.222306
0.222317
0.222814
0.228917
0.229584
0.226233
0.22775
0.232513
0.233009
0.232967
0.230252
0.231266
0.23301
0.23301
0.23301
0.233006
0.232994
0.232915
0.232666
0.232293
0.23216
0.232151
0.232229
0.232381
0.23262
0.232893
0.232998
0.233008
0.233009
0.233008
0.233009
0.233009
0.23301
0.23301
0.23301
0.23301
0.23301
0.23301
0.23301
0.23301
0.23301
0.23301
0.23301
0.23301
0.23301
0.23301
0.23301
0.23301
0.23301
0.23301
0.23301
0.23301
0.23301
0.23301
0.23301
0.23301
0.23301
0.23301
0.23301
0.233007
0.233009
0.233009
0.233001
0.233004
0.233005
0.233003
0.232872
0.232951
0.232965
0.232987
0.231006
0.231821
0.232692
0.232238
0.227927
0.228494
0.228406
0.229441
0.225819
0.225841
0.226292
0.225989
0.226118
0.226005
0.225928
0.22586
0.224707
0.224691
0.224616
0.224531
0.223961
0.223984
0.224013
0.224042
0.222837
0.223636
0.22294
0.223716
0.222821
0.222873
0.222835
0.222725
0.222597
0.222388
0.222427
0.222644
0.222292
0.223303
0.22417
0.222541
0.222239
0.22224
0.222799
0.228776
0.229537
0.225976
0.227482
0.232462
0.232977
0.232905
0.230245
0.231191
0.23301
0.23301
0.233009
0.233001
0.232965
0.23281
0.232473
0.232185
0.232122
0.232146
0.232265
0.232483
0.232768
0.232976
0.233007