/*--------------------------------*- C++ -*----------------------------------*\
  =========                 |
  \\      /  F ield         | OpenFOAM: The Open Source CFD Toolbox
   \\    /   O peration     | Website:  https://openfoam.org
    \\  /    A nd           | Version:  dev
     \\/     M anipulation  |
\*---------------------------------------------------------------------------*/
FoamFile
{
    version     2.0;
    format      ascii;
    class       volScalarField;
    location    "2500";
    object      omega;
}
// * * * * * * * * * * * * * * * * * * * * * * * * * * * * * * * * * * * * * //

dimensions      [0 0 -1 0 0 0 0];

internalField   nonuniform List<scalar> 
9851
(
1.24591
1.25534
1.1965
1.18051
1.31909
1.08308
1.08892
1.32873
1.23874
1.02898
1.03874
1.30294
1.30339
1.10738
1.01389
1.01615
1.23756
1.31925
1.20454
1.0384
1.00662
1.00231
1.15071
1.31376
1.27083
1.08235
1.0116
1.00184
0.987786
1.07757
1.29154
1.29536
1.15723
1.02183
0.997
0.999518
0.977687
1.03451
1.24305
1.29637
1.22536
1.04857
0.992471
0.990895
0.998228
0.971233
1.00317
1.17552
1.29116
1.2617
1.10674
0.997019
0.97444
0.98707
0.997394
0.968584
0.981406
1.1025
1.27548
1.27534
1.17273
1.01609
0.969472
0.966812
0.984597
0.996901
0.968372
0.963354
1.04322
1.24242
1.27454
1.21988
1.06247
0.972771
0.952045
0.963469
0.983213
0.99654
0.967874
0.946328
1.00061
1.1888
1.27153
1.24461
1.12036
0.987379
0.9485
0.943847
0.96208
0.982541
0.996115
0.966979
0.933956
0.967838
1.12198
1.26215
1.25514
1.17036
1.0234
0.951074
0.932125
0.940298
0.961611
0.982307
0.995906
0.965898
0.925107
0.944052
1.05445
1.24099
1.25703
1.20383
1.07472
0.96228
0.929602
0.923598
0.939137
0.961624
0.982482
0.995783
0.964735
0.919159
0.92731
1.00277
1.20294
1.25615
1.22522
1.12102
0.990797
0.93155
0.914803
0.919818
0.938891
0.962268
0.982915
0.995644
0.963523
0.915524
0.914259
0.966031
1.14904
1.25202
1.23605
1.15668
1.03309
0.940259
0.913099
0.906549
0.918452
0.93939
0.963394
0.983336
0.995493
0.962196
0.912701
0.903575
0.939023
1.08721
1.24077
1.24241
1.18265
1.07513
0.962393
0.914628
0.89994
0.902483
0.91826
0.940596
0.964561
0.983743
0.99534
0.960802
0.910244
0.895659
0.919366
1.02859
1.21617
1.24444
1.20213
1.11019
0.996519
0.921312
0.898649
0.892105
0.900858
0.918829
0.942214
0.965863
0.98411
0.99514
0.959421
0.908098
0.88997
0.905386
0.983198
1.17605
1.24416
1.21986
1.13783
1.03254
0.938512
0.89977
0.88706
0.887929
0.900482
0.920199
0.944046
0.967104
0.98441
0.994867
0.958165
0.906331
0.886042
0.895625
0.951476
1.12419
1.23966
1.23017
1.16153
1.06609
0.964308
0.904849
0.88591
0.879825
0.886043
0.901139
0.92223
0.945955
0.96825
0.984556
0.994509
0.957037
0.905038
0.883532
0.889022
0.928441
1.06699
1.2255
1.23545
1.18331
1.09624
0.994151
0.91772
0.886631
0.875803
0.875816
0.885793
0.902663
0.924377
0.947851
0.969269
0.984498
0.994051
0.956175
0.904353
0.882187
0.884787
0.912262
1.01585
1.19477
1.23831
1.20495
1.12003
1.02655
0.937054
0.890329
0.874683
0.869599
0.874121
0.886608
0.904789
0.926667
0.949719
0.970047
0.984123
0.99353
0.955794
0.904409
0.881901
0.882219
0.901471
0.976206
1.14984
1.23584
1.21894
1.14263
1.0561
0.962116
0.899979
0.87514
0.866401
0.866159
0.87409
0.888197
0.907344
0.929184
0.951365
0.970432
0.983481
0.993
0.955767
0.905182
0.882582
0.880646
0.894379
0.94894
1.09907
1.22645
1.22663
1.16607
1.08259
0.991478
0.915321
0.877962
0.86532
0.861341
0.864819
0.875088
0.890622
0.910274
0.931606
0.952628
0.970439
0.982627
0.992553
0.956115
0.906442
0.884094
0.879693
0.889649
0.930017
1.04962
1.20495
1.22892
1.18766
1.10487
1.02153
0.936143
0.885559
0.865576
0.858741
0.858637
0.86517
0.877112
0.893776
0.913296
0.933769
0.953526
0.970154
0.981621
0.992288
0.957006
0.908174
0.886037
0.879583
0.886675
0.916862
1.00794
1.16904
1.22782
1.20502
1.12739
1.04878
0.962508
0.897968
0.867752
0.857728
0.854934
0.858061
0.866759
0.880206
0.897328
0.916367
0.935703
0.954121
0.969591
0.980729
0.992378
0.958466
0.910507
0.888273
0.880247
0.88509
0.908253
0.976486
1.12495
1.22238
1.21409
1.14891
1.0733
0.991725
0.915574
0.874037
0.857884
0.8529
0.853515
0.859354
0.869834
0.884111
0.9013
0.91952
0.937447
0.95436
0.969031
0.980502
0.993076
0.960426
0.9134
0.890868
0.881867
0.884882
0.902882
0.954572
1.0792
1.20917
1.21784
1.16906
1.09504
1.02045
0.939034
0.884463
0.859821
0.852195
0.850874
0.854511
0.862362
0.874116
0.888873
0.905703
0.922732
0.939018
0.954603
0.969006
0.981577
0.994901
0.96276
0.916809
0.893927
0.88402
0.885454
0.899844
0.93973
1.03849
1.1821
1.21817
1.18857
1.11543
1.04631
0.967403
0.899993
0.865512
0.852569
0.849821
0.851767
0.857434
0.867204
0.879643
0.8945
0.910573
0.926113
0.940814
0.955415
0.970319
0.984882
0.998548
0.965355
0.920605
0.897434
0.886753
0.886997
0.898442
0.929834
1.00633
1.14523
1.21555
1.20003
1.13412
1.06946
0.997549
0.92196
0.875635
0.855151
0.849925
0.851067
0.855102
0.862677
0.873527
0.886851
0.901269
0.916005
0.929959
0.943358
0.957747
0.974349
0.991876
1.00379
0.968053
0.92462
0.901289
0.890025
0.889063
0.898387
0.923846
0.982988
1.10528
1.20808
1.20567
1.15298
1.08981
1.02654
0.950126
0.890902
0.862206
0.851485
0.85141
0.855175
0.861919
0.870562
0.881544
0.895505
0.909552
0.922461
0.935026
0.948054
0.963445
0.983542
1.00432
1.01332
0.970821
0.928723
0.905257
0.893618
0.891467
0.898967
0.920712
0.967259
1.06824
1.19209
1.20894
1.17068
1.10861
1.05272
0.982571
0.913265
0.873758
0.856737
0.85319
0.856162
0.862885
0.871323
0.88177
0.893414
0.906471
0.91938
0.93102
0.942725
0.956313
0.975538
1.00195
1.02464
1.02855
0.973558
0.932854
0.909261
0.897141
0.894152
0.900222
0.91919
0.957515
1.03815
1.16525
1.20966
1.18617
1.12683
1.07559
1.01631
0.942912
0.891366
0.867076
0.85847
0.858932
0.865506
0.874074
0.883998
0.895249
0.908103
0.921058
0.932774
0.944313
0.957455
0.974258
0.999486
1.03147
1.05476
1.02537
1.06304
0.976411
0.936985
0.913399
0.900527
0.897029
0.901984
0.918755
0.951836
1.01628
1.13464
1.20791
1.19503
1.14363
1.09562
1.0486
0.978961
0.916433
0.882975
0.869667
0.865392
0.87063
0.879899
0.889556
0.900427
0.912903
0.92597
0.938299
0.94989
0.962666
0.979216
1.00448
1.04112
1.08079
1.08367
1.09648
1.03454
1.07959
0.978792
0.941139
0.917638
0.904057
0.900064
0.904237
0.919098
0.948497
1.00186
1.10477
1.20325
1.20182
1.15983
1.11365
1.07785
1.01952
0.950561
0.906655
0.887005
0.878748
0.880315
0.888654
0.899672
0.910983
0.922233
0.935314
0.949294
0.962418
0.975336
0.991986
1.01742
1.0541
1.07944
1.08292
1.11935
1.10233
1.13673
1.10285
1.12917
1.04255
1.09799
0.980809
0.944896
0.921686
0.907736
0.903232
0.906865
0.919991
0.946596
0.992744
1.07897
1.19279
1.21036
1.1759
1.13091
1.10359
1.06156
0.993646
0.940795
0.912899
0.899718
0.898091
0.904905
0.914557
0.926974
0.938675
0.951515
0.966774
0.981681
0.998088
1.01821
1.04201
1.08018
1.09357
1.10811
1.12121
1.15438
1.1725
1.18303
1.13416
1.16666
1.05345
1.12017
0.982453
0.948225
0.925263
0.91139
0.906367
0.909664
0.921514
0.94572
0.986688
1.05912
1.17402
1.21824
1.19092
1.14729
1.12734
1.10255
1.04406
0.987087
0.950574
0.931492
0.926363
0.927725
0.932271
0.945078
0.960632
0.975091
0.989686
1.00949
1.03281
1.05606
1.08424
1.1303
1.1382
1.16863
1.14588
1.17169
1.20027
1.20142
1.21392
1.24177
1.16658
1.21103
1.06663
1.14428
0.983453
0.951061
0.928277
0.914814
0.909385
0.912495
0.923434
0.945703
0.982681
1.04469
1.15349
1.22416
1.20577
1.16393
1.14819
1.13972
1.10069
1.046
1.003
0.979161
0.970687
0.961759
0.962233
0.970746
0.986129
1.00544
1.02533
1.0427
1.06662
1.09984
1.14202
1.19144
1.21002
1.27292
1.21667
1.25857
1.23184
1.26979
1.25022
1.25895
1.28691
1.31238
1.20282
1.26337
1.08202
1.16997
0.983739
0.95298
0.930731
0.917715
0.912372
0.915215
0.925517
0.946232
0.980205
1.0343
1.13375
1.22783
1.22311
1.18263
1.16637
1.1724
1.15703
1.11361
1.07211
1.0479
1.02574
1.00896
1.00194
1.00436
1.01656
1.03517
1.06109
1.08897
1.1142
1.14841
1.21164
1.32701
1.34914
1.51656
1.34455
1.50128
1.32677
1.45427
1.29571
1.37536
1.33876
1.32639
1.36946
1.39067
1.2437
1.32389
1.09838
1.19639
0.983425
0.953652
0.932496
0.919823
0.915213
0.917824
0.927668
0.947089
0.978755
1.02713
1.11536
1.22801
1.24338
1.20398
1.18338
1.20093
1.21166
1.18833
1.15756
1.13067
1.10589
1.08183
1.06092
1.04996
1.05136
1.06542
1.0931
1.13047
1.17358
1.23192
1.31169
1.57172
1.77647
2.31845
1.84554
2.52313
1.76192
2.45972
1.58167
2.13291
1.44269
1.74686
1.49373
1.39912
1.52518
1.52924
1.28989
1.38814
1.11428
1.22252
0.982172
0.953118
0.933275
0.921203
0.917574
0.920228
0.929772
0.948194
0.977768
1.0223
1.09937
1.22203
1.26332
1.22815
1.20128
1.22548
1.26157
1.26355
1.25317
1.25774
1.26018
1.23665
1.1887
1.14315
1.1156
1.10924
1.12563
1.16576
1.22381
1.30056
1.42184
1.93431
2.85199
3.81517
3.67354
5.1183
3.83646
5.8506
3.38225
5.67686
2.61806
4.56306
1.89896
3.11216
2.00685
1.50483
2.03841
1.97864
1.34092
1.45349
1.12753
1.25024
0.979501
0.951068
0.93289
0.922035
0.919371
0.922141
0.931606
0.949522
0.977137
1.01869
1.08654
1.20749
1.2814
1.2563
1.2223
1.24607
1.30443
1.33671
1.37479
1.47634
1.60098
1.63665
1.54449
1.3884
1.26725
1.20075
1.18173
1.20191
1.25818
1.34612
1.48887
2.3544
4.48334
5.54091
6.75776
8.3577
8.16176
10.4604
8.58455
11.4556
7.77167
11.3262
5.81217
9.88076
3.52978
6.88326
3.77412
1.83992
3.78495
3.53548
1.38121
1.65402
1.13489
1.27162
0.975707
0.947269
0.931008
0.92227
0.920761
0.923468
0.932953
0.950682
0.977173
1.0158
1.07654
1.18922
1.29579
1.28787
1.24743
1.26363
1.33966
1.4147
1.5463
1.86812
2.28268
2.55002
2.56418
2.20572
1.76807
1.45198
1.30566
1.26871
1.29517
1.37893
1.52925
2.3576
6.06684
6.90849
9.88249
11.1804
12.4139
13.8188
13.6355
14.9039
13.8982
15.2628
13.3828
15.1733
11.5696
14.533
7.63377
12.6343
7.95985
3.04483
7.80659
7.15806
1.45554
2.42445
1.13348
1.28121
0.971072
0.942183
0.927916
0.92187
0.921716
0.924344
0.933737
0.951515
0.977574
1.0139
1.06868
1.17004
1.30228
1.32041
1.27757
1.28084
1.36725
1.49626
1.7806
2.43096
3.33194
4.20045
4.55109
4.25312
3.39805
2.32633
1.6845
1.42649
1.36864
1.41989
1.55405
2.57541
7.31943
7.02611
12.1374
13.0197
14.7716
15.3531
15.6702
16.1453
16.0219
16.4965
16.1106
16.6516
15.9218
16.6416
15.1944
16.393
13.1585
15.5987
13.2664
6.02864
12.9655
12.1559
1.82513
4.62345
1.1144
1.37371
0.966431
0.938047
0.925348
0.92149
0.922587
0.925039
0.934117
0.952145
0.977887
1.01303
1.06266
1.15141
1.29886
1.35106
1.31319
1.30006
1.38627
1.5696
2.01745
3.04845
4.47526
5.62481
6.08267
5.9877
5.42697
4.4181
2.97268
1.90954
1.55087
1.49971
1.58492
2.57002
10.8811
13.3916
14.8953
15.7985
16.0505
16.4543
16.6514
16.7889
16.9995
17.0089
17.3115
17.1302
17.5442
17.0894
17.6357
16.7203
17.4854
15.7832
16.9905
15.7925
10.6651
15.644
15.2724
3.10642
8.49346
1.11659
1.89075
0.967833
0.942273
0.927296
0.922523
0.923646
0.925993
0.934733
0.952986
0.978657
1.01256
1.0586
1.13462
1.28054
1.37704
1.35294
1.32358
1.3965
1.61975
2.20924
3.5796
5.40189
6.61433
7.01699
7.0062
6.68897
6.03435
4.98322
3.4606
2.09838
1.69401
1.6541
2.42565
10.2513
16.4283
16.4208
16.2952
16.449
16.7934
16.8718
17.1616
17.28
17.5896
17.8601
17.9537
18.3085
18.1577
18.5874
18.1875
18.7178
17.9475
18.6697
17.1406
18.2854
17.2207
14.4427
17.1456
16.8818
5.88822
12.7111
1.25239
3.45105
0.983011
0.967059
0.943718
0.92949
0.926776
0.927769
0.935868
0.954303
0.980033
1.01299
1.05575
1.12129
1.25348
1.39329
1.39392
1.35291
1.40227
1.63482
2.32361
3.9531
6.04379
7.16416
7.49421
7.51357
7.35688
6.99305
6.30933
5.24673
3.7315
2.27632
1.83701
2.30221
8.46665
16.374
16.2944
16.9205
16.895
16.9214
16.9294
17.3692
17.4091
18.0752
18.2199
18.5842
18.7311
18.8424
18.9759
19.0016
19.1679
19.0729
19.29
19.0278
19.347
18.5051
19.2806
18.5725
16.4578
18.5283
18.3072
9.78923
15.6703
1.9653
6.32617
1.0058
1.02446
0.997464
0.958849
0.938919
0.932425
0.938222
0.956474
0.982222
1.01409
1.05334
1.11133
1.22464
1.39546
1.43281
1.38875
1.40706
1.62846
2.35238
4.15589
6.42186
7.42307
7.68075
7.70394
7.60066
7.40804
7.05476
6.36399
5.28606
3.83795
2.38822
2.33758
6.81661
16.0423
15.2735
16.8976
16.9015
17.3092
17.1864
17.4057
17.3756
18.3114
18.3407
18.8051
18.813
19.0408
19.0323
19.2512
19.2574
19.4259
19.5651
19.5281
19.7625
19.5809
19.7683
19.461
19.7899
19.5515
17.92
19.5259
19.3877
13.5738
17.4337
3.33135
10.0444
1.0142
1.09126
1.09845
1.04492
0.979451
0.94728
0.944127
0.960255
0.986166
1.01637
1.05165
1.10382
1.19741
1.3816
1.46563
1.43025
1.41669
1.59676
2.31884
4.19179
6.58294
7.52395
7.72319
7.69726
7.56918
7.42804
7.27158
6.98405
6.30475
5.23485
3.82586
2.71636
5.41725
15.6512
16.8696
17.0654
17.08
16.9319
18.1571
17.992
18.3244
18.2699
18.8002
18.7692
18.9872
18.9091
19.2271
19.1348
19.7082
19.7668
20.1752
20.7176
20.2313
21.1536
20.0197
20.7473
19.964
20.2491
20.0834
19.135
20.1366
20.1243
16.3175
18.7003
5.53434
13.8397
1.08505
1.15048
1.14523
1.07808
0.990236
0.959947
0.967742
0.991493
1.02042
1.05194
1.09831
1.17504
1.34446
1.48617
1.47415
1.43559
1.55011
2.18026
4.09289
6.5993
7.52231
7.68373
7.56599
7.34586
7.21862
7.21442
7.12502
6.85625
6.15481
5.09407
3.89648
4.85211
13.9021
16.5809
16.4862
16.7797
16.7085
17.7853
17.535
18.5741
18.4722
18.7213
18.6567
18.8331
18.7564
18.9685
18.7684
19.7184
19.5541
21.1773
21.3366
22.3674
23.3867
22.3272
24.3884
21.1982
23.4266
20.4222
21.4754
20.5368
20.0011
20.6003
20.6407
17.9825
19.6753
8.9005
16.638
1.11623
1.17784
1.17244
1.09171
0.999997
0.983405
0.998844
1.02543
1.05313
1.0949
1.15786
1.30268
1.49068
1.51568
1.46454
1.51414
1.98498
3.74451
6.50602
7.49009
7.59237
7.23362
6.93482
6.93796
7.02916
7.10537
7.03126
6.68963
5.94713
5.07908
5.0324
11.6456
16.2641
15.7089
16.7643
16.5757
17.2499
16.9827
18.347
18.1874
18.5275
18.473
18.6702
18.59
18.539
18.2577
19.2386
18.8986
21.2717
21.036
23.9304
23.968
26.0475
26.9238
26.3485
28.7285
24.2125
27.9698
21.5146
24.5294
21.3539
20.6446
21.1578
21.128
20.8474
19.1271
20.464
12.0474
18.335
1.11959
1.19312
1.1881
1.09505
1.01685
1.01155
1.03108
1.05577
1.09166
1.14627
1.26096
1.48007
1.54919
1.5013
1.49678
1.80556
3.25362
6.19857
7.4189
7.50721
6.91712
6.44848
6.67674
6.85096
7.02142
7.12885
6.97809
6.52481
5.8721
5.68082
10.0383
15.2542
16.312
16.1061
17.393
17.0548
17.9792
17.7063
18.4228
18.3682
17.8833
17.9095
18.0466
17.9093
18.5341
17.9406
20.5448
20.0008
23.8186
23.3402
27.0618
26.7447
29.943
30.0631
31.1266
32.8903
29.0954
33.1349
24.1525
29.6997
26.8528
21.9869
23.6595
21.1487
20.8508
21.1388
21.5724
22.6351
23.1238
21.4383
20.0457
21.1968
21.1646
20.7021
14.227
19.8443
1.12038
1.21264
1.19714
1.09593
1.03564
1.04056
1.05879
1.08945
1.13747
1.22535
1.43798
1.56951
1.54317
1.49797
1.66601
2.73704
5.61244
7.2995
7.44359
6.78247
5.88184
6.24344
6.67441
7.04353
7.33975
7.35383
7.04564
6.51258
6.27958
9.01899
14.2494
16.0918
15.622
16.6905
16.3964
18.0597
17.8562
18.306
18.2096
17.9951
18.1086
16.9493
17.0592
17.2748
16.9593
19.2185
17.969
22.5502
21.4494
25.863
24.7006
29.379
27.9769
33.17
32.035
35.7205
35.5605
35.674
31.865
34.4281
37.7852
35.973
29.5773
26.047
29.2634
32.1974
25.4178
21.3826
21.3733
22.1968
23.8003
24.65
21.8872
21.1624
20.4153
21.1145
21.4212
21.4738
16.3194
21.1619
21.4481
20.5058
1.14394
1.24398
1.19585
1.09002
1.0555
1.06374
1.08609
1.13234
1.19758
1.37971
1.57354
1.58361
1.51813
1.57696
2.27178
4.80372
7.11316
7.38747
6.76021
5.58921
5.61085
6.35555
7.04875
7.62047
7.86914
7.71285
7.27404
6.9803
8.81946
13.2808
15.4614
16.8327
16.5943
17.5553
17.2336
18.3141
18.3048
18.2093
18.2843
17.3224
17.5987
16.1205
16.3569
16.7167
16.1226
19.8523
17.9513
23.322
21.7936
26.489
24.9842
30.0801
28.1125
35.118
34.1735
33.1243
31.7502
38.537
39.0688
37.3384
36.8726
34.7279
36.9275
40.0686
38.7898
32.139
28.4793
31.7678
34.9735
27.6375
21.7069
21.6546
23.0859
26.556
25.3924
22.5104
21.5623
21.67
21.704
21.8336
22.2299
14.839
23.5817
21.9106
22.3882
1.19901
1.29369
1.18051
1.08399
1.07236
1.08479
1.12561
1.18014
1.32187
1.56489
1.61645
1.55228
1.5351
1.91818
3.86399
6.78163
7.32959
6.78726
5.60902
5.00704
5.70474
6.92538
7.7387
8.30281
8.44535
8.19262
7.91264
8.99302
12.2822
14.7157
17.3529
16.784
17.8764
17.613
18.235
18.0888
18.2686
18.4104
17.8563
18.0828
16.7629
17.1525
15.58
15.9918
16.1954
15.5015
19.7691
17.2194
23.2139
21.1234
26.1563
24.0231
30.4173
29.016
27.6579
26.3537
35.956
34.6299
33.0693
31.4097
40.6899
40.6463
38.6853
37.8397
37.5032
39.6841
42.3666
41.3518
34.9329
31.1074
34.5452
37.7941
30.1168
22.1481
22.0064
24.2943
28.8133
27.3367
23.369
22.0382
22.3485
22.0514
22.2512
23.605
12.1019
23.0083
22.8065
23.5951
1.29332
1.30294
1.13969
1.08583
1.08599
1.11707
1.16862
1.27402
1.5261
1.63517
1.59157
1.52832
1.69153
2.99622
6.13779
7.2418
6.86512
5.72345
4.75772
4.94913
6.33667
7.66308
8.46187
9.01405
9.1386
8.97773
9.48865
11.6903
13.8067
17.0088
18.235
18.2504
18.5047
18.4398
18.4964
18.5222
18.0971
18.3266
17.5088
17.8247
16.4714
16.9083
15.1431
15.7285
15.4746
14.9019
18.3219
15.3526
21.4805
18.5443
25.0073
23.7797
22.3205
20.9075
29.7565
28.1113
26.5755
25.0086
36.4101
34.6215
32.6433
30.6476
42.603
39.9098
42.1658
38.491
40.3237
42.3947
44.5196
43.8714
37.7689
33.8546
37.4007
40.6856
32.7802
22.7414
22.4485
25.8325
31.3251
29.5789
24.4946
22.5988
23.1117
22.4664
22.7413
24.843
8.08453
21.5772
23.8197
24.8502
1.38526
1.26271
1.10994
1.0908
1.10787
1.1607
1.23917
1.45707
1.63816
1.62978
1.54239
1.5724
2.30891
5.07766
7.06797
6.97205
5.94667
4.80558
4.45484
5.22334
7.12227
8.37517
9.22041
9.8618
10.066
10.2979
11.7012
13.2918
16.2693
18.5061
18.1901
18.7406
18.6795
18.7355
18.766
18.5101
18.6477
17.9265
18.1727
17.3003
17.6388
16.2618
16.7415
14.3079
15.0821
14.1139
13.8519
14.7832
12.4077
17.8391
13.7073
23.5612
22.0912
20.7687
19.4725
28.7281
26.9178
25.1679
23.4878
36.5246
34.2374
31.8521
29.5407
44.4693
40.9069
43.5975
38.911
43.1523
45.0744
46.6723
46.3407
40.6931
36.6884
40.3313
43.6039
35.5532
23.5221
23.0071
27.6807
34.0055
32.0428
25.9077
23.2324
23.9561
22.9513
23.2959
26.3012
3.96055
17.4125
24.9403
26.2537
1.39846
1.16974
1.09771
1.10475
1.14768
1.21586
1.3896
1.63161
1.66197
1.58157
1.52774
1.85999
3.85804
6.71784
7.02889
6.20189
5.04628
4.36732
4.4369
5.70623
7.77653
9.10716
10.1024
10.8768
11.3089
11.9596
13.3311
15.8158
18.154
18.7137
18.6827
18.8072
18.7958
18.6922
18.7755
18.3843
18.5603
17.7644
17.9849
17.1593
17.496
15.7343
16.3216
12.681
13.6815
11.8331
11.8437
10.3741
9.24117
15.8236
14.0337
10.3948
12.2575
21.9094
20.4221
18.975
17.4964
27.3936
25.3669
23.4631
21.7371
36.3836
33.5753
30.8052
28.1853
46.3837
41.7932
45.0431
39.2395
45.9746
47.7796
48.9854
48.8215
43.6546
39.597
43.3288
46.5235
38.4106
24.5205
23.6959
29.8008
36.7791
34.648
27.593
23.9574
24.9174
23.5099
23.8975
28.238
6.36869
16.7229
26.183
28.0954
1.33699
1.11427
1.10122
1.13807
1.19454
1.33401
1.60467
1.68283
1.62257
1.52446
1.6191
2.81539
5.91356
7.00375
6.4322
5.42752
4.48466
4.15987
4.55946
6.1285
8.35987
9.94451
11.1162
12.0605
12.7514
13.6972
15.8163
17.7106
18.3376
18.1957
18.5972
18.5242
18.607
18.6221
18.4433
18.5434
18.1686
18.318
17.4705
17.6787
16.8169
17.1932
14.5017
15.2947
10.1283
11.3172
8.88735
9.07957
9.5699
8.78269
8.25951
15.1781
13.8017
11.0643
12.3344
20.2097
18.8601
17.6409
16.4783
25.7958
23.6367
21.7742
20.2905
36.1512
32.856
29.6444
26.7546
48.3913
42.7896
46.7984
39.714
48.8264
50.546
51.4991
51.4274
46.6512
42.5697
46.3619
49.4855
41.3184
25.7322
24.5075
32.13
39.5852
37.3153
29.4937
24.7076
25.9326
24.09
24.4772
28.3919
20.0745
19.7234
27.5529
29.9048
1.20809
1.10219
1.12266
1.18086
1.28782
1.54781
1.68891
1.65766
1.54484
1.51639
2.08995
4.6309
6.82159
6.63671
5.74031
4.91389
4.20379
4.05337
4.6693
6.36923
8.86888
10.8438
12.1779
13.2979
14.4182
15.8985
17.3199
17.7103
17.9595
17.8342
18.151
18.0984
18.1309
18.1547
18.0205
18.0836
17.8288
17.9374
16.8202
17.0658
15.958
16.4629
12.3753
13.4152
7.76825
8.44864
7.65067
7.54168
9.90078
8.98898
9.0777
8.08083
16.047
15.2479
13.2861
14.3501
19.1711
18.2783
17.5081
16.7894
24.2477
22.2397
20.8029
19.8824
36.096
32.3673
28.8552
25.8074
50.8002
44.176
49.1066
40.6951
51.7622
53.4338
54.3734
54.299
49.6797
45.556
49.3887
52.5247
44.2222
27.1115
25.4177
34.5501
42.3677
39.9193
31.46
25.4201
26.9393
24.7433
25.0638
27.4983
25.0061
27.1903
28.9356
29.9062
1.12473
1.11309
1.16843
1.2537
1.47848
1.68616
1.68658
1.5898
1.4905
1.68253
3.33522
6.29988
6.72362
5.99599
5.33712
4.54766
4.02845
4.00081
4.70717
6.47081
9.1557
11.5923
13.2091
14.4763
15.8045
16.8517
17.0717
16.8839
16.7173
17.2505
17.0541
17.4306
17.3763
17.4484
17.4475
17.3973
17.4337
17.2266
17.3312
15.5842
15.9658
14.3366
15.0481
9.60782
10.7682
6.88817
6.98298
7.54076
7.27908
7.07758
11.971
10.4621
11.5505
9.49256
18.9543
18.5916
16.8603
17.9164
19.3729
19.1984
19.1672
19.1354
23.4324
21.8678
21.2338
21.2192
36.5967
32.4002
28.6238
25.6962
53.7589
46.4018
52.1892
42.6884
54.8296
56.5181
57.6867
57.5379
52.7417
48.4996
52.3745
55.6588
47.0591
28.5303
26.4074
36.8092
44.9751
42.1394
33.2754
26.0947
27.837
25.4357
25.6785
27.2797
37.1215
30.8226
29.5335
29.4965
1.10635
1.15685
1.22393
1.4127
1.67079
1.71269
1.63445
1.49725
1.49981
2.34928
5.12777
6.67516
6.24437
5.5973
5.09076
4.25857
3.92334
3.92612
4.63044
6.41782
9.1747
12.0149
13.8727
15.2777
16.1648
16.3119
15.6876
15.8627
15.6462
16.3171
16.1092
16.5116
16.4434
16.5737
16.5531
16.5147
16.5628
16.2352
16.4118
13.5984
14.2356
11.8321
12.8008
7.31681
7.97203
6.71467
6.60498
6.53581
7.97651
7.35219
6.86722
7.17994
15.4252
13.6189
15.3413
12.4816
23.3972
23.3076
21.6541
22.7303
21.5006
22.2838
22.8728
23.2751
23.8417
23.3359
23.4693
24.3923
38.3078
33.8058
29.9263
27.2401
57.412
49.56
56.0168
45.8943
58.0767
59.9201
61.7044
61.1928
55.8304
51.3499
55.2755
58.8935
49.6271
30.0231
27.5122
38.6474
46.9882
43.747
35.1286
26.6289
28.4115
26.2034
26.2135
28.316
44.867
39.4485
29.4697
29.0784
1.12056
1.2129
1.34628
1.64119
1.7291
1.67547
1.5336
1.44237
1.76117
3.74183
6.36089
6.41194
5.78458
5.43841
4.84478
4.12651
3.8184
3.75171
4.42262
6.15969
8.81923
11.6876
13.751
14.8111
15.1687
14.6973
14.0714
13.8463
14.7636
14.4553
15.2308
15.0272
15.423
15.3567
15.452
15.4575
15.2768
15.3988
14.7232
15.0581
11.001
11.8284
8.94424
10.0219
6.5284
6.714
6.74
6.60177
6.50532
6.43876
9.73342
7.92777
7.03708
7.74268
20.0416
17.9143
20.1851
16.6113
28.5735
28.5913
27.1422
28.1673
25.6513
26.8416
27.7785
28.3505
26.3289
26.3994
27.4781
29.1033
41.6059
37.1619
33.3658
30.9886
61.6774
53.7263
60.8656
50.4409
61.5185
63.6545
66.5387
65.3373
58.9047
53.8562
57.7988
62.2106
51.3843
31.6682
28.739
40.6233
48.3827
45.8199
37.1511
27.1889
28.6383
26.9996
26.9646
31.4384
51.8077
47.7345
29.2252
29.5185
1.16843
1.3207
1.57578
1.73337
1.70518
1.58465
1.44005
1.48484
2.58475
5.38691
6.41208
5.98517
5.5938
5.3013
4.70737
4.03859
3.6292
3.48921
4.12695
5.74097
8.06486
10.4239
12.1645
13.0804
13.0427
11.8736
12.6503
12.2388
13.458
13.1002
13.9397
13.7371
14.0942
14.0594
13.9663
14.0591
13.4937
13.7829
12.5348
13.0843
8.33331
9.17251
7.04744
7.57068
6.40813
6.39771
6.40644
6.9244
6.63771
6.59588
6.48014
12.8298
9.44811
7.50892
8.87833
25.4957
23.1878
25.6203
21.6025
34.2098
34.2812
32.943
33.9566
30.6705
32.0074
33.0542
33.8364
30.6124
30.9983
32.583
34.4996
46.5651
42.5506
39.1119
37.0045
66.9391
59.1274
66.8676
56.543
65.1845
67.8711
72.3176
70.2976
61.5901
55.445
59.5158
65.2214
52.8161
33.3785
30.1333
42.861
50.8326
48.3425
39.194
27.7236
28.7299
28.3323
27.7502
36.9868
50.6638
54.5479
29.3014
31.1386
1.25842
1.53902
1.72912
1.73145
1.6339
1.46192
1.3879
1.84427
3.99844
6.22482
6.13822
5.69754
5.54466
5.19823
4.6497
3.8906
3.34275
3.18385
3.77515
5.13203
6.90641
8.65023
9.90541
10.2313
9.30384
7.35763
10.6703
10.0523
11.6542
11.2278
12.171
11.9678
12.2587
12.2797
11.9401
12.1574
11.1611
11.608
9.96254
10.6199
6.88568
7.19707
6.50302
6.66162
6.42687
6.40678
6.40708
6.41639
7.30135
6.82252
6.79534
6.6149
17.0113
12.349
8.36214
11.0762
31.2565
28.8358
30.9615
26.709
40.1904
40.2572
38.7447
39.8671
36.2628
37.7439
38.8883
39.7622
36.6551
37.0832
38.8756
40.9216
53.4698
50.2226
47.4173
45.5599
73.8313
66.0785
74.7331
64.6426
68.8152
72.4579
79.3134
75.9871
63.7706
57.4327
62.5228
68.3294
56.0595
35.5311
32.3865
45.2261
54.0086
51.5804
42.1284
28.2179
28.9998
29.7269
28.7357
44.3575
24.4257
54.6481
29.8166
34.8198
1.44623
1.72006
1.74817
1.67744
1.51663
1.37213
1.47741
2.7623
5.48317
6.14344
5.82047
5.60369
5.51624
5.1587
4.57518
3.61654
2.99097
2.84078
3.39733
4.37925
5.56421
6.59193
6.99498
6.52268
5.46478
5.18365
7.60709
4.86381
8.15674
9.23934
8.76378
9.7941
9.58394
9.86344
9.9023
9.5243
9.74781
8.70936
9.1803
7.60325
8.18066
6.50656
6.54342
6.43703
6.48364
6.5153
6.45108
6.47218
6.53648
7.9621
7.16454
7.1126
6.83951
21.6735
16.2314
9.71676
14.3804
36.9369
34.3464
36.0562
31.5487
46.7221
46.7194
44.722
46.1255
42.7238
44.2558
45.4978
46.3826
45.1223
45.4623
47.2508
49.121
62.782
60.8141
59.0207
57.9336
82.2696
75.0062
84.7298
75.0812
73.1739
78.4282
88.7759
83.8261
68.3444
62.0367
69.3109
74.9996
60.5815
38.8294
34.8311
49.5161
59.1268
58.5878
47.0689
29.0365
29.5146
32.0157
30.5449
51
11.9531
48.5024
31.2769
39.6136
1.67622
1.77563
1.7158
1.56364
1.38659
1.33327
1.92183
4.1383
6.00351
5.90989
5.61556
5.62971
5.52407
5.13081
4.37842
3.19805
2.56779
2.55316
2.99885
3.62082
4.22751
4.53543
4.44921
4.09393
3.74186
5.59695
4.24887
3.9604
6.06164
6.95485
6.55045
7.44381
7.25738
7.51042
7.53832
7.28384
7.43345
6.85015
7.03675
6.57968
6.68019
6.46162
6.40867
6.56384
6.51694
6.5013
6.7042
6.61733
6.66207
6.75215
8.96007
7.67927
7.57817
7.13811
26.194
20.3651
12.0377
17.9743
42.6323
39.713
41.0972
36.2291
54.03
53.8644
51.122
52.8774
50.7018
52.0818
53.1796
53.8692
57.7058
57.9974
59.3117
60.6127
75.0614
74.9483
74.9618
75.2704
93.3883
86.8296
97.4381
88.8745
82.1434
89.0761
105.223
96.4614
77.5945
68.8615
78.8537
85.8968
68.7561
43.3206
39.5136
57.4852
70.4434
70.4015
55.0802
29.8047
30.6748
35.4665
32.0816
54.822
8.12662
43.6493
33.3682
44.7886
1.78219
1.74373
1.62547
1.42634
1.29974
1.47406
2.88328
5.43179
5.90303
5.65251
5.62457
5.71815
5.5456
5.02797
3.96889
2.6431
2.20839
2.33295
2.61271
2.93407
3.1448
3.23971
3.21607
3.14311
3.10608
4.522
3.76961
3.53495
4.83517
5.4235
5.14872
5.79975
5.64016
5.97328
5.909
6.04069
6.03649
6.10653
6.05817
6.29256
6.16186
6.53846
6.41436
6.78185
6.61889
6.60289
6.70246
6.93677
6.82404
6.86672
6.95437
10.4955
8.5003
8.37821
7.65432
30.4817
24.37
15.121
21.5278
48.6784
45.2216
46.4477
41.0056
62.6517
61.8344
58.178
60.54
61.5359
62.2951
62.6818
62.7852
75.568
76.4952
77.1984
77.5102
90.8158
92.6439
94.5589
96.5092
115.509
101.07
124.474
105.014
95.3806
108.024
154.864
126.275
89.5558
80.8479
95.318
103.083
83.8434
51.216
45.0726
68.6786
84.2061
83.0025
65.0501
31.472
31.8881
38.575
35.484
56.7021
5.96022
41.4716
36.1776
49.4331
1.78403
1.66044
1.49146
1.30367
1.2843
1.98446
4.19116
5.77747
5.67894
5.57088
5.7521
5.83233
5.52177
4.74878
3.22609
2.14967
2.01493
2.10788
2.28639
2.43312
2.56955
2.65037
2.69604
2.73392
2.95768
3.24975
2.78445
3.99083
3.46138
4.21928
4.64503
4.44124
5.00207
4.83304
5.27958
5.14507
5.51117
5.42421
5.82452
5.6666
6.26206
6.01327
6.70631
6.7083
6.58125
6.44747
7.02681
6.91281
6.93199
7.29152
7.07661
7.11713
7.32863
13.2246
9.84392
9.80966
8.63371
34.6462
28.1298
18.213
25.0761
55.4287
51.2919
52.6895
46.5779
73.2566
71.3899
66.3738
69.727
77.4239
76.5624
75.6226
74.506
98.5008
100.204
101.067
101.334
109.841
113.339
116.911
119.662
186.238
134.935
188.621
149.729
123.5
154.662
195.915
187.954
117.674
102.138
138.746
151.117
105.164
58.7884
51.0156
80.8623
105.983
106.457
77.1286
33.0381
34.3135
46.2296
38.618
57.8293
21.632
50.1463
39.2071
53.1043
1.73251
1.53036
1.34241
1.22529
1.47666
2.97032
5.30983
5.66081
5.5171
5.71371
5.96404
5.88085
5.36297
4.14599
2.31339
1.8859
1.84178
1.9402
2.04339
2.16579
2.26434
2.34559
2.4133
2.4536
3.04701
2.75965
2.60132
3.66543
3.24094
3.86547
4.25648
4.06436
4.6226
4.44404
4.96128
4.78606
5.27531
5.13629
5.71417
5.50392
6.2795
5.99463
6.90802
6.80216
6.65259
6.34075
6.54471
7.31976
7.15172
7.22241
8.02209
7.59084
7.55086
8.06262
16.3772
12.2981
12.2592
10.2655
39.2425
31.9061
21.4825
29.0132
63.3191
58.5021
60.3766
53.6294
87.5234
83.3264
76.5698
81.3174
100.169
97.1969
93.6563
90.0098
122.758
125.451
127.116
127.922
170.294
165.304
165.137
163.578
417.317
205.523
425.07
208.634
185.663
205.578
444.075
436.055
176.991
144.442
187.453
180.682
147.842
70.5645
68.1452
105.721
152.454
158.68
101.077
36.7846
36.4871
52.5142
46.1149
61.285
21.8616
74.9973
42.4297
53.6816
1.61699
1.38265
1.22417
1.2417
2.04681
4.20789
5.54721
5.4875
5.59885
5.97281
6.1266
5.82686
4.92218
3.02711
1.88131
1.70333
1.73332
1.8057
1.89758
1.98826
2.07059
2.14852
2.20676
2.2696
2.94207
2.64274
2.51754
3.42721
3.08396
3.61226
3.9831
3.79874
4.35018
4.1697
4.73616
4.53109
5.1301
4.91421
5.6521
5.39228
6.23759
5.99327
7.13905
7.01414
6.69462
6.35214
6.5518
7.84035
7.55755
7.66963
9.27929
8.53798
8.39071
9.32727
19.5665
15.721
16.1242
12.8544
45.1455
36.2404
25.3137
33.8774
72.7843
67.6742
70.5539
62.6259
106.017
98.3452
89.7555
95.1992
127.784
123.92
117.288
109.191
161
161.114
159.857
159.437
372.382
378.941
360.748
361.006
827.363
415.505
826.543
407.955
460.42
467.065
837.159
837.478
474.359
196.265
486.349
476.931
207.626
107.369
79.3264
160.477
222.984
232.115
171.191
39.3067
39.7345
67.7044
50.896
66.4816
198.258
137.206
44.1326
52.4794
1.47325
1.24262
1.15759
1.49524
3.06516
5.17117
5.43745
5.49637
5.90947
6.251
6.15777
5.5315
3.98924
2.02256
1.65105
1.60262
1.64913
1.7115
1.78673
1.85871
1.93319
1.99961
2.06521
2.11597
2.40508
2.77755
2.54116
3.24464
2.93525
3.41386
3.76785
3.58981
4.13668
3.95343
4.54455
4.33665
5.00399
4.75499
5.61507
5.29997
6.11051
5.92068
7.70875
7.50572
6.83805
6.36563
6.71094
8.67931
8.0943
8.31348
11.3194
10.0718
9.88979
11.3378
23.2446
19.447
20.7817
17.0497
53.584
41.9971
30.6062
40.4994
83.896
79.4144
84.3147
73.8236
128.438
115.992
105.979
110.371
158.25
155.777
150.073
131.114
347.631
350.626
347.88
348.948
789.001
790.889
774.078
768.376
2486.08
799.706
2493.69
808.642
863.192
864.855
2472.01
2466.55
889.859
489.518
909.094
882.499
488.343
120.813
108.357
227.656
494.878
492.579
166.91
44.9737
42.852
76.6146
63.9013
62.9178
345.334
155.891
44.1109
47.0147
1.31982
1.1469
1.22402
2.16882