/*--------------------------------*- C++ -*----------------------------------*\
  =========                 |
  \\      /  F ield         | OpenFOAM: The Open Source CFD Toolbox
   \\    /   O peration     | Website:  https://openfoam.org
    \\  /    A nd           | Version:  dev
     \\/     M anipulation  |
\*---------------------------------------------------------------------------*/
FoamFile
{
    version     2.0;
    format      ascii;
    class       volScalarField;
    location    "2500";
    object      p_rgh;
}
// * * * * * * * * * * * * * * * * * * * * * * * * * * * * * * * * * * * * * //

dimensions      [1 -1 -2 0 0 0 0];

internalField   nonuniform List<scalar> 
9851
(
0.00449417
0.00577693
0.0052161
0.00572203
0.00894629
0.00408941
0.00587792
0.0108078
0.00894822
0.00311783
0.00487027
0.0111587
0.0118948
0.0078672
0.00247899
0.00513225
0.0115858
0.0133667
0.0109087
0.00614604
0.00198981
0.00465984
0.010713
0.014477
0.0134765
0.00973437
0.00467712
0.0012646
0.0042632
0.0099489
0.0143334
0.0151615
0.0121669
0.00777651
0.00414744
0.000779151
0.00382797
0.00959213
0.0136947
0.0165607
0.0146369
0.0112434
0.00640694
0.00337919
0.000413853
0.00378389
0.00913439
0.0133877
0.0171798
0.0166136
0.0134807
0.00916517
0.0057485
0.00248111
-5.30626e-05
0.00377879
0.00860891
0.013374
0.0169469
0.017782
0.0155176
0.0121318
0.00786343
0.00491797
0.00174271
-0.000588217
0.00335064
0.00825776
0.0127602
0.0163378
0.018236
0.0171081
0.0141365
0.0100581
0.00698182
0.00403943
0.00123395
-0.000869932
0.00369723
0.00784984
0.0115529
0.0156111
0.0181338
0.0182964
0.0155587
0.0126291
0.00883569
0.00610427
0.00312516
0.000677916
-0.00125569
0.00331985
0.00744462
0.0116234
0.0153917
0.0177987
0.0186755
0.0171283
0.0142238
0.0109942
0.00787196
0.00527027
0.00261835
0.000304881
-0.0018117
0.00362318
0.00763555
0.0106841
0.014365
0.0172897
0.0188483
0.0181677
0.0157019
0.0126814
0.00928861
0.00689447
0.00417292
0.001956
-0.000299875
-0.00206414
0.00337767
0.00698149
0.010251
0.0141576
0.0168558
0.0185373
0.0185633
0.0168067
0.0140638
0.0111709
0.00820465
0.00602301
0.00349131
0.00131032
-0.000702149
-0.00250984
0.00376639
0.00708915
0.0103439
0.0135537
0.0159236
0.0183764
0.0190745
0.0176159
0.0151296
0.0122613
0.00988129
0.00738316
0.00506982
0.00302035
0.000872067
-0.00112687
-0.0027224
0.00382645
0.00701003
0.0100364
0.0126729
0.0154436
0.0180896
0.0189995
0.018116
0.0163877
0.0136666
0.0110809
0.00854411
0.00640047
0.00439577
0.00232264
0.000406009
-0.00151058
-0.00309882
0.00372803
0.00672995
0.00948062
0.0120884
0.0146225
0.0170568
0.0187708
0.0187932
0.0168772
0.0145863
0.0121707
0.00955118
0.00740545
0.00562696
0.00358551
0.00164533
-0.000144059
-0.00191194
-0.00342004
0.00389929
0.007003
0.00927986
0.011599
0.0137472
0.016499
0.0184881
0.0187628
0.0176752
0.0157378
0.0130859
0.010807
0.00864211
0.00652816
0.00482847
0.00299475
0.00116071
-0.000600865
-0.00228784
-0.00379975
0.00369158
0.0068561
0.00888266
0.0111675
0.0133116
0.0161078
0.0179303
0.0184602
0.0180791
0.0163893
0.0140421
0.0116495
0.00946558
0.00748789
0.00584791
0.00411511
0.00231633
0.000663629
-0.00110471
-0.00260451
-0.00397986
0.00372865
0.00696884
0.00859933
0.0107499
0.0124372
0.0150621
0.0172007
0.0182752
0.0180999
0.0168636
0.0146203
0.0124625
0.0102516
0.00827321
0.00651729
0.00513241
0.00341199
0.00179096
0.00014988
-0.00150356
-0.00300325
-0.00423526
0.00394669
0.00684036
0.00839799
0.0103551
0.0117915
0.0145026
0.0164431
0.0177281
0.0179441
0.017021
0.0154073
0.0130778
0.0109098
0.00896806
0.00718636
0.00581865
0.00437069
0.00295088
0.00142934
-0.00017636
-0.00176893
-0.00324597
-0.00451044
0.00388851
0.00658386
0.00832503
0.00998734
0.0114613
0.0137564
0.0154643
0.0171549
0.0176683
0.0172004
0.0156697
0.0136024
0.0114838
0.00944375
0.00777713
0.00634087
0.00511815
0.00366827
0.0023036
0.000928135
-0.000581385
-0.00211357
-0.00350957
-0.00467785
0.00394428
0.00646187
0.0079917
0.00957449
0.0109645
0.0126436
0.0146302
0.0166998
0.0173058
0.0170756
0.0159482
0.0140986
0.0119664
0.00996463
0.00815679
0.0066842
0.00559095
0.00440539
0.003147
0.00192389
0.000524194
-0.000927052
-0.00238752
-0.00361633
-0.00467841
0.0038884
0.00628013
0.00773445
0.00925309
0.0104927
0.0119516
0.0140007
0.0159603
0.0168608
0.0169017
0.01607
0.0144217
0.0123857
0.0103288
0.00855396
0.00707345
0.00586692
0.00484726
0.00374954
0.00268182
0.00145672
0.000136444
-0.00125015
-0.00255092
-0.00372062
-0.00477947
0.00378287
0.00610451
0.00753175
0.00886923
0.0100152
0.0113965
0.0131458
0.0151869
0.0163682
0.0166261
0.016086
0.0146341
0.0126566
0.0107294
0.00884883
0.007202
0.00601705
0.00502921
0.00420241
0.0031201
0.00223635
0.00100094
-0.000160508
-0.00143133
-0.00266607
-0.00380873
-0.00461991
0.00362146
0.00592308
0.00737301
0.00850871
0.00953701
0.0109518
0.0125367
0.0144567
0.0157992
0.0163008
0.0159408
0.0148621
0.0130151
0.0109323
0.00901507
0.00744554
0.00612423
0.00509328
0.0042908
0.00350484
0.00274571
0.00181618
0.000862561
-0.000368797
-0.00161961
-0.00267894
-0.00367094
-0.00441411
0.00352906
0.00577114
0.00715992
0.00822314
0.00922171
0.0105923
0.011951
0.0137738
0.0151978
0.0158998
0.0157791
0.014858
0.0133076
0.0112318
0.00921508
0.00744784
0.00608685
0.0051058
0.00429589
0.00362096
0.00294629
0.00236306
0.0015556
0.000564222
-0.000481871
-0.00161184
-0.00272383
-0.00346179
-0.00413319
0.00342783
0.00554556
0.00692627
0.00791711
0.00893665
0.0101485
0.0115016
0.0131373
0.0146339
0.015498
0.0155632
0.01486
0.013462
0.0115364
0.00939609
0.00752957
0.0060409
0.00488156
0.00409973
0.00357345
0.00305896
0.00263579
0.00201235
0.00128422
0.000257787
-0.000594112
-0.00157906
-0.00247154
-0.00321924
-0.00361034
0.00325986
0.0052991
0.00670172
0.0076782
0.00866013
0.00980922
0.011029
0.0125225
0.0141217
0.0150791
0.0153015
0.0147924
0.0135072
0.0117496
0.00953725
0.00755648
0.00587698
0.00465164
0.00380581
0.00325511
0.0027998
0.00254102
0.00220245
0.00169953
0.00100319
0.000330365
-0.000571669
-0.00150356
-0.00213402
-0.00281221
-0.00297213
0.00306757
0.00509083
0.00644825
0.00747188
0.00845293
0.00953231
0.0107428
0.012041
0.0135801
0.0146898
0.0150704
0.0147038
0.0136452
0.0118909
0.00982819
0.00758374
0.00574873
0.00437169
0.00336601
0.00273804
0.00240719
0.0021739
0.00199415
0.00178691
0.00152741
0.000885116
0.000241981
-0.000608601
-0.00122697
-0.00187239
-0.00214927
-0.00216972
0.00287949
0.00488762
0.00619753
0.00724983
0.00826536
0.00931633
0.0103905
0.0116868
0.0131588
0.0143424
0.0148656
0.0146596
0.0137039
0.0121038
0.0099213
0.00767811
0.00558814
0.00393379
0.00279481
0.00212696
0.00179579
0.00168069
0.0016896
0.00167867
0.00161798
0.00133697
0.00083683
0.000226886
-0.000448976
-0.000966333
-0.00135171
-0.00145109
-0.00126373
0.0027053
0.00467456
0.00599147
0.00704948
0.00808084
0.00908106
0.0101023
0.011328
0.0126855
0.0140983
0.0147016
0.0146274
0.0137766
0.0122544
0.0101632
0.00776016
0.00545431
0.00356692
0.0022066
0.00137123
0.000999469
0.000940134
0.00107216
0.0012875
0.00145727
0.0014953
0.00129041
0.000899944
0.000341497
-0.000111431
-0.000513936
-0.000783044
-0.000698123
-0.00120368
-0.000737668
0.00253479
0.00444125
0.00576399
0.00686918
0.00790236
0.00886011
0.00990521
0.0111341
0.0123479
0.0136992
0.0145985
0.0146507
0.0139589
0.0125362
0.0104399
0.00794182
0.00540722
0.00321657
0.00157508
0.00052104
1.59295e-05
-4.26976e-05
0.000196356
0.000573004
0.000974429
0.00129063
0.00142683
0.00132835
0.00098441
0.000590775
0.000243788
-0.000110068
-0.00060896
-0.000483257
-0.000289676
-0.000622886
-0.000250882
0.00236552
0.00416557
0.00551615
0.00668191
0.00771005
0.00870813
0.00977456
0.0108246
0.0121615
0.013451
0.014493
0.0147351
0.0142047
0.0128784
0.0108295
0.00823701
0.00546232
0.00293093
0.000935538
-0.000417707
-0.00112835
-0.00127728
-0.000982388
-0.000455814
0.000169795
0.000756594
0.00120825
0.00145062
0.00135839
0.00116646
0.000821852
0.000447177
-4.39457e-05
6.34823e-05
-0.000158683
-0.00062109
9.34282e-05
1.15746e-05
0.00018245
-7.79448e-05
0.000333991
0.00213817
0.00393714
0.00528361
0.00648592
0.0075433
0.00858878
0.00964039
0.0107172
0.011917
0.013323
0.0143931
0.0148637
0.0145163
0.0133259
0.0113474
0.0086729
0.00565885
0.00275235
0.000327469
-0.00141423
-0.00242685
-0.00274275
-0.00247206
-0.00182748
-0.000998041
-0.000133516
0.000629222
0.00120337
0.00150232
0.00145355
0.00129239
0.000870562
0.000129233
0.000360835
-0.000286679
0.000351164
0.000319179
0.000516618
0.000591667
0.000756751
0.000518811
0.000953612
0.00199356
0.00374088
0.00505399
0.00630251
0.00737797
0.00846922
0.00951477
0.0106503
0.0118717
0.0131239
0.0143773
0.0150398
0.014904
0.0138879
0.0120137
0.00930826
0.00606593
0.00274603
-0.000185228
-0.0024337
-0.00385151
-0.00445156
-0.00431307
-0.00359288
-0.00256678
-0.00143131
-0.000336764
0.000592596
0.00113845
0.00149738
0.00150202
0.00115616
0.000450225
0.000662457
2.2467e-05
0.000283147
0.000542096
0.000907065
0.000686458
0.00105764
0.00120448
0.00136246
0.00113047
0.00159696
0.0018109
0.00346152
0.00481806
0.00604746
0.00719822
0.00829624
0.00942513
0.0105272
0.0117133
0.0131165
0.0143728
0.0152383
0.0153375
0.0145588
0.0128366
0.0101773
0.00675724
0.00302034
-0.000506417
-0.00339234
-0.00538333
-0.00638504
-0.00647802
-0.00578344
-0.00459279
-0.00317571
-0.00174492
-0.000461596
0.000708571
0.00105009
0.00140833
0.00133001
0.000800551
0.000966089
0.000544231
0.000777305
0.000757664
0.000961267
0.000850321
0.0015099
0.00121141
0.00166239
0.00185366
0.00202215
0.00175156
0.00226384
0.00162873
0.00320028
0.00451272
0.0058069
0.00698821
0.00812603
0.00925433
0.0104584
0.0116712
0.012885
0.0143671
0.0154553
0.0157856
0.0153069
0.0138209
0.0112881
0.0077859
0.00366229
-0.000503073
-0.00418026
-0.00692903
-0.00854328
-0.00900761
-0.00846393
-0.00715241
-0.00545839
-0.00365841
-0.00196306
-0.000497148
0.000766786
0.000896866
0.00132448
0.00121986
0.00143788
0.00108011
0.00152136
0.0011745
0.00154915
0.0010184
0.00126317
0.00137964
0.00218965
0.00183589
0.00238693
0.00254101
0.00274619
0.00237381
0.00295216
0.00143517
0.00292799
0.00424213
0.00554164
0.00675476
0.00791805
0.00908953
0.0103381
0.0116037
0.0128618
0.014258
0.0155933
0.0162451
0.016075
0.0149107
0.0126129
0.00913972
0.00474132
-7.12677e-05
-0.00463302
-0.00837664
-0.0108495
-0.0118916
-0.0116343
-0.010321
-0.00836817
-0.00618162
-0.00402693
-0.00213126
-0.000398969
0.000769595
0.00120505
0.0021547
0.00340631
0.00251545
0.00445503
0.00246466
0.00470281
0.0018664
0.00369092
0.00167762
0.0026469
0.00219769
0.00298025
0.00279929
0.00342491
0.00327271
0.00355897
0.00299053
0.00365666
0.00123961
0.00265527
0.0039864
0.00524468
0.0065139
0.00769212
0.0089013
0.0101675
0.0114924
0.0128256
0.0142858
0.0156569
0.0166684
0.0168135
0.0160315
0.014066
0.0107719
0.00624617
0.000928051
-0.00455582
-0.00941948
-0.0130656
-0.0150506
-0.0153034
-0.0141386
-0.0119979
-0.00941004
-0.0067693
-0.00435066
-0.00230766
-0.000538906
0.000832196
0.00473569
0.00734901
0.00813243
0.0145754
0.00966312
0.019374
0.00848815
0.0189366
0.00586608
0.0145468
0.00358404
0.00855719
0.00454336
0.00401789
0.00533113
0.00582344
0.00405375
0.00452651
0.00359572
0.00436985
0.0010465
0.00236451
0.00364883
0.00488794
0.00620036
0.00744055
0.00866776
0.00997174
0.0113922
0.0127178
0.0142313
0.0158218
0.0169916
0.0175012
0.0171174
0.0155694
0.0125939
0.00815409
0.00254796
-0.00358294
-0.00959361
-0.0147047
-0.0181098
-0.0194147
-0.0187037
-0.0165049
-0.0135115
-0.0103376
-0.00730886
-0.00472844
-0.00256378
0.000602285
0.0091105
0.0117185
0.0217912
0.0310745
0.0339713
0.0529133
0.0391346
0.0679457
0.0339807
0.0691052
0.022558
0.0532988
0.0113584
0.0312338
0.0135205
0.00600935
0.0144965
0.0139651
0.00490741
0.00601815
0.00417314
0.00507549
0.000868017
0.00208283
0.00330452
0.00453887
0.00582769
0.00713203
0.00839198
0.00975118
0.0111978
0.0126191
0.0141532
0.0158686
0.0172812
0.0181128
0.018122
0.0170433
0.0145178
0.0103828
0.00491407
-0.00139649
-0.00780059
-0.0138537
-0.0191025
-0.0226372
-0.0235753
-0.021919
-0.0186309
-0.0147845
-0.0111002
-0.00791076
-0.00513638
-0.00219878
0.0123796
0.0136207
0.0393026
0.0476862
0.073219
0.093451
0.101925
0.135038
0.115278
0.16342
0.107614
0.170081
0.0763508
0.148006
0.038979
0.0974306
0.0438359
0.0121306
0.0445258
0.0404739
0.00595894
0.00982233
0.00468575
0.00576227
0.000697035
0.00179179
0.00294779
0.00415512
0.00542427
0.00675877
0.00807603
0.00945397
0.0109478
0.0124106
0.0139832
0.0157014
0.0174558
0.0186067
0.0190096
0.0184201
0.0164369
0.0128698
0.00794723
0.00242151
-0.00248858
-0.00667724
-0.0122766
-0.0193304
-0.0250411
-0.0268521
-0.0247322
-0.0205214
-0.0159609
-0.0119699
-0.00878172
-0.00529484
0.0120405
0.0045654
0.0525754
0.0568623
0.110386
0.124123
0.165409
0.189485
0.205006
0.234913
0.22434
0.257807
0.221917
0.267127
0.188185
0.262291
0.11344
0.219125
0.121404
0.032142
0.119396
0.1067
0.00791911
0.022046
0.00504171
0.00653512
0.000537201
0.00150106
0.00258293
0.00375362
0.00499961
0.00632506
0.00767778
0.0090989
0.0106065
0.012147
0.0137188
0.0155379
0.0174224
0.018958
0.0197413
0.0196491
0.0182796
0.0154156
0.0114249
0.0077884
0.00674463
0.00808175
0.00740714
0.00087712
-0.0119221
-0.0243431
-0.0291261
-0.0272418
-0.0222772
-0.0171353
-0.0131806
-0.0095821
0.0247401
0.0562914
0.0617772
0.132422
0.137867
0.205943
0.216313
0.25167
0.260517
0.27446
0.282628
0.287169
0.296122
0.293563
0.305425
0.287627
0.31241
0.239008
0.306427
0.247255
0.0844126
0.241798
0.219014
0.0134323
0.0561318
0.00500941
0.00807199
0.000394332
0.00121277
0.00219393
0.00330299
0.00452599
0.00584196
0.00719411
0.00868176
0.0101947
0.0117965
0.013426
0.0152778
0.0172723
0.0190555
0.0202903
0.0206492
0.0199251
0.0178581
0.0149974
0.0137174
0.0175979
0.0258298
0.0315406
0.0290214
0.0166674
-0.00335259
-0.0233493
-0.0311503
-0.0294341
-0.0238036
-0.0185569
-0.0142447
0.00945244
0.125668
0.116271
0.137646
0.132748
0.220847
0.221984
0.264299
0.264797
0.286656
0.287681
0.299957
0.301496
0.309168
0.310889
0.317861
0.318728
0.326794
0.32822
0.320653
0.339328
0.330249
0.180304
0.332932
0.321876
0.0298006
0.127019
0.00405597
0.0129275
0.000273617
0.000939149
0.00180295
0.00283573
0.00402124
0.00532664
0.00665112
0.00820049
0.00970256
0.0113487
0.0130542
0.0148822
0.0169835
0.0189639
0.0205996
0.021454
0.0212843
0.0200192
0.0182886
0.0192724
0.0277751
0.0426982
0.0554758
0.0592637
0.0507963
0.0302974
0.00271784
-0.0234673
-0.0333416
-0.0312933
-0.0252399
-0.0199929
-0.00685572
0.103275
0.08667
0.201783
0.19074
0.218143
0.211086
0.262569
0.258694
0.286314
0.282593
0.301957
0.301291
0.312591
0.316058
0.319891
0.325495
0.327283
0.330398
0.337934
0.336149
0.351673
0.348711
0.363374
0.285773
0.371678
0.371226
0.0690684
0.224641
0.0023564
0.0280337
0.00016937
0.000681045
0.0014203
0.00235669
0.00347424
0.00474877
0.00605166
0.0076348
0.00913771
0.010808
0.012574
0.014421
0.0165175
0.0186995
0.0206233
0.0219632
0.0224157
0.0217856
0.0209965
0.0237531
0.036054
0.0564178
0.0760655
0.0875624
0.086731
0.0705832
0.0403937
0.00479691
-0.0262498
-0.0356921
-0.0328608
-0.0267542
-0.0163934
0.0694071
0.036539
0.175304
0.16092
0.237219
0.228472
0.25309
0.245435
0.276806
0.269312
0.298934
0.293318
0.320535
0.324182
0.336788
0.353428
0.343266
0.370408
0.342591
0.368996
0.344523
0.357007
0.360494
0.354219
0.373163
0.354587
0.384401
0.390221
0.138075
0.309618
0.00278861
0.0589931
5.91892e-05
0.000415514
0.00103769
0.00187042
0.00290126
0.0041203
0.00541248
0.00698426
0.00849628
0.0101834
0.0119977
0.0138479
0.0159744
0.0182541
0.0204072
0.0221579
0.0231772
0.0232311
0.023131
0.026901
0.0415535
0.066434
0.0909096
0.109156
0.11767
0.111758
0.0869866
0.0459593
0.00206474
-0.03009
-0.0378589
-0.0343448
-0.0249846
0.0506614
0.136215
0.127582
0.218535
0.207523
0.241972
0.233841
0.260508
0.250847
0.285245
0.274574
0.323497
0.316321
0.370846
0.382822
0.407424
0.446031
0.41909
0.482336
0.400901
0.478041
0.371423
0.433315
0.364899
0.383187
0.376256
0.384704
0.388115
0.395965
0.222568
0.357866
0.00679902
0.106365
0.000130417
0.000613481
0.00135792
0.00230502
0.00345402
0.00471499
0.00626104
0.00777591
0.00947357
0.0113046
0.0132033
0.0152878
0.0176425
0.0199672
0.0220414
0.0235132
0.0242073
0.0246107
0.0288745
0.0445292
0.0719351
0.100036
0.121742
0.137412
0.143684
0.132457
0.0974668
0.0452127
-0.00398073
-0.0346464
-0.0401853
-0.0334038
0.0125311
0.156161
0.135064
0.19163
0.177982
0.226827
0.219929
0.233347
0.223859
0.259898
0.245487
0.304696
0.284866
0.382653
0.370791
0.476006
0.48932
0.544274
0.595266
0.57021
0.656215
0.539248
0.657048
0.458518
0.589661
0.389974
0.470048
0.393355
0.39485
0.395109
0.39762
0.291348
0.37858
0.0181422
0.164735
0.000181235
0.000787505
0.00165968
0.00274526
0.00396532
0.00546726
0.00698285
0.00867653
0.0105118
0.0124279
0.0145186
0.0168656
0.0193093
0.0216047
0.0234665
0.0246899
0.0254862
0.0292702
0.0451236
0.0739913
0.102487
0.124592
0.143554
0.158952
0.164115
0.146208
0.0977278
0.0373463
-0.0127236
-0.0393389
-0.0396177
-0.0118976
0.108996
0.0707817
0.19399
0.181528
0.212832
0.204868
0.216575
0.21228
0.216383
0.205149
0.257844
0.234022
0.347683
0.300408
0.482067
0.451769
0.619614
0.610271
0.713525
0.726043
0.758627
0.799798
0.7353
0.837174
0.62252
0.788804
0.464112
0.629502
0.445962
0.397741
0.421568
0.411339
0.398733
0.330277
0.386222
0.0337781
0.207516
0.000223276
0.000950562
0.00196138
0.00316077
0.00460448
0.00611786
0.00779005
0.0096239
0.0115485
0.0136698
0.015947
0.0184554
0.02091
0.0230781
0.0247237
0.0258659
0.0288595
0.0424684
0.071926
0.0977551
0.116807
0.139855
0.161457
0.176902
0.1791
0.149179
0.089294
0.0239973
-0.0239184
-0.0403309
-0.0227106
0.0789884
0.160413
0.154169
0.204481
0.199686
0.209661
0.207977
0.197204
0.194687
0.19649
0.184737
0.25379
0.218264
0.380589
0.300219
0.566363
0.483596
0.702941
0.655509
0.791081
0.760545
0.857773
0.83422
0.892929
0.903141
0.821447
0.932401
0.603771
0.830978
0.721103
0.48315
0.572691
0.405023
0.396434
0.402051
0.44334
0.511855
0.543426
0.427661
0.347039
0.399019
0.394874
0.383019
0.0380223
0.223552
0.000258615
0.00111354
0.00226071
0.00367951
0.00516087
0.00681829
0.00864127
0.0105698
0.0126675
0.0149074
0.0174319
0.0199954
0.0223824
0.0243483
0.0258261
0.0281796
0.0386496
0.0655315
0.0895385
0.102566
0.11759
0.148572
0.176997
0.192461
0.18853
0.144852
0.0732695
0.00649808
-0.0307758
-0.0269285
0.0456923
0.172721
0.147625
0.192698
0.185387
0.20173
0.203676
0.196181
0.199069
0.178729
0.180812
0.172651
0.164961
0.233436
0.191495
0.375824
0.266814
0.577195
0.462164
0.712855
0.638788
0.796303
0.738312
0.869833
0.813243
0.939987
0.916579
0.891752
0.895624
0.956896
0.969795
0.968717
0.822128
0.677049
0.806186
0.905549
0.649483
0.415868
0.408439
0.479406
0.568104
0.610329
0.453304
0.386034
0.331534
0.37016
0.403597
0.398623
0.0383739
0.336543
0.274161
0.185084
0.000291308
0.00128193
0.00262636
0.00413542
0.00576467
0.00756408
0.00949121
0.0115541
0.0137965
0.0162602
0.0188797
0.0213956
0.0236103
0.0254023
0.0273867
0.0347923
0.0575369
0.0820448
0.0919461
0.093866
0.108802
0.15531
0.192485
0.20604
0.191593
0.133723
0.052319
-0.00808256
-0.0225925
0.0311448
0.157231
0.19896
0.199331
0.204227
0.202397
0.199532
0.205858
0.186149
0.192757
0.167791
0.176592
0.14674
0.153679
0.190323
0.155394
0.319688
0.199875
0.526466
0.376014
0.657353
0.548298
0.731893
0.638149
0.858849
0.811027
0.76521
0.707252
0.951332
0.921958
0.905045
0.865783
0.961805
0.986896
0.96997
0.985495
0.899639
0.771757
0.883998
0.966416
0.734579
0.433261
0.419346
0.526082
0.688002
0.636391
0.488286
0.390421
0.374244
0.410689
0.403981
0.183911
0.00752655
0.0709496
0.340456
0.276685
0.000323797
0.00148681
0.00299244
0.00461989
0.00639828
0.00831314
0.0103472
0.0125717
0.0149611
0.0175914
0.0201841
0.0225774
0.0246267
0.0264929
0.0314232
0.0489965
0.0745293
0.0841828
0.0796021
0.0740652
0.10693
0.169792
0.208237
0.216841
0.19057
0.117874
0.0363667
-0.00479719
0.030045
0.144525
0.215799
0.209607
0.216216
0.218354
0.211029
0.214756
0.206826
0.215747
0.18679
0.197079
0.168781
0.184704
0.129177
0.153037
0.136516
0.120783
0.222341
0.125143
0.406891
0.24148
0.529978
0.396147
0.658283
0.599041
0.550813
0.490386
0.816909
0.761989
0.702895
0.642602
0.939481
0.896137
0.879326
0.827032
0.999409
1.00202
0.959628
0.987867
0.964748
0.857936
0.954374
1.00831
0.820055
0.45777
0.435606
0.58274
0.770018
0.711229
0.532097
0.395207
0.37854
0.42124
0.411236
0.176858
0.00871609
0.0552698
0.343339
0.275331
0.000361483
0.00171786
0.00336548
0.00513409
0.00703416
0.00904685
0.0112215
0.0135767
0.0161592
0.0187851
0.0213057
0.0235332
0.0254385
0.0287297
0.0411406
0.0660439
0.0776555
0.0730003
0.0540501
0.0686776
0.115196
0.190491
0.221754
0.224719
0.187995
0.109655
0.0356311
0.0418324
0.14266
0.229096
0.24244
0.247643
0.23528
0.239968
0.223506
0.230162
0.225149
0.235591
0.199749
0.213244
0.177308
0.199657
0.121243
0.151815
0.0897827
0.0929983
0.113898
0.0645837
0.24256
0.0940525
0.436997
0.36636
0.297589
0.21078
0.582804
0.525243
0.468503
0.409711
0.767534
0.702709
0.635375
0.5684
0.91765
0.8428
0.864309
0.780476
1.01712
1.00625
0.941039
0.982089
1.01229
0.933661
1.00879
1.02992
0.899241
0.489322
0.456987
0.646817
0.850059
0.787714
0.583381
0.400965
0.382921
0.435146
0.420575
0.15944
0.00748003
0.0369202
0.344989
0.266551
0.000413406
0.00196921
0.00376348
0.00564971
0.00764723
0.00978116
0.0121154
0.0146069
0.0172328
0.0198083
0.0221612
0.0241972
0.0266069
0.0345692
0.0558172
0.0712356
0.0691948
0.0471234
0.0448869
0.0705696
0.132906
0.206691
0.23216
0.231611
0.19031
0.11373
0.074884
0.149404
0.232727
0.278909
0.280311
0.270071
0.275085
0.259614
0.265507
0.244751
0.252811
0.249406
0.261221
0.219161
0.235558
0.179816
0.206032
0.0994338
0.132326
0.0514409
0.0676355
0.0332193
0.0132164
0.0815373
0.0106969
0.349506
0.283961
0.218539
0.150056
0.504527
0.443446
0.382598
0.321236
0.7109
0.636909
0.561932
0.489739
0.890014
0.801501
0.829177
0.729707
1.02388
1.00291
0.918419
0.965801
1.03926
0.995309
1.04319
1.03884
0.967258
0.527373
0.483327
0.715008
0.923145
0.86139
0.640221
0.407599
0.387262
0.452285
0.431825
0.133751
0.00523957
0.0192073
0.344614
0.251231
0.000512229
0.00223831
0.00415349
0.00614468
0.00824525
0.0105246
0.0129526
0.0155559
0.0181344
0.0205784
0.0227578
0.0248058
0.0296284
0.0453279
0.0642948
0.0663822
0.0459652
0.0341005
0.0432108
0.0778546
0.144951
0.217394
0.242033
0.241708
0.203486
0.150133
0.173191
0.243569
0.305906
0.31038
0.316822
0.300083
0.305414
0.288156
0.29459
0.271583
0.28059
0.270193
0.28517
0.230233
0.251975
0.166055
0.198884
0.0496378
0.0795847
0.00774
0.0238458
-0.013234
-0.0245695
0.0377532
0.0042138
-0.0212229
-0.0107744
0.259158
0.197476
0.137467
0.0826767
0.421969
0.35684
0.293438
0.232006
0.650567
0.567821
0.485937
0.408927
0.861458
0.758336
0.794667
0.677981
1.02406
0.991345
0.89529
0.947274
1.0519
1.0393
1.06115
1.04162
1.02192
0.570941
0.513969
0.784058
0.986334
0.928281
0.700089
0.415089
0.391837
0.472516
0.444866
0.0998153
0.00184189
0.0132378
0.341784
0.230015
0.000647083
0.00254144
0.00452366
0.00661524
0.00883904
0.0112577
0.0137688
0.0163379
0.0188335
0.0211053
0.0230748
0.0261038
0.0364018
0.0557706
0.0628855
0.046426
0.0306568
0.0298343
0.0439548
0.0819386
0.15154
0.225945
0.25325
0.258912
0.239408
0.230811
0.267064
0.320817
0.352701
0.357534
0.340658
0.346863
0.329465
0.335134
0.316052
0.323268
0.297499
0.307655
0.276939
0.295965
0.228728
0.254604
0.115998
0.154966
-0.0170406
0.00491262
-0.0317099
-0.0295639
-0.0266219
-0.0328721
-0.0427477
0.00366717
-0.0123762
-0.0273698
-0.021234
0.173572
0.119425
0.0712028
0.0319067
0.337199
0.270228
0.208305
0.152081
0.589891
0.498966
0.410753
0.329291
0.834805
0.717305
0.764153
0.629396
1.01582
0.976051
0.874531
0.92853
1.0577
1.06415
1.06921
1.03812
1.05752
0.61839
0.548115
0.850959
1.03561
0.987511
0.760558
0.423532
0.395884
0.495497
0.459567
0.075548
0.0063873
0.0157522
0.336825
0.20861
0.000809815
0.00281037
0.00486696
0.00707148
0.009425
0.0118952
0.0144382
0.016942
0.0192689
0.021304
0.0235009
0.0296237
0.0455602
0.057975
0.0496529
0.0293739
0.0248721
0.0280216
0.0447798
0.0841408
0.154321
0.233158
0.26776
0.285182
0.296484
0.315425
0.348521
0.383984
0.377524
0.382291
0.365491
0.371731
0.352751
0.359325
0.336414
0.345271
0.311991
0.325381
0.259087
0.285562
0.193065
0.228113
0.0372978
0.0758788
-0.055658
-0.0507995
-0.0510786
-0.0554566
-0.0327406
-0.0379867
-0.0483582
-0.0535184
-0.0109545
-0.0193603
-0.0308966
-0.0253282
0.102295
0.0598283
0.0259236
0.00277318
0.255666
0.190668
0.134721
0.0876761
0.533192
0.434653
0.340714
0.256413
0.812599
0.682336
0.740785
0.588608
1.00264
0.959866
0.857475
0.911667
1.05801
1.07703
1.07299
1.02856
1.07756
0.667873
0.584861
0.912938
1.06661
1.03516
0.819369
0.43255
0.399435
0.520469
0.475365
0.0773914
0.00873212
0.0307804
0.33026
0.206907
0.000956737
0.00303125
0.00518797
0.00750958
0.0099559
0.0124517
0.01494
0.0173066
0.019438
0.0213393
0.0248943
0.0359654
0.051017
0.0508417
0.0306348
0.0226216
0.0220898
0.0273755
0.0442809
0.0828957
0.151657
0.237554
0.285161
0.316032
0.343921
0.371328
0.392113
0.394395
0.395133
0.388838
0.39257
0.377236
0.383512
0.36205
0.37022
0.34028
0.352234
0.307612
0.325654
0.199676
0.23568
0.117356
0.159683
-0.0381987
-0.0148693
-0.0726889
-0.0737338
-0.0578361
-0.0617855
-0.0688067
-0.0366144
-0.0425772
-0.0508696
-0.0576512
-0.014323
-0.0185445
-0.0283475
-0.0227631
0.0494783
0.0209586
0.00253634
-0.00798391
0.184026
0.12464
0.0779272
0.04259
0.485488
0.380104
0.281203
0.196283
0.79656
0.657798
0.726191
0.56145
0.988978
0.945307
0.845449
0.897645
1.05245
1.08275
1.07268
1.01685
1.08803
0.717528
0.62265
0.968911
1.08542
1.0666
0.873971
0.441733
0.402233
0.546667
0.491976
0.0914248
0.019373
0.0664238
0.327201
0.21406
0.00106474
0.00321017
0.00549451
0.00792393
0.0103781
0.0128535
0.0152488
0.0174421
0.0193024
0.0216124
0.028356
0.0422849
0.0488835
0.036575
0.0221261
0.0194286
0.020835
0.0265258
0.0431301
0.0801526
0.144737
0.234219
0.299483
0.33919
0.369697
0.387457
0.378116
0.380553
0.373645
0.379122
0.381485
0.366945
0.374006
0.346878
0.358046
0.315192
0.332787
0.267088
0.293502
0.101742
0.143514
0.0182157
0.0586895
-0.0714758
-0.0649692
-0.0787499
-0.080327
-0.0834415
-0.0623347
-0.0660006
-0.0766944
-0.0742191
-0.0351888
-0.0430101
-0.0478103
-0.0587969
-0.00580388
-0.00732811
-0.0162777
-0.0104725
0.0185221
0.0047188
-0.00269498
-0.00476793
0.128002
0.0764732
0.0407705
0.0189162
0.455213
0.345202
0.241985
0.155613
0.787463
0.643657
0.718383
0.548126
0.976201
0.933419
0.839043
0.88807
1.04316
1.08462
1.06934
1.00605
1.09388
0.765677
0.660567
1.01509
1.09643
1.08568
0.922864
0.450974
0.404431
0.573721
0.509128
0.127201
0.0360189
0.10213
0.328671
0.233802
0.0011506
0.00336687
0.00578879
0.00824123
0.0106942
0.0130977
0.0153406
0.0172969
0.0191228
0.0229634
0.0334064
0.0449904
0.0404837
0.0255497
0.0186311
0.0177465
0.0200687
0.0262883
0.0430197
0.0763785
0.133511
0.215781
0.292201
0.338077
0.35674
0.342751
0.306619
0.288324
0.33284
0.320983
0.336849
0.337587
0.32244
0.331424
0.29449
0.310416
0.24899
0.274112
0.183527
0.218901
-0.00413138
0.0321509
-0.0527468
-0.033195
-0.0839321
-0.0819072
-0.0824975
-0.0837707
-0.0876453
-0.0878067
-0.0663589
-0.0708375
-0.0806692
-0.078091
-0.0249446
-0.0359798
-0.0351978
-0.0527427
0.0147962
0.0152145
0.00790869
0.0133042
0.00853037
0.00669807
0.00818699
0.0119679
0.0915624
0.0484721
0.0240963
0.0173609
0.441646
0.32985
0.223938
0.136845
0.782348
0.636611
0.715516
0.542531
0.966939
0.925877
0.836019
0.882412
1.03321
1.08616
1.06258
0.997281
1.09702
0.81183
0.698597
1.05078
1.10233
1.09722
0.96884
0.4598
0.407215
0.601336
0.526583
0.168864
0.030775
0.112259
0.335989
0.258387
0.00120846
0.00353583
0.00602939
0.00845614
0.0108775
0.0131614
0.0152195
0.0169472
0.0193006
0.0259321
0.0378747
0.0403253
0.0306558
0.0209797
0.0173393
0.016698
0.0199915
0.0275207
0.0432758
0.0706999
0.116558
0.176636
0.234602
0.263919
0.249397
0.176832
0.207564
0.181012
0.244033
0.228553
0.2539
0.252459
0.238665
0.248664
0.201068
0.222517
0.144045
0.174614
0.0712379
0.109808
-0.0587221
-0.0430429
-0.0775518
-0.0701682
-0.0875967
-0.0871424
-0.086251
-0.0859852
-0.0870012
-0.0901526
-0.0899827
-0.0670564
-0.0741836
-0.0843386
-0.081393
-0.002656
-0.0175898
-0.010221
-0.0366767
0.0488893
0.0519388
0.0466727
0.0508403
0.0184124
0.0228304
0.0330153
0.0409403
0.0782169
0.0429545
0.0320854
0.0324889
0.438773
0.331038
0.229189
0.145484
0.783173
0.638672
0.723107
0.552291
0.961081
0.924445
0.842215
0.885529
1.0271
1.0857
1.05739
0.995331
1.09789
0.855499
0.736434
1.07209
1.10449
1.10242
1.00708
0.469191
0.412702
0.630906
0.545827
0.19412
0.0206376
0.0935055
0.347325
0.281949
0.00124604
0.00369162
0.00615471
0.00858124
0.0109199
0.0130555
0.0148562
0.01663
0.0204858
0.0297629
0.0379257
0.0339253
0.0243758
0.0191139
0.0170882
0.0164595
0.0211438
0.0297065
0.0428453
0.0636207
0.0943202
0.12773
0.149643
0.142294
0.0994721
0.0462893
0.102897
0.0876162
0.131894
0.119053
0.140836
0.139491
0.125038
0.135283
0.0851945
0.107821
0.0301159
0.0586648
-0.023043
0.00142037
-0.0737635
-0.0665556
-0.08352
-0.0794304
-0.0894515
-0.0883632
-0.0870713
-0.0885433
-0.0895205
-0.0901059
-0.0929267
-0.0919906
-0.0607602
-0.0752101
-0.0877684
-0.0830557
0.0340535
0.014518
0.0284097
-0.00843845
0.0980502
0.104647
0.100392
0.1046
0.042183
0.0561931
0.0716521
0.08621
0.0892723
0.0629249
0.0579667
0.0637107
0.457543
0.358548
0.263924
0.185349
0.794899
0.655488
0.742959
0.580506
0.963009
0.928863
0.852644
0.892175
1.02547
1.08381
1.05362
0.995627
1.09718
0.89758
0.777456
1.08423
1.10303
1.10227
1.03771
0.478722
0.420291
0.66193
0.563394
0.194944
0.0117937
0.0521981
0.361529
0.292824
0.00128016
0.00377179
0.00621718
0.00859714
0.0108179
0.0127537
0.014403
0.016742
0.0228658
0.0329831
0.0339632
0.0278934
0.0213111
0.0185696
0.0170702
0.0171263
0.0232376
0.0316332
0.0419729
0.0556144
0.0702816
0.0804446
0.0774676
0.0588268
0.036786
0.0212521
0.0343017
0.0245585
0.0350547
0.0415307
0.0389258
0.0389103
0.0418854
0.0230755
0.0320682
-0.00352072
0.0106399
-0.0329859
-0.0185378
-0.0574686
-0.0461814
-0.0747866
-0.0691863
-0.084472
-0.0800518
-0.0910087
-0.0899238
-0.0876464
-0.0895016
-0.0930698