/*--------------------------------*- C++ -*----------------------------------*\
  =========                 |
  \\      /  F ield         | OpenFOAM: The Open Source CFD Toolbox
   \\    /   O peration     | Website:  https://openfoam.org
    \\  /    A nd           | Version:  dev
     \\/     M anipulation  |
\*---------------------------------------------------------------------------*/
FoamFile
{
    version     2.0;
    format      ascii;
    class       surfaceScalarField;
    location    "2500";
    object      phi;
}
// * * * * * * * * * * * * * * * * * * * * * * * * * * * * * * * * * * * * * //

dimensions      [1 0 -1 0 0 0 0];

internalField   nonuniform List<scalar> 
19533
(
1.76077e-07
1.23689e-07
1.5589e-07
3.13738e-07
5.02448e-07
1.10054e-07
1.3289e-07
4.36426e-07
5.05973e-07
3.10162e-07
7.25857e-07
9.02809e-08
1.14076e-07
5.27533e-07
4.84099e-07
4.58235e-07
7.57866e-07
2.78085e-07
8.99064e-07
7.47998e-08
9.9503e-08
5.97093e-07
4.42805e-07
5.68785e-07
7.75572e-07
4.40484e-07
9.38371e-07
2.38738e-07
1.04704e-06
6.49598e-08
8.753e-08
6.49557e-07
3.93354e-07
6.4655e-07
7.7162e-07
5.72687e-07
9.82305e-07
3.96588e-07
1.08059e-06
2.05096e-07
1.18122e-06
5.80132e-08
7.67675e-08
6.9291e-07
3.44124e-07
6.98729e-07
7.44863e-07
6.73254e-07
1.01579e-06
5.39147e-07
1.12922e-06
3.48016e-07
1.20335e-06
1.82916e-07
1.3027e-06
5.22113e-08
6.80645e-08
7.26563e-07
3.03495e-07
7.33653e-07
7.00423e-07
7.4304e-07
1.02869e-06
6.60282e-07
1.182e-06
4.86332e-07
1.24599e-06
3.05343e-07
1.32031e-06
1.65298e-07
1.414e-06
4.73142e-08
6.17119e-08
7.50416e-07
2.72299e-07
7.57621e-07
6.47559e-07
7.86379e-07
1.01933e-06
7.52405e-07
1.22946e-06
6.12774e-07
1.30121e-06
4.31069e-07
1.34998e-06
2.75629e-07
1.42885e-06
1.50434e-07
1.51644e-06
4.34938e-08
5.73224e-08
7.6554e-07
2.49416e-07
7.72947e-07
5.94723e-07
8.10433e-07
9.88626e-07
8.17035e-07
1.25896e-06
7.22807e-07
1.36166e-06
5.52341e-07
1.39624e-06
3.84758e-07
1.45233e-06
2.5209e-07
1.52813e-06
1.38729e-07
1.61116e-06
4.04019e-08
5.38614e-08
7.72992e-07
2.33483e-07
7.81339e-07
5.46115e-07
8.21617e-07
9.4065e-07
8.58276e-07
1.26462e-06
8.11352e-07
1.41827e-06
6.66047e-07
1.45442e-06
4.94116e-07
1.48571e-06
3.51352e-07
1.54749e-06
2.32635e-07
1.62086e-06
1.28978e-07
1.7e-06
3.80254e-08
5.15727e-08
7.72373e-07
2.21584e-07
7.84746e-07
5.03457e-07
8.23889e-07
8.83743e-07
8.785e-07
1.2464e-06
8.76518e-07
1.46026e-06
7.69385e-07
1.5177e-06
6.02708e-07
1.53233e-06
4.4741e-07
1.57408e-06
3.24709e-07
1.63678e-06
2.16655e-07
1.70765e-06
1.2127e-07
1.78533e-06
3.60387e-08
5.00349e-08
7.64251e-07
2.13603e-07
7.8027e-07
4.70626e-07
8.17425e-07
8.25277e-07
8.82236e-07
1.20874e-06
9.16126e-07
1.48038e-06
8.56427e-07
1.58057e-06
7.06506e-07
1.58964e-06
5.4519e-07
1.61011e-06
4.1136e-07
1.65903e-06
3.02381e-07
1.72091e-06
2.03358e-07
1.79165e-06
1.14894e-07
1.86658e-06
3.40522e-08
4.91076e-08
7.48101e-07
2.09997e-07
7.67773e-07
4.44738e-07
8.06055e-07
7.67761e-07
8.74963e-07
1.1569e-06
9.34165e-07
1.47669e-06
9.19756e-07
1.63254e-06
8.04408e-07
1.65329e-06
6.43014e-07
1.65638e-06
4.98873e-07
1.68731e-06
3.83026e-07
1.73891e-06
2.843e-07
1.80172e-06
1.93216e-07
1.8717e-06
1.09714e-07
1.94322e-06
3.27716e-08
4.94144e-08
7.24881e-07
2.07506e-07
7.5048e-07
4.23303e-07
7.89066e-07
7.16328e-07
8.57542e-07
1.09651e-06
9.3538e-07
1.45187e-06
9.58961e-07
1.66613e-06
8.86254e-07
1.71835e-06
7.39344e-07
1.71115e-06
5.88233e-07
1.72247e-06
4.63611e-07
1.76151e-06
3.60375e-07
1.81569e-06
2.70251e-07
1.87973e-06
1.85117e-07
1.94754e-06
1.05335e-07
2.01887e-06
3.15488e-08
5.08956e-08
6.95844e-07
2.06804e-07
7.25463e-07
4.09639e-07
7.64075e-07
6.73176e-07
8.32213e-07
1.03172e-06
9.22265e-07
1.41004e-06
9.77104e-07
1.6767e-06
9.48326e-07
1.77661e-06
8.2802e-07
1.77227e-06
6.78233e-07
1.76569e-06
5.45026e-07
1.79024e-06
4.34885e-07
1.83474e-06
3.41259e-07
1.89108e-06
2.58788e-07
1.95523e-06
1.77345e-07
2.02301e-06
1.01115e-07
2.09156e-06
3.02367e-08
5.40276e-08
6.60017e-07
2.10259e-07
6.92299e-07
3.99666e-07
7.35401e-07
6.34966e-07
8.02296e-07
9.66775e-07
8.97127e-07
1.35438e-06
9.77917e-07
1.66547e-06
9.8831e-07
1.821e-06
9.03942e-07
1.83665e-06
7.63736e-07
1.81647e-06
6.27536e-07
1.82469e-06
5.10492e-07
1.8572e-06
4.12375e-07
1.90586e-06
3.26445e-07
1.96551e-06
2.4842e-07
2.02941e-06
1.70867e-07
2.09582e-06
9.67924e-08
2.16244e-06
2.89283e-08
5.8015e-08
6.19353e-07
2.14422e-07
6.55784e-07
3.89339e-07
7.02655e-07
6.03479e-07
7.66943e-07
9.0583e-07
8.63269e-07
1.28788e-06
9.63622e-07
1.63535e-06
1.00809e-06
1.84434e-06
9.64955e-07
1.89715e-06
8.4336e-07
1.87365e-06
7.06287e-07
1.86428e-06
5.87945e-07
1.88355e-06
4.84146e-07
1.92395e-06
3.94233e-07
1.97821e-06
3.13672e-07
2.03773e-06
2.40014e-07
2.1018e-06
1.64803e-07
2.16657e-06
9.26144e-08
2.23036e-06
2.75165e-08
6.31796e-08
5.74834e-07
2.18991e-07
6.14712e-07
3.80911e-07
6.64155e-07
5.77561e-07
7.28629e-07
8.48788e-07
8.24001e-07
1.21628e-06
9.34858e-07
1.58867e-06
1.01034e-06
1.84543e-06
1.00697e-06
1.94722e-06
9.14851e-07
1.93524e-06
7.82027e-07
1.90988e-06
6.60687e-07
1.91463e-06
5.56744e-07
1.94503e-06
4.62972e-07
1.99248e-06
3.79893e-07
2.04848e-06
3.02838e-07
2.10941e-06
2.32308e-07
2.17301e-06
1.58265e-07
2.23517e-06
8.77378e-08
2.29614e-06
2.58643e-08
6.83414e-08
5.26848e-07
2.23902e-07
5.69846e-07
3.7366e-07
6.22034e-07
5.54417e-07
6.87437e-07
7.98531e-07
7.78877e-07
1.14473e-06
8.95621e-07
1.52601e-06
9.97536e-07
1.82791e-06
1.02787e-06
1.98122e-06
9.73047e-07
1.9951e-06
8.54888e-07
1.96101e-06
7.30936e-07
1.95016e-06
6.25215e-07
1.96858e-06
5.33187e-07
2.00814e-06
4.47247e-07
2.06081e-06
3.67463e-07
2.11903e-06
2.93103e-07
2.181e-06
2.24225e-07
2.24266e-06
1.50679e-07
2.30129e-06
8.25185e-08
2.35824e-06
2.37695e-08
7.37677e-08
4.75776e-07
2.28601e-07
5.22145e-07
3.67051e-07
5.76516e-07
5.34591e-07
6.41914e-07
7.55375e-07
7.30661e-07
1.07374e-06
8.49934e-07
1.45258e-06
9.69035e-07
1.79204e-06
1.03338e-06
1.99224e-06
1.01682e-06
2.04707e-06
9.21072e-07
2.01578e-06
8.00115e-07
1.98947e-06
6.91614e-07
1.99485e-06
5.98956e-07
2.02534e-06
5.15965e-07
2.07373e-06
4.34289e-07
2.13005e-06
3.56369e-07
2.19034e-06
2.83638e-07
2.25175e-06
2.15027e-07
2.31002e-06
1.4184e-07
2.36504e-06
7.56501e-08
2.41694e-06
2.10854e-08
8.0391e-08
4.22232e-07
2.32425e-07
4.7199e-07
3.61764e-07
5.27496e-07
5.1785e-07
5.93369e-07
7.17163e-07
6.80206e-07
1.00601e-06
7.98401e-07
1.37421e-06
9.28381e-07
1.73654e-06
1.0246e-06
1.98379e-06
1.04186e-06
2.08631e-06
9.776e-07
2.06984e-06
8.66963e-07
2.03184e-06
7.57745e-07
2.0234e-06
6.63061e-07
2.04379e-06
5.80511e-07
2.08647e-06
5.03193e-07
2.14129e-06
4.2299e-07
2.20083e-06
3.45777e-07
2.26268e-06
2.72577e-07
2.32153e-06
2.03406e-07
2.37579e-06
1.31022e-07
2.42534e-06
6.71743e-08
2.47022e-06
1.78509e-08
8.74179e-08
3.68432e-07
2.35024e-07
4.19665e-07
3.58263e-07
4.75593e-07
5.03475e-07
5.42021e-07
6.85403e-07
6.25227e-07
9.45066e-07
7.41285e-07
1.29344e-06
8.79254e-07
1.66582e-06
9.99139e-07
1.95955e-06
1.04888e-06
2.10512e-06
1.02301e-06
2.11949e-06
9.28029e-07
2.0766e-06
8.2223e-07
2.05386e-06
7.27307e-07
2.06297e-06
6.43901e-07
2.09879e-06
5.6818e-07
2.15142e-06
4.93033e-07
2.21153e-06
4.12229e-07
2.27425e-06
3.34096e-07
2.33454e-06
2.59438e-07
2.38989e-06
1.89159e-07
2.43898e-06
1.17298e-07
2.48095e-06
5.63966e-08
2.51699e-06
1.35971e-08
9.37168e-08
3.15867e-07
2.37384e-07
3.66153e-07
3.55397e-07
4.22725e-07
4.90645e-07
4.88594e-07
6.58017e-07
5.69554e-07
8.89742e-07
6.80714e-07
1.21303e-06
8.21818e-07
1.58792e-06
9.57314e-07
1.91593e-06
1.0428e-06
2.10552e-06
1.04857e-06
2.15938e-06
9.83119e-07
2.12154e-06
8.83095e-07
2.08617e-06
7.89951e-07
2.08279e-06
7.07495e-07
2.11043e-06
6.32302e-07
2.16009e-06
5.59498e-07
2.22087e-06
4.83652e-07
2.28515e-06
4.01247e-07
2.34831e-06
3.20212e-07
2.40695e-06
2.42254e-07
2.45688e-06
1.71127e-07
2.49821e-06
9.99401e-08
2.53058e-06
4.2735e-08
2.55797e-06
9.30823e-09
9.89697e-08
2.64708e-07
2.39877e-07
3.13462e-07
3.52455e-07
3.69242e-07
4.79487e-07
4.34061e-07
6.33313e-07
5.13489e-07
8.41847e-07
6.1769e-07
1.13794e-06
7.55932e-07
1.50587e-06
9.0395e-07
1.85316e-06
1.02014e-06
2.09106e-06
1.05731e-06
2.18434e-06
1.02371e-06
2.16549e-06
9.39239e-07
2.11942e-06
8.49882e-07
2.10286e-06
7.69881e-07
2.12106e-06
6.96847e-07
2.16672e-06
6.25677e-07
2.22763e-06
5.52706e-07
2.29437e-06
4.74392e-07
2.36184e-06
3.87577e-07
2.42502e-06
3.02005e-07
2.47851e-06
2.20486e-07
2.52109e-06
1.48114e-07
2.55222e-06
7.81919e-08
2.57465e-06
2.59865e-08
2.59443e-06
3.25241e-09
1.02953e-07
2.15463e-07
2.42131e-07
2.62593e-07
3.50758e-07
3.15338e-07
4.70333e-07
3.7861e-07
6.11588e-07
4.55992e-07
8.02074e-07
5.53478e-07
1.06919e-06
6.86581e-07
1.42178e-06
8.40129e-07
1.77956e-06
9.77617e-07
2.05968e-06
1.05156e-06
2.192e-06
1.04964e-06
2.20137e-06
9.87875e-07
2.15318e-06
9.05521e-07
2.12287e-06
8.29914e-07
2.13058e-06
7.60419e-07
2.17024e-06
6.93341e-07
2.23101e-06
6.22299e-07
2.30107e-06
5.45968e-07
2.37348e-06
4.62722e-07
2.44237e-06
3.7012e-07
2.50235e-06
2.78039e-07
2.54875e-06
1.92681e-07
2.58125e-06
1.1895e-07
2.60073e-06
5.20158e-08
2.61461e-06
5.76193e-09
2.61279e-06
-3.53238e-09
1.056e-07
1.69528e-07
2.43592e-07
2.14169e-07
3.50395e-07
2.63133e-07
4.62632e-07
3.23278e-07
5.92887e-07
3.97549e-07
7.68719e-07
4.89548e-07
1.00845e-06
6.14404e-07
1.33958e-06
7.68906e-07
1.70062e-06
9.19168e-07
2.00774e-06
1.02959e-06
2.18434e-06
1.05926e-06
2.22526e-06
1.02577e-06
2.18674e-06
9.54362e-07
2.14252e-06
8.85953e-07
2.13803e-06
8.22492e-07
2.16972e-06
7.60955e-07
2.22946e-06
6.94912e-07
2.30303e-06
6.20343e-07
2.38156e-06
5.37846e-07
2.4579e-06
4.47147e-07
2.52633e-06
3.46015e-07
2.57994e-06
2.46684e-07
2.61682e-06
1.5699e-07
2.63618e-06
8.33643e-08
2.64839e-06
1.81402e-08
2.63487e-06
-1.63583e-08
2.61383e-06
-1.23691e-08
1.07686e-07
1.27365e-07
2.45074e-07
1.68245e-07
3.51186e-07
2.13594e-07
4.56704e-07
2.69334e-07
5.77873e-07
3.38527e-07
7.41311e-07
4.25169e-07
9.57776e-07
5.40456e-07
1.26216e-06
6.91979e-07
1.61845e-06
8.51183e-07
1.94219e-06
9.84797e-07
2.16258e-06
1.05139e-06
2.23541e-06
1.04914e-06
2.21554e-06
9.96969e-07
2.16132e-06
9.35586e-07
2.14277e-06
8.81277e-07
2.16472e-06
8.27541e-07
2.22152e-06
7.68908e-07
2.29863e-06
6.99302e-07
2.38416e-06
6.17705e-07
2.46973e-06
5.25912e-07
2.54829e-06
4.2508e-07
2.61246e-06
3.13303e-07
2.65747e-06
2.05879e-07
2.68139e-06
1.11629e-07
2.69371e-06
3.7852e-08
2.67565e-06
-2.27222e-08
2.64156e-06
-4.41203e-08
2.59636e-06
-2.29961e-08
1.09295e-07
9.03481e-08
2.46233e-07
1.26435e-07
3.52381e-07
1.67299e-07
4.52912e-07
2.1764e-07
5.67694e-07
2.79774e-07
7.19192e-07
3.60896e-07
9.16742e-07
4.66443e-07
1.19255e-06
6.10253e-07
1.53636e-06
7.74196e-07
1.87043e-06
9.23015e-07
2.12333e-06
1.0241e-06
2.23594e-06
1.0509e-06
2.23383e-06
1.0309e-06
2.18035e-06
9.78039e-07
2.14401e-06
9.34399e-07
2.15518e-06
8.90839e-07
2.20687e-06
8.42248e-07
2.28639e-06
7.81173e-07
2.37897e-06
7.04519e-07
2.47573e-06
6.11664e-07
2.56663e-06
5.0748e-07
2.64408e-06
3.93384e-07
2.70087e-06
2.6976e-07
2.73355e-06
1.53543e-07
2.74888e-06
5.63465e-08
2.73234e-06
-1.89655e-08
2.6903e-06
-7.15198e-08
2.63032e-06
-7.81041e-08
2.55775e-06
-3.6164e-08
1.09544e-07
5.99044e-08
2.47081e-07
8.97417e-08
3.53892e-07
1.25168e-07
4.51651e-07
1.68824e-07
5.62146e-07
2.23458e-07
7.02447e-07
2.96774e-07
8.84896e-07
3.93e-07
1.13305e-06
5.26157e-07
1.45738e-06
6.89399e-07
1.79499e-06
8.49754e-07
2.06987e-06
9.76561e-07
2.22319e-06
1.03692e-06
2.24001e-06
1.04479e-06
2.19804e-06
1.01321e-06
2.14245e-06
9.79651e-07
2.14071e-06
9.48969e-07
2.18458e-06
9.13101e-07
2.26452e-06
8.64108e-07
2.36439e-06
7.95781e-07
2.47306e-06
7.07192e-07
2.57868e-06
5.9959e-07
2.67211e-06
4.79379e-07
2.74432e-06
3.49816e-07
2.79017e-06
2.12979e-07
2.81352e-06
8.87791e-08
2.80242e-06
-1.39598e-08
2.75863e-06
-8.74438e-08
2.68763e-06
-1.28904e-07
2.59768e-06
-1.18083e-07
2.4925e-06
-5.17434e-08
1.08433e-07
3.58945e-08
2.48184e-07
5.90529e-08
3.56125e-07
8.77805e-08
4.53041e-07
1.24071e-07
5.605e-07
1.7075e-07
6.92139e-07
2.34051e-07
8.60902e-07
3.2104e-07
1.0848e-06
4.41528e-07
1.3851e-06
5.98644e-07
1.71942e-06
7.65102e-07
2.00968e-06
9.10047e-07
2.19421e-06
1.0056e-06
2.23834e-06
1.03865e-06
2.20928e-06
1.03358e-06
2.14062e-06
1.0151e-06
2.11976e-06
1.00069e-06
2.15384e-06
9.79855e-07
2.23163e-06
9.46051e-07
2.33773e-06
8.9079e-07
2.45849e-06
8.10357e-07
2.58099e-06
7.04788e-07
2.69336e-06
5.78283e-07
2.78502e-06
4.38584e-07
2.84867e-06
2.91194e-07
2.88536e-06
1.40907e-07
2.88445e-06
6.56996e-09
2.84393e-06
-9.94508e-08
2.76879e-06
-1.68703e-07
2.66441e-06
-1.95694e-07
2.53797e-06
-1.63617e-07
2.3967e-06
-6.92533e-08
1.06459e-07
1.84737e-08
2.49199e-07
3.51364e-08
3.5901e-07
5.64479e-08
4.56431e-07
8.46786e-08
5.62697e-07
1.22148e-07
6.88068e-07
1.75108e-07
8.4422e-07
2.51023e-07
1.04843e-06
3.57666e-07
1.32218e-06
5.04662e-07
1.64637e-06
6.71858e-07
1.94602e-06
8.28857e-07
2.15548e-06
9.48868e-07
2.22879e-06
1.01522e-06
2.21209e-06
1.03596e-06
2.1376e-06
1.03668e-06
2.09361e-06
1.04128e-06
2.11312e-06
1.04147e-06
2.18578e-06
1.02579e-06
2.29614e-06
9.87684e-07
2.42914e-06
9.2018e-07
2.57046e-06
8.20978e-07
2.70447e-06
6.93652e-07
2.81941e-06
5.43832e-07
2.9059e-06
3.81264e-07
2.96095e-06
2.1546e-07
2.9765e-06
4.86945e-08
2.94447e-06
-9.41109e-08
2.87137e-06
-2.02237e-07
2.75953e-06
-2.63918e-07
2.61548e-06
-2.73219e-07
2.4489e-06
-2.15807e-07
2.26724e-06
-8.80164e-08
1.04246e-07
7.6391e-09
2.50021e-07
1.79081e-08
3.62649e-07
3.17815e-08
4.62006e-07
5.1168e-08
5.68394e-07
7.92764e-08
6.88312e-07
1.22212e-07
8.34352e-07
1.85286e-07
1.02256e-06
2.77175e-07
1.27047e-06
4.09642e-07
1.57932e-06
5.71914e-07
1.88283e-06
7.35193e-07
2.11139e-06
8.73037e-07
2.21223e-06
9.65516e-07
2.20576e-06
1.02165e-06
2.13231e-06
1.04134e-06
2.06468e-06
1.06572e-06
2.06258e-06
1.09191e-06
2.12599e-06
1.10134e-06
2.23798e-06
1.08402e-06
2.38234e-06
1.03451e-06
2.54309e-06
9.47529e-07
2.70169e-06
8.23723e-07
2.8436e-06
6.69372e-07
2.95763e-06
4.91933e-07
3.03683e-06
3.05219e-07
3.07594e-06
1.15855e-07
3.05845e-06
-6.55161e-08
2.99303e-06
-2.15956e-07
2.88071e-06
-3.23568e-07
2.72694e-06
-3.75448e-07
2.53829e-06
-3.62639e-07
2.32559e-06
-2.7412e-07
2.09987e-06
-3.3414e-08
-7.32433e-08
1.01902e-07
4.03216e-09
2.50608e-07
7.31724e-09
3.66817e-07
1.40309e-08
4.69295e-07
2.47911e-08
5.75881e-07
4.39879e-08
6.92006e-07
7.58984e-08
8.31503e-07
1.25367e-07
1.00642e-06
2.01751e-07
1.23178e-06
3.16169e-07
1.52072e-06
4.68458e-07
1.82298e-06
6.31923e-07
2.06515e-06
7.81545e-07
2.19085e-06
8.94503e-07
2.19297e-06
9.78401e-07
2.12661e-06
1.02745e-06
2.03291e-06
1.07324e-06
2.00439e-06
1.12404e-06
2.05166e-06
1.16634e-06
2.16129e-06
1.1781e-06
2.31466e-06
1.15176e-06
2.49479e-06
1.08283e-06
2.68053e-06
9.68679e-07
2.85318e-06
8.14106e-07
2.99925e-06
6.27684e-07
3.1077e-06
4.2095e-07
3.17745e-06
2.03556e-07
3.18254e-06
-8.43507e-09
3.13127e-06
-2.03957e-07
3.02526e-06
-3.60691e-07
2.86879e-06
-4.65564e-07
2.66636e-06
-5.03605e-07
2.4323e-06
-4.69379e-07
2.16687e-06
-1.54332e-07
-1.86746e-07
9.59333e-07
-2.80106e-08
9.75537e-07
-8.94426e-08
9.90002e-08
8.48632e-09
2.50239e-07
4.66736e-09
3.70444e-07
3.9809e-09
4.77858e-07
5.77111e-09
5.85075e-07
1.5909e-08
7.00293e-07
3.60252e-08
8.35319e-07
7.24113e-08
9.99472e-07
1.32666e-07
1.2063e-06
2.27559e-07
1.47314e-06
3.64028e-07
1.76968e-06
5.21941e-07
2.02079e-06
6.76411e-07
2.16704e-06
8.05469e-07
2.17919e-06
9.08385e-07
2.11891e-06
9.86222e-07
2.00201e-06
1.05848e-06
1.94085e-06
1.13692e-06
1.96413e-06
1.21169e-06
2.06434e-06
1.26339e-06
2.2228e-06
1.27003e-06
2.42063e-06
1.22596e-06
2.63589e-06
1.12748e-06
2.84328e-06
9.78557e-07
3.02596e-06
7.87339e-07
3.17045e-06
5.64845e-07
3.27672e-06
3.21541e-07
3.31345e-06
7.24699e-08
3.28528e-06
-1.62661e-07
3.19285e-06
-3.71764e-07
3.03982e-06
-5.31893e-07
2.83033e-06
-6.29661e-07
2.56657e-06
-2.97525e-07
-3.40415e-07
1.13635e-06
-2.67522e-07
1.13526e-06
-3.06602e-07
9.77003e-07
-1.55772e-07
1.00879e-06
-2.18515e-07
9.03788e-07
-2.74511e-08
9.1249e-07
-9.81285e-08
9.52175e-08
2.07559e-08
2.49584e-07
9.41706e-09
3.74281e-07
1.12781e-09
4.87519e-07
-5.3739e-09
5.96204e-07
-5.04334e-09
7.12679e-07
3.84463e-09
8.44349e-07
2.73322e-08
1.0008e-06
7.14195e-08
1.19336e-06
1.45986e-07
1.43899e-06
2.62028e-07
1.72496e-06
4.08973e-07
1.98194e-06
5.60958e-07
2.14435e-06
6.99216e-07
2.16975e-06
8.15012e-07
2.10994e-06
9.17482e-07
1.97308e-06
1.01529e-06
1.87524e-06
1.12425e-06
1.86529e-06
1.23591e-06
1.94725e-06
1.3289e-06
2.10549e-06
1.38079e-06
2.31746e-06
1.37326e-06
2.56172e-06
1.30016e-06
2.80741e-06
1.16335e-06
3.03235e-06
9.72132e-07
3.21991e-06
7.37809e-07
3.3663e-06
4.75155e-07
3.44456e-06
1.90284e-07
3.45018e-06
-9.26134e-08
3.38194e-06
-3.51984e-07
3.24001e-06
-5.72153e-07
3.03011e-06
-7.31822e-07
2.7545e-06
-3.92139e-07
-4.25563e-07
1.18192e-06
-3.43104e-07
1.23133e-06
-3.89844e-07
1.02386e-06
-2.82575e-07
1.16574e-06
-3.73592e-07
1.06481e-06
-3.47546e-07
9.2567e-07
-1.6893e-07
9.4665e-07
-2.39471e-07
8.41777e-07
-2.88843e-08
8.49604e-07
-1.05936e-07
9.15728e-08
3.89037e-08
2.49394e-07
2.12096e-08
3.78611e-07
5.38114e-09
4.97546e-07
-8.59954e-09
6.0925e-07
-1.81024e-08
7.27621e-07
-1.96598e-08
8.5829e-07
-9.76648e-09
1.00981e-06
1.86674e-08
1.19204e-06
7.30781e-08
1.41856e-06
1.66801e-07
1.69053e-06
2.96763e-07
1.95151e-06
4.39596e-07
2.12743e-06
5.78024e-07
2.16852e-06
7.00576e-07
2.10419e-06
8.20888e-07
1.95015e-06
9.40569e-07
1.81127e-06
1.07944e-06
1.75825e-06
1.23147e-06
1.81071e-06
1.37262e-06
1.95892e-06
1.47559e-06
2.1816e-06
1.51674e-06
2.45178e-06
1.48324e-06
2.73925e-06
1.36833e-06
3.01212e-06
1.18356e-06
3.24949e-06
9.42489e-07
3.443e-06
6.6102e-07
3.57072e-06
3.48862e-07
3.62018e-06
2.01218e-08
3.58669e-06
-2.97533e-07
3.46907e-06
-5.81245e-07
3.26666e-06
-8.08883e-07
2.98537e-06
-4.64672e-07
-4.98162e-07
1.27609e-06
-4.36918e-07
1.33562e-06
-4.85118e-07
1.2059e-06
-4.30015e-07
9.73761e-07
-3.09666e-07
1.1015e-06
-4.10274e-07
1.00813e-06
-3.81899e-07
8.63752e-07
-1.83052e-07
8.84337e-07
-2.60029e-07
7.73486e-07
-3.11486e-08
7.81284e-07
-1.13711e-07
8.8176e-08
6.3832e-08
2.48168e-07
4.03791e-08
3.82413e-07
1.76946e-08
5.06882e-07
-3.65888e-09
6.23384e-07
-2.24169e-08
7.44448e-07
-3.46007e-08
8.76471e-07
-3.74907e-08
1.02504e-06
-2.46069e-08
1.20023e-06
1.08657e-08
1.41137e-06
8.06084e-08
1.66819e-06
1.89474e-07
1.9308e-06
3.17699e-07
2.11941e-06
4.47776e-07
2.17737e-06
5.693e-07
2.10879e-06
6.96104e-07
1.93905e-06
8.32148e-07
1.75525e-06
9.96789e-07
1.64898e-06
1.18893e-06
1.65766e-06
1.38471e-06
1.78289e-06
1.5488e-06
2.00747e-06
1.64982e-06
2.30229e-06
1.6663e-06
2.63119e-06
1.59133e-06
2.95861e-06
1.42183e-06
3.2537e-06
1.1793e-06
3.50105e-06
8.84362e-07
3.68746e-06
5.44173e-07
3.78826e-06
1.80652e-07
3.80055e-06
-1.94063e-07
3.72102e-06
-5.4968e-07
3.54085e-06
-8.55613e-07
3.261e-06
-5.24867e-07
-5.59808e-07
1.3942e-06
-5.23279e-07
1.46313e-06
-5.6712e-07
1.25458e-06
-4.85609e-07
1.30926e-06
-5.39815e-07
1.14817e-06
-4.7669e-07
9.12812e-07
-3.38117e-07
1.05088e-06
-4.53014e-07
9.47733e-07
-4.16798e-07
7.95185e-07
-1.96922e-07
8.1615e-07
-2.80961e-07
7.00464e-07
-3.31264e-08
7.08103e-07
-1.21323e-07
8.42575e-08
9.58884e-08
2.45514e-07
6.67337e-08
3.85034e-07
3.80374e-08
5.15245e-07
9.63211e-09
6.37784e-07
-1.77458e-08
7.62793e-07
-4.0435e-08
8.96751e-07
-5.4535e-08
1.04512e-06
-5.72206e-08
1.21578e-06
-3.9778e-08
1.41624e-06
6.43263e-09
1.65815e-06
9.09896e-08
1.92059e-06
1.99974e-07
2.12187e-06
3.15444e-07
2.19799e-06
4.27295e-07
2.12988e-06
5.48342e-07
1.94526e-06
6.90055e-07
1.71565e-06
8.7194e-07
1.54618e-06
1.09981e-06
1.49437e-06
1.35245e-06
1.57911e-06
1.58868e-06
1.79153e-06
1.76489e-06
2.10513e-06
1.84707e-06
2.47475e-06
1.82278e-06
2.85896e-06
1.69099e-06
3.21946e-06
1.45604e-06
3.53059e-06
1.14969e-06
3.78565e-06
7.86072e-07
3.94728e-06
3.85023e-07
4.01736e-06
-3.61961e-08
3.98328e-06
-4.56645e-07
3.84395e-06
-8.52961e-07
3.58122e-06
-5.71174e-07
-6.04795e-07
1.53718e-06
-5.98936e-07
1.61673e-06
-6.39377e-07
1.37473e-06
-5.88765e-07
1.44442e-06
-6.36826e-07
1.20469e-06
-5.42132e-07
1.26757e-06
-6.02706e-07
1.10005e-06
-5.25859e-07
8.44777e-07
-3.66711e-07
9.91635e-07
-4.96899e-07
8.81084e-07
-4.53076e-07
7.21397e-07
-2.1018e-07
7.42161e-07
-3.01685e-07
6.22411e-07
-3.54856e-08
6.29477e-07
-1.28355e-07
8.03211e-08
1.32751e-07
2.42299e-07
9.93551e-08
3.87125e-07
6.49247e-08
5.22693e-07
3.08813e-08
6.51984e-07
-4.25683e-09
7.81399e-07
-3.60203e-08
9.17961e-07
-6.12918e-08
1.06886e-06
-7.79114e-08
1.23711e-06
-7.8181e-08
1.43035e-06
-5.3478e-08
1.66058e-06
4.45057e-09
1.92034e-06
9.15692e-08
2.13565e-06
1.86436e-07
2.23223e-06
2.81366e-07
2.1722e-06
3.85097e-07
1.97534e-06
5.18405e-07
1.70165e-06
7.04237e-07
1.46123e-06
9.57123e-07
1.33126e-06
1.26316e-06
1.35176e-06
1.58002e-06
1.53244e-06
1.84797e-06
1.85285e-06
2.01731e-06
2.26289e-06
2.05902e-06
2.70945e-06
1.97232e-06
3.14148e-06
1.76895e-06
3.52477e-06
1.46181e-06
3.85313e-06
1.08212e-06
4.08656e-06
6.46669e-07
4.22388e-06
1.78384e-07
4.24901e-06
-3.01902e-07
4.16244e-06
-7.75362e-07
3.94823e-06
-6.00533e-07
-6.19507e-07
1.70872e-06
-6.6317e-07
1.80285e-06
-6.9888e-07
1.52769e-06
-6.822e-07
1.61546e-06
-7.27084e-07
1.33871e-06
-6.59907e-07
1.42009e-06
-7.18167e-07
1.15806e-06
-6.0014e-07
1.22658e-06
-6.71201e-07
1.04321e-06
-5.77419e-07
7.7071e-07
-3.9522e-07
9.26436e-07
-5.42219e-07
8.07799e-07
-4.90122e-07
6.42153e-07
-2.22811e-07
6.61951e-07
-3.21434e-07
5.41266e-07
-3.81924e-08
5.46749e-07
-1.33797e-07
7.62659e-08
1.73738e-07
2.38479e-07
1.36791e-07
3.88946e-07
9.7804e-08
5.28818e-07
5.90912e-08
6.65404e-07
1.77635e-08
7.99965e-07
-2.24974e-08
9.40592e-07
-5.8299e-08
1.09439e-06
-8.64212e-08
1.26356e-06
-1.03956e-07
1.45226e-06
-9.9671e-08
1.67458e-06
-6.70638e-08
1.92961e-06
-4.40919e-09
2.15986e-06
6.76286e-08
2.27963e-06
1.3923e-07
2.23731e-06
2.16395e-07
2.0342e-06
3.26363e-07
1.72224e-06
4.97986e-07
1.40811e-06
7.57588e-07
1.18394e-06
1.10471e-06
1.11271e-06
1.50248e-06
1.23031e-06
1.88236e-06
1.53233e-06
2.16864e-06
1.97662e-06
2.30365e-06
2.49277e-06
2.27573e-06
3.01135e-06
2.10245e-06
3.4819e-06
1.81178e-06
3.88678e-06
1.42807e-06
4.20072e-06
9.67846e-07
4.41241e-06
4.58005e-07
4.51481e-06
-8.75576e-08
4.49972e-06
-6.39489e-07
4.36061e-06
-5.93077e-07
-5.94457e-07
1.91635e-06
-7.13907e-07
2.02999e-06
-7.32812e-07
1.72405e-06
-7.71588e-07
1.84323e-06
-8.17629e-07
1.51657e-06
-7.78539e-07
1.63451e-06
-8.44632e-07
1.3081e-06
-7.41339e-07
1.40935e-06
-8.19143e-07
1.1059e-06
-6.62779e-07
1.18685e-06
-7.52e-07
9.82809e-07
-6.33728e-07
6.90054e-07
-4.23269e-07
8.56351e-07
-5.90693e-07
7.29008e-07
-5.2899e-07
5.57438e-07
-2.33445e-07
5.75853e-07
-3.39786e-07
4.56163e-07
-3.99465e-08
4.60418e-07
-1.37999e-07
7.16216e-08
2.18058e-07
2.33619e-07
1.78807e-07
3.88607e-07
1.37375e-07
5.33463e-07
9.34374e-08
6.76937e-07
4.78435e-08
8.18242e-07
-1.96708e-10
9.63365e-07
-4.4925e-08
1.12061e-06
-8.41443e-08
1.29342e-06
-1.15881e-07
1.48003e-06
-1.31307e-07
1.69674e-06
-1.21384e-07
1.94837e-06
-8.53825e-08
2.19255e-06
-3.67557e-08
2.33962e-06
7.8729e-09
2.32398e-06
5.27274e-08
2.1255e-06
1.25233e-07
1.7856e-06
2.63176e-07
1.40133e-06
5.04995e-07
1.07416e-06
8.67645e-07
8.86324e-07
1.33139e-06
8.96076e-07
1.83694e-06
1.13552e-06
2.27931e-06
1.58077e-06
2.56456e-06
2.16556e-06
2.63089e-06
2.79327e-06
2.4938e-06
3.38308e-06
2.20124e-06
3.88988e-06
1.80861e-06
4.29622e-06
1.33247e-06
4.5898e-06
7.90316e-07
4.77666e-06
1.9601e-07
4.83721e-06
-4.24859e-07
4.79346e-06
-5.44758e-07
-5.27082e-07
2.16657e-06
-7.29127e-07
2.29978e-06
-7.26766e-07
1.98871e-06
-8.58552e-07
2.15159e-06
-8.94237e-07
1.78106e-06
-9.17275e-07
1.96265e-06
-9.97448e-07
1.54487e-06
-9.13334e-07
1.72779e-06
-1.02595e-06
1.29698e-06
-8.51012e-07
1.45449e-06
-9.7549e-07
1.05843e-06
-7.3818e-07
1.17474e-06
-8.67641e-07
9.2565e-07
-7.02765e-07
6.03945e-07
-4.51274e-07
7.8834e-07
-6.49741e-07
6.50442e-07
-5.75216e-07
4.6888e-07
-2.4184e-07
4.84729e-07
-3.55549e-07
3.7101e-07
-4.06395e-08
3.72214e-07
-1.39137e-07
6.6596e-08
2.62968e-07
2.27543e-07
2.2433e-07
3.85601e-07
1.82065e-07
5.36587e-07
1.34523e-07
6.85815e-07
8.48492e-08
8.35197e-07
3.11951e-08
9.85268e-07
-2.17588e-08
1.14722e-06
-7.11585e-08
1.32422e-06
-1.14568e-07
1.51231e-06
-1.47726e-07
1.72524e-06
-1.59267e-07
1.97456e-06
-1.4719e-07
2.23108e-06
-1.23522e-07
2.40896e-06
-1.05805e-07
2.42824e-06
-9.61978e-08
2.24918e-06
-7.08228e-08
1.896e-06
1.49884e-08
1.45428e-06
2.10462e-07
1.02775e-06
5.51707e-07
7.10404e-07
1.04388e-06
5.809e-07
1.64676e-06
7.1036e-07
2.26207e-06
1.12504e-06
2.73486e-06
1.74283e-06
2.98714e-06
2.45874e-06
2.96533e-06
3.18348e-06
2.69331e-06
3.82823e-06
2.26281e-06
4.36079e-06
1.74393e-06
4.7559e-06
1.16625e-06
5.02904e-06
5.37733e-07
5.16272e-06
-1.29811e-07
5.23182e-06
-4.48672e-07
-4.13532e-07
2.45292e-06
-6.96692e-07
2.59225e-06
-6.64757e-07
2.33428e-06
-9.09607e-07
2.53157e-06
-9.2102e-07
2.18159e-06
-1.07461e-06
2.42736e-06
-1.13605e-06
1.96251e-06
-1.14898e-06
2.24231e-06
-1.27282e-06
1.67939e-06
-1.1357e-06
1.97103e-06
-1.31314e-06
1.35798e-06
-1.03255e-06
1.625e-06
-1.23897e-06
1.04085e-06
-8.52523e-07
1.24406e-06
-1.06861e-06
8.9803e-07
-8.11475e-07
5.15914e-07
-4.82231e-07
7.47027e-07
-7.45304e-07
5.92153e-07
-6.50501e-07
3.76794e-07
-2.46334e-07
3.89615e-07
-3.68201e-07
2.87725e-07
-3.91481e-08
2.8358e-07
-1.34909e-07
6.13126e-08
3.05089e-07
2.19724e-07
2.70964e-07
3.80138e-07
2.3002e-07
5.37011e-07
1.81893e-07
6.92395e-07
1.28229e-07
8.49863e-07
7.04722e-08
1.00596e-06
1.08295e-08
1.17301e-06
-4.71825e-08
1.35452e-06
-1.01065e-07
1.54667e-06
-1.48523e-07
1.75869e-06
-1.80667e-07
2.00532e-06
-1.89465e-07
2.27295e-06
-1.88692e-07
2.48298e-06
-1.9723e-07
2.54499e-06
-2.22326e-07
2.40086e-06
-2.47712e-07
2.05329e-06
-2.27976e-07
1.57488e-06
-1.0539e-07
1.06889e-06
1.69643e-07
6.39919e-07
6.22593e-07
3.93898e-07
1.23099e-06
4.23212e-07
1.93317e-06
7.62464e-07
2.62314e-06
1.34149e-06
3.1348e-06
2.08378e-06
3.36129e-06
2.88658e-06
3.26189e-06
3.65939e-06
2.86199e-06
4.34511e-06
2.27835e-06
4.87344e-06
1.62624e-06
5.24581e-06
9.49294e-07
5.49166e-06
2.08903e-07
5.62911e-06
-3.10978e-07
-2.15366e-07
2.74773e-06
-6.02228e-07
2.89099e-06
-5.54457e-07
2.73364e-06
-8.94939e-07
2.93318e-06
-8.59748e-07
2.68878e-06
-1.16598e-06
2.95593e-06
-1.18233e-06
2.5497e-06
-1.37658e-06
2.85508e-06
-1.43582e-06
2.29272e-06
-1.46545e-06
2.60059e-06
-1.57516e-06
1.94686e-06
-1.45234e-06
2.25535e-06
-1.61611e-06
1.54184e-06
-1.32564e-06
1.85758e-06
-1.54861e-06
1.10894e-06
-1.06076e-06
1.41426e-06
-1.36847e-06
9.52003e-07
-1.01352e-06
4.40374e-07
-5.32234e-07
7.76656e-07
-9.26832e-07
5.90407e-07
-7.97747e-07
2.83247e-07
-2.45872e-07
3.03433e-07
-3.87895e-07
2.09559e-07
-3.24833e-08
1.96975e-07
-1.22218e-07
5.56242e-08
3.39881e-07
2.09536e-07
3.15436e-07
3.71615e-07
2.79696e-07
5.33706e-07
2.33572e-07
6.96561e-07
1.78003e-07
8.61298e-07
1.17089e-07
1.02368e-06
5.30819e-08
1.19681e-06
-1.2633e-08
1.38312e-06
-7.53967e-08
1.58077e-06
-1.3474e-07
1.79454e-06
-1.83871e-07
2.04008e-06
-2.14838e-07
2.31635e-06
-2.32338e-07
2.55822e-06
-2.63593e-07
2.66848e-06
-3.20453e-07
2.57363e-06
-3.94921e-07
2.25258e-06
-4.46871e-07
1.76294e-06
-4.15771e-07
1.20914e-06
-2.45144e-07
7.14082e-07
9.61787e-08
4.09679e-07
6.07234e-07
3.9249e-07
1.26021e-06
6.435e-07
2.04767e-06
1.09076e-06
2.86785e-06
1.8189e-06
3.39507e-06
2.64094e-06
3.60464e-06
3.45731e-06
3.4631e-06
4.23466e-06
2.97211e-06
4.90092e-06
2.25066e-06
5.39266e-06
1.4792e-06
5.76914e-06
6.71624e-07
6.02428e-06
-1.85055e-07
3.0123e-06
-4.29883e-07
3.14389e-06
-3.44966e-07
3.13205e-06
-7.95893e-07
3.31685e-06
-7.33483e-07
3.2199e-06
-1.15254e-06
3.46623e-06
-1.09938e-06
3.14075e-06
-1.44591e-06
3.40442e-06
-1.4408e-06
2.87104e-06
-1.64284e-06
3.10567e-06
-1.66772e-06
2.51162e-06
-1.71826e-06
2.72382e-06
-1.78642e-06
2.12211e-06
-1.71295e-06
2.32251e-06
-1.81583e-06
1.70518e-06
-1.61059e-06
1.92153e-06
-1.763e-06
1.24161e-06
-1.34442e-06
1.50534e-06
-1.6266e-06
1.04372e-06
-1.27431e-06
4.04516e-07
-6.30984e-07
8.30108e-07
-1.16017e-06
6.10381e-07
-9.97689e-07
1.92519e-07
-2.41135e-07
2.41305e-07
-4.35107e-07
1.41719e-07
-1.27023e-08
1.14104e-07
-9.4438e-08
4.99071e-08
3.60459e-07
1.96594e-07
3.52965e-07
3.59032e-07
3.2821e-07
5.2607e-07
2.87558e-07
6.96905e-07
2.33481e-07
8.69201e-07
1.70383e-07
1.03764e-06
1.03449e-07
1.21844e-06
3.17951e-08
1.40962e-06
-3.87439e-08
1.61369e-06
-1.07899e-07
1.83095e-06
-1.70639e-07
2.07729e-06
-2.20517e-07
2.35887e-06
-2.56777e-07
2.63042e-06
-3.0409e-07
2.79195e-06
-3.86771e-07
2.75783e-06
-5.04445e-07
2.48436e-06
-6.26573e-07
2.01079e-06
-6.94397e-07
1.44535e-06
-6.51125e-07
9.36277e-07
-4.65511e-07
6.46167e-07
-1.38087e-07
6.4265e-07
3.56983e-07
8.35713e-07
1.06316e-06
1.16394e-06
1.96428e-06
1.71554e-06
2.95794e-06
2.50605e-06
3.52038e-06
3.34995e-06
3.70756e-06
4.14399e-06
3.55224e-06
4.8784e-06
2.9941e-06
5.47697e-06
2.16608e-06
5.98133e-06
1.26672e-06
6.33335e-06
3.62992e-07
-3.60478e-06
7.09539e-06
-2.97584e-07
-2.15482e-07
3.48497e-06
-5.91978e-07
-4.57853e-07
3.70131e-06
-1.02395e-06
3.91079e-06
-9.35582e-07
3.64617e-06
-1.38971e-06
3.87268e-06
-1.3218e-06
3.32055e-06
-1.65945e-06
3.52534e-06
-1.64478e-06
2.90228e-06
-1.82121e-06
3.06128e-06
-1.82643e-06
2.46845e-06
-1.86453e-06
2.57504e-06
-1.89303e-06
2.05763e-06
-1.84931e-06
2.13184e-06
-1.89062e-06
1.66708e-06
-1.77159e-06
1.74254e-06
-1.83933e-06
1.26946e-06
-1.56473e-06
1.38122e-06
-1.73811e-06
1.02336e-06
-1.46171e-06
3.93039e-07
-7.77312e-07
7.79114e-07
-1.3219e-06
5.4281e-07
-1.13983e-06
1.15028e-07
-2.41257e-07
2.03172e-07
-5.19198e-07
8.78649e-08
4.58219e-08
3.65734e-08
-4.28225e-08
4.59698e-08
3.56771e-07
1.82413e-07
3.74763e-07
3.41471e-07
3.70698e-07
5.12904e-07
3.41588e-07
6.9187e-07
2.92832e-07
8.73159e-07
2.29795e-07
1.04725e-06
1.61111e-07
1.2368e-06
8.54006e-08
1.4334e-06
8.38542e-09
1.64375e-06
-6.8395e-08
1.86632e-06
-1.42889e-07
2.11479e-06
-2.07588e-07
2.39948e-06
-2.6055e-07
2.69553e-06
-3.21359e-07
2.90931e-06
-4.21113e-07
2.94351e-06
-5.72247e-07
2.73583e-06
-7.55741e-07
2.30344e-06
-9.1885e-07
1.75832e-06
-1.00606e-06
1.28021e-06
-9.91635e-07
1.06138e-06
-8.75452e-07
1.12112e-06
-6.12892e-07
1.296e-06
-1.05033e-07
1.52505e-06
6.93498e-07
1.88934e-06