/*--------------------------------*- C++ -*----------------------------------*\
  =========                 |
  \\      /  F ield         | OpenFOAM: The Open Source CFD Toolbox
   \\    /   O peration     | Website:  https://openfoam.org
    \\  /    A nd           | Version:  dev
     \\/     M anipulation  |
\*---------------------------------------------------------------------------*/
FoamFile
{
    version     2.0;
    format      ascii;
    class       volScalarField;
    location    "2500";
    object      qr;
}
// * * * * * * * * * * * * * * * * * * * * * * * * * * * * * * * * * * * * * //

dimensions      [1 0 -3 0 0 0 0];

internalField   uniform 0;

boundaryField
{
    lowerOutlet
    {
        type            calculated;
        value           nonuniform List<scalar> 
144
(
1148.09
1151.91
1156.18
1160.86
1165.98
1171.53
1177.53
1183.99
1190.92
1198.35
1206.3
1214.78
1223.83
1233.47
1243.75
1254.7
1266.37
1278.82
1292.1
1306.29
1321.48
1337.77
1355.27
1374.14
1394.57
1416.76
1440.92
1467.37
1496.46
1528.66
1564.53
1604.79
1650.37
1690.02
1748.21
1816.02
1896.02
1991.6
2107.65
2251.17
2430.91
2666.16
2982.22
3402.41
3803.16
4253.63
4884.52
5495.4
-13410.6
3416.23
2773.27
2441.41
2218.79
2035.09
1912.11
1814.16
1734.26
1668.03
1611.96
1563.74
1521.7
1484.65
1451.72
1414.77
1388.76
1365.06
1343.35
1323.34
1304.84
1287.66
1271.65
1256.7
1242.7
1229.58
1217.24
1205.61
1194.64
1184.27
1174.46
1165.18
1156.4
1148.07
1140.19
1132.72
1125.64
1118.95
1112.62
1106.63
1100.99
1095.68
1090.68
1086
1081.62
1077.53
1073.75
1070.28
2175.43
2336.38
2540.46
2811.31
3182.42
3695.6
4127.1
4711.32
5343.42
4746.89
3750.44
2887.77
2511.1
2267.7
2109.59
1969.87
1860.56
1772.23
1699.69
1638.9
2046.68
3910.09
4375.38
5039.54
5646.85
4692.83
3194.85
2674.69
2378.19
2173.46
1586.99
3582.58
4018.08
4532.57
5191.57
5792.7
4205.51
3024.37
2588.23
2320.59
1718.05
1780.77
1854.31
1941.61
1542.03
1502.61
1467.72
1436.56
)
;
    }
    top
    {
        type            calculated;
        value           nonuniform List<scalar> 
100
(
1035.28
1036.58
1038.91
1041.55
1044.21
1046.69
1048.9
1050.72
1052.26
1053.86
1055.84
1058.06
1060.17
1062.2
1064.06
1065.73
1067.22
1068.45
1069.4
1070.31
1071.42
1072.67
1073.96
1075.38
1076.93
1078.59
1080.32
1081.75
1081.62
1076.46
1064.77
1053.58
1050.76
1056.37
1068.79
1084.2
1095.04
1099.41
1101.28
1102.59
1103.55
1104.34
1104.96
1105.45
1105.82
1106.05
1106.14
1106.12
1105.96
1105.68
1105.29
1104.79
1104.18
1103.47
1102.66
1101.76
1100.77
1099.68
1098.52
1097.29
1095.96
1094.54
1093.03
1091.41
1089.69
1087.87
1085.92
1083.86
1081.71
1079.49
1077.25
1074.86
1072.77
1070.79
1069.03
1068.97
1076.52
1073.59
1070.62
1067.62
1064.58
1061.52
1058.44
1055.34
1052.22
1049.1
1045.96
1042.81
1039.66
1033.37
1029.29
1024.99
1020.71
1016.65
1012.95
1009.8
1007.22
1005.21
1004.29
1005.63
)
;
    }
    sides
    {
        type            calculated;
        value           nonuniform List<scalar> 
100
(
1148.11
1151.14
1153.78
1156.02
1157.85
1159.29
1160.35
1161.03
1161.35
1161.31
1160.93
1160.23
1159.21
1157.9
1156.3
1154.43
1152.32
1149.98
1147.42
1144.66
1141.72
1138.61
1135.36
1131.98
1128.48
1124.89
1121.21
1117.47
1113.67
1109.83
1105.96
1102.08
1098.18
1094.29
1090.41
1086.55
1082.72
1078.92
1075.16
1071.44
1067.77
1064.14
1060.57
1057.06
1053.6
1050.2
1046.86
1043.59
1040.37
1037.25
1070.3
1073.22
1075.87
1078.24
1080.33
1082.15
1083.69
1084.97
1085.99
1086.75
1087.27
1087.56
1087.61
1087.44
1087.06
1086.48
1085.71
1084.75
1083.62
1082.33
1080.88
1079.28
1077.55
1075.7
1073.73
1071.65
1069.47
1067.2
1064.85
1062.41
1059.91
1057.35
1054.73
1052.05
1049.33
1046.57
1043.78
1040.95
1038.09
1035.21
1032.31
1029.39
1026.46
1023.51
1020.55
1017.58
1014.61
1011.62
1008.63
1005.67
)
;
    }
    front
    {
        type            empty;
    }
    back
    {
        type            empty;
    }
    roller
    {
        type            calculated;
        value           nonuniform List<scalar> 
144
(
6105.68
5367.05
4223.28
3319.27
1671.61
1391.04
1390.6
1343.95
1293.49
1264.78
7061
7845.35
7398.17
5881.36
5731.23
2926.35
2158.62
2377.28
1708.84
2048
1557.35
1474.89
1362.57
1404.72
1319.17
1309.78
1271.53
1288.52
5326.15
6432.34
2673.27
2042.77
2717
2599.18
1645.76
1512.26
1454.33
1437.32
1381.03
1262.23
1266.64
6789.48
7734.11
7640.77
4633.07
5589.43
5079.92
6225.39
4455.06
3164.76
2484.38
1749.47
2129.3
1490.55
1369.52
1312.82
1303.11
7320.97
7870.43
7090.58
2270.89
1595.05
1567.93
1495.46
1438.11
1538.03
1285.52
4853.68
4060.18
3728.26
3419.48
2845.86
1901.38
1967.36
1812.19
1512.28
1769.6
1667.33
1450.88
1639.96
1399.73
1379.59
1327.9
1351.85
1360.48
1298.82
1290.97
1263.53
7552.52
7801.68
6735.08
4877.13
4430.19
3974.25
3524.81
3123.77
1844.31
1793.96
2195.66
1548.48
1479.61
1426.41
1412.07
1345.13
1371.85
1333.3
1282.46
1278.37
1281.86
1275.26
1271.97
1269.76
1264.85
1263.77
1262.51
3742.8
2467.35
2297.95
2977.42
1966.64
1623.12
1911.04
1859.34
1529.97
1731.58
1697.79
1464.79
1614.91
1583.94
1353.39
1421.57
1337.29
1306.5
1317.29
1324.84
1296.73
1268.76
1274.63
1278.8
1266.21
1267.85
1262.5
1262.99
1262.86
)
;
    }
    burner
    {
        type            calculated;
        value           nonuniform List<scalar> 
16
(
-126231
-121548
-118661
-118631
-122630
-119196
-118223
-123358
-124998
-120636
-118294
-119469
-123823
-119861
-118131
-120922
)
;
    }
}


// ************************************************************************* //
