/*--------------------------------*- C++ -*----------------------------------*\
  =========                 |
  \\      /  F ield         | OpenFOAM: The Open Source CFD Toolbox
   \\    /   O peration     | Website:  https://openfoam.org
    \\  /    A nd           | Version:  dev
     \\/     M anipulation  |
\*---------------------------------------------------------------------------*/
FoamFile
{
    version     2.0;
    format      ascii;
    class       volScalarField;
    location    "2500";
    object      rAU;
}
// * * * * * * * * * * * * * * * * * * * * * * * * * * * * * * * * * * * * * //

dimensions      [-1 3 1 0 0 0 0];

internalField   nonuniform List<scalar> 
9851
(
0.00820656
0.00827392
0.00821942
0.00824742
0.00840016
0.00814961
0.00821441
0.00839453
0.00840713
0.00809139
0.0081855
0.00838845
0.0083941
0.00841943
0.00803868
0.00816684
0.00838815
0.00838616
0.00840558
0.00842753
0.00799103
0.00815186
0.0083933
0.0083845
0.00839252
0.0084197
0.00843093
0.00794817
0.00813855
0.00839926
0.00838661
0.00838412
0.00840712
0.00842838
0.00843257
0.0079093
0.00812788
0.00840381
0.00839235
0.00837935
0.00839457
0.00842194
0.00843232
0.0084333
0.00787357
0.008121
0.00840667
0.00840213
0.00837858
0.00838454
0.00841094
0.00843024
0.0084342
0.00843369
0.00784062
0.00811749
0.00840797
0.00841283
0.00838121
0.00837854
0.00839836
0.0084249
0.00843413
0.00843525
0.0084339
0.00780965
0.00811256
0.0084084
0.00842085
0.00838716
0.00837497
0.00838751
0.00841498
0.00843246
0.00843598
0.00843602
0.00843399
0.00778021
0.00811467
0.00840797
0.00842646
0.00839625
0.00837403
0.00837971
0.00840351
0.00842763
0.00843616
0.00843717
0.00843639
0.00843388
0.00775225
0.00812337
0.00840692
0.0084316
0.00840695
0.0083762
0.00837469
0.00839262
0.00841919
0.00843471
0.0084379
0.00843815
0.00843677
0.00843385
0.00772555
0.00813276
0.008407
0.0084343
0.00841601
0.00838116
0.00837161
0.00838341
0.00840942
0.00843013
0.00843772
0.00843899
0.00843857
0.00843683
0.00843358
0.00769964
0.00814558
0.00840801
0.00843653
0.0084237
0.00838976
0.00836979
0.00837624
0.00839924
0.00842337
0.00843641
0.00843922
0.00843992
0.00843898
0.00843678
0.00843342
0.00767471
0.00816453
0.00841187
0.0084386
0.00842939
0.00839961
0.0083714
0.00837143
0.00838896
0.00841524
0.00843256
0.0084395
0.00844031
0.0084405
0.00843929
0.00843681
0.00843322
0.00765053
0.008189
0.00841888
0.0084397
0.0084333
0.0084098
0.00837566
0.00836574
0.00838001
0.00840587
0.00842759
0.00843831
0.0084407
0.00844101
0.00844101
0.00843926
0.00843679
0.00843303
0.00762731
0.00821441
0.00842955
0.00844021
0.00843612
0.00841807
0.00838244
0.00836363
0.00837348
0.00839572
0.00842039
0.00843552
0.00844101
0.00844139
0.00844167
0.00844115
0.00843914
0.00843668
0.0084328
0.00760494
0.00823167
0.00844042
0.00844087
0.00843817
0.00842421
0.00839179
0.00836701
0.0083152
0.00838627
0.0084123
0.00843099
0.00844035
0.0084426
0.00844204
0.00844205
0.00844127
0.00843911
0.00843662
0.00843258
0.00758378
0.00824925
0.00844057
0.0084412
0.00843972
0.00842932
0.00840196
0.00836985
0.0083025
0.00837787
0.00840293
0.00842516
0.00843769
0.00844307
0.00844324
0.00844267
0.00844224
0.00844118
0.00843903
0.0084365
0.00843238
0.00756393
0.00826777
0.0084409
0.00844151
0.00844076
0.00843274
0.00841077
0.00837558
0.00835313
0.00824742
0.00839357
0.00841778
0.0084339
0.00844182
0.0084445
0.00844374
0.00844303
0.00844226
0.00844112
0.00843892
0.00843644
0.00843211
0.0075458
0.00828709
0.00844088
0.00844176
0.0084414
0.00843516
0.00841847
0.00838427
0.00836245
0.00821066
0.00838436
0.00840975
0.008429
0.00843926
0.00844436
0.00844523
0.00844426
0.00844313
0.00844231
0.00844113
0.00843894
0.00843649
0.00843195
0.00752983
0.00830622
0.00844063
0.00844208
0.00844182
0.00843704
0.00842395
0.00839377
0.00836478
0.00832966
0.00819505
0.0084007
0.00842297
0.00843616
0.00844261
0.00844577
0.00844579
0.0084446
0.00844308
0.00844208
0.00844097
0.00843889
0.00843647
0.00843176
0.00751671
0.00832163
0.00844052
0.008442
0.008442
0.0084382
0.00842738
0.00840278
0.00837022
0.00835986
0.00807037
0.00839148
0.00841568
0.00843234
0.00844055
0.00844479
0.0084465
0.00844623
0.00844471
0.00844302
0.00844196
0.00844088
0.00843889
0.00843651
0.00843181
0.00739756
0.00833095
0.00844029
0.00844191
0.00844213
0.00843902
0.00843025
0.00841047
0.00837791
0.00835974
0.00819274
0.00819441
0.00840728
0.00842728
0.00843813
0.00844334
0.00844619
0.00844705
0.0084465
0.00844466
0.00844283
0.00844169
0.00844081
0.00843891
0.00843669
0.00829825
0.00734923
0.00833961
0.00844005
0.00844181
0.00844202
0.00843952
0.0084325
0.00841645
0.00838641
0.00836145
0.00831138
0.00800812
0.00834487
0.00842071
0.0084351
0.00844177
0.00844511
0.00844692
0.0084473
0.00844663
0.00844446
0.00844252
0.00844138
0.0084408
0.00843907
0.00843699
0.00821487
0.00748896
0.00834729
0.00843978
0.00844172
0.00844182
0.00843974
0.00843426
0.00842133
0.00839522
0.00836487
0.00835829
0.00810868
0.00822181
0.00835936
0.00843066
0.00840349
0.00844411
0.00844634
0.00844728
0.00844739
0.00844651
0.0084443
0.00844209
0.00844128
0.00844085
0.00843936
0.00840449
0.00841653
0.0075076
0.00835409
0.00843951
0.00844148
0.00844163
0.00843995
0.00843557
0.00842498
0.00840328
0.00837141
0.00835674
0.00828551
0.00803071
0.00827042
0.00842482
0.00835518
0.00840177
0.00844555
0.00844701
0.00844736
0.00844733
0.00844625
0.00844392
0.00844168
0.00844103
0.00844116
0.00843953
0.00843714
0.00843202
0.00752041
0.00835978
0.0084391
0.00844115
0.00844131
0.00843999
0.00843629
0.00842777
0.00840991
0.00837969
0.0083577
0.00835794
0.0080893
0.00803377
0.00837368
0.00843316
0.00832843
0.00843995
0.00844641
0.00844712
0.0084472
0.00844712
0.00844598
0.00844334
0.00844115
0.0084409
0.00844114
0.00843955
0.00843711
0.00843169
0.00754171
0.00836408
0.00843866
0.00844078
0.00844102
0.0084399
0.00843675
0.00842968
0.00841503
0.00838821
0.00836056
0.00835562
0.00825202
0.0079905
0.00832043
0.00842842
0.0084102
0.00841191
0.00844559
0.00844674
0.00844689
0.00844672
0.00844667
0.00844538
0.00844254
0.00844068
0.00844078
0.00844094
0.0084393
0.00843674
0.00843104
0.00757435
0.00836695
0.00843828
0.00844033
0.00844071
0.0084398
0.00843702
0.00843116
0.00841895
0.00839606
0.00836593
0.00835413
0.00834223
0.00816629
0.00810136
0.0084225
0.00843549
0.00841305
0.00844424
0.00844596
0.00844642
0.00844625
0.00844601
0.00844589
0.0084445
0.00844189
0.00844007
0.00844027
0.00844039
0.0084387
0.00843696
0.00843439
0.00763098
0.0083684
0.00843794
0.00843988
0.00844033
0.00843963
0.00843719
0.00843199
0.00842189
0.00840266
0.0083732
0.00835459
0.00835542
0.00828715
0.00803022
0.00820518
0.00843094
0.00843945
0.00844249
0.00844448
0.00844555
0.0084457
0.00844528
0.00844503
0.00844499
0.00844365
0.0084409
0.00843943
0.00844052
0.00844201
0.00844163
0.00844585
0.0084525
0.00769511
0.00835922
0.00843759
0.00843951
0.00843997
0.0084394
0.00843717
0.00843253
0.00842388
0.00840771
0.00838069
0.00835647
0.00835321
0.00828641
0.00819587
0.0081081
0.00842359
0.00843594
0.00844129
0.00844279
0.00844392
0.00844454
0.00844438
0.00844382
0.00844355
0.00844437
0.00844442
0.00844281
0.00844324
0.0084477
0.00845183
0.00845632
0.00846331
0.00845353
0.00699015
0.00831287
0.00835625
0.00841511
0.00843911
0.00843965
0.00843915
0.00843706
0.00843293
0.00842544
0.00841159
0.00838756
0.00835973
0.00835124
0.00828833
0.0082207
0.00826512
0.00841472
0.00842975
0.00843831
0.00844159
0.0084422
0.00844268
0.00844279
0.00844247
0.00844294
0.00844469
0.00844933
0.00845205
0.00845302
0.00845628
0.00846203
0.0084674
0.0084469
0.00851739
0.00831945
0.00831819
0.00706129
0.00832029
0.00836243
0.00841067
0.00841077
0.00843931
0.00843885
0.00843698
0.00843326
0.00842634
0.00841457
0.00839367
0.00836505
0.00835007
0.00835225
0.00822847
0.00829987
0.00840478
0.00842209
0.00843269
0.0084384
0.00844072
0.00844106
0.00844045
0.00844141
0.00844313
0.00844911
0.00845507
0.00846087
0.00846472
0.00846676
0.00847026
0.00847542
0.00845047
0.00843432
0.00828606
0.00831424
0.00846699
0.00831496
0.00833446
0.00833715
0.00714358
0.00833564
0.00835934
0.00843244
0.00840796
0.00843897
0.0084386
0.0084369
0.00843342
0.00842725
0.00841663
0.0083987
0.00837106
0.00835065
0.00834895
0.00829897
0.00829264
0.00838723
0.0084127
0.00842559
0.00843245
0.00843687
0.00843879
0.00843992
0.00844063
0.00844706
0.00845374
0.00846102
0.00846725
0.00847258
0.00847616
0.00847779
0.00848059
0.00845186
0.00829478
0.00829922
0.008323
0.00834036
0.00833911
0.00834347
0.00834938
0.00835031
0.00723301
0.00834856
0.00835367
0.00843627
0.00843554
0.0084387
0.00843836
0.00843679
0.00843348
0.00842798
0.00841848
0.00840255
0.00837669
0.0083521
0.00834622
0.00830417
0.00829183
0.00836993
0.00840143
0.00841632
0.00842479
0.00843011
0.00843409
0.00843823
0.00844547
0.00845142
0.0084586
0.00846515
0.0084715
0.00847708
0.00848188
0.00848493
0.00848574
0.00845044
0.00829997
0.00829736
0.00833378
0.00834193
0.00834141
0.00835176
0.00834705
0.00835388
0.00836191
0.0083612
0.00733045
0.0083591
0.00834669
0.00843596
0.00843778
0.00843833
0.00843813
0.00843659
0.00843357
0.00842841
0.00841972
0.00840584
0.00838205
0.00835409
0.00834342
0.00831089
0.00829465
0.00835677
0.00838876
0.00840452
0.00841455
0.00842106
0.00842726
0.00843643
0.00844932
0.0084579
0.00846286
0.00846845
0.00847382
0.00847952
0.00848485
0.00848891
0.00849075
0.00845058
0.00827602
0.00826754
0.0083443
0.00834329
0.00834751
0.00835181
0.00834923
0.00836148
0.00835595
0.00836255
0.00837177
0.00837047
0.00743715
0.00836808
0.00833873
0.00843579
0.00843749
0.00843811
0.0084379
0.00843644
0.00843347
0.00842882
0.00842088
0.00840804
0.00838702
0.00835759
0.00834109
0.0083184
0.00830017
0.00834575
0.00837518
0.00839045
0.00840149
0.00841008
0.00841892
0.00843603
0.00845071
0.0084624
0.0084686
0.00847164
0.00847576
0.00848038
0.00848534
0.00849042
0.0084927
0.00844806
0.00826968
0.00824513
0.00833748
0.00831181
0.00834767
0.00833065
0.00835404
0.00835162
0.00835605
0.00836965
0.00836257
0.00836893
0.00837952
0.00837817
0.00755271
0.00837595
0.00832999
0.00843572
0.00843743
0.00843795
0.00843772
0.00843629
0.00843343
0.00842907
0.00842181
0.00841013
0.00839106
0.00836222
0.00833989
0.00833686
0.00830968
0.00833681
0.00836172
0.00837505
0.00838585
0.0083949
0.00840933
0.00843192
0.00845067
0.00846376
0.00847281
0.00847708
0.00847942
0.00848147
0.00848507
0.00848943
0.00849155
0.00843905
0.00823029
0.00817426
0.00827416
0.0082058
0.00828619
0.00822099
0.00832136
0.00825873
0.00834948
0.00830914
0.0083512
0.00837629
0.00835774
0.00836627
0.00838553
0.00838415
0.00767476
0.00838225
0.0083208
0.00843579
0.00843759
0.00843785
0.00843768
0.00843619
0.0084334
0.00842922
0.00842256
0.00841187
0.00839477
0.0083668
0.00833971
0.00833189
0.00833367
0.00833186
0.00834912
0.00835953
0.00836888
0.00837562
0.00838791
0.00840978
0.00843597
0.0084589
0.00847287
0.00848102
0.00848492
0.00848607
0.00848577
0.0084879
0.00848752
0.00843025
0.00811547
0.00807701
0.00814769
0.00808966
0.00815129
0.00808245
0.00817306
0.00810516
0.00823496
0.00814979
0.00829693
0.00820998
0.00829884
0.00837701
0.00830797
0.00832327
0.00839032
0.00838695
0.00780244
0.00838756
0.00831166
0.00843594
0.00843764
0.00843771
0.00843759
0.00843618
0.00843338
0.00842934
0.00842329
0.00841329
0.00839788
0.00837166
0.00834039
0.00832709
0.00832901
0.00833094
0.00833742
0.00834453
0.00835109
0.00835628
0.00836343
0.00837702
0.00839386
0.00842789
0.00845649
0.00847753
0.0084872
0.00849113
0.00849066
0.00848799
0.00848668
0.0084252
0.00805527
0.00802208
0.00802986
0.00796926
0.00801003
0.00792783
0.00801863
0.00791889
0.00805899
0.00795489
0.00813044
0.00802454
0.00820049
0.00811506
0.00820579
0.00834749
0.00821867
0.00824304
0.008394
0.0083724
0.00792881
0.00839122
0.00830071
0.00843627
0.00843783
0.00843778
0.00843747
0.00843619
0.00843342
0.00842952
0.0084238
0.00841467
0.00840059
0.00837669
0.00834263
0.00832289
0.00832214
0.0083252
0.00832691
0.00832983
0.00833252
0.00833351
0.00833739
0.00834523
0.00835997
0.00838539
0.00840742
0.00844976
0.00847704
0.008491
0.00849512
0.00849302
0.0084865
0.00843896
0.00800536
0.00799056
0.00791671
0.00785716
0.0078401
0.00774851
0.00774681
0.00755094
0.00771096
0.00748085
0.00779295
0.00751981
0.00799904
0.0076774
0.00810571
0.00791791
0.00811227
0.00828887
0.00813187
0.00816788
0.0083905
0.00832998
0.00804231
0.0083918
0.0082875
0.0084365
0.00843806
0.00843789
0.00843738
0.00843617
0.00843356
0.00842965
0.00842423
0.00841573
0.00840287
0.00838135
0.00834706
0.00831974
0.00831501
0.00831775
0.00831766
0.0083164
0.00830609
0.00830512
0.00825082
0.00818973
0.00820401
0.00828321
0.0082713
0.00839892
0.00843473
0.00847454
0.00849291
0.00849725
0.00848986
0.0084557
0.00792156
0.00766864
0.00781209
0.00777667
0.00760255
0.00749453
0.00739132
0.00727055
0.0072758
0.0073012
0.00732818
0.0072395
0.00744091
0.00728019
0.00763118
0.00744348
0.00787821
0.00768768
0.00789216
0.00820349
0.00792238
0.00797527
0.00836313
0.00825211
0.0081246
0.0083811
0.00827499
0.00843647
0.00843823
0.00843803
0.00843731
0.0084361
0.00843364
0.00842983
0.00842454
0.00841667
0.00840477
0.00838569
0.00835291
0.00831858
0.00830794
0.00831023
0.00830961
0.00830471
0.00829409
0.00826741
0.00824182
0.00814698
0.00809462
0.00808565
0.00813564
0.00813325
0.00811075
0.00842206
0.00847384
0.00849363
0.00849328
0.00845834
0.00813169
0.00767381
0.00738492
0.00742068
0.00737774
0.00715547
0.00711845
0.00714731
0.0070395
0.00709748
0.0072
0.00718714
0.00720265
0.00727982
0.00724884
0.00739331
0.00734111
0.00768052
0.00750096
0.00770099
0.00811227
0.00774579
0.00783005
0.00831191
0.00818056
0.00812588
0.00834641
0.00827099
0.0084314
0.00843784
0.00843775
0.00843706
0.0084359
0.00843351
0.00842996
0.00842481
0.00841744
0.00840653
0.00838962
0.00835902
0.00831972
0.00830149
0.00830233
0.00830241
0.00829536
0.00827881
0.00824419
0.00818968
0.00813336
0.00808982
0.00811123
0.00811335
0.0079784
0.00778492
0.00804009
0.00842116
0.00847321
0.0084895
0.00846498
0.00835367
0.00734466
0.00738793
0.00734618
0.00731857
0.00711321
0.00711506
0.00698742
0.0069802
0.00710778
0.00704121
0.00712143
0.00706488
0.0071486
0.00709835
0.00677393
0.00650221
0.00732328
0.00712573
0.00752258
0.00712977
0.00754835
0.00798228
0.00761062
0.00770015
0.00825053
0.00807218
0.00803011
0.00832841
0.00828738
0.00841821
0.00843174
0.00843624
0.0084363
0.00843564
0.0084332
0.00842987
0.00842483
0.00841803
0.00840801
0.00839294
0.00836578
0.00832328
0.00829637
0.00829411
0.00829582
0.00828868
0.00826819
0.00822133
0.00814801
0.00807676
0.00805714
0.00807022
0.00809759
0.00809191
0.00789713
0.00768293
0.0079727
0.00842346
0.0084698
0.00846169
0.00837146
0.0074364
0.00745537
0.00694951
0.00697977
0.00707079
0.00700468
0.00698863
0.00699492
0.00698488
0.00693389
0.0070195
0.00698917
0.00707753
0.00701746
0.00686985
0.0069702
0.00707757
0.00709818
0.0070234
0.00716958
0.00729522
0.00718458
0.00735005
0.0078007
0.00741391
0.00749798
0.00817263
0.00792083
0.00828252
0.00825592
0.00830892
0.0084157
0.00841137
0.00843108
0.00843369
0.00843464
0.00843267
0.00842959
0.00842455
0.00841833
0.00840922
0.00839573
0.00837239
0.0083307
0.00829368
0.00828596
0.00828947
0.00828462
0.008263
0.00820866
0.00812034
0.00804587
0.00804375
0.00806964
0.00810344
0.00813063
0.0081111
0.00786329
0.00761426
0.00797722
0.00842444
0.00844725
0.00834907
0.00727145
0.00707761
0.00705851
0.00708397
0.00681922
0.00681999
0.00694514
0.00686735
0.00689498
0.00687009
0.00695582
0.00691675
0.00699012
0.00703983
0.00656315
0.00660866
0.00673043
0.00683492
0.00691703
0.00689735
0.00720155
0.00713619
0.0072142
0.00721052
0.00724423
0.00759812
0.00729204
0.00734821
0.00804417
0.00773548
0.00826822
0.00817593
0.00834773
0.0084205
0.00840333
0.00840706
0.00842661
0.00843164
0.0084316
0.00842904
0.00842422
0.00841831
0.00841028
0.00839803
0.0083782
0.00834018
0.00829517
0.00827906
0.00828291
0.008282
0.00826234
0.00820558
0.00810746
0.00803596
0.00805017
0.0081019
0.0081535
0.00818477
0.00819349
0.00813972
0.00784582
0.00764875
0.00803606
0.00841696
0.00834894
0.00795513
0.00708244
0.00680019
0.00687684
0.006891
0.00675669
0.00675166
0.00682907
0.00678338
0.006883
0.00685404
0.00704392
0.00702289
0.0070443
0.00727593
0.00717577
0.00729578
0.00710682
0.00754717
0.00716363
0.00751647
0.00728741
0.00743504
0.00721921
0.00733143
0.00723804
0.00743507
0.00725654
0.00728043
0.00791218
0.00756588
0.00808417
0.00804942
0.00843243
0.00841062
0.00839322
0.00840243
0.00842403
0.00842883
0.00842807
0.00842383
0.00841838
0.00841124
0.00840026
0.0083833
0.00834961
0.00830021
0.00827429
0.00827591
0.00827957
0.00826455
0.00820919
0.00810613
0.00803503
0.00806677
0.00814965
0.00822895
0.00826739
0.00827375
0.00825473
0.00814476
0.00787144
0.00769511
0.00816472
0.00834874
0.00827655
0.0071213
0.0071463
0.00690134
0.00690696
0.00673976
0.00672497
0.00668986
0.00665305
0.00680018
0.00673771
0.00699771
0.00695626
0.00730983
0.00730162
0.00687297
0.00758906
0.00736082
0.00715598
0.00770222
0.00739939
0.00765802
0.0078433
0.0075356
0.00776301
0.00733476
0.00754979
0.00732592
0.00733326
0.00729963
0.00715622
0.00773744
0.00742941
0.00771616
0.00775363
0.00841962
0.00840279
0.00838815
0.00840049
0.00842203
0.00842582
0.00842316
0.00841843
0.00841219
0.00840231
0.00838791
0.00835954
0.00830872
0.00827173
0.00826792
0.00827565
0.00826815
0.00821994
0.00811286
0.00803485
0.00807613
0.00819644
0.00830969
0.00834733
0.00835777
0.00834112
0.0082935
0.00814449
0.00784321
0.00791656
0.00826261
0.00826812
0.00698796
0.00667933
0.00662181
0.00660402
0.00670913
0.00665618
0.00661046
0.00657933
0.00670501
0.00662577
0.00687659
0.00678498
0.0072713
0.00719199
0.00759598
0.0075663
0.00722929
0.00739001
0.00761622
0.0073626
0.00770641
0.00759574
0.00795826
0.00809074
0.00781283
0.00803972
0.00753744
0.00757683
0.00732868
0.00698725
0.00709509
0.00504729
0.00504845
0.00751401
0.00705357
0.00718892
0.00746523
0.00840993
0.00839759
0.00838521
0.00840409
0.00842033
0.00842139
0.00841792
0.00841268
0.00840398
0.00839152
0.00836831
0.00832118
0.00827215
0.00825924
0.0082692
0.00827003
0.00823512
0.00813113
0.0080332
0.00806334
0.00821249
0.00837182
0.00841845
0.0084184
0.00841424
0.00837822
0.00831171
0.00812628
0.00792775
0.00809581
0.00758072
0.00691559
0.00659375
0.00581519
0.00642317
0.00633292
0.00654239
0.00648258
0.00654206
0.00647456
0.00680225
0.0066628
0.00706856
0.00693303
0.00749217
0.00733232
0.00732556
0.00765758
0.00774379
0.00768708
0.00785751
0.00781847
0.00757753
0.00771347
0.00816677
0.00770256
0.00776501
0.0078057
0.00742925
0.00586401
0.00585212
0.00544575
0.00556562
0.00492086
0.0050417
0.00497103
0.00522186
0.00546038
0.00547423
0.00499127
0.00720482
0.00486092
0.00497517
0.00512018
0.00733625
0.00727561
0.00840086
0.00839284
0.00838424
0.00840891
0.00841711
0.00841629
0.00841238
0.00840493
0.00839373
0.008375
0.00833364
0.00827648
0.00825228
0.00826019
0.00826937
0.00824882
0.00816002
0.00803712
0.00802059
0.00819031
0.00833907
0.00846012
0.00846855
0.00846011
0.00844735
0.00839125
0.0083145
0.00810888
0.00807018
0.00736863
0.00663181
0.00669477
0.0063818
0.0063049
0.00625077
0.00638691
0.00632728
0.00643069
0.00641044
0.0065302
0.00642553
0.00690956
0.00671999
0.00719215
0.00708166
0.00756571
0.00708891
0.00780233
0.00766821
0.00794561
0.00783134
0.00792999
0.00795897
0.00762068
0.00770249
0.00771329
0.00592589
0.00571822
0.0057756
0.00579541
0.00569058
0.00572376
0.0059711
0.00576807
0.00593628
0.00599681
0.00565809
0.00490126
0.00483445
0.00521829
0.00548162
0.00559406
0.00512444
0.00490072
0.00539604
0.00511807
0.00479079
0.00477793
0.0072903
0.00515595
0.00558085
0.00602985
0.00838887
0.0083838
0.00837769
0.0084087
0.00841319
0.00841132
0.00840552
0.00839497
0.00838
0.00834576
0.00828572
0.00824901
0.0082508
0.00826607
0.00825986
0.00819158
0.00805651
0.00798634
0.00813721
0.00827646
0.00839834
0.00848754
0.0084925
0.00848191
0.00845269
0.00838053
0.00830127
0.00817482
0.00792834
0.0071321
0.00684449
0.00617788
0.00594032
0.00632383
0.00623053
0.00626201
0.00624951
0.0063462
0.0062916
0.00655054
0.00641295
0.00696855
0.00676629
0.00676873
0.00694852
0.00753042
0.00742153
0.00769867
0.00758528
0.00783528
0.00772686
0.00769927
0.00763118
0.005689
0.0056575
0.00563443
0.00558976
0.00585357
0.00580375
0.00599417
0.00580958
0.00604166
0.00605955
0.00600287
0.00604046
0.00603455
0.00586801
0.00603527
0.00607531
0.00583781
0.0050035
0.00490854
0.0053898
0.00576034
0.0056531
0.00526494
0.00480001
0.00487162
0.00483387
0.00479538
0.0059312
0.00714786
0.00686355
0.00503402
0.00537508
0.00837145
0.00835848
0.00837195
0.00840792
0.00840956
0.0084059
0.00839626
0.00838343
0.00835635
0.00830088
0.00825047
0.00824208
0.00826071
0.00826726
0.00822249
0.00809321
0.00797959
0.00808452
0.0083288
0.00832284
0.00845281
0.00850043
0.00849606
0.00848016
0.00843246
0.00835107
0.00827764
0.00813781
0.0078722
0.00700769
0.00625972
0.00595833
0.00620148
0.00622661
0.00624693
0.00622937
0.00615889
0.00611036
0.00630347
0.00621973
0.00657814
0.00642097
0.0070404
0.0068868
0.00716918
0.00703741
0.00751909
0.00753816
0.0076353
0.00763823
0.00757496
0.00758496
0.00554483
0.00548553
0.00550125
0.00558939
0.00576012
0.00570944
0.0056564
0.005588
0.00596296
0.00590967
0.00585008
0.00580844
0.00609194
0.00609156
0.00601968
0.00606251
0.00612397
0.00601329
0.0061324
0.00613958
0.00599541
0.00512709
0.00499804
0.00555328
0.00591856
0.00582399
0.00541288
0.00479684
0.00484638
0.00489116
0.00482104
0.00617446
0.00647238
0.0070498
0.00500768
0.00555063
0.008337
0.00831317
0.00839772
0.00840676
0.00840574
0.00839788
0.00838601
0.00836486
0.00831682
0.00825607
0.00823534
0.00825247
0.00826986
0.0082484
0.00814201
0.00796729
0.00804686
0.00829755
0.00826333
0.00841642
0.00845898
0.00849898
0.00848579
0.00845752
0.00839972
0.00831843
0.00824251
0.00811588
0.00780419
0.00749094
0.00610585
0.00587594
0.00609298
0.00611535
0.00607925
0.00607463
0.00610149
0.00602916
0.00629368
0.00618922
0.00667254
0.00649333
0.00738521
0.00718473
0.00754068
0.00750673
0.00771466
0.00777647
0.00775518
0.00783387
0.00559906
0.00575609
0.00579397
0.00643862
0.00551263
0.00549199
0.00557259
0.0056685
0.00575523
0.00569675
0.00564086
0.00557382
0.00597687
0.00585456
0.00592392
0.00581137
0.00613548
0.00612509
0.00604498
0.0060917
0.00619802
0.00613581
0.0062147
0.00619891
0.00612896
0.00525944
0.00509902
0.00571358
0.00606073
0.00599053
0.0055572
0.00479806
0.00484171
0.00495866
0.00485373
0.00629884
0.0069071
0.00724162
0.0051097
0.00573448
0.00826733
0.00830362
0.00840177
0.00840497
0.0083995
0.00838813
0.00837163
0.00833192
0.00826632
0.00823283
0.00824219
0.00826772
0.00826653
0.00819099
0.0080467
0.00795522
0.00824651
0.00828108
0.00827574
0.00841798
0.00821879
0.00796973
0.00846215
0.00842563
0.00836238
0.0082788
0.00819537
0.00807234
0.00786231
0.00609374
0.00608362
0.00593857
0.00594867
0.00595329
0.00594167
0.00598538
0.00596528
0.00611236
0.00602633
0.00634978
0.00622344
0.00697965
0.00679892
0.00764754
0.00746681
0.00773959
0.00772629
0.0079787
0.00806862
0.00799195
0.0079008
0.00571955
0.00568214
0.00543805
0.00616078
0.00556008
0.00567245
0.00581927
0.00590904
0.00575625
0.00569529
0.00564229
0.00562103
0.00599995
0.00586557
0.00594426
0.00582299
0.00618125
0.00616459
0.00607994
0.00612628
0.00626162
0.0062407
0.00628706
0.00626112
0.00623656
0.00538962
0.00520857
0.00586563
0.0061935
0.00613945
0.00569785
0.00481902
0.00493498
0.00503536
0.00490111
0.00643671
0.00617771
0.00756218
0.00532333
0.00589658
0.00819683
0.00828091
0.00840307
0.00840108
0.00839056
0.0083766
0.00834534
0.00828332
0.00823533
0.00823413
0.00826215
0.00827686
0.00823268
0.00810394
0.00792469
0.00813666
0.00830764
0.0082903
0.00817347
0.00809875
0.00747812
0.00792241
0.00843115
0.00838829
0.00832296
0.00816028
0.00818066
0.00796126
0.00764202
0.005876
0.00584888
0.00584193
0.00585157
0.00587816
0.00584961
0.00597221
0.00592241
0.00631944
0.00619565
0.00663203
0.00646948
0.0072935
0.00713011
0.00750895
0.00768255
0.00798028
0.00756588
0.0079524
0.00812492
0.00669565
0.00691486
0.00711908
0.00706321
0.00599248
0.00584139
0.0059438
0.00640983
0.00574079
0.00592438
0.00605735
0.00596025
0.00576816
0.00570952
0.00567753
0.00574259
0.00603384
0.00588477
0.00597273
0.00584455
0.00623641
0.0062112
0.00612401
0.00617045
0.00631954
0.00633154
0.00635923
0.00632707
0.0063355
0.00551543
0.00532359
0.00601293
0.0063148
0.00627252
0.00583708
0.00493417
0.00515116
0.00511488
0.00501501
0.00668631
0.00519121
0.00709669
0.00550162
0.00609443
0.00813569
0.00833273
0.00840176
0.00839381
0.00838092
0.00835646
0.00830242
0.00824208
0.00822812
0.00825383
0.0082806
0.00826426
0.00816169
0.00801189
0.00800711
0.00824159
0.00831733
0.00813492
0.00767456
0.00789008
0.00779078
0.00823849
0.00839575
0.00835009
0.00829451
0.00815961
0.00813598
0.00802486
0.00619987
0.00621317
0.00587273
0.00590835
0.00584057
0.00584946
0.00589582
0.00585121
0.00609209
0.00597968
0.00665652
0.00652172
0.00696458
0.00680408
0.0075347
0.00739833
0.00693532
0.0070391
0.00817411
0.00780354
0.00713252
0.00775003
0.0081972
0.00699406
0.00717943
0.00733153
0.00727625
0.00604509
0.00637306
0.00654116
0.0067868
0.00595118
0.00612768
0.00600596
0.00608705
0.0057918
0.0057399
0.00573395
0.00587234
0.00607696
0.00591365
0.00601343
0.00587452
0.00629856
0.00626631
0.00617895
0.00622866
0.00638798
0.0064169
0.00644206
0.00640297
0.00642864
0.00564005
0.00543207
0.00615118
0.00643185
0.00638959
0.00597395
0.00512146
0.00531578
0.00520861
0.00516238
0.0067901
0.00694783
0.00692197
0.00564478
0.00614968
0.00815472
0.00840504
0.00839671
0.00838438
0.00836496
0.00831972
0.00825215
0.00822458
0.00824221
0.00827904
0.00828556
0.00821769
0.00809146
0.00796551
0.0081852
0.00824088
0.00832272
0.0081363
0.00792872
0.00826878
0.00820334
0.00840511
0.00836267
0.00831958
0.00828199
0.00822549
0.00812243
0.00787286
0.00602295
0.00607258
0.00594437
0.00597621
0.00592474
0.00592275
0.00608569
0.00597609
0.00638083
0.00622529
0.00700397
0.00686493
0.00726205
0.00713234
0.00761995
0.00749051
0.00771947
0.00673723
0.00790951
0.00816161
0.00735336
0.00806663
0.00699681
0.00692907
0.00717781
0.00725362
0.0073002
0.00728687
0.00646236
0.00665603
0.00684686
0.00703671
0.00609453
0.00604575
0.00613302
0.0064792
0.00582191
0.00578007
0.0057889
0.00591799
0.00612865
0.0059553
0.00606714
0.0059164
0.00636838
0.00633315
0.00624644
0.00629925
0.0064705
0.00650434
0.0065418
0.00648824
0.00652333
0.00576094
0.00553001
0.00628181
0.00654456
0.00650376
0.00610624
0.00524882
0.00540633
0.0053116
0.00526521
0.0066418
0.00508258
0.00664735
0.00568
0.00591375
0.00819761
0.0084029
0.00838718
0.00837058
0.00833417
0.0082666
0.00822458
0.00823086
0.0082712
0.00829627
0.00826111
0.00814568
0.00804675
0.00806122
0.00816902
0.00823916
0.00832607
0.00835828
0.00836475
0.00835872
0.00836545
0.00837615
0.00833832
0.00829822
0.00826082
0.00820547
0.0080903
0.00644386
0.00652823
0.0061317
0.0061745
0.00607601
0.00609634
0.00613755
0.00608194
0.00639641
0.00625064
0.00670988
0.00654956
0.00728049
0.00715518
0.00745249
0.00738683
0.00685021
0.00742136
0.00774387
0.00756296
0.0069202
0.00757403
0.0082406
0.00730644
0.0072982
0.00713834
0.00716971
0.00714381
0.00712165
0.00705337
0.00708671
0.00668812
0.00687749
0.00701049
0.00710274
0.0060047
0.00605219
0.00634421
0.0066586
0.00586548
0.0058303
0.00583464
0.00588865
0.00611738
0.00590007
0.00587285
0.00581757
0.00645872
0.00642011
0.00627983
0.00638554
0.00656397
0.00660016
0.00665814
0.00657898
0.00663671
0.00587301
0.00562892
0.00640307
0.00665505
0.00661827
0.00623126
0.00530976
0.00541187
0.00539987
0.00532757
0.00641163
0.00556567
0.0062967
0.00547099
0.00567796
0.00816779
0.00839485
0.00837473
0.00834486
0.00828325
0.00822846
0.00822271
0.00825661
0.00829686
0.00829105
0.00820509
0.0080902
0.00807441
0.00813318
0.00814661
0.00824159
0.00831193
0.00835472
0.00835376
0.00833918
0.00833421
0.008348
0.00833011
0.00830118
0.00827273
0.00815545
0.0078368
0.00638893
0.00650245
0.00628947
0.00633509
0.00626337
0.00625793
0.00646203
0.00634069
0.00673871
0.00659727
0.00701891
0.00687981
0.0073117
0.00727733
0.00735439
0.00735235
0.00666395
0.00642963
0.00674696
0.00723912
0.00787547
0.00718402
0.00794119
0.00694457
0.00697137
0.00704839
0.00709249
0.00704383
0.00716807
0.00694314
0.00686783
0.00675744
0.00678457
0.00683424
0.00695948
0.00699336
0.00697505
0.00579013
0.00600833
0.00654668
0.00673992
0.00579054
0.00585113
0.00590693
0.00538363
0.00596188
0.00568496
0.0057025
0.00556729
0.00656289
0.0065244
0.00619779
0.00649014
0.0066763
0.00671788
0.0067957
0.00668976
0.0067706
0.00598608
0.00572518
0.00652362
0.00678132
0.00673899
0.00634978
0.00530616
0.00527961
0.00547513
0.00535712
0.00613572
0.00553285
0.00652721
0.0052074
0.00555214
0.00813437
0.00835165
0.00835391
0.00829977
0.00823523
0.00821722
0.00824127
0.00829
0.00830802
0.00825539
0.00813649
0.00809138
0.00811253
0.00809793
0.00813169
0.00823284
0.00827738
0.00835538
0.00834861
0.0083254
0.00831075
0.00832278
0.00833973
0.00834862
0.00833951
0.00790162
0.0069872
0.00716459
0.0066196
0.00669921
0.00650329
0.00655483
0.00651827
0.00647847
0.00678162
0.00664049
0.00703586
0.00691285
0.00724888
0.00714865
0.00718282
0.00714341
0.00738917
0.00722268
0.00655673
0.00622055
0.00711274
0.00758416
0.00657339
0.00647221
0.00725797
0.0072606
0.0072798
0.007324
0.00681488
0.00692611
0.00682583
0.00632943
0.00646618
0.00634193
0.00621211
0.00620827
0.00685603
0.00688457
0.00677223
0.00656601
0.00548297
0.00632252
0.00657458
0.00672699
0.00551281
0.00556403
0.00572705
0.00491002
0.00586459
0.00550199
0.00558055
0.00533685
0.00668862
0.00665746
0.00617805
0.00654047
0.00682226
0.00686395
0.00695924
0.00683376
0.00693005
0.00610513
0.0058149
0.00664144
0.00692024
0.0068619
0.00647536
0.00525618
0.0050713
0.00554033
0.00539448
0.00591753
0.00637927
0.00656128
0.00514887
0.00494525
0.00806644
0.00830345
0.00831705
0.008246
0.00821427
0.00822795
0.00827813
0.00831401
0.0082933
0.00819687
0.00809792
0.00807999
0.00808613
0.00806427
0.00813143
0.00820572
0.00833957
0.00836359
0.00834928
0.00832145
0.00830291
0.00830871
0.00833708