/*--------------------------------*- C++ -*----------------------------------*\
  =========                 |
  \\      /  F ield         | OpenFOAM: The Open Source CFD Toolbox
   \\    /   O peration     | Website:  https://openfoam.org
    \\  /    A nd           | Version:  dev
     \\/     M anipulation  |
\*---------------------------------------------------------------------------*/
FoamFile
{
    version     2.0;
    format      ascii;
    class       volScalarField;
    location    "2500";
    object      rDeltaT;
}
// * * * * * * * * * * * * * * * * * * * * * * * * * * * * * * * * * * * * * //

dimensions      [0 0 -1 0 0 0 0];

internalField   nonuniform List<scalar> 
9851
(
100
100
100
100
100
100
100
100
100
100
100
100
100
100
100
100
100
100
100
100
100
100
100
100
100
100
100
100
100
100
100
100
100
100
100
100
100
100
100
100
100
100
100
100
100
100
100
100
100
100
100
100
100
100
100
100
100
100
100
100
100
100
100
100
100
100
100
100
100
100
100
100
100
100
100
100
100
100
100
100
100
100
100
100
100
100
100
100
100
100
100
100
100
100
100
100
100
100
100
100
100
100
100
100
100
100
100
100
100
100
100
100
100
100
100
100
100
100
100
100
100
100
100
100
100
100
100
100
100
100
100
100
100
100
100
100
100
100
100
100
100
100
100
100
100
100
100
100
100
100
100
100
100
100
100
100
100
100
100
100
100
100
100
100
100
100
100
100
100
100
100
100
100
100
100
100
100
100
100
100
100
100
100
100
100
100
100
100
100
100
100
100
100
100
100
100
100
100
100
100
100
100
100
100
100
100
100
100
100
100
100
100
100
100
100
100
100
100
100
100
100
100
100
100
100
100
100
100
100
100
100
100
100
100
100
100
100
100
100
100
100
100
100
100
100
100
100
100
100
100
100
100
100
100
100
100
100
100
100
100
100
100
100
100
100
100
100
100
100
100
100
100
100
100
100
100
100
100
100
100
100
100
100
100
100
100
100
100
100
100
100
100
100
100
100
100
100
100
100
100
100
100
100
100
100
100
100
100
100
100
100
100
100
100
100
100
100
100
100
100
100
100
100
100
100
100
100
100
100
100
100
100
100
100
100
100
100
100
100
100
100
100
100
100
100
100
100
100
100
100
100
100
100
100
100
100
100
100
100
100
100
100
100
100
100
100
100
100
100
100
100
100
100
100
100
100
100
100
100
100
100
100
100
100
100
100
100
100
100
100
100
100
100
100
100
100
100
100
100
100
100
100
100
100
100
100
100
100
100
100
100
100
100
100
100
100
100
100
100
100
100
100
100
100
100
100
100
100
100
100
100
100
100
100
100
100
100
100
100
100
100
100
100
100
100
100
100
100
100
100
100
100
100
100
100
100
100
100
100
100
100
100
100
100
100
100
100
100
100
100
100
100
100
100
100
100
100
100
100
100
100
100
100
100
100
100
100
100
100
100
100
100
100
100
100
100
100
100
100
100
100
100
100
100
100
100
100
100
100
100
100
100
100
100
100
100
100
100
100
100
100
100
100
100
100
100
100
100
100
100
100
100
100
100
100
100
100
100
100
100
100
100
100
100
100
100
100
100
100
100
100
100
100
100
100
100
100
100
100
100
100
100
100
100
100
100
100
100
100
100
100
100
100
100
100
100
100
100
100
100
100
100
100
100
100
100
100
100
100
100
100
100
100
100
100
100
100
100
100
100
100
100
100
100
100
100
100
100
100
100
100
100
100
100
100
100
100
100
100
100
100
100
100
100
100
100
100
100
100
100
100
100
100
100
100
100
100
100
100
100
100
100
100
100
100
100
100
100
100
100
100
100
100
100
100
100
100
100
100
100
100
100
100
100
100
100
100
100
100
100
100
100
100
100
100
100
100
100
100
100
100
100
100
100
100
100
100
100
100
100
100
100
100
100
100
100
100
100
100
100
100
100
100
100
100
100
100
100
100
100
100
100
100
100
100
100
100
100
100
100
100
100
100
100
100
100
100
100
100
100
100
100
100
100
100
100
100
100
100
100
100
100
100
100
100
100
100
100
100
100
100
100
100
100
100
100
100
100
100
100
100
100
100
100
100
100
100
100
100
100
100
100
100
100
100
100
100
100
100
100
100
100
100
100
100
100
100
100
100
100
100
100
100
100
100
100
100
100
100
100
100
100
100
100
100
100
100
100
100
100
100
100
100
100
100
100
100
100
100
100
100
100
100
100
100
100
100
100
100
100
100
100
100
100
100
100
100
100
100
100
100
100
100
100
100
100
100
100
100
100
100
100
100
100
100
100
100
100
100
100
100
100
100
100
100
100
100
100
100
100
100
100
100
100
100
100
100
100
100
100
100
100
100
100
100
100
100
100
100
100
100
100
100
100
100
100
100
100
100
100
100
100
100
100
100
100
100
100
100
100
100
100
100
100
100
100
100
100
100
100
100
100
100
100
100
100
100
100
100
100
100
100
100
100
100
100
100
100
100
100
100
100
100
100
100
100
100
100
100
100
100
100
100
100
100
100
100
100
100
100
100
100
100
100
100
100
100
100
100
100
100
100
100
100
100
100
100
100
100
100
100
100
100
100
100
100
100
100
100
100
100
100
100
100
100
100
100
100
100
100
100
100
100
100
100
100
100
100
100
100
100
100
100
100
100
100
100
100
100
100
100
100
100
100
100
100
100
100
100
100
100
100
100
100
100
100
100
100
100
100
100
100
100
100
100
100
100
100
100
100
100
100
100
100
100
100
100
100
100
100
100
100
100
100
100
100
100
100
100
100
100
100
100
100
100
100
100
100
100
100
100
100
100
100
100
100
100
100
100
100
100
100
100
100
100
100
100
100
100
100
100
100
100
100
100
100
100
100
100
100
100
100
100
100
100
100
100
100
100
100
100
100
100
100
100
100
100
100
100
100
100
100
100
100
100
100
100
100
100
100
100
100
100
100
100
100
100
100
100
100
100
100
100
100
100
100
100
100
100
100
100
100
100
100
100
100
100
100
100
100
100
100
100
100
100
100
100
100
100
100
100
100
100
100
100
100
100
100
100
100
100
100
100
100
100
100
100
100
100
100
100
100
100
100
100
100
100
100
100
100
100
100
100
100
100
100
100
100
100
100
100
100
100
100
100
100
100
100
100
100
100
100
100
100
100
100
100
100
100
100
100
100
100
100
100
100
100
100
100
100
100
100
100
100
100
100
100
100
100
100
100
100
100
100
100
100
100
100
100
100
100
100
100
100
100
100
100
100
100
100
100
100
100
100
100
100
100
100
100
100
100
100
100
100
100
100
100
100
100
100
100
100
100
100
100
100
100
100
100
100
100
100
100
100
100
100
100
100
100
100
100
100
100
100
100
100
100
100
100
100
100
100
100
100
100
100
100
100
100
100
100
100
100
100
100
100
100
100
100
100
100
100
100
100
100
100
100
100
100
100
100
100
100
100
100
100
100
100
100
100
100
100
100
100
100
100
100
100
100
100
100
100
100
100
100
100
100
100
100
100
100
100
100
100
100
100
100
100
100
100
100
100
100
100
100
100
100
100
100
100
100
100
100
100
100
100
100
100
100
100
100
100
100
100
100
100
100
100
100
100
100
100
100
100
100
100
100
100
100
100
100
100
100
100
100
100
100
100
100
100
100
100
100
100
100
100
100
100
100
100
100
100
100
100
100
100
100
100
100
100
100
100
100
100
100
100
100
100
100
100
100
100
100
100
100
100
100
100
100
100
100
100
100
100
100
100
100
100
100
100
100
100
100
100
100
100
100
100
100
100
100
100
100
100
100
100
100
100
100
100
100
100
100
100
100
100
100
100
100
100
100
100
100
100
100
100
100
100
100
100
100
100
100
100
100
100
100
100
100
100
100
100
100
100
100
100
100
100
100
100
100
100
100
100
100
100
100
100
100
100
100
100
100
100
100
100
100
100
100
100
100
100
100
100
100
100
100
100
100
100
100
100
100
100
100
100
100
100
100
100
100
100
100
100
100
100
100
100
100
100
100
100
100
100
100
100
100
100
100
100
100
100
100
100
100
100
100
100
100
100
100
100
100
100
100
100
100
100
100
100
100
100
100
100
100
100
100
100
100
100
100
100
100
100
100
100
100
100
100
100
100
100
100
100
100
100
100
100
100
100
100
100
100
100
100
100
100
100
100
100
100
100
100
100
100
100
100
100
100
100
100
100
100
100
100
100
100
100
100
100
100
100
100
100
100
100
100
100
100
100
100
100
100
100
100
100
100
100
100
100
100
100
100
100
100
100
100
100
100
100
100
100
100
100
100
100
100
100
100
100
100
100
100
100
100
100
100
100
100
100
100
100
100
100
100
100
100
100
100
100
100
100
100
100
100
100
100
100
100
100
100
100
100
100
100
100
100
100
100
100
100
100
100
100
100
100
100
100
100
100
100
100
100
100
100
100
100
100
100
100
100
100
100
100
100
100
100
100
100
100
100
100
100
100
100
100
100
100
100
100
100
100
100
100
100
100
100
100
100
100
100
100
100
100
100
100
100
100
100
100
100
100
100
100
100
100
100
100
100
100
100
100
100
100
100
100
100
100
100
100
100
100
100
100
100
100
100
100
100
100
100
100
100
100
100
100
100
100
100
100
100
100
100
100
100
100
100
100
100
100
100
100
100
100
100
100
100
100
100
100
100
100
100
100
100
100
100
100
100
100
100
100
100
100
100
100
100
100
100
100
100
100
100
100
100
100
100
100
100
100
100
100
100
100
100
100
100
100
100
100
100
100
100
100
100
100
100
100
100
100
100
100
100
100
100
100
100
100
100
100
100
100
100
100
100
100
100
100
100
100
100
100
100
100
100
100
100
100
100
100
100
100
100
100
100
100
100
100
100
100
100
100
100
100
100
100
100
100
100
100
100
100
100
100
100
100
100
100
100
100
100
100
100
100
100
100
100
100
100
100
100
100
100
100
100
100
100
100
100
100
100
100
100
100
100
100
100
100
100
100
100
100
100
100
100
100
100
100
100
100
100
100
100
100
100
100
100
100
100
100
100
100
100
100
100
100
100
100
100
100
100
100
100
100
100
100
100
100
100
100
100
100
100
100
100
100
100
100
100
100
100
100
100
100
100
100
100
100
100
100
100
100
100
100
100
100
100
100
100
100
100
100
100
100
100
100
100
100
100
100
100
100
100
100
100
100
100
100
100
100
100
100
100
100
100
100
100
100
100
100
100
100
100
100
100
100
100
100
100
100
100
100
100
100
100
100
100
100
100
100
100
100
100
100
100
100
100
100
100
100
100
100
100
100
100
100
100
100
100
100
100
100
100
100
100
100
100
100
100
100
100
100
100
100
100
100
100
100
100
100
100
100
100
100
100
100
100
100
100
100
100
100
100
100
100
100
100
100
100
100
100
100
100
100
100
100
100
100
100
100
100
100
100
100
100
100
100
100
100
100
100
100
100
100
100
100
100
100
100
100
100
100
100
100
100
100
100
100
100
100
100
100
100
100
100
100
100
100
100
100
100
100
100
100
100
100
100
100
100
100
100
100
100
100
100
100
100
100
100
100
100
100
100
100
100
100
100
100
100
100
100
100
100
100
100
100
100
100
100
100
100
100
100
100
100
100
100
100
100
100
100
100
100
100
100
100
100
100
100
100
100
100
100
100
100
100
100
100
100
100
100
100
100
100
100
100
100
100
100
100
100
100
100
100
100
100
100
100
100
100
100
100
100
100
100
100
100
100
100
100
100
100
100
100
100
100
100
100
100
100
100
100
100
100
100
100
100
100
100
100
100
100
100
100
100
100
100
100
100
100
100
100
100
100
100
100
100
100
100
100
100
100
100
100
100
100
100
100
100
100
100
100
100
100
100
100
100
100
100
100
100
100
100
100
100
100
100
100
100
100
101.832
102.873
106.797
103.937
100
100
101.282
100
100
100
100
100
100
100
100
100
100
100
100
100
100
100
100
100
100
100
100
100
100
100
100
100
100
100
100
100
100
100
100
100
100
100
100
100
100
100
100
100
100
100
100
100
100
100
100
100
100
100
100
100
100
100
100
100
100
100
100
100
100
100
100
100
100
102.761
105.465
100
100
100
100
100
100
100
100
100
100
100
100
100
100
100
100
100
100
100
100
100
103.376
101.072
100
100
107.853
110.615
113.702
112.488
100
100
105.914
100
100
100
100
100
100
100
100
100
100
100
100
100
100
100
100
100
100
100
100
100
100
100
100
100
100
100
100
100
100
100
100
100
100
100
100
100
100
100
100
100
100
100
100
100
100
100
100
100
100
100
100
100
100
100
100
100
100
100
100
100
100
100
100
100
100
100
102.717
104.984
107.261
108.562
100
100
100
100
100
100
100.446
100
104.508
105.283
106.122
106.176
100
100
101.142
103.759
100
100
100
100
112.663
110.389
105.861
101.125
113.292
118.205
120.092
121.404
100
100
109.695
101.88
100
100
100
100
100
100
100
100
100
100
100
100
100
100
100
100
100
100
100
100
100
100
100
100
100
100
100
100
100
100
100
100
100
100
100
100
100
100
100
100
100
100
100
100
100
100
100
100
100
100
100
100
100
100
100
100
100
100
100
100
100
100
100
100
109.319
109.657
100
103.313
105.452
108.109
109.241
100
100
101.043
100
104.711
101.859
106.625
103.628
113.971
114.878
115.244
115.494
103.458
106.596
109.918
112.737
104.062
105.828
105.323
106.361
122.834
121.348
117.581
112.872
117.887
125.636
125.723
130.567
100
104.402
120.802
112.882
100
100
100
103.956
100
100
100
100
100
100
100
100
100
100
100
100
100
100
100
100
100
100
100
100
100
100
100
100
100
100
100
100
100
100
100
100
100
100
100
100
100
100
100
100
100
100
100
100
100
100
100
100
100
100
100
100
100
100
100
100
100
100
100
100
109.482
109.009
110.885
109.649
103.854
106.164
109.43
110.393
101.402
100
102.221
100.879
112.73
109.058
114.107
109.68
124.413
125.5
125.099
125.838
112.054
115.774
119.31
122.293
116.129
116.962
115.327
115.593
133.384
133.429
131.533
127.967
129.083
132.607
137.578
139.369
113.194
122.148
140.364
131.306
105.996
100
106.579
114.913
100
100
100
100
100
100
100
100
100
100
100
100
100
100
100
100
100
100
100
100
100
100
100
100
100
100
100
100
100
100
100
100
100
100
100
100
100
100
100
100
100
100
100
100
100
100
100
100
100
100
100
100
100
100
100
100
100
100
100
100
100
110.395
109.607
112.662
112.446
105.267
107.549
111.129
112.337
105.106
101.518
104.073
103.848
121.529
117.799
123.913
117.886
136.196
137.505
136.458
137.642
121.646
126.045
129.768
133.022
129.751
129.301
126.142
126.469
143.959
146.447
147.255
145.994
149.171
146.01
158.693
154.257
125.219
135.583
158.964
146.841
116.836
107.621
119.905
127.575
107.234
100
100
100
105.99
105.43
100
100
100
100
100
100
100
100
100
100
100
100
100
100
100
100
100
100
100
100
100
100
100
100
100
100
100
100
100
100
100
100
100
100
100
100
100
100
100
100
100
100
100
100
100
100
100
100
100
100
100
100
100
112.214
110.056
100
112.51
111.996
114.374
115.264
107.729
109.508
113.277
114.417
110.733
105.118
106.848
107.659
132.378
128.984
135.343
127.486
148.588
150.49
149.241
150.733
132.365
137.48
141.607
144.9
145.434
143.022
139.23
140.161
159.851
163.442
165.341
166.11
169.352
169.354
180.639
178.65
142.092
158.89
191.699
176.299
134.899
121.071
138.067
151.82
122.828
100
100
104.616
124.284
123.31
102.276
100
100
100
100
100
100
100
100
100
100
100
100
100
100
100
100
100
100
100
100
100
100
100
100
100
100
100
100
100
100
100
100
100
100
100
100
100
100
100
100
100
100
100
100
100
100
100
100
100
100
100
100
114.011
111.876
107.97
110.845
114.626
114.76
116.43
118.087
110.957
112.061
115.694
116.59
117.937
110.777
110.81
113.056
145.043
141.564
148.704
139.08
162.195
164.715
163.517
165.352
145.172
150.742
155.482
158.588
165.405
163.248
160.55
160.937
184.918
188.125
189.672
190.501
200.093
194.714
209.86
207.627
170.615
189.135
214.863
204.931
157.666
144.925
168.785
178.695
148.307
101.101
100
120.574
146.962
144.568
117.203
100
100
100
100
100
100
100
100
100
100
100
100
100
100
100
100
100
100
100
100
100
100
100
100
100
100
100
100
100
100
100
100
100
100
100
100
100
100
100
100
100
100
100
100
100
100
100
100
100
100
100
109.057
104.957
102.161
100
115.34
113.3
111.816
117.377
118.191
117.407
119.725
115.05
115.295
119.102
120.123
127.914
119.25
116.296
120.765
159.523
155.676
164.167
152.636
178.121
180.739
180.138
181.876
164.069
168.787
173.274
175.422
192.1
191.949
190.862
190.92
214.917
217.095
218.609
218.679
211.621
226.518
226.605
237.218
194.55
207.466
231.205
216.188
188.966
175.085
199.856
204.924
175.379
113.725
108.82
139.658
173.513
170.216
134.189
100
100
106.577
101.402
100
106.113
100
100
100
100
100
100
100
100
100
100
100
100
100
100
100
100
100
100
100
100
100
100
100
100
100
100
100
100
100
100
100
100
100
100
100
100
100
100
100
100
100
100
100
100
100
108.645
105.976
104.181
100
100.018
116.838
114.35
112.404
121.243
121.296
119.045
121.577
120.636
119.806
124.185
125.205
140.453
129.77
123.289
130.563
176.753
172.353
181.818
169.4
198.781
200.051
199.39
200.741
193.346
196.628
198.896
198.405
221.883
224.632
225.976
227.607
243.488
247.822
248.123
246.919
251.629
248.285
271.293
263.813
209.977
224.613
153.922
263.907
202.943
204.526
210.912
218.063
204.022
128.465
124.614
164.948
204.484
203.341
158.976
100
100
116.952
112.223
100
134.872
100
100
100
100
100
100
100
100
100
100
100
100
100
100
100
100
100
100
100
100
100
100
100
100
100
100
100
100
100
100
100
100
100
100
100
100
100
100
100
100
100
100
100
100
100
108.984
105.722
103.396
100
100
118.177
115.294
113.155
125.574
124.131
121.104
124.09
128.223
125.837
130.372
130.138
156.067
142.081
132.58
142.653
196.278
191.592
202.782
189.953
227.553
225.59
223.391
224.404
232.956
237.794
237.397
231.319
248.06
251.93
255.543
257.453
278.208
285.14
282.066
281.086
288.079
293.615
307.628
170.89
254.944
151.509
176.442
309.558
257.099
215.457
142.149
149.065
217.381
152.917
139.052
199.331
219.202
218.839
193.022
104.324
100
132.081
122.553
100
364.196
138.359
100
100
100
100
100
100
100
100
100
100
100
100
100
100
100
100
100
100
100
100
100
100
100
100
100
100
100
100
100
100
100
100
100
100
100
100
100
100
100
100
100
100
100
100
108.768
106.244
102.719
100
100
119.711
116.559
112.649
129.139
126.814
123.34
127.289
136.442
132.61
138.509
135.724
174.758
156.79
143.514
156.575
219.541
214.541
230.739
216.031
264.884
258.808
253.469
254.3
268.021
274.217
281.155
271.81
277.55
278.346
281.89
281.63
306.772
310.728
308.152
306.558
331.978
326.431
351.322
188.142
307.058
177.84
205.168
363.819
311.789
144.664
174.433
180.437
146.82
170.968
159.31
209.326
145.873
148.132
201.98
116.739
110.919
146.119
139.264
109.196
158.73
100
109.185
113.61
100
100
100
100
100
100
100
100
100
100
100
100
100
100
100
100
100
100
100
100
100
100
100
100
100
100
100
100
100
100
100
100
100
100
100
100
100
100
100
100
100
100
100
100
100
110.372
105.33
101.5
100
120.56
116.253
114.056
132.884
130.243
125.604
130.411
145.761
141.418
147.547
142.265
197.891
175.06
156.227
174.164
248.565
242.998
265.035
247.927
294.721
290.605
286.82
287.199
294.83
300.985
329.477
311.99
303.632
304.104
309.125
308.654
341.903
342.108
339.672
336.886
382.615
368.999
401.035
209.122
367.553
209.873
238.118
424.017
373.951
177.451
210.447
214.295
179.489
193.068
176.945
142.833
179.461
180.474
219.205
266.352
128.651
124.401
166.887
151.073
105.54
100
100
122.929
115.583
100
100
100
100
100
100
100
100
100
100
100
100
100
100
100
100
100
100
100
100
100
100
100
100
100
100
100
100
100
100
100
100
100
100
100
100
100
100
100
100
100
100
100
100
100
109.677
105.476
101.253
100
122.051
117.205
113.879
137.269
133.867
128.505
134.221
157.345
151.839
156.376
150.004
226.911
199.753
171.496
197.469
281.864
274.713
303.56
286.317
323.577
331.359
310.744
321.773
321.641
328.157
186.447
330.667
335.569
336.219
342.327
342.382
380.232
376.612
371.172
365.667
420.096
233.247
429.848
245.01
437.241
213.696
245.545
248.664
215.606
205.587
198.525
174.856
216.746
216.577
148.94
325.699
143.01
136.409
182.198
168.395
100
100
100
127.406
108.303
100
100
100
100
100
100
100
100
100
100
100
100
100
100
100
100
100
100
100
100
100
100
100
100
100
100
100
100
100
100
100
100
100
100
100
100
100
100
100
100
100
100
100
100
100
100
100
100
109.218
104.042
100
100
123.843
118.368
113.619
143.261
138.34
130.211
136.888
172.178
162.534
165.86
158.773
262.033
231.705
193.606
229.915
313.732
310.314
339.242
323.392
188.088
351.518
344.155
341.543
356.089
362.235
204.391
365.395
364.144
365.127
370.891
371.632
248.357
249.516
226.823
262.922
211.643
210.824
251.575
249.953
179.617
392.125
156.141
143.584
201.912
184.395
100
100
100
127.518
103.187
100
100
100
100
100
100
100
100
100
100
100
100
100
100
100
100
100
100
100
100
100
100
100
100
100
100
100
100
100
100
100
100
100
100
100
100
100
100
100
100
100
100
100
100
100
100
100
100
108.139
102.732
100
100
126.441
119.896
113.859
150.838
143.322
132.599
140.024
192.18
174.91
176.296
167.364
298.903
268.645
226.515
271.249
342.931
337.958
350.213
354.791
206.932
384.113
371.394
197.187
376.574
387.229
393.33
225.275
405.793
153.961
321.054
234.999
265.954
243.5
215.741
451.718
165.925
147.214
211.678
195.348
100
111.575
118.558
124.964
102.591
100
100
100
100
100
100
100
100
100
100
100
100
100
100
100
100
100
100
100
100
100
100
100
100
100
100
100
100
100
100
100
100
100
100
100
100
100
100
100
100
100
100
100
100
100
100
100
100
100
107.08
101.621
100
100
128.756
121.276
114.499
158.656
148.718
136.725
146.165
222.805
191.745
189.348
175.586
332.722
306.793
270.495
313.055
364.49
197.49
367.192
227.16
415.306
400.985
215.285
415.405
243.4
440.906
183.153
386.986
161.389
321.37
248.294
172.71
148.256
230.381
269.807
204.593
101.267
114.795
146.94
123.25
107.836
100
100
100
100
100
100
100
100
100
100
100
100
100
100
100
100
100
100
100
100
100
100
100
100
100
100
100
100
100
100
100
100
100
100
100
100
100
100
100
100
100
100
100
100
100
100
100
100
100
100
100
106.662
101.646
100
100
131.411
122.812
115.022
165.888
155.88
141.65
153.192
267.145
216.992
209.944
185.564
356.682
339.118
316.306
347.305
398.07
204.617
216.194
244.604
427.033
234.358
448.534
217.894
444.776
187.888
385.421
176.727
146.278
246.268
277.724
316.775
203.422
122.646
116.06
166.479
122.54
120.131
100
100
100
100
100
100
100
100
100
100
100
100
100
100
100
100
100
100
100
100
100
100
100
100
100
100
100
100
100
100
100
100
100
100
100
100
100
100
100
100
100
100
100
100
100
100
100
100
100
100
100
100
108.409
100.402
100
100
135.097
124.13
117.6
173.671
163.936
147.73
160.124
308.89
254.395
242.308
202.822
381.436
354.746
350.146
354.164
434.801
214.585
223.746
237.46
249.847
248.436
219.357
440.316
172.277
143.736
158.097
326.634
371.151
197.073
254.124
139.317
117.838
189.767
127.24
131.304
100
100
100
100
100
100
100
100
100
100
100
100
100
100
100
100
100
100
100
100
100
100
100
100
100
100
100
100
100
100
100
100
100
100
100
100
100
100
100
100
100
100
100
100
100
100
100
100
100
100
100
100
100
109.281
101.246
100
100
139.674
127.196
120.292
183.529
171.433
153.53
166.449
336.113
292.297
276.178
229.217
365.45
344.899
202.922
462.23
232.65
245.457
253.269
245.747
166.874
142.138
183.457
384.982
416.985
191.781
241.483
295.804
161.616
113.222
205.533
136.748
144.539
100
100
100
100
100
100
100
100
100
100
100
100
100
100
100
100
100
100
100
100
100
100
100
100
100
100
100
100
100
100
100
100
100
100
100
100
100
100
100
100
100
100
100
100
100
100
100
100
100
100
100
100
100
100
110.48
103.293
100
100
145.941
131.798
122.27
196.551
178.895
159.967
172.891
342.551
319.274
304.005
261.625
399.641
195.797
219.919
254.388
261.359
163.789
148.14
214.429
437.12
189.191
239.135
283.214
345.348
182.2
104.009
215.491
145.299
156.565
100
100
100
100
100
100
100
100
100
100
100
100
100
100
100
100
100
100
100
100
100
100
100
100
100
100
100
100
100
100
100
100
100
100
100
100
100
100
100
100
100
100
100
100
100
100
100
100
100
100
100
100
100
100
100
113.393
104.357
100
100
152.465
135.8
125.259
217.834
189.014
167.57
181.353
357.389
361.411
332.977
320.531
288.73
441.263
213.987
241.563
271.317
165.336
154.549
240.684
189.402
235.525
279.55
334.927
388.296
199.815
100
218.584
151.881
168.869
100
100
100
100
100
100
100
100
100
100
100
100
100
100
100
100
100
100
100
100
100
100
100
100
100
100
100
100
100
100
100
100
100
100
100
100
100
100
100
100
100
100
100
100
100
100
100
100
100
100
100
100
100
100
100
100
116.145
105.095
100
157.207
139.054
129.707
244.925
204.646
173.964
191.953
205.355
401.283
330.72
322.361
307.1
472.251
235.777
258.048
169.98
158.834
192.618
234.278
274.635
327.91
380.366
214.02
100
220.186
158.849
177.189
100
100
100
100
100
100
100
100
100
100
100
100
100
100
100
100
100
100
100
100
100
100
100
100
100
100
100
100
100
100
100
100
100
100
100
100
100
100
100
100
100
100
100
100
100
100
100
100
100
100
100
100
100
100
100
100
100
100
117.424
107.165
163.247
144.582
132.383
270.246
225.582
180.031
204.881
226.273
187.215
445.104
330.6
345.783
315.639
252.755
172.766
162.538
193.565
234.347
273.224
321.492
370.961
223.475
100.018
215.76
161.657
186.819
100
100
100
100
100
100
100
100
100
100
100
100
100
100
100
100
100
100
100
100
100
100
100
100
100
100
100
100
100
100
100
100
100
100
100
100
100
100
100
100
100
100
100
100
100
100
100
100
100
100
100
100
100
100
100
100
100
100
100
100
119.738
108.525
171.278
149.574
135.329
290.974
247.647
190.644
223.913
249.28
207.8
479.362
191.715
383.338
321.302
175.818
163.918
197.879
231.832
272.664
319.076
363.571
225.087
111.914
205.737
163.969
189.147
100
100
100
100
100
100
100
100
100
100
100
100
100
100
100
100
100
100
100
100
100
100
100
100
100
100
100
100
100
100
100
100
100
100
100
100
100
100
100
100
100
100
100
100
100
100
100
100
100
100
100
100
100
100
100
100
100
100
100
100
122.265
109.598
177.978
154.05
138.902
305.431
269.873
201.133
243.399
266.857
230.309
346.496
213.14
422.971
333.234
176.492
165.156
200.425
236.606
271.216
317.937
359.853
211.264
168.309
236.527
162.869
185.543
100
100
100
100
100
100
100
100
100
100
100
100
100
100
100
100
100
100
100
100
100
100
100
100
100
100
100
100
100
100
100
100
100
100
100
100
100
100
100
100
100
100
100
100
100
100
100
100
100
100
100
100
100
100
100
100
100
100
100
100
100
100
123.912
110.17
183.947
158.635
141.394
314.685
290.017
211.799
261.356
249.428
381.209
194.416
235.021
457.075
177.814
165.036
203.995
240.363
275.335
317.413
358.184
229.111
354.295
294.647
159.083
176.534
100
100
100
100
100
100
100
100
100
100
100
100
100
100
100
100
100
100
100
100
100
100
100
100
100
100
100
100
100
100
100
100
100
100
100
100
100
100
100
100
100
100
100
100
100
100
100
100
100
100
100
100
100
100
100
100
100
100
100
100
100
100
100
124.763
110.738
190.487
162.858
143.188
322.461
305.518
223.092
275.109
417.818
214.139
344.13
253.359
177.682
162.166
206.676
243.407
279.791
320.782
358.148
222.02
868.447
319.645
149.877
157.728
100
100
100
100
100
100
100
100
100
100
100
100
100
100
100
100
100
100
100
100
100
100
100
100
100
100
100
100
100
100
100
100
100
100
100
100
100
100
100
100
100
100
100
100
100
100
100
100
100
100
100
100
100
100
100
100
100
100
100
100
100
100
100
125.512
110.306
196.447
166.424
144.815
332.26
308.718
231.938
280.937
450.231
234.842
378.715
194.755
177.503
155.676
205.311
254.554
283.577
326.024
360.816
173.354
172.855
100
138.903
138.904
100
100
100
100
100
100
100
100
100
100
100
100
100
100
100
100
100
100
100
100
100
100
100
100
100
100
100
100
100
100
100
100
100
100
100
100
100
100
100
100
100
100
100
100
100
100
100
100
100
100
100
100
100
100
100
100
100
100
100
100
100
100
100
110.647
125.745
202.383
169.82
146.188
299.479
240.082
284.958
253.04
415.802
212.21
318.024
171.236
145.201
203.425
248.738
294.18
331.387
365.981
128.003
100
100
125.26
115.737
100
100
100
100
100
100
100
100
100
100
100
100
100
100
100
100
100
100
100
100
100
100
100
100
100
100
100
100
100
100
100
100
100
100
100
100
100
100
100
100
100
100
100
100
100
100
100
100
100
100
100
100
100
100
100
100
100
100
100
100
100
100
100
108.843
106.568
126.646
209.06
173.235
147.997
306.799
250.377
295.214
447.726
230.415
348.6
327.773
159.663
131.308
190.188
233.052
153.878
290.228
340.793
372.861
100
100
100
109.404
100
100
100
100
100
100
100
100
100
100
100
100
100
100
100
100
100
100
100
100
100
100
100
100
100
100
100
100
100
100
100
100
100
100
100
100
100
100
100
100
100
100
100
100
100
100
100
100
100
100
100
100
100
100
100
100
100
100
100
100
100
100
100
100
103.996
100.92
124.826
122.32
214.282
176.479
146.563
325.984
260.185
302.181
246.585
379.697
357.896
351.414
146.725
118.878
220.273
176.567
283.6
180.51
340.356
381.487
100
100
100
100
100
100
100
100
100
100
100
100
100
100
100
100
100
100
100
100
100
100
100
100
100
100
100
100
100
100
100
100
100
100
100
100
100
100
100
100
100
100
100
100
100
100
100
100
100
100
100
100
100
100
100
100
100
100
100
100
100
100
100
100
100
100
100
100
102.253
119.409
115.83
143.935
215.302
176.074
342.306
260.894
296.249
407.328
389.722
381.894
195.335
135.317
114.266
199.12
163.428
249.254
330.064
211.054
384.832
100
100
100
101.101
100
100
100
100
100
100
100
100
100
100
100
100
100
100
100
100
100
100
100
100
100
100
100
100
100
100
100
100
100
100
100
100
100
100
100
100
100
100
100
100
100
100
100
100
100
100
100
100
100
100
100
100
100
100
100
100
100
100
100
100
100
100.449
101.63
105.217
108.125
113.925
117.344
140.652
136.403
173.581
212.417
254.74
290.345
315.702
417.87
411.496
213.125
126.742
114.313
192.966
150.069
298.811
149.587
381.69
237.774
100
100
100
102.654
100
100
100
100
100
100
100
100
100
100
100
100
100
100
100
100
100
100
100
100
100
100
100
100
100
100
100
100
100
100
100
100
100
100
100
100
100
100
100
100
100
100
100
100
100
100
100
100
100
100
100
100
100
100
100
100
100
100
100
100
103.588
104.058
110.739
111.344
120.348
123.175
134.768
138.629
169.694
164.46
207.105
247.892
282.148
314.736
342.208
438.546
229.7
124.26
118.085
212.169
182.172
141.519
355.458
177.236
258.417
431.698
100
100
100
100
100
100
100
100
100
100
100
100
100
100
100
100
100
100
100
100
100
100
100
100
100
100
100
100
100
100
100
100
100
100
100
100
100
100
100
100
100
100
100
100
100
100
100
100
100
100
100
100
100
100
100
100
100
100
100
100
100
102.331
104.13
104.268
104.361
112.67
112.945
125.569
125.454
141.71
144.428
163.441
168.164
200.397
238.558
271.298
306.795
339.778
370.435
244.196
124.312
120.521
202.611
168.221
134.615
407.124
208.518
312.308
145.993
100
100
100
100
100
100
100
100
100
100
100
100
100
100
100
100
100
100
100
100
100
100
100
100
100
100
100
100
100
100
100
100
100
100
100
100
100
100
100
100
100
100
100
100
100
100
100
100
100
100
100
100.981
100
100
100
100
100
100
100
100
100
100
100.86
108.68
111.002
112.98
112.374
125.995
125.935
146.328
145.281
171.701
174.147
200.024
206.571
238.716
270.996
302.309
331.941
366.846
395.75
128.758
112.263
194.664
154.698
133.361
238.759
373.224
176.337
211.427
256.72
100
100
100
100
100
100
100
100
100
100
100
100
100
100
100
100
100
100
100
100
100
100
100
100
100
100
100
100
100
100
100
100
100
100
100
100
100
100
100
100
100
100
100
100
100
100
100
100
100
100
100
100
100
107.155
100
100
100
100
100
100
100
100
100
100
100
105.356
118.312
121.24
125.501
124.047
144.716
143.888
175.095
172.751
211.716
214.328
248.299
281.279
301.388
326.598
359.057
390.861
131.397
100
184.456
145.304
139.473
431.757
210.327
313.276
205.579
148.957
100
100
100
100
100
100
100
100
100
100
100