/*--------------------------------*- C++ -*----------------------------------*\
  =========                 |
  \\      /  F ield         | OpenFOAM: The Open Source CFD Toolbox
   \\    /   O peration     | Website:  https://openfoam.org
    \\  /    A nd           | Version:  dev
     \\/     M anipulation  |
\*---------------------------------------------------------------------------*/
FoamFile
{
    version     2.0;
    format      ascii;
    class       volScalarField;
    location    "2500";
    object      rho;
}
// * * * * * * * * * * * * * * * * * * * * * * * * * * * * * * * * * * * * * //

dimensions      [1 -3 0 0 0 0 0];

internalField   nonuniform List<scalar> 
9851
(
1.17171
1.17156
1.17162
1.17154
1.1712
1.1717
1.1715
1.17097
1.17117
1.17177
1.17159
1.17089
1.17081
1.17124
1.1718
1.17153
1.1708
1.1706
1.17087
1.17138
1.17181
1.17156
1.17085
1.17042
1.17054
1.17095
1.17149
1.17185
1.17159
1.17089
1.17038
1.17029
1.17063
1.17111
1.1715
1.17186
1.17162
1.17089
1.17039
1.17006
1.17029
1.17068
1.17121
1.17154
1.17187
1.1716
1.1709
1.17036
1.16992
1.16999
1.17036
1.17085
1.17123
1.17159
1.17188
1.17158
1.17092
1.1703
1.16987
1.16978
1.17005
1.17045
1.17094
1.17127
1.17163
1.1719
1.17162
1.17092
1.17031
1.16986
1.16964
1.16979
1.17015
1.17062
1.17098
1.17132
1.17164
1.1719
1.17155
1.17093
1.1704
1.16987
1.16956
1.16955
1.1699
1.17025
1.1707
1.17102
1.17137
1.17166
1.1719
1.17159
1.17094
1.17033
1.16982
1.16951
1.16941
1.16962
1.16998
1.17037
1.17075
1.17106
1.17138
1.17166
1.17193
1.17153
1.17087
1.17039
1.16987
1.16948
1.16929
1.16939
1.16971
1.17009
1.1705
1.1708
1.17113
1.17141
1.17169
1.17192
1.17155
1.17093
1.17039
1.16982
1.16944
1.16922
1.16923
1.16947
1.16983
1.17019
1.17056
1.17084
1.17116
1.17144
1.17169
1.17193
1.17148
1.17087
1.17032
1.16982
1.16947
1.16913
1.16905
1.16926
1.16959
1.16996
1.17027
1.17059
1.17089
1.17116
1.17144
1.1717
1.17192
1.17146
1.17085
1.17031
1.16987
1.16944
1.16906
1.16895
1.16908
1.16932
1.16969
1.17003
1.17036
1.17064
1.17091
1.17119
1.17145
1.17171
1.17193
1.17146
1.17086
1.17034
1.16988
1.16947
1.1691
1.16886
1.16887
1.16914
1.16946
1.16978
1.17013
1.17042
1.17067
1.17095
1.17122
1.17147
1.17172
1.17193
1.17142
1.17078
1.17032
1.16988
1.16951
1.16908
1.16878
1.16875
1.16892
1.16919
1.16955
1.16987
1.17017
1.17046
1.17071
1.17097
1.17123
1.17148
1.17172
1.17194
1.17144
1.17077
1.17033
1.16988
1.16949
1.16903
1.16875
1.16867
1.16873
1.16898
1.16931
1.16964
1.16995
1.17023
1.17048
1.17073
1.171
1.17124
1.1715
1.17173
1.17194
1.17141
1.17072
1.17033
1.16989
1.16955
1.16909
1.16874
1.16857
1.1686
1.16878
1.1691
1.16941
1.16973
1.17001
1.17028
1.1705
1.17076
1.17101
1.17126
1.17151
1.17174
1.17194
1.17136
1.17071
1.17032
1.16989
1.16958
1.16908
1.16874
1.16853
1.16849
1.16863
1.16887
1.1692
1.16951
1.1698
1.17007
1.17029
1.17053
1.17076
1.17101
1.17126
1.17151
1.17174
1.17195
1.17135
1.17072
1.17029
1.1699
1.16956
1.16911
1.16879
1.1685
1.1684
1.16847
1.16869
1.16899
1.1693
1.1696
1.16986
1.17009
1.17031
1.17056
1.17079
1.17103
1.17128
1.17152
1.17175
1.17195
1.17132
1.17071
1.17031
1.16992
1.16959
1.16922
1.16883
1.16845
1.16833
1.16835
1.16852
1.16878
1.16909
1.16939
1.16967
1.16991
1.17011
1.17033
1.17056
1.17079
1.17104
1.17129
1.17153
1.17175
1.17194
1.17131
1.17071
1.17033
1.16994
1.16961
1.16927
1.16884
1.16846
1.16828
1.16825
1.16836
1.16859
1.16889
1.16919
1.16946
1.16971
1.16993
1.17013
1.17035
1.17057
1.17081
1.17106
1.1713
1.17154
1.17175
1.17195
1.17131
1.17072
1.17033
1.16997
1.16965
1.1693
1.16891
1.16849
1.16824
1.16817
1.16822
1.16842
1.1687
1.16898
1.16927
1.16953
1.16975
1.16995
1.17015
1.17038
1.17058
1.17083
1.17107
1.17131
1.17154
1.17176
1.17194
1.17132
1.17073
1.17033
1.17
1.1697
1.16933
1.16895
1.16852
1.16823
1.1681
1.16812
1.16825
1.1685
1.1688
1.16908
1.16933
1.16957
1.16978
1.16997
1.17017
1.17037
1.1706
1.17082
1.17107
1.17132
1.17154
1.17175
1.17194
1.17131
1.17073
1.17034
1.17003
1.16973
1.16935
1.16899
1.16857
1.16824
1.16805
1.16802
1.16812
1.16832
1.1686
1.16889
1.16916
1.16939
1.1696
1.16979
1.16998
1.17019
1.17038
1.1706
1.17084
1.17107
1.17131
1.17155
1.17174
1.17194
1.17131
1.17075
1.17037
1.17007
1.16976
1.16941
1.16903
1.16862
1.16825
1.16802
1.16794
1.16799
1.16816
1.16841
1.1687
1.16897
1.16921
1.16943
1.16963
1.1698
1.16999
1.17018
1.17039
1.17061
1.17086
1.17108
1.17131
1.17154
1.17175
1.17193
1.17132
1.17077
1.17039
1.1701
1.16979
1.16945
1.16909
1.16869
1.16828
1.16801
1.16789
1.16789
1.16802
1.16823
1.16852
1.16879
1.16904
1.16926
1.16946
1.16964
1.16983
1.17
1.17019
1.1704
1.17063
1.17084
1.17108
1.17132
1.17152
1.17174
1.17192
1.17134
1.17079
1.17042
1.17013
1.16982
1.16949
1.16913
1.16875
1.16833
1.16801
1.16784
1.16781
1.16789
1.16808
1.16832
1.16861
1.16887
1.16909
1.1693
1.16949
1.16966
1.16984
1.17002
1.17021
1.1704
1.17063
1.17085
1.17109
1.1713
1.17152
1.17172
1.17191
1.17136
1.17081
1.17046
1.17016
1.16986
1.16953
1.16919
1.1688
1.16838
1.16803
1.16782
1.16774
1.16779
1.16793
1.16817
1.16843
1.1687
1.16894
1.16914
1.16933
1.1695
1.16967
1.16984
1.17002
1.17021
1.17042
1.17064
1.17086
1.17108
1.17129
1.1715
1.1717
1.17189
1.17137
1.17083
1.17049
1.17019
1.16989
1.16958
1.16925
1.16887
1.16846
1.16805
1.1678
1.16769
1.1677
1.16782
1.16801
1.16826
1.16853
1.16877
1.16898
1.16917
1.16935
1.16951
1.16968
1.16985
1.17003
1.17021
1.17042
1.17063
1.17085
1.17106
1.17126
1.17148
1.17168
1.17199
1.17187
1.17139
1.17086
1.17052
1.17023
1.16993
1.16964
1.16931
1.16892
1.16853
1.16811
1.1678
1.16765
1.16762
1.16771
1.16788
1.16811
1.16836
1.16861
1.16882
1.16902
1.16919
1.16936
1.16952
1.16968
1.16985
1.17003
1.17022
1.17041
1.17062
1.17083
1.17102
1.17123
1.17149
1.17175
1.17163
1.17198
1.17186
1.1714
1.17091
1.17056
1.17026
1.16998
1.16968
1.16935
1.16901
1.16859
1.16818
1.16782
1.16762
1.16755
1.16761
1.16775
1.16797
1.16821
1.16845
1.16867
1.16886
1.16904
1.16921
1.16937
1.16953
1.16969
1.16986
1.17003
1.17021
1.17041
1.1706
1.17079
1.17099
1.17128
1.17117
1.17152
1.17135
1.17138
1.17173
1.17161
1.17198
1.17184
1.17144
1.17094
1.1706
1.17029
1.17002
1.16972
1.16941
1.16906
1.16868
1.16823
1.16786
1.1676
1.1675
1.16752
1.16764
1.16783
1.16807
1.1683
1.16852
1.16871
1.16889
1.16906
1.16922
1.16938
1.16953
1.1697
1.16986
1.17003
1.17021
1.17039
1.17057
1.17076
1.17106
1.17093
1.1712
1.17148
1.17125
1.17134
1.1717
1.17157
1.17197
1.17181
1.17145
1.17095
1.17063
1.17032
1.17005
1.16976
1.16946
1.16911
1.16873
1.16832
1.1679
1.1676
1.16746
1.16745
1.16754
1.16771
1.16793
1.16816
1.16838
1.16857
1.16874
1.16891
1.16907
1.16923
1.16938
1.16954
1.1697
1.16986
1.17004
1.1702
1.17036
1.17054
1.17082
1.17069
1.17106
1.17092
1.1711
1.17143
1.1712
1.17129
1.17167
1.17153
1.17195
1.17179
1.17147
1.171
1.17066
1.17037
1.17009
1.16981
1.1695
1.16918
1.16881
1.16837
1.16796
1.16762
1.16743
1.16738
1.16745
1.1676
1.16781
1.16803
1.16825
1.16843
1.1686
1.16877
1.16893
1.16908
1.16924
1.16939
1.16955
1.16971
1.16985
1.17004
1.17018
1.17032
1.17057
1.17044
1.17077
1.17063
1.17095
1.1708
1.17105
1.17138
1.17113
1.17122
1.17163
1.17148
1.17194
1.17176
1.1715
1.17103
1.17071
1.1704
1.17013
1.16986
1.16957
1.16923
1.16887
1.16849
1.16803
1.16765
1.16742
1.16733
1.16736
1.16749
1.16769
1.16791
1.16812
1.16831
1.16847
1.16863
1.16879
1.16894
1.16909
1.16925
1.1694
1.16956
1.16971
1.16983
1.17004
1.17013
1.17031
1.17018
1.17048
1.17031
1.17065
1.17048
1.17089
1.17072
1.17097
1.17131
1.17105
1.17113
1.17159
1.17142
1.17192
1.17172
1.17152
1.17107
1.17074
1.17044
1.17017
1.1699
1.16962
1.16929
1.16894
1.16856
1.16813
1.1677
1.16742
1.16728
1.16728
1.16739
1.16758
1.16779
1.168
1.16818
1.16834
1.16849
1.16864
1.1688
1.16895
1.16911
1.16926
1.16942
1.16957
1.16969
1.1698
1.16993
1.16998
1.16972
1.17008
1.16973
1.17024
1.16985
1.17051
1.17015
1.17078
1.1705
1.17084
1.17123
1.17092
1.17101
1.17153
1.17134
1.17189
1.17167
1.17155
1.1711
1.17076
1.17048
1.1702
1.16995
1.16967
1.16936
1.16901
1.16864
1.16821
1.16778
1.16744
1.16726
1.16722
1.1673
1.16747
1.16769
1.16789
1.16807
1.1682
1.16834
1.16849
1.16865
1.16881
1.16896
1.16912
1.16927
1.16943
1.16958
1.16967
1.16972
1.16944
1.16899
1.16917
1.16825
1.16912
1.16781
1.16944
1.16805
1.16997
1.16879
1.17051
1.16976
1.17054
1.17112
1.17061
1.17073
1.17147
1.17124
1.17186
1.17162
1.17158
1.17114
1.1708
1.17053
1.17024
1.16998
1.16972
1.16942
1.16906
1.16872
1.1683
1.16784
1.16748
1.16725
1.16717
1.16722
1.16738
1.16759
1.16779
1.16792
1.16801
1.16811
1.16826
1.16845
1.16864
1.16882
1.16898
1.16914
1.16929
1.16944
1.16956
1.16944
1.16862
1.16811
1.16721
1.16587
1.16588
1.16336
1.16546
1.16178
1.16633
1.16196
1.16796
1.16418
1.16958
1.16711
1.16949
1.1709
1.16957
1.16983
1.17138
1.17108
1.17183
1.17155
1.17159
1.17116
1.17084
1.17056
1.17029
1.17002
1.16977
1.16947
1.16913
1.16878
1.16838
1.16791
1.16752
1.16726
1.16714
1.16716
1.16731
1.16751
1.16767
1.16771
1.16762
1.16753
1.16766
1.16799
1.16834
1.16861
1.16882
1.16899
1.16916
1.16931
1.16944
1.16939
1.16784
1.16744
1.16462
1.1633
1.1606
1.15777
1.15738
1.15297
1.15617
1.15002
1.15756
1.14984
1.16169
1.15309
1.16641
1.15953
1.16609
1.17023
1.16626
1.16695
1.17127
1.17067
1.17178
1.17147
1.17159
1.17117
1.17086
1.17059
1.17033
1.17006
1.16981
1.16953
1.16919
1.16886
1.16848
1.16804
1.16757
1.16727
1.16712
1.16712
1.16725
1.16743
1.16752
1.16734
1.16675
1.16597
1.16572
1.16628
1.16726
1.16808
1.16856
1.16882
1.16901
1.16918
1.16934
1.16931
1.16741
1.16811
1.16239
1.1615
1.15527
1.1531
1.14879
1.1453
1.14452
1.14032
1.14292
1.13834
1.14404
1.13816
1.1488
1.13975
1.15803
1.14571
1.15749
1.16808
1.15807
1.15979
1.17104
1.16935
1.17174
1.17135
1.17159
1.17116
1.17086
1.1706
1.17036
1.17011
1.16986
1.16958
1.16926
1.16893
1.16858
1.16814
1.16767
1.1673
1.16712
1.16708
1.16719
1.16735
1.16735
1.16679
1.16528
1.16314
1.16159
1.16159
1.16343
1.166
1.16769
1.16848
1.16883
1.16903
1.16921
1.16928
1.16474
1.16121
1.1601
1.15157
1.15033
1.14266
1.14071
1.13764
1.13588
1.13571
1.13407
1.13515
1.13342
1.13548
1.1334
1.13733
1.1338
1.14397
1.13579
1.14359
1.16249
1.14472
1.1477
1.17042
1.16573
1.17169
1.1711
1.17156
1.17114
1.17085
1.17061
1.17038
1.17014
1.16991
1.16962
1.16933
1.16901
1.16867
1.16824
1.16777
1.16736
1.16712
1.16706
1.16714
1.16728
1.16719
1.16621
1.16362
1.15991
1.15682
1.15568
1.15698
1.16046
1.16479
1.16737
1.16844
1.16885
1.16907
1.16916
1.16613
1.1502
1.15085
1.1498
1.14987
1.13945
1.13855
1.13471
1.13389
1.13289
1.13203
1.13226
1.13136
1.13223
1.13129
1.13242
1.13154
1.13275
1.13179
1.13485
1.13202
1.13447
1.15226
1.13485
1.13666
1.16863
1.15819
1.17162
1.17042
1.17151
1.17107
1.1708
1.17059
1.17038
1.17016
1.16997
1.16966
1.1694
1.16908
1.16874
1.16836
1.16788
1.16745
1.16713
1.16703
1.16709
1.16721
1.16706
1.16573
1.16218
1.15701
1.15234
1.14972
1.14988
1.15293
1.1582
1.16404
1.16726
1.16845
1.16887
1.16906
1.16764
1.15216
1.15395
1.13882
1.13953
1.13827
1.13839
1.13337
1.13298
1.13143
1.13107
1.13057
1.12989
1.13036
1.12919
1.13063
1.12917
1.13108
1.12987
1.13136
1.13072
1.1314
1.13094
1.13088
1.14102
1.13073
1.13144
1.16438
1.14781
1.17128
1.16849
1.17143
1.17095
1.17069
1.17053
1.17036
1.17017
1.17001
1.1697
1.16947
1.16916
1.16882
1.16846
1.16801
1.16754
1.16718
1.16701
1.16703
1.16717
1.167
1.16546
1.16115
1.15482
1.14869
1.14441
1.14283
1.14462
1.14978
1.15696
1.16401
1.16735
1.16851
1.16889
1.16809
1.15597
1.16014
1.14096
1.14231
1.13291
1.13313
1.13277
1.1328
1.1309
1.13087
1.12938
1.12921
1.12788
1.12664
1.12704
1.12423
1.1275
1.12341
1.12907
1.12505
1.13055
1.12819
1.13047
1.13036
1.12993
1.13371
1.1295
1.12952
1.15692
1.13872
1.17056
1.16476
1.17135
1.17082
1.17054
1.1704
1.1703
1.17015
1.17003
1.16974
1.16952
1.16923
1.16889
1.16855
1.16812
1.16764
1.16724
1.16701
1.16697
1.16709
1.16697
1.1654
1.16068
1.15336
1.14626
1.14059
1.13703
1.13656
1.14021
1.14773
1.15688
1.1644
1.16754
1.16856
1.16829
1.15692
1.14522
1.14587
1.13358
1.13428
1.13117
1.13114
1.13095
1.13111
1.12927
1.12956
1.12589
1.12589
1.12128
1.11895
1.11807
1.11246
1.11816
1.10956
1.1221
1.11194
1.12748
1.11932
1.13012
1.12721
1.12979
1.13052
1.1293
1.12903
1.14775
1.13348
1.16909
1.15914
1.17081
1.17048
1.17026
1.17017
1.17009
1.17002
1.16976
1.16957
1.16929
1.16897
1.16863
1.16824
1.16776
1.16732
1.16702
1.16694
1.16701
1.16697
1.16551
1.16066
1.15278
1.14495
1.13865
1.13362
1.13057
1.13128
1.13716
1.14718
1.15768
1.1651
1.16781
1.16819
1.16169
1.13963
1.14212
1.13579
1.13707
1.13103
1.13101
1.1313
1.13131
1.1303
1.13096
1.12634
1.12774
1.11807
1.11858
1.10782
1.10521
1.10096
1.09363
1.09978
1.08813
1.1058
1.09056
1.11763
1.10128
1.12754
1.11765
1.12818
1.12944
1.12878
1.12899
1.14013
1.1311
1.16643
1.15223
1.17059
1.17026
1.17005
1.16997
1.16997
1.16976
1.16961
1.16935
1.16904
1.16872
1.16834
1.16788
1.16742
1.16707
1.16692
1.16695
1.16699
1.16587
1.16106
1.15279
1.14495
1.13874
1.13309
1.12812
1.12533
1.12754
1.13636
1.1483
1.15924
1.16592
1.16767
1.16422
1.14565
1.15088
1.13247
1.13369
1.13116
1.13154
1.13111
1.13062
1.13272
1.13283
1.13
1.13178
1.12042
1.12533
1.10513
1.10792
1.08954
1.08967
1.07984
1.07707
1.0769
1.07033
1.08281
1.06903
1.09912
1.07841
1.11962
1.10002
1.12275
1.12913
1.12621
1.12769
1.12897
1.13562
1.13014
1.1634
1.14711
1.17048
1.1701
1.16987
1.16985
1.16973
1.16962
1.1694
1.16911
1.1688
1.16842
1.168
1.16753
1.16713
1.16692
1.1669
1.16698
1.16629
1.16219
1.15361
1.14644
1.14115
1.13465
1.12838
1.12341
1.12133
1.1262
1.13757
1.1508
1.16143
1.16625
1.16472
1.1483
1.13643
1.13684
1.12931
1.12945
1.13004
1.12946
1.1326
1.13177
1.13466
1.13471
1.13009
1.13331
1.11594
1.12514
1.09421
1.10376
1.07882
1.08376
1.0699
1.07235
1.06465
1.06565
1.06435
1.06095
1.07674
1.06202
1.10452
1.07724
1.09032
1.11901
1.10895
1.12849
1.12924
1.12883
1.12412
1.11665
1.11273
1.12606
1.13359
1.12907
1.12935
1.13031
1.16272
1.14548
1.1704
1.16994
1.16974
1.16962
1.16961
1.16944
1.16917
1.16887
1.16851
1.16813
1.16765
1.16721
1.16693
1.16687
1.16695
1.16662
1.16353
1.15547
1.1486
1.14498
1.14056
1.13208
1.12425
1.11931
1.11869
1.12664
1.14063
1.15441
1.16305
1.16422
1.15281
1.13221
1.13575
1.13001
1.13072
1.12821
1.12737
1.13054
1.12928
1.1341
1.13252
1.13726
1.13661
1.13248
1.13645
1.11655
1.12949
1.09278
1.10659
1.07722
1.08565
1.06864
1.07451
1.06268
1.06746
1.0588
1.05968
1.06137
1.06907
1.06106
1.05725
1.05862
1.07925
1.09695
1.08203
1.06905
1.10071
1.12743
1.12822
1.12042
1.11067
1.10562
1.12344
1.13007
1.13509
1.13149
1.12865
1.12903
1.16403
1.13481
1.14124
1.14987
1.17027
1.16977
1.16953
1.16953
1.16944
1.16921
1.16893
1.1686
1.16822
1.16778
1.16731
1.16698
1.16685
1.1669
1.16682
1.16477
1.15775
1.15041
1.14769
1.1468
1.14235
1.13008
1.12023
1.11586
1.11771
1.12884
1.14504
1.15776
1.16228
1.15448
1.13336
1.12702
1.12656
1.12685
1.1268
1.12717
1.12572
1.13068
1.12885
1.13465
1.13203
1.14027
1.13748
1.13807
1.14098
1.124
1.13842
1.0992
1.11781
1.0837
1.09682
1.07579
1.08629
1.06412
1.06866
1.07319
1.07928
1.05812
1.06014
1.06091
1.06423
1.06177
1.05787
1.05737
1.05687
1.07085
1.08672
1.07363
1.06249
1.09158
1.12568
1.12716
1.11554
1.09733
1.10343
1.11982
1.12974
1.13131
1.128
1.12861
1.15076
1.1698
1.16337
1.13483
1.14166
1.17008
1.16955
1.1694
1.16941
1.16924
1.16898
1.16868
1.16831
1.16791
1.16742
1.16704
1.16685
1.16685
1.1669
1.16576
1.16022
1.15216
1.14944
1.15055
1.15159
1.14252
1.12633
1.11637
1.11336
1.11801
1.13246
1.14893
1.15823
1.15397
1.13513
1.12301
1.12415
1.12327
1.12274
1.12456
1.12371
1.12488
1.12305
1.12942
1.12701
1.13367
1.12994
1.14232
1.13704
1.14523
1.14546
1.1369
1.14845
1.1144
1.13525
1.09919
1.1158
1.08457
1.09123
1.09681
1.10402
1.0688
1.07421
1.08031
1.08677
1.05954
1.06316
1.06379
1.0686
1.0578
1.05642
1.05873
1.05681
1.06386
1.07746
1.06612
1.05811
1.08244
1.12318
1.12555
1.10958
1.08858
1.09548
1.11525
1.12945
1.13121
1.12703
1.12804
1.15264
1.17113
1.16613
1.13505
1.14259
1.16978
1.16933
1.16932
1.16924
1.16902
1.16875
1.16841
1.16802
1.16754
1.16712
1.16686
1.1668
1.1669
1.16641
1.16251
1.15427
1.15071
1.15204
1.1571
1.15273
1.14033
1.12131
1.11339
1.11197
1.11918
1.13513
1.15059
1.15147
1.13513
1.12069
1.11811
1.11711
1.11936
1.11853
1.12153
1.12029
1.12114
1.11906
1.12655
1.12362
1.13183
1.12709
1.14319
1.13691
1.1515
1.14912
1.15114
1.15641
1.13527
1.15416
1.11055
1.11933
1.12801
1.13913
1.09339
1.09998
1.10667
1.11379
1.07438
1.08097
1.08808
1.09539
1.06216
1.06796
1.06687
1.0739
1.05613
1.05623
1.06107
1.05773
1.0589
1.06938
1.06042
1.05606
1.07401
1.11994
1.12342
1.10282
1.08006
1.08737
1.10989
1.12914
1.13117
1.12573
1.1273
1.15531
1.17169
1.16856
1.13545
1.14416
1.16943
1.16918
1.16919
1.16904
1.1688
1.1685
1.16811
1.16768
1.16722
1.1669
1.16678
1.16685
1.16674
1.1644
1.1571
1.15184
1.15253
1.15885
1.15927
1.15216
1.13604
1.11777
1.11162
1.11136
1.12002
1.13623
1.14559
1.13388
1.12021
1.11177
1.11202
1.11302
1.11223
1.1147
1.11373
1.11732
1.11587
1.11675
1.11442
1.12299
1.11957
1.13111
1.12576
1.14606
1.13952
1.15652
1.15243
1.16135
1.16277
1.15553
1.16432
1.12123
1.12944
1.13774
1.14654
1.10259
1.10971
1.11701
1.12453
1.08083
1.0885
1.09655
1.10456
1.06549
1.07271
1.07099
1.0797
1.05573
1.05695
1.06391
1.0599
1.05629
1.0629
1.05699
1.05546
1.06682
1.11601
1.12078
1.09562
1.07231
1.07956
1.10392
1.12877
1.13114
1.12412
1.12637
1.15849
1.17194
1.17055
1.136
1.1462
1.1691
1.16911
1.16903
1.16883
1.16857
1.16821
1.16781
1.16733
1.16697
1.16678
1.16679
1.16686
1.16571
1.16016
1.15323
1.15257
1.15875
1.16221
1.1596
1.15044
1.13349
1.11598
1.11054
1.11077
1.11953
1.13202
1.12991
1.11861
1.10773
1.10621
1.10507
1.10764
1.10686
1.10954
1.10849
1.11246
1.11084
1.11316
1.1103
1.12093
1.11668
1.13294
1.12665
1.15284
1.14691
1.162
1.15814
1.16666
1.16702
1.16057
1.16484
1.16759
1.16653
1.13229
1.14009
1.14776
1.15482
1.11233
1.12004
1.12775
1.13536
1.08772
1.09642
1.10533
1.114
1.06894
1.07769
1.07506
1.08561
1.05609
1.05863
1.06682
1.06234
1.0553
1.0584
1.0554
1.05556
1.06112
1.11151
1.11769
1.08832
1.06566
1.07249
1.09764
1.12831
1.13105
1.12219
1.12526
1.16223
1.17196
1.17094
1.13666
1.14864
1.16893
1.16898
1.16885
1.16863
1.16831
1.16789
1.16745
1.16705
1.1668
1.16674
1.16686
1.16645
1.16285
1.15543
1.15271
1.15793
1.16281
1.16316
1.15947
1.14979
1.13269
1.11524
1.10974
1.10947
1.11534
1.11954
1.11471
1.10558
1.09923
1.09891
1.10086
1.09994
1.1025
1.10164
1.1047
1.10349
1.10799
1.10615
1.11196
1.10845
1.121
1.11613
1.14015
1.13312
1.1619
1.15744
1.16667
1.16501
1.16791
1.16825
1.16849
1.16457
1.1665
1.16789
1.16741
1.14273
1.14966
1.15589
1.16098
1.12234
1.13037
1.13796
1.145
1.09465
1.10432
1.11402
1.12328
1.07219
1.08244
1.07869
1.09118
1.05742
1.06075
1.06946
1.0648
1.05506
1.05603
1.05489
1.05636
1.05753
1.10659
1.11423
1.08125
1.06053
1.06624
1.09127
1.12773
1.13092
1.11996
1.12393
1.16464
1.17082
1.17013
1.13739
1.15086
1.16883
1.16882
1.16866
1.16838
1.168
1.16758
1.16714
1.16684
1.16673
1.1668
1.16676
1.16483
1.15846
1.15335
1.15596
1.16254
1.16409
1.16354
1.15962
1.15001
1.13329
1.11533
1.10884
1.10692
1.10701
1.10565
1.10074
1.09436
1.09484
1.09401
1.09657
1.09567
1.09854
1.09749
1.10126
1.09976
1.10554
1.10317
1.11477
1.11014
1.12637
1.1202
1.15157
1.14488
1.16694
1.16525
1.16851
1.16799
1.16819
1.16839
1.1687
1.1689
1.166
1.16693
1.16782
1.16745
1.15136
1.15686
1.16129
1.16429
1.13194
1.13977
1.14669
1.15267
1.10112
1.11167
1.12207
1.13171
1.07493
1.08651
1.08149
1.09585
1.05931
1.06294
1.07165
1.06702
1.0554
1.05496
1.05482
1.05782
1.05563
1.10143
1.11047
1.07469
1.05738
1.06123
1.08507
1.12702
1.13074
1.11749
1.12246
1.16403
1.17049
1.16802
1.13813
1.1508
1.16872
1.16866
1.16844
1.16811
1.16768
1.16725
1.1669
1.16673
1.16673
1.16684
1.16603
1.16151
1.15499
1.15453
1.16131
1.16399
1.1646
1.16395
1.16045
1.15156
1.13567
1.1165
1.10769
1.10341
1.10003
1.09634
1.09307
1.09245
1.09276
1.09299
1.09248
1.09468
1.09374
1.09707
1.09577
1.10068
1.09867
1.1063
1.10318
1.12414
1.11818
1.13785
1.13078
1.16256
1.15842
1.16887
1.16831
1.16899
1.16907
1.16914
1.16813
1.16844
1.16846
1.1689
1.16591
1.16629
1.1669
1.16655
1.15762
1.16137
1.1638
1.16516
1.14025
1.14745
1.15328
1.15784
1.10652
1.11783
1.12879
1.1385
1.07693
1.08936
1.08323
1.0989
1.06122
1.0649
1.07317
1.06886
1.05637
1.05462
1.05515
1.05948
1.05473
1.09624
1.10658
1.06876
1.05553
1.05794
1.07928
1.12622
1.13052
1.11485
1.12084
1.16213
1.16663
1.16341
1.13835
1.1498
1.1686
1.16846
1.16819
1.16778
1.16736
1.16698
1.16674
1.16669
1.16682
1.16661
1.16398
1.15762
1.15429
1.15826
1.1632
1.16448
1.16496
1.16474
1.1618
1.15371
1.13924
1.11967
1.10707
1.10087
1.09646
1.09403
1.09625
1.09524
1.09664
1.09502
1.09484
1.09675
1.09571
1.09986
1.09811
1.10501
1.10212
1.11297
1.1086
1.13959
1.13297
1.15293
1.14643
1.16741
1.16599
1.16942
1.16938
1.16936
1.16909
1.16915
1.16944
1.1694
1.16735
1.16791
1.16745
1.16847
1.1642
1.1642
1.16468
1.1643
1.16102
1.16288
1.16389
1.16416
1.14658
1.15283
1.15733
1.16019
1.10985
1.12162
1.13301
1.14282
1.07804
1.09095
1.08411
1.10027
1.06295
1.06646
1.07396
1.07008
1.05769
1.05464
1.05571
1.06092
1.05426
1.09118
1.10264
1.06385
1.05443
1.05595
1.07409
1.12533
1.13027
1.11208
1.1191
1.15811
1.16414
1.15959
1.13804
1.14757
1.16845
1.16824
1.1679
1.16746
1.16706
1.16678
1.16667
1.16674
1.1668
1.16558
1.16065
1.15489
1.15587
1.16099
1.16358
1.16474
1.16554
1.16569
1.16306
1.1562
1.14381
1.12614
1.11075
1.10269
1.10017
1.10363
1.11031
1.11456
1.10449
1.10708
1.10301
1.10324
1.10487
1.10362
1.10907
1.10664
1.11624
1.11226
1.12663
1.12102
1.15647
1.151
1.16393
1.16089
1.16914
1.16874
1.16956
1.16955
1.16966
1.16964
1.16908
1.1693
1.16953
1.16944
1.16537
1.16636
1.16512
1.16704
1.16083
1.16055
1.16082
1.1605
1.16162
1.16196
1.16182
1.16131
1.1504
1.15561
1.15866
1.1596
1.11112
1.12297
1.13458
1.14438
1.0786
1.09162
1.08429
1.10064
1.06415
1.06739
1.07423
1.07072
1.05895
1.05459
1.05651
1.06195
1.05395
1.08629
1.09865
1.06003
1.05381
1.05472
1.06918
1.12441
1.12989
1.1092
1.11728
1.15392
1.16645
1.15977
1.13717
1.14512
1.16827
1.16799
1.16755
1.16716
1.16684
1.16667
1.16667
1.16681
1.16641
1.16333
1.15714
1.15512
1.15814
1.16155
1.16348
1.16512
1.16629
1.16643
1.16424
1.15905
1.14949
1.13687
1.1251
1.11971
1.12316
1.1375
1.12975
1.13561
1.1215
1.12506
1.11845
1.11931
1.11999
1.1188
1.12539
1.12225
1.13399
1.12936
1.14507
1.13919
1.16567
1.16361
1.16813
1.16716
1.16958
1.16955
1.16954
1.16963
1.16966
1.16973
1.16974
1.16859
1.1692
1.16956
1.16935
1.16176
1.16326
1.16108
1.16421
1.1556
1.15498
1.15496
1.15481
1.15959
1.15913
1.15784
1.15676
1.15127
1.15543
1.15672
1.15675
1.111
1.12217
1.13311
1.14244
1.07831
1.09108
1.08306
1.09903
1.06476
1.06745
1.07322
1.0702
1.05957
1.0546
1.05696
1.06201
1.05378
1.08164
1.09463
1.05773
1.0535
1.05409
1.06505
1.12339
1.12924
1.10607
1.11522
1.15209
1.17027
1.16329
1.13604
1.14315
1.16805
1.16767
1.16725
1.1669
1.16668
1.16663
1.16675
1.16674
1.16518
1.16017
1.15539
1.15607
1.15924
1.16142
1.16341
1.16573
1.16694
1.16693
1.16547
1.16195
1.15592
1.14916
1.14479
1.14634
1.15452
1.16386
1.15032
1.15425
1.14295
1.14629
1.13949
1.14063
1.14055
1.13961
1.14578
1.1427
1.15352
1.14949
1.16091
1.15755
1.16878
1.16823
1.16939
1.16916
1.16973
1.16967
1.16974
1.16975
1.16967
1.16972
1.1698
1.16979
1.1671
1.16876
1.1695
1.16899
1.15617
1.15827
1.15513
1.15964
1.14828
1.14719
1.14703
1.14688
1.15567
1.15391
1.1519
1.14996
1.14897
1.1519
1.15233
1.15167
1.10813
1.11803
1.12787
1.13645
1.07648
1.08858
1.08007
1.09498
1.06433
1.06667
1.07138
1.06902
1.05954
1.05465
1.05716
1.06169
1.0537
1.07712
1.09023
1.05638
1.05351
1.05399
1.06169
1.12231
1.12844
1.10274
1.11329
1.15296
1.17174
1.16812
1.13477
1.14256
1.16777
1.16732
1.16698
1.16672
1.16661
1.16667
1.1668
1.16621
1.1629
1.15694
1.15544
1.15703
1.15937
1.16122
1.1637
1.16646
1.16739
1.16735
1.16652
1.16463
1.1622
1.16036
1.16088
1.16404
1.16722
1.16844
1.16489
1.16849
1.16374
1.16038
1.16195
1.15867
1.15922
1.15931
1.1588
1.16186
1.16043
1.16499
1.16346
1.16743
1.16635
1.16956
1.16942
1.16973
1.16968
1.16979
1.16979
1.16983
1.16985
1.16965
1.16977
1.16986
1.16988
1.16415
1.16769
1.16928
1.16823
1.14848
1.15126
1.14754
1.15352
1.13862
1.13724
1.1371
1.13687
1.14939
1.14653
1.14356
1.14084
1.14261
1.14509
1.14513
1.14317
1.10226
1.11017
1.11816
1.12533
1.07374
1.08405
1.0761
1.08846
1.06383
1.066
1.07011
1.06811
1.0595
1.05501
1.05752
1.06175
1.05388
1.07233
1.08596
1.05577
1.05379
1.05439
1.05993
1.12105
1.12757
1.09956
1.11093
1.15625
1.17196
1.17026
1.13382
1.14314
1.16743
1.16705
1.16676
1.16661
1.16661
1.16677
1.16665
1.16487
1.15988
1.15566
1.15564
1.15739
1.15919
1.16132
1.16463
1.16713
1.16764
1.16768
1.16737
1.16685
1.16639
1.16659
1.16756
1.16844
1.16888
1.16837
1.16899
1.16897
1.16818
1.16745
1.16781
1.16704
1.16717
1.16726
1.16711
1.16793
1.16756
1.16869
1.16834
1.16926
1.169
1.16979
1.16971
1.16987
1.16986
1.16986
1.16987
1.16985
1.16987
1.16989
1.16953
1.16978
1.16988
1.16993
1.15982
1.1653
1.16878
1.16688
1.13902
1.14255
1.13878
1.14627
1.12677
1.1254
1.12556
1.12511
1.14
1.13634
1.13268
1.12939
1.1307
1.13305
1.133
1.13075
1.09331
1.09851
1.10385
1.10876
1.0719
1.07846
1.07346
1.08076
1.06397
1.06625
1.07057
1.06844
1.0601
1.05556
1.05859
1.06284
1.0545
1.06839
1.08181
1.0561
1.05478
1.05556
1.05927
1.1199
1.12663
1.09587
1.10906
1.16087
1.17201
1.17108
1.13332
1.14471
1.1671
1.16682
1.16662
1.16656
1.16667
1.16677
1.16601
1.1626
1.15699
1.15533
1.15581
1.15733
1.15919
1.1622
1.16593
1.16751
1.16781
1.16793
1.16796
1.16798
1.16812
1.16841
1.16868
1.16888
1.16903
1.16901
1.1691
1.16907
1.169
1.16897
1.16899
1.16898
1.16896
1.16908
1.16903
1.16926
1.16917
1.16944
1.16937
1.16965
1.16955
1.16994
1.16988
1.16992
1.1699
1.16994
1.16995
1.16995
1.16993
1.16997
1.17001
1.16926
1.16971
1.16985
1.16995
1.15434
1.1617
1.16797
1.16466
1.12815
1.13259
1.12942
1.13848
1.11329
1.1122
1.11318
1.11203
1.1272
1.12322
1.11931
1.11585
1.11258
1.11454
1.11449
1.11335
1.08299
1.08516
1.08734
1.08935
1.07262
1.07481
1.07413
1.07589
1.06587
1.06944
1.07378
1.07192
1.06204
1.05683
1.06124
1.06603
1.05618
1.06565
1.07755
1.05706
1.05718
1.05784
1.05989
1.1186
1.12586
1.09336
1.10698
1.16362
1.17205
1.17142
1.13343
1.1468
1.16687
1.16664
1.16654
1.16659
1.16676
1.16655
1.16462
1.15974
1.15563
1.15502
1.15576
1.15731
1.15993
1.16371
1.16701
1.16771
1.16793
1.1681
1.16823
1.16838
1.16854
1.16869
1.16883
1.16898
1.16914
1.16913
1.1691
1.16914
1.16917
1.16917
1.16923
1.1692
1.16931
1.16927
1.1694
1.16936
1.16951
1.16946
1.16963
1.16958
1.16981
1.16972
1.16998
1.17006
1.17003
1.17002
1.17003
1.16997
1.17003
1.17
1.17001
1.17006
1.17006
1.16881
1.16955
1.16975
1.16993
1.14831
1.15747
1.16686
1.16189
1.11649
1.12194
1.11976
1.13041
1.09883
1.09824
1.10029
1.09839
1.11021
1.10687
1.10365
1.10075
1.09092
1.09153
1.09126
1.09038
1.07666
1.07714
1.0774
1.07738
1.07771
1.07559
1.07777
1.0768
1.07006
1.07236
1.07618
1.07456
1.06712
1.06013
1.06796
1.07108
1.05944
1.06482
1.07549
1.05908
1.05984
1.06019
1.06107
1.11762
1.12528
1.09072
1.10555
1.16477
1.17203
1.17136
1.13364
1.1473
1.16669
1.16654
1.16654
1.16669
1.16672
1.16584
1.16238
1.15695
1.15497
1.15472
1.15573
1.15791
1.16147
1.16567
1.16748
1.16781
1.16802
1.16819
1.16836
1.16851
1.16863
1.16876
1.1689
1.16905
1.16918
1.16919
1.16915
1.16921
1.16923
1.16925
1.16933
1.16929
1.16942
1.16938
1.16952
1.16947
1.16962
1.16958
1.16975
1.16968
1.16993
1.16987
1.17009
1.1701
1.17006
1.17008
1.17011
1.17009
1.17008
1.17012
1.17002
1.17004
1.17009
1.17008
1.16816
1.16927
1.16955
1.16983
1.14204
1.15309
1.16555
1.159
1.10462
1.11097
1.10987
1.12203
1.08393
1.08383
1.0876
1.0849
1.08849
1.08708
1.08591
1.0846
1.07704
1.07667
1.07563
1.07448
1.07733
1.07726
1.07676
1.07564
1.09685
1.07843
1.0956
1.07887
1.07303
1.07469
1.09631
1.09659
1.07344
1.06484
1.07242
1.0731
1.06241
1.06531
1.07331
1.061
1.06284
1.06352
1.06334
1.11635
1.12472
1.08899
1.10351
1.16404
1.17169
1.17036
1.13357
1.14628
1.16655
1.1665
1.16659
1.16674
1.16644
1.16439
1.15957
1.15534
1.15434
1.15456
1.15621
1.15939
1.16369
1.16698
1.16767
1.16787
1.16805
1.16822
1.1684
1.16854
1.16866
1.16881
1.16896
1.16913
1.16924
1.16926
1.1692
1.16927
1.16928
1.16932
1.16941
1.16936
1.16951
1.16946
1.16961
1.16956
1.16973
1.16967
1.16995
1.16983
1.17007
1.17003
1.17013
1.17017
1.17014
1.17011
1.17014
1.17013
1.17013
1.17015
1.17
1.17005
1.17011
1.17008
1.16737
1.16886
1.16917
1.16956
1.13559
1.14865
1.16404
1.15613
1.09266
1.09992
1.09952
1.11294
1.07112
1.07146
1.07564
1.07276
1.07327
1.0722
1.07173
1.07136
1.07463
1.07377
1.07271
1.07154
1.09365
1.09133
1.09016
1.0884
1.11488
1.09493
1.11432
1.09393
1.09601
1.09606
1.1156
1.11559
1.09502
1.06732
1.09477
1.09437
1.0655
1.06634
1.07284
1.06505
1.06618
1.06735
1.06538
1.11537
1.12381
1.08628
1.10217
1.15977
0.939221
1.15652
1.13254
1.14271
1.16647
1.16652
1.1667
1.16667
1.16565
1.16209
1.15674
1.15437
1.15385
1.15487
1.15757
1.16173
1.16605
1.16744
1.16776
1.16792
1.16809
1.16825
1.16843
1.16857
1.1687
1.16885
1.16902
1.16923
1.16926
1.16932
1.16931
1.16933
1.16937
1.16938
1.16949
1.16943
1.16961
1.16955
1.16976
1.16969
1.16992
1.16984
1.17006
1.17
1.17013
1.17008
1.17019
1.17021
1.17017
1.17016
1.1702
1.17014
1.17015
1.17019
1.16988
1.16999
1.17007
1.16999
1.1664
1.16823
1.16844
1.16899
1.12845
1.1439
1.1622
1.15294
1.08094
1.08885
1.0886
1.10253
1.06697
1.06692
1.06911
1.06733
1.07038
1.06907
1.06785
1.06703
1.08762
1.08669
1.08603
1.0852
1.11068
1.1096
1.1077
1.10657
1.13728
1.11331
1.1369
1.11283
1.11599
1.11615
1.13786
1.13785
1.11535
1.09344
1.11557
1.11545
1.09203
1.06751
1.07271
1.0669
1.0917
1.09119
1.06701
1.11356
1.12218
1.0844
1.0993
1.14735
0.507391
1.09888
1.12979
1.13406
1.16646
1.16661
1.16672
1.1663
1.16405
1.15913
1.1548
1.15363
1.15395
1.15608
1.15992
1.16465
1.1671
1.16761
1.16783
1.16797
1.16813
1.1683
1.16846
1.1686
1.16873
1.16889
1.1691
1.16927
1.16929
1.16933
1.16937
1.16935
1.16942
1.16944
1.16948
1.1696
1.16953
1.16972
1.16966
1.16985
1.16979
1.16999
1.16993
1.17008
1.17005
1.17023
1.17019
1.17018
1.17016
1.17021
1.17024
1.17024
1.17025
1.17009
1.17016
1.17019
1.16953
1.16977
1.16992
1.16966
1.16488
1.16715
1.16692
1.16774
1.11973
1.13785
1.15943
1.14802
1.07204
1.0781
1.07827
1.09039
1.06667
1.0664
1.06715
1.06593
1.08455
1.08409
1.06981
1.06616