/*--------------------------------*- C++ -*----------------------------------*\
  =========                 |
  \\      /  F ield         | OpenFOAM: The Open Source CFD Toolbox
   \\    /   O peration     | Website:  https://openfoam.org
    \\  /    A nd           | Version:  dev
     \\/     M anipulation  |
\*---------------------------------------------------------------------------*/
FoamFile
{
    version     2.0;
    format      ascii;
    class       volScalarField;
    location    "2500";
    object      T;
}
// * * * * * * * * * * * * * * * * * * * * * * * * * * * * * * * * * * * * * //

dimensions      [0 0 0 1 0 0 0];

internalField   nonuniform List<scalar> 
9851
(
300.099
300.138
300.124
300.142
300.23
300.102
300.152
300.289
300.239
300.086
300.129
300.309
300.329
300.22
300.078
300.143
300.332
300.382
300.313
300.184
300.074
300.134
300.318
300.428
300.398
300.293
300.156
300.065
300.128
300.306
300.438
300.461
300.375
300.252
300.152
300.061
300.119
300.307
300.434
300.519
300.461
300.363
300.227
300.143
300.06
300.122
300.304
300.441
300.556
300.537
300.443
300.318
300.221
300.129
300.057
300.127
300.298
300.456
300.569
300.592
300.522
300.42
300.296
300.211
300.12
300.052
300.117
300.297
300.453
300.57
300.628
300.59
300.498
300.376
300.285
300.199
300.117
300.053
300.132
300.294
300.429
300.567
300.647
300.649
300.562
300.471
300.356
300.274
300.185
300.112
300.051
300.122
300.29
300.447
300.58
300.66
300.685
300.633
300.54
300.44
300.344
300.264
300.183
300.112
300.045
300.137
300.306
300.43
300.565
300.667
300.717
300.691
300.609
300.512
300.406
300.331
300.246
300.176
300.105
300.047
300.13
300.292
300.429
300.578
300.676
300.733
300.731
300.67
300.579
300.486
300.391
300.32
300.24
300.169
300.104
300.043
300.148
300.305
300.447
300.576
300.668
300.754
300.775
300.723
300.639
300.544
300.465
300.383
300.307
300.239
300.168
300.102
300.046
300.154
300.311
300.449
300.563
300.674
300.771
300.802
300.769
300.707
300.614
300.527
300.443
300.37
300.302
300.231
300.166
300.101
300.044
300.153
300.308
300.441
300.56
300.666
300.761
300.823
300.821
300.753
300.672
300.589
300.5
300.426
300.363
300.292
300.224
300.161
300.098
300.043
300.163
300.327
300.446
300.558
300.655
300.767
300.843
300.851
300.81
300.741
300.648
300.568
300.491
300.417
300.354
300.288
300.221
300.158
300.097
300.04
300.157
300.329
300.442
300.557
300.659
300.778
300.852
300.872
300.856
300.794
300.71
300.625
300.547
300.475
300.413
300.347
300.28
300.218
300.153
300.096
300.043
300.162
300.341
300.441
300.556
300.644
300.762
300.853
300.897
300.89
300.843
300.762
300.684
300.603
300.53
300.463
300.407
300.34
300.277
300.213
300.15
300.092
300.042
300.176
300.344
300.443
300.554
300.636
300.763
300.851
300.907
300.917
300.882
300.823
300.738
300.658
300.585
300.516
300.459
300.399
300.34
300.277
300.213
300.15
300.092
300.04
300.177
300.339
300.45
300.551
300.638
300.754
300.839
300.915
300.939
300.923
300.866
300.79
300.712
300.635
300.569
300.509
300.455
300.392
300.332
300.272
300.209
300.147
300.09
300.039
300.184
300.341
300.443
300.544
300.632
300.727
300.829
300.926
300.957
300.952
300.911
300.843
300.765
300.689
300.618
300.556
300.505
300.449
300.39
300.332
300.269
300.206
300.145
300.09
300.041
300.186
300.339
300.44
300.54
300.624
300.714
300.824
300.923
300.97
300.978
300.95
300.891
300.816
300.739
300.669
300.607
300.551
300.499
300.443
300.388
300.328
300.265
300.203
300.144
300.09
300.039
300.186
300.337
300.438
300.532
300.614
300.704
300.806
300.915
300.979
300.999
300.985
300.935
300.863
300.792
300.719
300.652
300.597
300.545
300.496
300.438
300.385
300.323
300.263
300.202
300.143
300.087
300.041
300.183
300.335
300.437
300.522
300.601
300.696
300.796
300.905
300.981
301.016
301.012
300.978
300.914
300.838
300.766
300.702
300.643
300.59
300.541
300.49
300.438
300.382
300.325
300.261
300.199
300.143
300.089
300.042
300.184
300.334
300.433
300.514
300.593
300.689
300.783
300.893
300.979
301.027
301.037
301.012
300.961
300.888
300.815
300.746
300.687
300.636
300.586
300.537
300.486
300.437
300.381
300.321
300.261
300.2
300.14
300.091
300.042
300.184
300.328
300.427
300.504
300.584
300.675
300.772
300.879
300.974
301.034
301.056
301.043
301.002
300.938
300.863
300.794
300.732
300.676
300.628
300.583
300.535
300.488
300.435
300.379
300.315
300.259
300.2
300.144
300.091
300.045
300.181
300.321
300.42
300.496
300.574
300.663
300.756
300.861
300.966
301.036
301.069
301.069
301.035
300.983
300.909
300.84
300.775
300.72
300.67
300.624
300.577
300.533
300.485
300.431
300.374
300.319
300.259
300.199
300.147
300.092
300.047
300.175
300.315
300.411
300.488
300.566
300.652
300.746
300.845
300.952
301.035
301.08
301.089
301.069
301.021
300.959
300.885
300.82
300.763
300.711
300.663
300.619
300.574
300.527
300.479
300.431
300.372
300.316
300.256
300.203
300.147
300.098
300.05
300.169
300.31
300.401
300.478
300.557
300.641
300.729
300.83
300.939
301.03
301.086
301.107
301.095
301.058
300.998
300.932
300.864
300.802
300.749
300.703
300.659
300.616
300.573
300.527
300.479
300.427
300.372
300.315
300.258
300.205
300.153
300.103
300.054
300.165
300.303
300.393
300.469
300.547
300.627
300.712
300.812
300.918
301.026
301.089
301.12
301.116
301.087
301.037
300.973
300.906
300.844
300.79
300.742
300.698
300.656
300.614
300.571
300.526
300.479
300.427
300.373
300.317
300.265
300.213
300.159
300.108
300.029
300.061
300.16
300.295
300.384
300.46
300.536
300.612
300.698
300.798
300.899
301.007
301.09
301.129
301.136
301.115
301.071
301.013
300.948
300.886
300.83
300.781
300.736
300.695
300.654
300.613
300.57
300.525
300.478
300.428
300.375
300.324
300.274
300.22
300.155
300.09
300.119
300.031
300.063
300.155
300.283
300.373
300.451
300.524
300.6
300.685
300.774
300.883
300.991
301.084
301.136
301.153
301.139
301.103
301.049
300.987
300.926
300.87
300.82
300.775
300.732
300.693
300.652
300.611
300.568
300.524
300.478
300.429
300.381
300.332
300.281
300.209
300.237
300.149
300.192
300.182
300.094
300.126
300.032
300.068
300.144
300.275
300.363
300.441
300.513
300.589
300.671
300.76
300.86
300.976
301.073
301.139
301.166
301.161
301.131
301.082
301.023
300.963
300.908
300.859
300.813
300.77
300.73
300.691
300.65
300.609
300.567
300.524
300.48
300.433
300.39
300.341
300.264
300.297
300.228
300.158
300.217
300.193
300.101
300.135
300.035
300.074
300.142
300.27
300.354
300.434
300.503
300.579
300.657
300.746
300.847
300.953
301.061
301.138
301.176
301.179
301.156
301.112
301.056
300.998
300.944
300.895
300.85
300.808
300.767
300.728
300.688
300.648
300.608
300.567
300.522
300.482
300.441
300.397
300.326
300.359
300.265
300.301
300.254
300.17
300.229
300.207
300.11
300.146
300.038
300.08
300.135
300.258
300.345
300.421
300.493
300.565
300.645
300.728
300.824
300.938
301.046
301.134
301.182
301.196
301.179
301.14
301.087
301.03
300.977
300.929
300.886
300.845
300.804
300.764
300.725
300.686
300.646
300.606
300.571
300.521
300.486
300.451
300.39
300.421
300.338
300.374
300.291
300.33
300.267
300.184
300.246
300.224
300.12
300.159
300.042
300.088
300.129
300.248
300.331
300.411
300.482
300.553
300.628
300.715
300.808
300.906
301.027
301.126
301.185
301.21
301.201
301.168
301.118
301.061
301.008
300.961
300.919
300.879
300.84
300.8
300.762
300.722
300.683
300.644
300.606
300.575
300.523
300.5
300.456
300.488
300.412
300.455
300.369
300.413
300.307
300.35
300.289
300.201
300.268
300.246
300.131
300.175
300.047
300.098
300.121
300.238
300.322
300.401
300.471
300.54
300.613
300.698
300.79
300.887
300.999
301.111
301.184
301.22
301.221
301.193
301.147
301.091
301.038
300.992
300.951
300.914
300.875
300.836
300.797
300.759
300.719
300.68
300.642
300.611
300.582
300.55
300.537
300.603
300.513
300.601
300.472
300.572
300.405
300.496
300.336
300.406
300.32
300.222
300.301
300.278
300.145
300.194
300.054
300.11
300.113
300.229
300.317
300.391
300.464
300.528
300.6
300.681
300.772
300.868
300.979
301.089
301.179
301.225
301.237
301.216
301.173
301.118
301.065
301.021
300.987
300.953
300.915
300.875
300.833
300.794
300.755
300.716
300.677
300.64
300.615
300.602
300.674
300.789
300.743
300.975
300.754
301.085
300.675
301.027
300.542
300.84
300.404
300.594
300.397
300.251
300.38
300.349
300.162
300.219
300.061
300.124
300.106
300.219
300.306
300.376
300.452
300.519
300.586
300.664
300.757
300.846
300.955
301.074
301.168
301.226
301.248
301.235
301.195
301.141
301.091
301.058
301.035
301.009
300.971
300.924
300.876
300.831
300.79
300.75
300.711
300.673
300.643
300.675
300.882
301.01
301.239
301.577
301.575
302.215
301.68
302.618
301.461
302.572
301.05
302.008
300.641
301.265
300.661
300.307
300.642
300.577
300.183
300.26
300.071
300.141
300.102
300.214
300.297
300.368
300.438
300.508
300.573
300.651
300.739
300.829
300.932
301.054
301.157
301.225
301.255
301.25
301.214
301.162
301.121
301.11
301.134
301.157
301.125
301.042
300.953
300.883
300.831
300.787
300.746
300.706
300.673
300.686
301.078
301.178
301.894
302.229
302.918
303.644
303.746
304.884
304.056
305.648
303.699
305.695
302.641
304.851
301.44
303.195
301.521
300.476
301.479
301.304
300.213
300.365
300.082
300.162
300.101
300.21
300.291
300.36
300.427
300.497
300.562
300.636
300.722
300.808
300.907
301.021
301.142
301.221
301.259
301.261
301.229
301.182
301.159
301.203
301.354
301.553
301.615
301.473
301.225
301.018
300.897
300.83
300.781
300.74
300.698
300.706
301.187
301.008
302.462
302.688
304.288
304.848
305.969
306.883
307.087
308.195
307.508
308.719
307.214
308.769
305.968
308.348
303.58
306.777
303.719
301.019
303.57
303.127
300.271
300.697
300.094
300.192
300.102
300.21
300.29
300.356
300.419
300.484
300.55
300.622
300.703
300.789
300.879
300.995
301.117
301.213
301.26
301.27
301.244
301.202
301.201
301.343
301.726
302.27
302.668
302.669
302.197
301.545
301.116
300.916
300.828
300.776
300.731
300.715
301.864
302.763
303.045
305.246
305.567
307.577
308.091
308.906
309.374
309.421
309.86
309.57
310.034
309.482
310.04
308.989
309.932
307.233
309.4
307.334
302.437
307.035
306.256
300.428
301.615
300.106
300.255
300.107
300.217
300.292
300.353
300.412
300.474
300.534
300.609
300.685
300.77
300.858
300.968
301.09
301.195
301.26
301.276
301.256
301.22
301.242
301.49
302.148
303.096
303.891
304.185
303.851
302.956
301.851
301.196
300.927
300.824
300.767
300.745
301.509
305.602
305.432
305.704
305.688
308.426
308.663
309.688
309.906
310.176
310.405
310.344
310.588
310.353
310.606
310.302
310.539
310.213
310.47
309.651
310.41
309.753
305.067
309.652
309.167
300.88
303.537
300.124
300.428
300.119
300.234
300.304
300.357
300.411
300.469
300.52
300.599
300.666
300.749
300.838
300.937
301.062
301.173
301.255
301.283
301.266
301.235
301.274
301.611
302.514
303.842
305.049
305.731
305.692
304.897
303.538
302.043
301.224
300.923
300.816
300.77
301.128
305.092
304.627
308.591
308.402
308.738
308.706
310.047
310.15
310.567
310.665
310.799
310.983
310.858
311.172
310.785
311.177
310.664
310.988
310.587
310.761
310.577
310.701
310.715
308.01
310.757
310.565
301.956
306.227
300.211
300.913
300.139
300.264
300.33
300.374
300.416
300.467
300.508
300.588
300.649
300.729
300.817
300.911
301.027
301.149
301.242
301.287
301.282
301.247
301.288
301.68
302.776
304.407
305.999
307.122
307.54
307.067
305.717
303.857
302.05
301.201
300.908
300.812
301.013
304.106
303.034
308.024
307.666
310.168
310.11
310.207
310.198
310.711
310.719
311.122
311.167
311.526
311.863
311.756
312.518
311.63
312.742
311.205
312.293
310.806
311.444
310.826
310.859
310.972
309.956
311.088
311.083
303.863
308.619
300.391
301.858
300.158
300.295
300.367
300.405
300.432
300.47
300.503
300.578
300.633
300.71
300.798
300.885
300.998
301.121
301.225
301.287
301.297
301.267
301.295
301.692
302.898
304.783
306.637
308.131
309.078
309.203
308.232
306.251
303.877
301.95
301.153
300.896
300.963
303.861
306.902
306.731
309.989
309.8
310.638
310.645
310.697
310.653
311.151
311.073
312.067
312.069
313.324
313.963
314.202
315.752
314.177
316.56
313.098
315.894
311.634
313.858
310.923
311.707
311.011
310.812
311.143
311.215
306.242
310.018
300.761
303.293
300.297
300.383
300.44
300.464
300.485
300.504
300.572
300.62
300.692
300.778
300.864
300.966
301.091
301.204
301.282
301.305
301.285
301.295
301.666
302.903
304.934
306.98
308.646
309.989
310.808
310.617
309.042
306.394
303.67
301.772
301.085
300.988
302.639
308.375
307.717
309.396
309.054
310.674
310.678
310.605
310.601
310.874
310.697
311.947
311.568
314.206
314.066
317.047
317.78
318.978
321.067
319.308
322.649
317.609
321.946
314.322
318.881
311.617
314.316
311.445
311.104
311.284
311.225
308.246
310.656
301.434
305.073
300.354
300.439
300.494
300.515
300.517
300.57
300.61
300.677
300.758
300.842
300.94
301.059
301.178
301.269
301.309
301.3
301.292
301.574
302.799
304.932
306.979
308.622
310.131
311.47
312.225
311.625
309.254
306.101
303.268
301.563
301.119
301.994
306.787
305.421
310.285
309.956
310.639
310.535
310.654
310.785
310.226
310.197
310.958
310.478
313.561
312.222
317.804
317.023
322.246
322.212
325.069
325.888
325.932
327.885
324.192
328.27
319.495
325.482
313.775
319.236
312.919
311.188
311.977
311.578
311.233
309.445
310.916
302.203
306.409
300.382
300.481
300.54
300.546
300.578
300.607
300.663
300.74
300.821
300.919
301.026
301.149
301.252
301.308
301.313
301.293
301.467
302.509
304.716
306.587
307.982
309.712
311.397
312.747
313.315
311.986
308.93
305.45
302.706
301.479
301.866
306.094
309.224
309.114
311.135
311.098
310.942
311.095
310.256
310.479
309.707
309.695
310.935
310.069
314.794
312.275
320.907
318.191
325.374
323.927
328.016
327.286
329.59
329.29
329.675
330.708
325.975
330.379
317.965
325.825
322.01
313.942
316.724
311.362
311.159
311.27
312.545
314.59
315.673
312.018
309.987
311.204
311.129
310.87
302.375
306.836
300.404
300.522
300.575
300.604
300.609
300.654
300.724
300.802
300.894
300.994
301.118
301.231
301.304
301.322
301.301
301.384
302.168
304.234
306.022
306.97
308.136
310.398
312.517
313.866
314.036
311.865
308.118
304.511
302.294
301.993
304.92
310.353
309.406
310.945
310.754
311.436
311.662
310.809
311.147
309.858
310.279
309.015
309.186
310.292
309.231
314.627
311.098
321.317
317.397
325.846
323.376
328.392
326.643
330.182
328.741
331.356
331.089
330.576
328.254
330.667
331.827
331.408
325.233
320.109
324.417
328.257
319.04
311.648
311.435
313.555
316.244
317.656
312.73
310.936
309.586
310.551
311.318
311.215
302.041
309.663
307.952
305.686
300.436
300.564
300.629
300.628
300.652
300.711
300.785
300.87
300.969
301.084
301.206
301.292
301.326
301.313
301.333
301.85
303.648
305.548
306.26
306.492
307.662
310.937
313.615
314.816
314.305
311.267
306.952
303.648
302.488
304.49
310.045
311.754
311.877
311.802
311.814
311.718
312.111
310.774
311.266
309.71
310.412
308.216
308.957
308.799
308.029
312.583
308.706
319.482
314.279
323.94
320.156
326.259
323.182
329.741
328.374
327.023
325.223
331.559
330.943
330.713
329.705
330.45
331.636
331.788
331.94
327.72
323.05
326.891
330.233
321.644
312.122
311.722
314.894
320
318.272
313.719
311.023
310.601
311.494
311.33
305.456
300.582
302.209
309.657
307.841
300.486
300.621
300.661
300.659
300.704
300.771
300.849
300.945
301.05
301.176
301.275
301.326
301.326
301.313
301.6
303.013
305.093
305.801
305.513
305.241
307.617
311.949
314.675
315.504
314.219
310.291
305.931
303.526
304.622
309.57
312.844
312.53
312.774
312.917
312.425
312.654
312.341
312.839
311.114
311.764
309.972
310.975
307.674
309.072
306.909
306.847
309.11
306.065
315.218
309.55
319.48
314.829
323.678
321.748
320.151
318.112
328.33
326.716
324.918
323.035
331.124
330.024
329.836
328.387
331.656
332.077
331.369
331.955
329.816
325.758
329.136
331.562
324.295
312.801
312.158
316.547
322.509
320.524
314.974
311.101
310.628
311.757
311.484
304.968
300.245
301.508
309.596
307.596
300.561
300.679
300.682
300.703
300.761
300.831
300.918
301.021
301.144
301.253
301.322
301.337
301.312
301.436
302.426
304.543
305.47
305.124
303.817
304.945
308.196
313.315
315.496
315.888
313.896
309.572
305.499
305.269
309.568
313.476
314.184
314.459
313.846
314.07
313.252
313.592
313.363
313.932
311.89
312.686
310.465
311.744
307.444
309.107
305.27
305.888
305.363
303.998
309.544
304.581
316.283
313.856
311.493
308.516
321.125
319.249
317.363
315.382
326.664
324.722
322.653
320.551
330.322
328.575
328.9
326.804
332.164
332.131
330.65
331.671
331.319
328.156
330.857
332.185
326.778
313.686
312.737
318.442
324.99
322.858
316.462
311.187
310.64
312.108
311.684
304.277
300.105
300.893
309.49
307.181
300.653
300.718
300.714
300.755
300.817
300.895
300.997
301.108
301.227
301.31
301.341
301.324
301.35
301.943
303.812
305.175
304.997
303.365
303.257
305.093
309.332
314.286
315.985
316.056
313.66
309.276
306.801
309.903
313.604
315.937
315.867
315.591
315.812
315.129
315.397
314.408
314.807
314.569
315.211
312.859
313.793
310.66
312.105
306.688
308.414
303.971
305.028
302.73
302.366
304.227
301.973
313.335
311.107
308.884
306.562
318.507
316.513
314.493
312.434
324.76
322.528
320.217
317.95
329.314
327.154
327.664
325.09
332.285
331.909
329.787
331.006
332.113
330.104
331.899
332.365
328.922
314.763
313.457
320.485
327.278
325.136
318.13
311.286
310.646
312.545
311.934
303.458
300.04
300.392
309.344
306.646
300.736
300.735
300.757
300.807
300.875
300.969
301.074
301.198
301.292
301.34
301.339
301.322
301.611
303.025
304.814
304.986
303.391
302.506
303.171
305.538
310.013
314.778
316.285
316.219
313.792
310.4
310.969
314.043
317.062
317.493
317.812
317.093
317.31
316.564
316.858
315.752
316.202
315.562
316.357
313.421
314.588
310.168
311.862
304.921
306.464
302.564
303.553
301.378
301.288
302.93
301.841
301.143
301.411
310.34
308.261
306.243
304.409
315.781
313.657
311.562
309.518
322.751
320.251
317.73
315.317
328.274
325.677
326.452
323.359
332.171
331.39
328.906
330.26
332.414
331.468
332.382
332.332
330.641
316.01
314.302
322.582
329.269
327.226
319.909
311.409
310.671
313.071
312.237
302.5
300.037
300.292
309.167
306.009
300.782
300.769
300.804
300.861
300.943
301.051
301.165
301.27
301.336
301.351
301.321
301.425
302.339
304.243
304.95
303.6
302.352
302.263
303.206
305.705
310.228
314.979
316.505
316.578
314.946
313.786
315.118
317.664
319.463
319.552
319.003
319.262
318.541
318.783
317.922
318.262
317
317.514
315.894
316.871
313.401
314.74
308.246
310.118
302.588
303.731
301.376
301.796
301.063
300.976
300.916
301.91
301.419
301.066
301.188
307.563
305.747
304.133
302.825
313.026
310.854
308.825
306.965
320.754
318.013
315.308
312.768
327.3
324.28
325.378
321.747
331.758
330.741
328.111
329.511
332.485
332.19
332.535
332.082
331.733
317.383
315.256
324.639
330.818
329.091
321.728
311.568
310.704
313.681
312.596
301.887
300.323
300.498
308.973
305.43
300.807
300.809
300.853
300.923
301.022
301.132
301.246
301.324
301.354
301.336
301.344
301.834
303.462
304.781
304.107
302.421
302.024
302.164
303.166
305.649
310.066
314.952
316.756
317.291
317.263
317.645
319.029
320.853
320.717
320.954
320.224
320.481
319.664
319.961
318.894
319.317
317.687
318.355
315.114
316.399
311.939
313.62
305.25
306.996
301.306
301.735
300.91
301.039
300.991
300.941
300.862
300.81
301.547
301.31
301.083
301.177
305.304
303.882
302.746
301.98
310.431
308.343
306.521
304.965
318.913
315.958
313.097
310.489
326.483
323.092
324.552
320.407
331.175
330.071
327.456
328.839
332.375
332.514
332.553
331.628
332.309
318.832
316.297
326.57
331.774
330.602
323.522
311.759
310.753
314.358
312.997
302.042
300.405
301.029
308.776
305.444
300.835
300.852
300.909
300.994
301.105
301.218
301.307
301.354
301.353
301.325
301.529
302.68
304.357
304.477
302.733
302.049
301.894
302.061
302.953
305.246
309.428
314.629
317.077
318.278
319.233
320.285
321.224
321.403
321.313
321.248
321.394
320.765
321.032
320.084
320.455
319.059
319.628
317.473
318.352
312.542
314.174
308.856
310.746
302.42
303.48
300.818
300.959
300.788
300.767
300.75
301.004
300.928
300.92
300.81
301.568
301.472
301.317
301.405
303.688
302.726
302.105
301.759
308.214
306.323
304.806
303.631
317.389
314.254
311.273
308.676
325.89
322.266
324.041
319.537
330.59
329.475
326.998
328.285
332.072
332.613
332.45
331.118
332.581
320.306
317.383
328.335
332.338
331.6
325.212
311.975
310.812
315.084
313.439
302.525
301.381
302.198
308.719
305.707
300.866
300.901
300.972
301.078
301.188
301.287
301.349
301.364
301.331
301.383
302.05
303.678
304.539
303.516
302.251
301.925
301.804
301.858
302.608
304.687
308.477
313.754
317.248
318.996
320.25
320.948
320.314
320.605
320.205
320.667
320.719
320.174
320.471
319.291
319.787
317.836
318.649
315.611
316.83
308.39
310.156
304.894
306.588
301.187
301.546
300.679
300.687
300.692
300.763
300.746
300.673
300.682
301.202
301.061
301.175
300.918
302.001
302.003
301.879
301.974
302.815
302.339
302.081
302.012
306.548
304.922
303.762
303.027
316.458
313.215
310.139
307.534
325.56
321.807
323.783
319.146
330.061
329
326.761
327.916
331.663
332.604
332.27
330.676
332.723
321.754
318.49
329.808
332.67
332.205
326.743
312.216
310.881
315.849
313.914
303.556
302.013
303.175
308.8
306.287
300.904
300.958
301.048
301.161
301.265
301.338
301.368
301.351
301.334
301.642
302.898
304.382
304.13
302.815
302.154
301.86
301.657
301.618
302.286
304.044
307.27
311.99
316.22
318.482
319.198
318.221
316.347
315.168
317.979
317.253
318.398
318.332
317.872
318.224
316.696
317.376
314.707
315.808
311.864
313.393
303.978
305.396
302.071
302.846
300.747
300.849
300.641
300.645
300.618
300.621
300.764
300.709
300.649
300.673
301.702
301.452
301.766
301.279
302.861
302.931
302.863
302.944
302.659
302.573
302.609
302.737
305.552
304.203
303.419
303.178
316.104
312.847
309.719
307.123
325.392
321.61
323.725
319.039
329.695
328.717
326.678
327.719
331.271
332.617
332.02
330.356
332.812
323.164
319.619
330.962
332.858
332.58
328.204
312.465
310.981
316.65
314.414
304.636
301.426
303.128
309.031
306.93
300.951
301.024
301.137
301.239
301.323
301.367
301.367
301.331
301.431
302.214
303.8
304.322
303.544
302.671
302.18
301.761
301.466
301.431
301.984
303.309
305.781
309.107
312.273
313.748
312.805
308.944
311.018
309.447
313.26
312.289
314.095
313.858
313.672
313.999
312.2
313.057
309.882
311.126
306.945
308.496
301.626
302.151
301.003
301.248
300.636
300.643
300.646
300.624
300.618
300.598
300.596
300.888
300.732
300.643
300.696
302.622
302.24
302.796
301.998
304.204
304.363
304.367
304.406
303.181
303.298
303.627
303.905
305.327
304.25
303.918
303.907
316.134
313.063
310.11
307.634
325.473
321.762
324.081
319.493
329.504
328.695
326.969
327.871
331.076
332.608
331.875
330.335
332.859
324.519
320.761
331.659
332.947
332.768
329.44
312.744
311.157
317.524
314.98
305.11
300.463
302.229
309.334
307.449
301.008
301.106
301.214
301.305
301.363
301.378
301.346
301.349
301.742
303.022
304.251
304.078
303.262
302.705
302.196
301.608
301.301
301.304
301.673
302.568
304.115
305.868
307.014
306.606
304.478
302.082
305.569
304.549
307.501
306.622
308.415
308.114
308.135
308.385
306.758
307.567
304.742
305.787
302.838
303.701
300.838
300.978
300.683
300.742
300.598
300.614
300.596
300.593
300.615
300.601
300.58
300.584
301.264
300.844
300.657
300.786
304.056
303.516
304.324
303.164
306.102
306.388
306.429
306.468
304.187
304.639
305.161
305.664
305.923
305.16
305.049
305.22
316.93
314.192
311.515
309.217
326.005
322.478
324.949
320.642
329.63
328.924
327.51
328.217
331.084
332.588
331.809
330.423
332.882
325.844
322.023
332.067
332.939
332.791
330.449
313.035
311.372
318.459
315.514
304.884
300.091
301.005
309.672
307.603
301.08
301.196
301.285
301.353
301.382
301.367
301.334
301.483
302.324
303.85
304.241
303.83
303.229
302.757
302.125
301.423
301.187
301.196
301.406
301.886
302.505
302.975
302.844
302.038
301.229
300.92
301.823
300.909
302.114
302.973
302.571
303.413
303.27
303.247
303.378
302.595
302.96
301.798
302.188
301.178
301.454
300.641
300.676
300.598
300.611
300.584
300.584
300.573
300.567
300.619
300.589
300.565
300.559
302.013
301.115
300.713
300.978
306.05
305.327
306.297
304.739
308.644
309.011
309.048
309.109
305.813
306.56
307.34
308.056
307.587
306.937
306.926
307.442
318.576
316.361
314.155
312.201
326.809
323.786
326.11
322.509
329.77
329.111
327.876
328.476
331.086
332.47
331.69
330.398
332.819
327.256
323.253
332.243
332.846
332.66
330.976
313.38
311.608
319.353
316.166
304.033
300.037
300.465
309.927
307.45
301.168
301.265
301.341
301.382
301.383
301.341
301.371
301.822
303.095
304.181
304.189
303.738
303.276
302.732
301.886
301.252
301.123
301.113
301.19
301.322
301.44
301.389
301.142
300.921
300.81
300.938
300.782
300.786
300.989
301.173
301.082
301.276
301.244
301.223
301.26
301.051
301.146
300.861
300.949
300.717
300.783
300.581
300.601
300.563
300.563
300.565
300.561
300.567
300.561
300.557
300.649
300.586
300.56
300.546
303.116
301.719
300.837
301.318
308.54
307.607
308.604
306.629
311.819
312.19
312.148
312.27
308.277
309.248
310.226
311.112
310.753
310.124
310.14
310.742
321.113
319.632
318.127
316.753
327.338
325.415
326.875
324.74
329.72
329.027
327.723
328.364
330.893
332.295
331.352
330.052
332.619
328.425
324.458
332.13
332.529
332.287
331.164
313.693
311.863
320.398
316.685
302.848
300.023
300.259
310.06
307.037
301.253
301.325
301.379
301.393
301.365
301.341
301.531
302.399
303.839
304.266
304.145
303.755
303.276
302.508
301.556
301.155
301.081
301.05
301.041
301.037
301.002
300.927
300.859
300.81
300.772
300.779
300.753
300.762
300.78
300.789
300.784
300.786
300.79
300.76
300.773
300.715
300.739
300.67
300.689
300.616
300.643
300.544
300.56
300.55
300.555
300.543
300.541
300.542
300.547
300.537
300.527
300.717
300.602
300.566
300.541
304.528
302.636
301.042
301.882
311.448
310.254
311.107
308.683
315.51
315.812
315.542
315.86
311.699
312.779
313.849
314.799
315.694
315.153
315.167
315.483
324.09
323.458
322.828
322.249
327.102
326.475
326.648
326.156
329.125
328.038
326.723
327.287
330.286
331.888
330.518
329.06
332.086
329.234
325.695
331.829
331.769
331.564
330.96
314.05
312.071
321.112
317.261
302.147
300.014
300.172
310.031
306.488
301.313
301.372
301.398
301.386
301.342
301.396
301.884
303.13
304.191
304.347
304.157
303.759
303.087
302.12
301.281
301.106
301.048
301.007
300.972
300.935
300.894
300.856
300.821
300.784
300.742
300.747
300.754
300.745
300.736
300.738
300.722
300.73
300.702
300.713
300.679
300.689
300.651
300.664
300.623
300.635
300.575
300.598
300.533
300.513
300.519
300.523
300.521
300.536
300.521
300.528
300.525
300.514
300.514
300.83
300.644
300.592
300.547
306.096
303.72
301.324
302.586
314.631
313.136
313.734
310.842
319.563
319.731
319.152
319.688
316.356
317.289
318.194
319.016
321.8
321.627
321.706
321.96
325.93
325.792
325.718
325.725
325.532
326.208
325.519
325.844
327.827
327.126
325.968
326.459
328.708
330.854
328.435
327.495
331.059
329.468
326.296
331.192
330.93
330.823
330.587
314.316
312.228
321.862
317.659
301.853
300.018
300.187
309.975
306.358
301.359
301.399
301.399
301.361
301.351
301.576
302.456
303.847
304.361
304.425
304.165
303.604
302.692
301.622
301.164
301.08
301.027
300.982
300.94
300.901
300.871
300.84
300.804
300.765
300.733
300.729
300.741
300.726
300.722
300.717
300.696
300.706
300.673
300.685
300.649
300.66
300.623
300.633
300.59
300.609
300.545
300.56
300.506
300.503
300.512
300.506
300.5
300.504
300.509
300.499
300.525
300.517
300.504
300.507
300.994
300.712
300.642
300.573
307.74
304.853
301.656
303.327
317.934
316.16
316.465
313.114
323.839
323.873
322.783
323.563
322.507
322.917
323.259
323.644
325.828
325.938
326.247
326.59
325.683
325.705
325.858
326.201
319.802
325.326
320.174
325.2
326.901
326.401
319.961
319.87
326.758
329.383
327.057
326.865
330.129
329.31
326.923
330.588
329.991
329.78
329.879
314.665
312.378
322.353
318.226
302.038
300.102
300.439
309.992
306.625
301.395
301.409
301.385
301.346
301.423
301.944
303.174
304.264
304.524
304.468
304.043
303.225
302.126
301.289
301.115
301.063
301.018
300.974
300.93
300.894
300.863
300.827
300.789
300.744
300.718
300.712
300.727
300.711
300.708
300.699
300.675
300.687
300.651
300.663
300.626
300.639
300.595
300.61
300.541
300.571
300.508
300.519
300.494
300.484
300.492
300.499
300.492
300.495
300.494
300.489
300.529
300.517
300.5
300.507
301.192
300.816
300.737
300.639
309.454
306.007
302.039
304.066
321.329
319.26
319.374
315.612
327.602
327.507
326.273
327.124
326.951
327.272
327.413
327.528
326.506
326.768
327.088
327.439
320.751
321.441
321.786
322.309
314.608
320.372
314.767
320.673
320.031
320.021
314.402
314.404
320.31
328.609
320.378
320.509
329.167
328.973
327.051
329.318
328.953
328.594
329.238
314.935
312.626
323.125
318.602
303.129
372.875
303.965
310.267
307.563
301.415
301.402
301.356
301.364
301.623
302.529
303.903
304.514
304.649
304.388
303.693
302.625
301.526
301.174
301.091
301.05
301.009
300.966
300.922
300.888
300.854
300.816
300.773
300.719
300.711
300.697
300.698
300.696
300.685
300.683
300.656
300.67
300.625
300.641
300.586
300.605
300.547
300.567
300.513
300.527
300.494
300.507
300.479
300.475
300.483
300.487
300.477
300.493
300.489
300.48
300.558
300.53
300.509
300.529
301.437
300.975
300.921
300.783
311.368
307.252
302.509
304.892
324.721
322.425
322.494
318.523
328.832
328.85
328.203
328.735
327.788
328.185
328.553
328.811
322.538
322.814
323.006
323.249
315.801
316.109
316.652
316.974
308.394
315.052
308.497
315.191
314.286
314.244
308.236
308.239
314.464
320.764
314.397
314.437
321.175
328.615
327.072
328.747
321.269
321.417
328.746
315.43
313.067
323.663
319.403
306.344
677.954
319.604
311.006
309.859
301.419
301.38
301.352
301.456
302.027
303.286
304.402
304.708
304.626
304.075
303.087
301.881
301.26
301.131
301.074
301.037
300.998
300.956
300.913
300.88
300.845
300.805
300.753
300.708
300.704
300.695
300.683
300.688
300.671
300.668
300.658
300.628
300.644
300.596
300.612
300.563
300.58
300.528
300.544
300.505
300.514
300.468
300.478
300.48
300.485
300.474
300.466
300.466
300.464
300.504
300.487
300.48
300.645
300.586
300.548
300.614
301.824
301.249
301.305
301.099
313.74
308.852
303.217
306.173
327.337
325.55
325.491
321.98
328.903
328.99
328.777
329.143
323.439
323.572
327.928
329.064
317.175
317.413
317.592
317.76