/*--------------------------------*- C++ -*----------------------------------*\
  =========                 |
  \\      /  F ield         | OpenFOAM: The Open Source CFD Toolbox
   \\    /   O peration     | Website:  https://openfoam.org
    \\  /    A nd           | Version:  dev
     \\/     M anipulation  |
\*---------------------------------------------------------------------------*/
FoamFile
{
    version     2.0;
    format      ascii;
    class       volVectorField;
    location    "2500";
    object      U;
}
// * * * * * * * * * * * * * * * * * * * * * * * * * * * * * * * * * * * * * //

dimensions      [0 1 -1 0 0 0 0];

internalField   nonuniform List<vector> 
9851
(
(0.00516616 0.00783715 0)
(0.0125447 0.00711208 0)
(0.00506474 0.0209109 5.63783e-27)
(0.017638 0.00610411 -6.39214e-28)
(0.0135358 0.0214845 -6.43653e-27)
(0.00430404 0.0302018 6.85292e-27)
(0.0216925 0.00521774 -6.31649e-28)
(0.0193471 0.0212884 0)
(0.0127003 0.0315857 -1.56828e-26)
(0.00353553 0.0377987 0)
(0.0248428 0.00454238 0)
(0.0234245 0.0199187 -2.16788e-27)
(0.0195018 0.0328709 0)
(0.010977 0.0390766 -8.63953e-27)
(0.00305317 0.0443757 -1.63264e-27)
(0.0272134 0.00396088 0)
(0.0263082 0.0178407 -2.26314e-27)
(0.0247129 0.0332891 0)
(0.0180343 0.0410384 0)
(0.00936465 0.0453271 -4.35098e-27)
(0.00271771 0.0502423 1.81784e-27)
(0.0291177 0.00347084 0)
(0.0284264 0.0156823 0)
(0.0284293 0.0325949 2.87372e-27)
(0.0240479 0.0428885 0)
(0.0158113 0.0471195 -7.6887e-27)
(0.00825276 0.0509468 -9.31274e-27)
(0.00244834 0.0554971 5.94014e-27)
(0.0306324 0.00306814 0)
(0.030115 0.0137561 1.64083e-28)
(0.0308987 0.0310337 2.96122e-27)
(0.0288328 0.0439876 0)
(0.0219714 0.0494735 0)
(0.0138158 0.05227 -7.90793e-27)
(0.0074509 0.0561099 3.27637e-27)
(0.00222023 0.0603026 2.53906e-27)
(0.0317466 0.00276743 0)
(0.0314065 0.0122176 -9.39324e-29)
(0.0323973 0.0288944 -2.79032e-27)
(0.0323242 0.0440801 0)
(0.0274295 0.0517941 2.09712e-27)
(0.0194299 0.0544042 -1.60621e-27)
(0.0123371 0.0570751 5.87844e-27)
(0.00676613 0.0608543 2.88068e-27)
(0.0020313 0.064735 0)
(0.0324739 0.00255635 -2.04069e-28)
(0.0323178 0.0110947 5.95879e-29)
(0.0332522 0.0265852 -3.36807e-27)
(0.0345546 0.0431661 -3.99555e-28)
(0.0318746 0.0535008 2.26685e-27)
(0.0248828 0.0570319 -5.01886e-27)
(0.0172312 0.0586748 -3.66257e-27)
(0.0112222 0.0616221 1.26827e-27)
(0.00620268 0.0652211 6.27762e-27)
(0.0018811 0.0688232 0)
(0.032831 0.00239786 0)
(0.0328993 0.0103177 -2.16929e-28)
(0.0337589 0.0243878 4.57659e-36)
(0.035763 0.0414529 0)
(0.0351926 0.0543349 -2.39764e-27)
(0.0298464 0.0596692 -3.70766e-27)
(0.0221855 0.060955 -3.68402e-27)
(0.0155693 0.0628265 -1.74221e-27)
(0.0103145 0.06581 9.23404e-27)
(0.00575147 0.0692622 0)
(0.00176244 0.0726579 -1.7177e-27)
(0.0328546 0.00227801 -2.44257e-28)
(0.0331896 0.00974515 0)
(0.0340066 0.0224271 2.85685e-27)
(0.0362662 0.0391927 -1.59318e-27)
(0.0373881 0.0540426 -2.04768e-27)
(0.0340653 0.061877 -8.48456e-28)
(0.0270441 0.0636667 -2.02998e-28)
(0.0199396 0.0645595 -3.79241e-28)
(0.0143029 0.0667771 -6.40348e-27)
(0.00956051 0.0697235 -2.9748e-27)
(0.00538211 0.0730642 0)
(0.00166341 0.0763239 5.53655e-31)
(0.0325379 0.0021985 0)
(0.0331248 0.00932924 -2.5239e-28)
(0.0339811 0.0208157 2.99075e-27)
(0.0362655 0.0366681 -1.7912e-27)
(0.0385707 0.0528166 0)
(0.0373388 0.0633109 0)
(0.031601 0.0664617 -8.60838e-28)
(0.024364 0.0668146 0)
(0.0182207 0.0681519 -4.30798e-27)
(0.0132586 0.0705152 -7.90463e-27)
(0.00893678 0.0734098 -4.39624e-27)
(0.00507943 0.0767164 -6.72527e-27)
(0.0015732 0.0798077 -4.48191e-27)
(0.0318746 0.00214874 0)
(0.0327139 0.00908805 0)
(0.0336792 0.0195777 0)
(0.0359113 0.0341422 2.49957e-28)
(0.0389777 0.0508723 0)
(0.0395841 0.0636797 3.18547e-27)
(0.0356306 0.0690596 1.81666e-27)
(0.0287085 0.0694704 0)
(0.0221644 0.069923 0)
(0.0168664 0.0716431 0)
(0.0123917 0.074035 -6.6946e-27)
(0.00843458 0.0769595 -1.23353e-26)
(0.00482188 0.0802018 -7.21633e-27)
(0.00150133 0.083116 9.88567e-27)
(0.0309358 0.00213081 0)
(0.0320032 0.00895214 -2.83332e-28)
(0.0330862 0.0186015 0)
(0.0352798 0.0317802 -3.4003e-27)
(0.0387456 0.0484251 0)
(0.0407892 0.0630145 4.25291e-27)
(0.0388545 0.0709663 1.90524e-27)
(0.0328876 0.0723338 1.83248e-27)
(0.0261151 0.0721102 2.23213e-27)
(0.0204512 0.0730284 0)
(0.0157821 0.0749545 0)
(0.0116993 0.0774216 -4.24166e-27)
(0.00803272 0.0803672 3.93856e-27)
(0.0046128 0.0834934 9.6544e-27)
(0.00144022 0.0863546 0)
(0.0297494 0.0021631 0)
(0.0309708 0.00888776 0)
(0.0322242 0.0178628 -5.63769e-28)
(0.0343811 0.0297398 -3.26782e-27)
(0.0379546 0.0457012 0)
(0.0411878 0.0616049 4.54877e-27)
(0.0411681 0.0720393 2.00013e-27)
(0.036692 0.0750777 1.93326e-27)
(0.0300348 0.0746357 2.3483e-27)
(0.0240459 0.0747171 -8.60986e-28)
(0.0191092 0.0760804 0)
(0.0149053 0.0781696 0)
(0.0111488 0.0807056 4.43491e-27)
(0.0076931 0.0836141 1.11345e-27)
(0.00442863 0.0867533 9.83548e-28)
(0.00137984 0.0894657 0)
(0.02829 0.00225746 0)
(0.0296504 0.00895586 -3.0502e-28)
(0.0311002 0.0173534 0)
(0.0332313 0.0280192 -2.83329e-28)
(0.036777 0.0428897 0)
(0.0408695 0.0594749 8.96691e-27)
(0.042411 0.0719141 0)
(0.039843 0.0773895 0)
(0.0338553 0.0774284 9.74958e-28)
(0.027618 0.0767379 0)
(0.0224145 0.0774379 -2.95583e-35)
(0.0180334 0.0790935 0)
(0.0141872 0.0813151 1.3713e-27)
(0.0106727 0.0839111 4.64264e-27)
(0.00738825 0.0868408 1.08025e-27)
(0.0042411 0.0898829 0)
(0.001318 0.0924989 -9.27011e-27)
(0.0265918 0.00240924 0)
(0.0280978 0.00913179 0)
(0.0297044 0.0169338 -5.98712e-28)
(0.0318942 0.0265526 -2.92072e-28)
(0.0353655 0.0401543 0)
(0.0398789 0.0567984 4.36359e-27)
(0.0427849 0.0710544 0)
(0.0421442 0.0789393 -6.08427e-27)
(0.0373761 0.0801869 0)
(0.0311555 0.0791106 -1.51586e-27)
(0.0257056 0.0790429 -1.19728e-27)
(0.021125 0.0801588 3.2795e-27)
(0.0171768 0.0820666 -4.89426e-27)
(0.0135878 0.08446 7.54433e-27)
(0.0102544 0.0870541 0)
(0.00710629 0.08997 1.04222e-27)
(0.00404846 0.0929415 2.31391e-28)
(0.00125459 0.0954049 3.76293e-28)
(0.0247028 0.00261373 -9.76362e-27)
(0.0263454 0.00933535 1.26428e-27)
(0.0281027 0.016542 -6.0881e-28)
(0.0304045 0.0253306 -2.9968e-28)
(0.03376 0.0376087 3.14114e-27)
(0.0384052 0.0538113 3.89213e-27)
(0.0425789 0.0694447 -2.80112e-28)
(0.04354 0.07944 -6.68626e-42)
(0.0404069 0.0826855 -1.07155e-27)
(0.0346083 0.0816958 -5.32179e-28)
(0.0289574 0.0809039 4.17706e-27)
(0.0242077 0.0813986 -5.06709e-28)
(0.0201299 0.0829082 -7.65202e-27)
(0.0164851 0.0850909 7.23224e-28)
(0.0130809 0.0875184 -1.26293e-31)
(0.00989217 0.0901458 0)
(0.00682475 0.0930344 1.08051e-26)
(0.00384979 0.0958723 2.21529e-28)
(0.0011825 0.0982053 -9.26676e-27)
(0.0226482 0.00283707 -1.99107e-26)
(0.024415 0.00953034 -1.00996e-26)
(0.0263219 0.0162082 -2.3559e-27)
(0.0287278 0.0242942 4.38356e-27)
(0.0319767 0.0353168 3.80569e-27)
(0.0366327 0.0507056 3.97389e-27)
(0.0415813 0.0670042 -5.81278e-28)
(0.0438958 0.0790532 4.73327e-27)
(0.0426451 0.0845104 2.79313e-28)
(0.037838 0.0844158 0)
(0.0321533 0.0830047 2.65003e-27)
(0.0272499 0.0828456 -1.32579e-27)
(0.0230491 0.0838747 -2.65468e-27)
(0.0193524 0.0857501 0)
(0.0159093 0.0880664 6.96284e-28)
(0.0126438 0.0905668 4.02831e-27)
(0.00954455 0.0931968 5.14007e-27)
(0.00651202 0.0960091 -3.13303e-27)
(0.00362405 0.0987145 -9.9879e-27)
(0.00109468 0.10085 0)
(0.0204868 0.00306613 -2.3807e-28)
(0.0223536 0.0097186 -1.99367e-26)
(0.0243784 0.0159156 -3.29721e-27)
(0.0268689 0.0233922 4.61212e-27)
(0.0300671 0.0333168 -2.45372e-27)
(0.0346383 0.0476048 1.21731e-27)
(0.0399874 0.0640407 0)
(0.0438114 0.0779974 -5.82392e-28)
(0.0441685 0.0856245 0)
(0.0406426 0.086865 2.84858e-28)
(0.0352684 0.0853298 0)
(0.0302306 0.0844842 -2.0514e-27)
(0.0259403 0.0849789 1.87798e-27)
(0.0221846 0.0864692 -3.39131e-27)
(0.0187306 0.0886186 -4.27142e-27)
(0.0154165 0.0910661 4.83293e-27)
(0.012235 0.0936143 5.42648e-27)
(0.00915761 0.0962107 4.05649e-27)
(0.00615106 0.0988941 -5.11663e-27)
(0.00335361 0.101406 2.88911e-28)
(0.000986354 0.103338 -9.70238e-27)
(0.0182575 0.00333289 -2.4456e-28)
(0.0201831 0.00988412 -9.7271e-27)
(0.022305 0.0156532 0)
(0.0248716 0.0226047 0)
(0.0280335 0.0315839 4.94347e-27)
(0.0324613 0.0446059 -4.95147e-27)
(0.0380229 0.0607565 6.12997e-28)
(0.0430245 0.0759819 0)
(0.0447125 0.0855314 -2.94443e-28)
(0.0428883 0.0889534 0)
(0.038195 0.087716 -5.48256e-27)
(0.0331664 0.0862636 1.09531e-27)
(0.0288034 0.0861871 0)
(0.0250013 0.0872507 1.83586e-27)
(0.021547 0.089186 -9.44024e-27)
(0.0182156 0.0915528 -1.45007e-27)
(0.014959 0.0941169 7.10194e-32)
(0.0117932 0.0966843 5.58931e-27)
(0.00869568 0.0991401 -1.63601e-27)
(0.00572033 0.101674 5.17147e-31)
(0.00301839 0.103955 -1.0099e-26)
(0.000849241 0.105591 0)
(0.0159822 0.00364115 -1.84716e-26)
(0.017913 0.0100127 0)
(0.0201294 0.0154476 -9.50302e-27)
(0.0227371 0.0219193 -3.79478e-27)
(0.0258605 0.0300945 -6.07733e-27)
(0.0301284 0.041849 3.62033e-27)
(0.0357651 0.0573067 -2.50375e-27)
(0.041444 0.0731789 4.51805e-27)
(0.0446862 0.0848891 4.88977e-27)
(0.0445199 0.0902019 -6.18039e-28)
(0.0407917 0.0900226 -4.88e-27)
(0.0359979 0.0881753 -5.84521e-28)
(0.031621 0.0874603 1.09156e-27)
(0.0278091 0.0880802 0)
(0.0243657 0.0897529 0)
(0.0210493 0.0920295 -3.16097e-27)
(0.0177497 0.0945906 0)
(0.0144836 0.0972456 1.65142e-35)
(0.0112678 0.0997024 -1.99829e-27)
(0.00812858 0.102014 -2.09762e-27)
(0.00518373 0.104334 6.65937e-27)
(0.00259455 0.106277 -9.98946e-27)
(0.000678532 0.107557 -9.50127e-27)
(0.0137125 0.00394438 0)
(0.0156136 0.0101185 -1.77423e-26)
(0.0178859 0.0152965 0)
(0.0204903 0.021325 2.69611e-27)
(0.0235851 0.0288291 1.47244e-30)
(0.0276671 0.0393637 -9.45606e-27)
(0.0332515 0.0538256 1.21467e-26)
(0.0393774 0.0699545 4.25211e-27)
(0.0441359 0.0835242 3.46505e-27)
(0.0452265 0.0906636 0)
(0.0431039 0.0920204 -6.40114e-28)
(0.0386624 0.0901394 1.24392e-27)
(0.0343517 0.0888327 -5.87955e-28)
(0.0305703 0.0889352 -1.08202e-27)
(0.0271747 0.0902911 0)
(0.02392 0.0924689 0)
(0.020625 0.0950207 3.00916e-27)
(0.0172857 0.0977481 -1.28724e-27)
(0.0139429 0.100376 -5.4067e-28)
(0.0106167 0.102711 -7.65483e-27)
(0.00741838 0.104797 8.51508e-27)
(0.00450525 0.106811 -1.05367e-26)
(0.00205632 0.108322 -1.00195e-26)
(0.000451674 0.109163 0)
(0.0114883 0.00420782 1.47773e-28)
(0.0133629 0.0102208 0)
(0.0156044 0.0151648 0)
(0.0181945 0.0208037 6.1473e-27)
(0.0212512 0.0277104 1.33566e-26)
(0.0251274 0.0371493 2.4772e-27)
(0.0305141 0.0504554 -5.09313e-27)
(0.036917 0.066501 0)
(0.0425832 0.0810935 0)
(0.0452237 0.0902934 -4.77975e-27)
(0.0445606 0.0934271 6.63797e-27)
(0.0410978 0.0920733 4.28024e-27)
(0.036946 0.0902592 1.26121e-27)
(0.0332574 0.0898196 0)
(0.0299446 0.0907832 5.27561e-27)
(0.0268033 0.092824 0)
(0.0235868 0.0953968 1.65092e-27)
(0.0202229 0.0981839 2.82066e-27)
(0.0167672 0.100987 -2.13839e-34)
(0.0132587 0.103563 9.71135e-28)
(0.0097818 0.10567 1.56533e-27)
(0.00652419 0.107445 5.60176e-27)
(0.00365294 0.109042 -4.35591e-27)
(0.00138572 0.110018 -5.9058e-28)
(0.00024035 0.110434 1.05564e-28)
(0.00933699 0.00442102 -1.41633e-26)
(0.0111883 0.0103179 0)
(0.0133381 0.0150598 0)
(0.0158762 0.0203548 8.68598e-27)
(0.0188715 0.0266973 9.23441e-27)
(0.0225679 0.0352494 0)
(0.027638 0.047342 -8.64302e-27)
(0.0340854 0.0629184 -2.59094e-27)
(0.040419 0.0781379 -1.05063e-26)
(0.0447466 0.0894059 -1.05855e-30)
(0.0453478 0.0942636 1.26533e-26)
(0.0431662 0.0938953 8.25587e-27)
(0.0393728 0.0917339 -2.70762e-27)
(0.0358194 0.0906868 6.37723e-28)
(0.0326513 0.0912233 7.63184e-27)
(0.0296674 0.0930473 2.09012e-27)
(0.0266038 0.0956492 0)
(0.0233047 0.0985528 1.55973e-27)
(0.0197753 0.101521 0)
(0.0161025 0.104364 2.12206e-27)
(0.0123597 0.106756 7.20429e-27)
(0.00871578 0.108533 7.34948e-27)
(0.00540183 0.109887 -3.69685e-27)
(0.00260117 0.110975 6.29702e-28)
(0.000519812 0.111213 -2.31091e-28)
(-9.1402e-05 0.111198 -5.49943e-29)
(0.00732439 0.00457557 0)
(0.00910213 0.0103955 -1.40612e-26)
(0.011149 0.0150104 0)
(0.0135557 0.0199823 8.1089e-27)
(0.0164529 0.0258129 8.15683e-31)
(0.019997 0.0336658 -3.58114e-27)
(0.0246991 0.0445511 -4.77501e-27)
(0.0310026 0.0593104 -4.92322e-27)
(0.0377732 0.0748333 -1.28152e-26)
(0.0433108 0.0876084 -6.49525e-27)
(0.0453752 0.0941453 9.18327e-27)
(0.0445471 0.0952294 1.4455e-27)
(0.0414846 0.0931907 8.56763e-27)
(0.0382007 0.0915555 -2.76486e-27)
(0.0352549 0.0916132 0)
(0.0324815 0.0931383 1.15665e-27)
(0.0296391 0.0957186 -1.05971e-34)
(0.0264975 0.0987739 0)
(0.0229948 0.101973 0)
(0.0191941 0.105069 -1.7475e-27)
(0.0152138 0.10782 8.61455e-27)
(0.0111855 0.109912 0)
(0.00735624 0.11126 0)
(0.0039998 0.112093 4.04395e-27)
(0.00127796 0.112525 0)
(-0.000334325 0.111877 1.47386e-28)
(-0.000439313 0.111149 0)
(0.00550397 0.00468895 -5.27977e-27)
(0.00714077 0.0104558 -8.28823e-28)
(0.00906512 0.0150137 0)
(0.0112977 0.0196854 0)
(0.0140169 0.025083 7.0978e-27)
(0.0173982 0.0323605 -1.18774e-26)
(0.02175 0.0421475 0)
(0.027742 0.0558272 -5.30463e-27)
(0.0347076 0.071337 -5.3191e-27)
(0.0409777 0.0849744 -3.92203e-31)
(0.0449565 0.0935919 -6.81935e-27)
(0.0452198 0.095947 4.82092e-27)
(0.0433599 0.0946295 1.0797e-26)
(0.0403197 0.0924083 7.47059e-32)
(0.0377002 0.0919177 -1.4002e-27)
(0.0352217 0.0930411 0)
(0.0326745 0.0955397 0)
(0.0297748 0.0987539 -1.9576e-27)
(0.0264094 0.102247 0)
(0.0225711 0.105679 -1.86533e-27)
(0.0183891 0.108804 0)
(0.0140065 0.111332 2.68193e-27)
(0.00964885 0.113024 0)
(0.00562785 0.11381 0)
(0.00224359 0.113975 1.39175e-27)
(-0.00033219 0.113481 1.97839e-28)
(-0.00140908 0.112025 -3.79093e-29)
(-0.000853705 0.110328 0)
(0.0039068 0.00478127 0)
(0.00534601 0.0105095 -5.38837e-27)
(0.00710606 0.0150535 0)
(0.00915021 0.0194726 6.63167e-27)
(0.0116214 0.0245311 -8.7651e-28)
(0.014791 0.0312917 -1.14829e-27)
(0.0188071 0.0401657 -3.13048e-27)
(0.0243648 0.0526365 -4.35756e-27)
(0.0313159 0.0677727 0)
(0.0381568 0.0819972 -6.89111e-27)
(0.0435304 0.0923083 5.71316e-27)
(0.0450525 0.0962169 4.31354e-27)
(0.0446789 0.0957276 5.00372e-27)
(0.0421314 0.0932365 1.14164e-26)
(0.0398789 0.0920292 1.52106e-27)
(0.0378385 0.0927362 0)
(0.0356627 0.0950671 7.47545e-27)
(0.0331256 0.0984098 -1.1092e-27)
(0.0299991 0.102224 -7.97857e-27)
(0.0262447 0.106105 0)
(0.0219365 0.109699 1.15631e-27)
(0.0172469 0.11271 1.98317e-27)
(0.0123873 0.114892 -1.22112e-27)
(0.00766182 0.11602 -3.8932e-28)
(0.00346211 0.116095 -7.9818e-28)
(5.58113e-05 0.115395 -7.22374e-28)
(-0.00224219 0.113923 1.32037e-27)
(-0.00275833 0.111391 0)
(-0.00138657 0.108576 -1.75175e-27)
(0.00255215 0.00483342 -3.16034e-27)
(0.00376989 0.0105527 3.59548e-27)
(0.00531908 0.0151115 -3.6111e-28)
(0.0071338 0.0193585 6.49115e-28)
(0.00933213 0.0241813 -6.67865e-28)
(0.0121927 0.0304488 -8.48968e-27)
(0.0158943 0.0385869 -2.34314e-27)
(0.0209585 0.0498453 -8.06074e-27)
(0.0276802 0.0642742 -5.0174e-27)
(0.034867 0.078795 -1.16867e-26)
(0.0409856 0.0902148 -6.99126e-27)
(0.044287 0.0959915 -7.82243e-27)
(0.0449814 0.096273 3.93389e-27)
(0.0436215 0.0940785 1.05869e-26)
(0.0417191 0.09207 0)
(0.0402257 0.0922695 1.69444e-31)
(0.0384995 0.0942731 7.55315e-27)
(0.0364679 0.0976918 0)
(0.0337229 0.101818 -1.05162e-26)
(0.0301877 0.106205 1.72471e-27)
(0.0258806 0.110395 2.65665e-27)
(0.020964 0.114012 -9.84205e-34)
(0.0156544 0.116756 -1.79768e-27)
(0.0102545 0.118432 3.58202e-27)
(0.00514422 0.118834 2.31456e-28)
(0.000758472 0.118024 -9.36615e-28)
(-0.00260826 0.116269 6.07672e-28)
(-0.00453232 0.113583 5.64855e-31)
(-0.00433046 0.109821 -6.89754e-28)
(-0.00202958 0.105693 -2.40619e-27)
(0.00147233 0.00482366 -1.68888e-28)
(0.00246401 0.0105938 -6.6651e-27)
(0.00374377 0.0151905 -3.33112e-28)
(0.00528773 0.0193555 1.07631e-27)
(0.00718462 0.0240259 -4.87351e-28)
(0.00966395 0.0298589 -6.80375e-27)
(0.0130184 0.0373863 -7.80032e-27)
(0.0175806 0.0475211 -2.42864e-27)
(0.0238796 0.0609834 -4.77788e-27)
(0.0311663 0.075511 -5.15573e-27)
(0.0378973 0.0877432 -3.01486e-27)
(0.0427989 0.0951096 -1.367e-26)
(0.044636 0.0963155 -7.66586e-27)
(0.0445403 0.0948103 -2.84655e-26)
(0.0432175 0.0920192 0)
(0.0422214 0.0915009 -1.32341e-26)
(0.0411311 0.0931611 -3.26046e-27)
(0.0397357 0.0965418 9.72496e-27)
(0.0375324 0.100954 -1.23598e-27)
(0.0343699 0.105862 -1.00399e-27)
(0.0302161 0.110741 1.55765e-27)
(0.025193 0.115117 4.55399e-27)
(0.0195219 0.118586 -4.67735e-27)
(0.0134951 0.120911 2.87384e-27)
(0.00748957 0.121894 0)
(0.00198415 0.121404 1.47896e-28)
(-0.00256289 0.119459 -7.95103e-28)
(-0.0058037 0.116434 3.29651e-27)
(-0.00717457 0.112337 -3.33494e-27)
(-0.00619076 0.107122 7.43761e-28)
(-0.00276168 0.101518 -3.06933e-27)
(0.000694294 0.00476123 -1.67832e-28)
(0.00144208 0.0106386 -3.73341e-28)
(0.00242259 0.0152973 -2.84588e-27)
(0.00365849 0.0194589 -3.35321e-27)
(0.00520834 0.0240396 0)
(0.00728559 0.0295446 0)
(0.0102107 0.0365251 0)
(0.0142592 0.0456971 7.99377e-31)
(0.0200114 0.0580449 0)
(0.0271461 0.0722813 -1.33977e-27)
(0.0342835 0.0850352 0)
(0.0402051 0.0935799 3.01001e-27)
(0.0434371 0.096108 -8.24708e-27)
(0.0445291 0.0951282 0)
(0.0441287 0.0919552 -3.12818e-26)
(0.0437809 0.0905036 -6.25374e-27)
(0.0435214 0.0916682 7.33132e-27)
(0.0428665 0.0948747 8.34808e-27)
(0.0413656 0.099514 1.05371e-26)
(0.0387633 0.104952 -2.37494e-27)
(0.0349376 0.110597 9.26815e-28)
(0.0299549 0.115858 0)
(0.0240362 0.120249 -9.89652e-27)
(0.0174716 0.123416 -1.16186e-27)
(0.0106284 0.125126 8.01801e-28)
(0.00397686 0.125221 4.83398e-28)
(-0.00191446 0.123549 0)
(-0.00657691 0.120251 8.14514e-28)
(-0.00956862 0.115731 -3.50757e-27)
(-0.0102165 0.109996 4.02608e-27)
(-0.00827517 0.103145 0)
(-0.00356262 0.0959077 -3.67416e-27)
(0.000223571 0.00467501 0)
(0.000700957 0.0106754 3.73068e-28)
(0.00138858 0.0154348 3.02236e-28)
(0.00228494 0.0196527 0)
(0.00345857 0.0242033 0)
(0.00512863 0.0294655 0)
(0.00757191 0.0359534 0)
(0.0110644 0.044358 6.91319e-28)
(0.0161612 0.0555668 0)
(0.0229352 0.0692317 2.3758e-27)
(0.0302265 0.0822654 -3.31512e-31)
(0.0367985 0.0917594 7.12178e-27)
(0.0411432 0.0955232 -1.04757e-26)
(0.0437959 0.09505 -1.82907e-27)
(0.0443252 0.0917639 0)
(0.0448218 0.0893435 -2.24265e-26)
(0.0454661 0.0897204 4.02005e-26)
(0.0457266 0.0926295 1.54065e-26)
(0.0451193 0.097393 5.92622e-27)
(0.0432896 0.103346 0)
(0.0400098 0.109811 -1.29556e-31)
(0.0352586 0.116074 8.28538e-28)
(0.0292348 0.121557 -2.28754e-31)
(0.0222403 0.125804 1.40144e-27)
(0.0146454 0.128474 -9.22194e-28)
(0.00689503 0.12934 1.28091e-27)
(-0.000411242 0.128258 -8.97429e-28)
(-0.00665951 0.125168 2.11918e-28)
(-0.011368 0.120262 9.98584e-28)
(-0.0138717 0.113968 -7.46503e-27)
(-0.0137443 0.106427 -3.5393e-27)
(-0.0104848 0.0976809 0)
(-0.00442093 0.088672 -2.03896e-27)
(6.54993e-05 0.0045826 0)
(0.000239484 0.0107029 2.66136e-28)
(0.000647198 0.0156011 3.00868e-28)
(0.00119782 0.0199228 -1.89645e-28)
(0.00199417 0.0244863 1.66532e-28)
(0.00323502 0.0295587 -3.73857e-27)
(0.00517566 0.0356744 0)
(0.0080799 0.0434591 1.4716e-29)
(0.0124379 0.0536129 -7.3505e-27)
(0.0186417 0.0664931 2.43865e-27)
(0.0258298 0.0795813 0)
(0.0327597 0.0897792 5.42175e-27)
(0.0380497 0.0946994 -4.80486e-28)
(0.0418365 0.0946079 -4.8055e-27)
(0.0438552 0.0915611 -6.45889e-27)
(0.0451556 0.0880526 1.41085e-26)
(0.0467378 0.0873931 -1.26989e-26)
(0.0481519 0.0897703 0)
(0.0486638 0.0945302 3.19025e-26)
(0.0478358 0.10092 -3.39573e-27)
(0.0453594 0.108225 2.21519e-26)
(0.0410839 0.115596 2.0399e-27)
(0.0351477 0.122325 1.16773e-26)
(0.0278636 0.127875 0)
(0.019643 0.131766 -4.70131e-28)
(0.0108919 0.133662 6.0002e-28)
(0.00219257 0.133382 -8.40288e-28)
(-0.00577151 0.130857 0)
(-0.0123507 0.126041 -1.63164e-27)
(-0.0169524 0.119298 -1.99874e-27)
(-0.0188176 0.11101 -7.64698e-27)
(-0.0178596 0.101492 3.70781e-27)
(-0.0130969 0.0905756 2.22475e-27)
(-0.0027519 0.08205 -2.18197e-27)
(-0.00749903 0.0820362 0)
(0.000233359 0.00447348 1.66253e-28)
(9.49479e-05 0.0107096 -1.05956e-27)
(0.00020381 0.0157722 -6.89826e-28)
(0.000414264 0.0202641 -1.93398e-28)
(0.00083924 0.0248499 -1.61854e-27)
(0.0016425 0.029806 9.79816e-29)
(0.0030698 0.0356863 -3.70415e-27)
(0.00536109 0.042958 3.099e-28)
(0.00894718 0.0522252 6.02187e-27)
(0.0143719 0.0641851 -7.03007e-27)
(0.0212042 0.0771231 -7.64493e-28)
(0.0282077 0.0877872 1.36121e-27)
(0.0342747 0.0937116 0)
(0.0388179 0.0939742 -5.879e-27)
(0.0421816 0.0913037 -9.00519e-27)
(0.0445231 0.0867254 -9.90989e-31)
(0.04717 0.0847908 -1.08755e-26)
(0.049882 0.086319 2.03177e-26)
(0.0518198 0.0908348 -1.85395e-26)
(0.0522818 0.0975583 -2.66933e-26)
(0.0508784 0.105663 3.0258e-26)
(0.04738 0.114228 0)
(0.0417962 0.122374 1.30256e-26)
(0.0344278 0.129389 1.14061e-27)
(0.0256817 0.134759 0)
(0.0160236 0.138027 3.55633e-28)
(0.00600932 0.138825 1.46333e-29)
(-0.00366743 0.137094 -4.81746e-30)
(-0.0122607 0.132832 1.18826e-28)
(-0.0190868 0.126093 2.4264e-28)
(-0.0234107 0.11721 -3.97709e-27)
(-0.0245315 0.106597 -2.17492e-28)
(-0.0221912 0.0947553 3.74332e-27)
(-0.0130987 0.0828188 4.14532e-27)
(-0.017895 0.0849078 3.32556e-27)
(-0.00294179 0.0769445 8.38613e-27)
(-0.00825063 0.0770569 9.98087e-27)
(0.000720709 0.0043288 1.67552e-28)
(0.000280653 0.0106903 3.93228e-28)
(7.98373e-05 0.0159319 -2.56528e-27)
(-3.64953e-05 0.020656 -3.09366e-28)
(-6.42169e-06 0.0252831 -1.47349e-28)
(0.000370334 0.0302345 -1.62515e-27)
(0.00127495 0.0359522 2.15338e-27)
(0.00295516 0.0428366 3.62958e-27)
(0.00575405 0.0513885 -5.35186e-27)
(0.0102717 0.0624119 6.37033e-27)
(0.0164982 0.0749897 4.23437e-28)
(0.0233256 0.0859572 4.30096e-27)
(0.0298351 0.0926532 -2.7136e-27)
(0.0348735 0.0934333 2.39595e-27)
(0.0392935 0.0909672 -2.22138e-27)
(0.0427524 0.0854537 -1.00651e-26)
(0.0465687 0.0820303 0)
(0.0506882 0.0823363 -1.88089e-26)
(0.0542913 0.0862649 -3.54609e-26)
(0.0564363 0.0931085 1.77804e-26)
(0.0564713 0.101938 -9.9214e-26)
(0.0540696 0.111746 -6.45039e-27)
(0.0491733 0.121434 2.68725e-26)
(0.0419364 0.130158 0)
(0.0328264 0.137228 1.26608e-26)
(0.0224073 0.142168 2.79533e-27)
(0.0111627 0.144547 -2.50928e-27)
(-0.000170055 0.143977 -1.12156e-27)
(-0.0108828 0.140456 2.04081e-27)
(-0.0201119 0.134154 1.06084e-27)
(-0.0269911 0.125081 -2.46446e-27)
(-0.0309023 0.113511 2.51218e-27)
(-0.0276633 0.0990696 2.21511e-27)
(-0.0319556 0.10344 -2.45023e-27)
(-0.0230585 0.0866384 -5.37422e-31)
(-0.0299188 0.0984296 -2.85207e-27)
(-0.0284582 0.0893281 1.13516e-27)
(-0.0141281 0.0781782 3.45667e-27)
(-0.0195757 0.0799445 2.49781e-27)
(-0.00296453 0.0715178 0)
(-0.00896331 0.0716941 0)
(0.00150098 0.0041686 3.54931e-27)
(0.000791221 0.0106694 4.14553e-28)
(0.000269201 0.0160995 0)
(-0.00015837 0.0210744 -1.25156e-27)
(-0.000516991 0.0257942 -4.77655e-28)
(-0.000563112 0.0308248 1.57441e-28)
(-0.000189659 0.0364493 1.31926e-27)
(0.00088421 0.0430536 3.01702e-27)
(0.00292566 0.0510786 6.96226e-27)
(0.00648367 0.0612269 -3.80554e-27)
(0.0118764 0.0732614 0)
(0.0182809 0.0844359 -2.26376e-27)
(0.0247681 0.0917578 4.68349e-27)
(0.030146 0.0931916 -4.09078e-27)
(0.0353166 0.0905699 4.36648e-27)
(0.03975 0.0843132 -3.56413e-27)
(0.0447008 0.0792461 -6.1735e-27)
(0.0503162 0.0779189 -2.0918e-26)
(0.0557802 0.0808387 -4.52682e-26)
(0.0599732 0.0874554 -4.79771e-26)
(0.0619378 0.0968599 -1.13968e-25)
(0.0610745 0.107868 0)
(0.0571612 0.119259 1.76476e-26)
(0.0503995 0.129922 0)
(0.0411958 0.139001 2.78606e-26)
(0.030151 0.14588 3.19591e-27)
(0.0178467 0.15007 -4.38596e-33)
(0.00490166 0.151179 -1.27348e-27)
(-0.00789008 0.148976 1.10564e-31)
(-0.0197007 0.143298 1.0285e-27)
(-0.0293619 0.134511 4.17809e-27)
(-0.0360252 0.122461 1.01568e-26)
(-0.0351511 0.106508 -7.54913e-27)
(-0.0394824 0.112199 -2.02926e-27)
(-0.0345648 0.10122 -4.03335e-27)
(-0.0254997 0.0819947 3.17835e-29)
(-0.03375 0.092292 -6.30771e-28)
(-0.0312156 0.0845748 -5.9242e-28)
(-0.0152056 0.0728642 1.4925e-26)
(-0.0214605 0.0746598 1.62006e-26)
(-0.00314819 0.0656651 1.04009e-26)
(-0.00963777 0.0658565 -1.29345e-30)
(0.0025755 0.0040171 0)
(0.00157789 0.010636 3.43056e-27)
(0.000782507 0.0162761 2.37347e-27)
(3.88358e-05 0.0214898 -2.42323e-27)
(-0.000672566 0.0263763 1.59819e-27)
(-0.00115241 0.0315139 -6.22994e-29)
(-0.00127475 0.0371416 3.78403e-28)
(-0.000819932 0.0435665 -1.13013e-31)
(0.000501107 0.0512372 0)
(0.00309063 0.0606241 3.20918e-27)
(0.00750812 0.0720152 -1.16167e-27)
(0.0132394 0.0833141 0)
(0.0193239 0.0911842 2.00057e-31)
(0.0247931 0.0933415 -5.37775e-31)
(0.0302695 0.0904839 5.39304e-27)
(0.0354521 0.083567 1.43574e-27)
(0.0413713 0.0766384 -1.8044e-27)
(0.048448 0.0732548 -1.40568e-26)
(0.0559436 0.0746232 -1.36321e-26)
(0.0625401 0.0805525 -5.55066e-26)
(0.0669492 0.0902218 -7.87694e-26)
(0.0681603 0.102346 4.23553e-26)
(0.0657492 0.115557 -1.65201e-26)
(0.0598116 0.12838 0)
(0.0508353 0.139755 1.59543e-26)
(0.039355 0.148968 8.75512e-28)
(0.0260719 0.155421 2.98352e-27)
(0.0116586 0.158537 -4.43923e-29)
(-0.00310066 0.157942 2.45457e-27)
(-0.0174417 0.153675 -3.56084e-28)
(-0.0303434 0.14537 4.26171e-27)
(-0.0402043 0.133425 9.05221e-27)
(-0.0417955 0.115853 1.49934e-27)
(-0.0461253 0.122961 0)
(-0.0391919 0.105121 -1.02348e-26)
(-0.0433343 0.109352 0)
(-0.0389626 0.0960967 3.33249e-32)
(-0.0277769 0.0767207 6.04562e-27)
(-0.036981 0.0878785 4.39695e-28)
(-0.0341766 0.0793946 -2.25808e-34)
(-0.0164017 0.0670643 -3.2231e-27)
(-0.023227 0.0688752 4.75521e-27)
(-0.00335208 0.0594156 5.43501e-64)
(-0.0102678 0.0595778 -2.67117e-26)
(0.00392188 0.00385646 4.63212e-27)
(0.00265948 0.0105547 4.73982e-28)
(0.00161743 0.0164176 -8.94357e-28)
(0.000577749 0.0218712 2.9041e-27)
(-0.000461174 0.0269931 2.21031e-28)
(-0.00137017 0.032265 1.80045e-27)
(-0.0019488 0.0379674 9.77042e-28)
(-0.00209287 0.04433 -4.964e-28)
(-0.00148925 0.0517557 -4.78199e-28)
(0.00019934 0.0605732 0)
(0.00352774 0.0713069 -1.47018e-27)
(0.00838495 0.0826351 -2.92031e-28)
(0.013826 0.0910366 0)
(0.0190463 0.0939515 8.82323e-27)
(0.0243349 0.090975 6.56371e-31)
(0.0298534 0.0834036 -2.39967e-27)
(0.0364438 0.0745435 7.98508e-28)
(0.0447819 0.0686624 -5.44167e-27)
(0.0543515 0.0678123 -9.96349e-27)
(0.0636946 0.072392 -3.67679e-26)
(0.0710488 0.0818267 -2.64574e-26)
(0.0749873 0.094946 0)
(0.0747282 0.109973 -3.07004e-26)
(0.0701536 0.125277 0)
(0.0616463 0.139364 3.67609e-26)
(0.0500258 0.151137 0)
(0.0360071 0.160058 7.73663e-31)
(0.0201975 0.165673 -1.49695e-28)
(0.00367295 0.167321 2.85583e-27)
(-0.013129 0.164819 -3.88686e-28)
(-0.029218 0.157861 0)
(-0.0427956 0.146297 1.9818e-27)
(-0.0474087 0.127318 2.27956e-27)
(-0.0515109 0.135839 1.20878e-27)
(-0.0475567 0.11479 2.01453e-27)
(-0.0510976 0.120339 -3.45894e-28)
(-0.0439013 0.100499 -4.05817e-27)
(-0.0487948 0.105694 1.56394e-27)
(-0.0427532 0.0918653 6.74335e-27)
(-0.030195 0.070924 5.7025e-30)
(-0.040661 0.0828266 2.53895e-27)
(-0.0372422 0.073663 0)
(-0.0175433 0.0608091 -1.39218e-26)
(-0.0249823 0.0625889 2.22242e-26)
(-0.00355888 0.0528039 -1.27913e-26)
(-0.0108523 0.0529016 -1.46206e-26)
(0.00549361 0.00368413 0)
(0.00403241 0.0104255 9.94965e-27)
(0.00274405 0.0165172 -5.0687e-28)
(0.00146324 0.02221 1.78933e-35)
(0.000113026 0.0276059 -3.11915e-27)
(-0.00117667 0.0330519 -5.52973e-32)
(-0.00220783 0.0388613 1.90777e-27)
(-0.00289188 0.0452737 -1.33998e-27)
(-0.0029953 0.0525424 9.45712e-28)
(-0.00212828 0.0609931 -2.86493e-28)
(7.70665e-05 0.0711179 0)
(0.00391913 0.0823982 1.9425e-27)
(0.00851507 0.0913729 -1.76114e-27)
(0.0131675 0.095102 0)
(0.0178231 0.0922936 -1.05077e-30)
(0.0231393 0.0841212 -2.12587e-27)
(0.0298953 0.0733283 3.39033e-27)
(0.0390869 0.0645781 3.36468e-27)
(0.0505303 0.0607598 -5.01343e-27)
(0.0627968 0.0631256 -1.48035e-26)
(0.0736769 0.0716656 -9.90432e-27)
(0.0811286 0.0853551 -3.42521e-26)
(0.0837852 0.102037 -8.05293e-26)
(0.0813356 0.119803 -8.39178e-26)
(0.0740598 0.136788 4.2533e-26)
(0.0626212 0.151787 -8.01021e-26)
(0.0479689 0.163894 0)
(0.0310491 0.172216 -8.57391e-27)
(0.0125253 0.176538 1.2543e-28)
(-0.00652146 0.176276 0)
(-0.0253427 0.171185 -2.10712e-27)
(-0.0429196 0.160706 -1.36776e-28)
(-0.0515713 0.141158 7.08239e-27)
(-0.0549523 0.151103 -2.8226e-27)
(-0.0547087 0.12713 -3.39797e-28)
(-0.0576604 0.134253 -1.57756e-30)
(-0.0533411 0.111327 3.53804e-27)
(-0.0577589 0.117933 -7.7966e-28)
(-0.0485087 0.0965628 -6.93292e-27)
(-0.0540459 0.10198 -1.41772e-26)
(-0.0471354 0.0869789 -1.51278e-26)
(-0.0326219 0.0646199 7.49965e-27)
(-0.0444606 0.0772241 -9.54754e-28)
(-0.0403702 0.0674116 2.10936e-27)
(-0.018613 0.054118 4.73236e-27)
(-0.0266721 0.055808 -2.3164e-27)
(-0.00374866 0.0458783 1.41846e-26)
(-0.0113609 0.0458885 4.78115e-26)
(0.00723745 0.00351089 1.98076e-28)
(0.00561372 0.0102705 5.97588e-32)
(0.00413575 0.0165969 8.31695e-27)
(0.00264083 0.0224983 -1.05481e-27)
(0.00103877 0.0281931 3.79347e-27)
(-0.000591123 0.0338504 -6.82795e-27)
(-0.00204537 0.0397937 8.45747e-32)
(-0.00320401 0.0463292 4.85419e-27)
(-0.0039623 0.0535686 -1.57291e-31)
(-0.00392203 0.0617633 1.26044e-27)
(-0.00271978 0.0714697 0)
(-1.84392e-05 0.0825821 2.08953e-27)
(0.00361508 0.0921836 -3.32105e-27)
(0.00738462 0.0968336 1.7727e-27)
(0.0111154 0.0945909 8.5245e-27)
(0.0156509 0.0859766 0)
(0.0219177 0.0733907 7.68423e-27)
(0.031297 0.0615256 0)
(0.0441133 0.0540066 -1.23142e-27)
(0.0592359 0.0530506 0)
(0.0741642 0.0596044 -2.4399e-30)
(0.0859426 0.0731182 -8.07922e-26)
(0.0925319 0.091634 -4.39617e-26)
(0.0928304 0.112395 -3.47692e-26)
(0.0872923 0.132769 -7.52969e-26)
(0.0766721 0.150975 3.17709e-29)
(0.0619525 0.166007 0)
(0.044174 0.177726 -8.12483e-27)
(0.0240089 0.185165 8.14961e-27)
(0.00295949 0.187625 7.7344e-34)
(-0.0188426 0.18533 1.09916e-27)
(-0.0401713 0.17757 -1.13368e-27)
(-0.0543457 0.158204 2.9131e-28)
(-0.0559728 0.16936 -1.40597e-27)
(-0.0605163 0.142574 1.61199e-26)
(-0.0630647 0.152583 9.61467e-33)
(-0.0619162 0.125341 4.18406e-27)
(-0.0660488 0.13444 -4.90641e-27)
(-0.0595136 0.108281 1.7942e-27)
(-0.065061 0.115914 1.80672e-27)
(-0.0536043 0.0919821 -1.57945e-26)
(-0.0601477 0.0980168 0)
(-0.0516413 0.0816224 -1.0737e-26)
(-0.0350075 0.0578114 8.37103e-27)
(-0.048355 0.0711527 6.01409e-27)
(-0.043517 0.0606864 9.39597e-27)
(-0.0195749 0.0470296 3.65409e-26)
(-0.0282468 0.0485682 1.746e-26)
(-0.00390528 0.0387501 0)
(-0.0117497 0.0386354 -8.66793e-27)