/*--------------------------------*- C++ -*----------------------------------*\
  =========                 |
  \\      /  F ield         | OpenFOAM: The Open Source CFD Toolbox
   \\    /   O peration     | Website:  https://openfoam.org
    \\  /    A nd           | Version:  dev
     \\/     M anipulation  |
\*---------------------------------------------------------------------------*/
FoamFile
{
    version     2.0;
    format      ascii;
    class       volScalarField;
    location    "2500";
    object      a;
}
// * * * * * * * * * * * * * * * * * * * * * * * * * * * * * * * * * * * * * //

dimensions      [0 -1 0 0 0 0 0];

internalField   nonuniform List<scalar> 
9842
(
0.100011
0.100011
0.100011
0.100011
0.100011
0.100011
0.100011
0.100011
0.100011
0.100011
0.10001
0.100011
0.100011
0.100011
0.100011
0.10001
0.10001
0.100011
0.100011
0.100011
0.100011
0.10001
0.10001
0.10001
0.100011
0.100011
0.100011
0.100011
0.10001
0.10001
0.10001
0.10001
0.100011
0.100011
0.100011
0.100011
0.100009
0.10001
0.10001
0.10001
0.10001
0.100011
0.100011
0.100011
0.100011
0.100009
0.100009
0.10001
0.10001
0.10001
0.10001
0.100011
0.100011
0.100011
0.100011
0.100009
0.100009
0.100009
0.10001
0.10001
0.10001
0.10001
0.100011
0.100011
0.100011
0.100011
0.100009
0.100009
0.100009
0.100009
0.10001
0.10001
0.10001
0.10001
0.100011
0.100011
0.100011
0.100011
0.100009
0.100009
0.100009
0.100009
0.100009
0.10001
0.10001
0.10001
0.10001
0.100011
0.100011
0.100011
0.100011
0.100008
0.100009
0.100009
0.100009
0.100009
0.100009
0.10001
0.10001
0.10001
0.10001
0.100011
0.100011
0.100011
0.100011
0.100008
0.100008
0.100009
0.100009
0.100009
0.100009
0.100009
0.10001
0.10001
0.10001
0.10001
0.100011
0.100011
0.100011
0.100011
0.100008
0.100008
0.100008
0.100009
0.100009
0.100009
0.100009
0.100009
0.10001
0.10001
0.10001
0.10001
0.100011
0.100011
0.100011
0.100011
0.100008
0.100008
0.100008
0.100008
0.100009
0.100009
0.100009
0.100009
0.100009
0.10001
0.10001
0.10001
0.10001
0.100011
0.100011
0.100011
0.100011
0.100007
0.100008
0.100008
0.100008
0.100008
0.100009
0.100009
0.100009
0.100009
0.100009
0.10001
0.10001
0.10001
0.10001
0.100011
0.100011
0.100011
0.100011
0.100007
0.100007
0.100008
0.100008
0.100008
0.100008
0.100009
0.100009
0.100009
0.100009
0.100009
0.10001
0.10001
0.10001
0.10001
0.100011
0.100011
0.100011
0.100011
0.100007
0.100007
0.100007
0.100008
0.100008
0.100008
0.100008
0.100009
0.100009
0.100009
0.100009
0.100009
0.10001
0.10001
0.10001
0.10001
0.100011
0.100011
0.100011
0.100011
0.100007
0.100007
0.100007
0.100007
0.100008
0.100008
0.100008
0.100008
0.100009
0.100009
0.100009
0.100009
0.100009
0.10001
0.10001
0.10001
0.10001
0.100011
0.100011
0.100011
0.100011
0.100006
0.100007
0.100007
0.100007
0.100007
0.100008
0.100008
0.100008
0.100008
0.100009
0.100009
0.100009
0.100009
0.100009
0.10001
0.10001
0.10001
0.10001
0.100011
0.100011
0.100011
0.100011
0.100006
0.100006
0.100007
0.100007
0.100007
0.100007
0.100008
0.100008
0.100008
0.100008
0.100009
0.100009
0.100009
0.100009
0.100009
0.10001
0.10001
0.10001
0.10001
0.100011
0.100011
0.100011
0.100011
0.100006
0.100006
0.100006
0.100007
0.100007
0.100007
0.100007
0.100008
0.100008
0.100008
0.100008
0.100009
0.100009
0.100009
0.100009
0.100009
0.10001
0.10001
0.10001
0.10001
0.100011
0.100011
0.100011
0.100011
0.100006
0.100006
0.100006
0.100006
0.100007
0.100007
0.100007
0.100007
0.100008
0.100008
0.100008
0.100008
0.100009
0.100009
0.100009
0.100009
0.100009
0.10001
0.10001
0.10001
0.10001
0.100011
0.100011
0.100011
0.100011
0.100006
0.100006
0.100006
0.100006
0.100006
0.100007
0.100007
0.100007
0.100007
0.100008
0.100008
0.100008
0.100008
0.100009
0.100009
0.100009
0.100009
0.100009
0.10001
0.10001
0.10001
0.10001
0.100011
0.100011
0.100011
0.100011
0.100005
0.100006
0.100006
0.100006
0.100006
0.100006
0.100007
0.100007
0.100007
0.100007
0.100008
0.100008
0.100008
0.100008
0.100009
0.100009
0.100009
0.100009
0.100009
0.10001
0.10001
0.10001
0.10001
0.100011
0.100011
0.100011
0.100011
0.100005
0.100005
0.100006
0.100006
0.100006
0.100006
0.100006
0.100007
0.100007
0.100007
0.100007
0.100008
0.100008
0.100008
0.100008
0.100009
0.100009
0.100009
0.100009
0.100009
0.10001
0.10001
0.10001
0.10001
0.100011
0.100011
0.100011
0.100011
0.100005
0.100005
0.100005
0.100006
0.100006
0.100006
0.100006
0.100006
0.100007
0.100007
0.100007
0.100007
0.100008
0.100008
0.100008
0.100008
0.100009
0.100009
0.100009
0.100009
0.100009
0.10001
0.10001
0.10001
0.10001
0.100011
0.100011
0.100011
0.100011
0.100005
0.100005
0.100005
0.100005
0.100006
0.100006
0.100006
0.100006
0.100006
0.100007
0.100007
0.100007
0.100007
0.100008
0.100008
0.100008
0.100008
0.100009
0.100009
0.100009
0.100009
0.100009
0.10001
0.10001
0.10001
0.10001
0.100011
0.100011
0.100011
0.100011
0.100004
0.100005
0.100005
0.100005
0.100005
0.100006
0.100006
0.100006
0.100006
0.100006
0.100007
0.100007
0.100007
0.100007
0.100008
0.100008
0.100008
0.100008
0.100009
0.100009
0.100009
0.100009
0.100009
0.10001
0.10001
0.10001
0.10001
0.100011
0.100011
0.100011
0.100011
0.100004
0.100004
0.100005
0.100005
0.100005
0.100005
0.100006
0.100006
0.100006
0.100006
0.100006
0.100007
0.100007
0.100007
0.100007
0.100008
0.100008
0.100008
0.100008
0.100009
0.100009
0.100009
0.100009
0.100009
0.10001
0.10001
0.10001
0.10001
0.100011
0.100011
0.100011
0.100011
0.100004
0.100004
0.100004
0.100005
0.100005
0.100005
0.100005
0.100006
0.100006
0.100006
0.100006
0.100006
0.100007
0.100007
0.100007
0.100007
0.100008
0.100008
0.100008
0.100008
0.100009
0.100009
0.100009
0.100009
0.100009
0.10001
0.10001
0.10001
0.10001
0.100011
0.100011
0.100011
0.100011
0.100004
0.100004
0.100004
0.100004
0.100005
0.100005
0.100005
0.100005
0.100006
0.100006
0.100006
0.100006
0.100006
0.100007
0.100007
0.100007
0.100007
0.100008
0.100008
0.100008
0.100008
0.100009
0.100009
0.100009
0.100009
0.100009
0.10001
0.10001
0.10001
0.10001
0.100011
0.100011
0.100011
0.100011
0.100011
0.100004
0.100004
0.100004
0.100004
0.100004
0.100005
0.100005
0.100005
0.100005
0.100006
0.100006
0.100006
0.100006
0.100006
0.100007
0.100007
0.100007
0.100007
0.100008
0.100008
0.100008
0.100008
0.100009
0.100009
0.100009
0.100009
0.10001
0.10001
0.10001
0.10001
0.10001
0.100011
0.100011
0.100011
0.100011
0.100011
0.100011
0.100003
0.100004
0.100004
0.100004
0.100004
0.100004
0.100005
0.100005
0.100005
0.100005
0.100006
0.100006
0.100006
0.100006
0.100006
0.100007
0.100007
0.100007
0.100007
0.100008
0.100008
0.100008
0.100008
0.100009
0.100009
0.100009
0.10001
0.100011
0.100011
0.100011
0.100011
0.10001
0.100011
0.100011
0.100011
0.100011
0.100011
0.100011
0.100011
0.100011
0.100011
0.100003
0.100003
0.100004
0.100004
0.100004
0.100004
0.100004
0.100005
0.100005
0.100005
0.100005
0.100006
0.100006
0.100006
0.100006
0.100006
0.100007
0.100007
0.100007
0.100007
0.100008
0.100008
0.100008
0.100008
0.100009
0.100012
0.100016
0.10002
0.100023
0.10002
0.100016
0.100013
0.100011
0.100011
0.100011
0.100011
0.100011
0.100011
0.100011
0.100011
0.100011
0.100011
0.100003
0.100003
0.100003
0.100004
0.100004
0.100004
0.100004
0.100004
0.100005
0.100005
0.100005
0.100005
0.100006
0.100006
0.100006
0.100006
0.100006
0.100007
0.100007
0.100007
0.100007
0.100008
0.100008
0.100009
0.100012
0.100022
0.100044
0.100077
0.100111
0.10012
0.100088
0.100048
0.100014
0.100028
0.100011
0.100014
0.100011
0.100011
0.100011
0.100011
0.100011
0.100011
0.100011
0.100011
0.100003
0.100003
0.100003
0.100003
0.100004
0.100004
0.100004
0.100004
0.100004
0.100005
0.100005
0.100005
0.100005
0.100006
0.100006
0.100006
0.100006
0.100006
0.100007
0.100007
0.100007
0.100007
0.100008
0.100011
0.100019
0.100055
0.100152
0.100336
0.10058
0.100796
0.100806
0.100487
0.100077
0.100265
0.100028
0.10008
0.100014
0.100027
0.100014
0.100011
0.100014
0.100013
0.100011
0.100011
0.100011
0.100011
0.100002
0.100003
0.100003
0.100003
0.100003
0.100004
0.100004
0.100004
0.100004
0.100004
0.100005
0.100005
0.100005
0.100005
0.100006
0.100006
0.100006
0.100006
0.100006
0.100007
0.100007
0.100007
0.100008
0.100015
0.100036
0.100144
0.100485
0.101242
0.102445
0.103885
0.105063
0.104984
0.100879
0.103112
0.100268
0.100931
0.10008
0.100275
0.100027
0.100079
0.100025
0.100012
0.100023
0.10002
0.100011
0.100012
0.100011
0.100011
0.100002
0.100002
0.100003
0.100003
0.100003
0.100003
0.100004
0.100004
0.100004
0.100004
0.100004
0.100005
0.100005
0.100005
0.100005
0.100006
0.100006
0.100006
0.100006
0.100006
0.100007
0.100007
0.100008
0.100017
0.100075
0.100351
0.101297
0.103638
0.107936
0.113735
0.119931
0.124592
0.109831
0.127536
0.103225
0.110527
0.100973
0.103404
0.100279
0.101009
0.100075
0.100276
0.100069
0.100017
0.100059
0.100047
0.100012
0.100015
0.100011
0.100011
0.100002
0.100002
0.100002
0.100003
0.100003
0.100003
0.100003
0.100004
0.100004
0.100004
0.100004
0.100004
0.100005
0.100005
0.100005
0.100005
0.100006
0.100006
0.100006
0.100006
0.100006
0.100007
0.100007
0.100016
0.100088
0.10061
0.102746
0.108428
0.119192
0.135324
0.15185
0.167183
0.150121
0.179072
0.1284
0.155095
0.111145
0.130077
0.103591
0.111805
0.101035
0.103774
0.100262
0.101028
0.100236
0.100035
0.100196
0.100149
0.100013
0.100024
0.100011
0.100012
0.100002
0.100002
0.100002
0.100002
0.100003
0.100003
0.100003
0.100003
0.100004
0.100004
0.100004
0.100004
0.100004
0.100005
0.100005
0.100005
0.100005
0.100006
0.100006
0.100006
0.100006
0.100006
0.100007
0.100015
0.100089
0.100802
0.104408
0.114556
0.13399
0.159681
0.188429
0.211603
0.201094
0.227236
0.182797
0.209239
0.157844
0.186851
0.131792
0.160872
0.112548
0.133752
0.103908
0.113261
0.100976
0.103882
0.100868
0.1001
0.100709
0.100529
0.100017
0.10006
0.100011
0.100013
0.100001
0.100002
0.100002
0.100002
0.100002
0.100003
0.100003
0.100003
0.100003
0.100004
0.100004
0.100004
0.100004
0.100004
0.100005
0.100005
0.100005
0.100005
0.100006
0.100006
0.100006
0.100006
0.100007
0.100013
0.100084
0.100826
0.105471
0.120541
0.148443
0.181854
0.215128
0.245075
0.244578
0.261721
0.234085
0.255127
0.215266
0.241784
0.191345
0.221507
0.164554
0.196807
0.135945
0.168901
0.113727
0.137886
0.103667
0.113605
0.103212
0.100348
0.102608
0.101947
0.100034
0.100196
0.100012
0.100019
0.100001
0.100001
0.100002
0.100002
0.100002
0.100002
0.100003
0.100003
0.100003
0.100003
0.100004
0.100004
0.100004
0.100004
0.100004
0.100005
0.100005
0.100005
0.100005
0.100006
0.100006
0.100006
0.100006
0.10001
0.10007
0.10078
0.105582
0.12409
0.160181
0.199996
0.22878
0.255632
0.269709
0.273747
0.271703
0.282179
0.264887
0.283232
0.249968
0.275142
0.228805
0.259263
0.203609
0.237819
0.173709
0.21135
0.139103
0.178354
0.112733
0.138685
0.111073
0.101278
0.109037
0.106772
0.100095
0.100717
0.100013
0.10004
0.100001
0.100001
0.100001
0.100002
0.100002
0.100002
0.100002
0.100003
0.100003
0.100003
0.100003
0.100004
0.100004
0.100004
0.100004
0.100004
0.100005
0.100005
0.100005
0.100005
0.100006
0.100006
0.100006
0.100007
0.100053
0.100621
0.105336
0.124305
0.165456
0.198119
0.225898
0.252938
0.279661
0.286844
0.289742
0.295773
0.302428
0.295582
0.310384
0.28653
0.309184
0.270314
0.299752
0.248515
0.283463
0.219664
0.260303
0.182067
0.227674
0.136058
0.183639
0.132149
0.104493
0.127266
0.120733
0.100332
0.102561
0.100016
0.100119
0.100001
0.100001
0.100001
0.100001
0.100002
0.100002
0.100002
0.100002
0.100003
0.100003
0.100003
0.100003
0.100004
0.100004
0.100004
0.100004
0.100004
0.100005
0.100005
0.100005
0.100005
0.100006
0.100006
0.100006
0.100029
0.10039
0.104533
0.123417
0.16415
0.189313
0.208923
0.236248
0.270177
0.300935
0.296855
0.304067
0.303291
0.319203
0.322645
0.326196
0.337341
0.324409
0.34361
0.314972
0.341595
0.298183
0.331922
0.27237
0.313776
0.234341
0.283594
0.181759
0.238236
0.176275
0.114057
0.166289
0.151635
0.101204
0.108326
0.100029
0.100428
0.100001
0.100001
0.100001
0.100001
0.100001
0.100002
0.100002
0.100002
0.100002
0.100003
0.100003
0.100003
0.100003
0.100004
0.100004
0.100004
0.100004
0.100004
0.100005
0.100005
0.100005
0.100005
0.100006
0.100006
0.100014
0.100211
0.103128
0.120759
0.161116
0.180633
0.186924
0.191088
0.234934
0.293233
0.284142
0.317489
0.314985
0.32265
0.32073
0.342939
0.344139
0.356559
0.364122
0.362385
0.376825
0.360362
0.381439
0.349668
0.378935
0.328738
0.367286
0.292917
0.341936
0.238689
0.299206
0.234757
0.137889
0.225391
0.208424
0.104135
0.123808
0.10008
0.101473
0.1
0.100001
0.100001
0.100001
0.100001
0.100001
0.100002
0.100002
0.100002
0.100002
0.100003
0.100003
0.100003
0.100003
0.100004
0.100004
0.100004
0.100004
0.100004
0.100005
0.100005
0.100005
0.100005
0.100006
0.100008
0.100103
0.101806
0.116034
0.156502
0.175436
0.172839
0.151228
0.157127
0.265135
0.212969
0.310865
0.299701
0.337796
0.334552
0.343252
0.34024
0.366964
0.366675
0.384301
0.38653
0.392643
0.397043
0.396023
0.402947
0.395148
0.406747
0.382755
0.406936
0.35253
0.39528
0.301569
0.359707
0.298919
0.184141
0.290323
0.274583
0.112338
0.156569
0.10029
0.104853
0.1
0.1
0.100001
0.100001
0.100001
0.100001
0.100001
0.100002
0.100002
0.100002
0.100002
0.100003
0.100003
0.100003
0.100003
0.100004
0.100004
0.100004
0.100004
0.100004
0.100005
0.100005
0.100005
0.100005
0.100006
0.100044
0.100884
0.110811
0.149192
0.172591
0.166786
0.133094
0.119054
0.144567
0.268446
0.213029
0.326342
0.306634
0.355148
0.346546
0.364262
0.360465
0.385225
0.381551
0.396748
0.394701
0.403512
0.402132
0.409259
0.407921
0.415305
0.414409
0.416716
0.422017
0.404539
0.4249
0.362825
0.410726
0.360684
0.249183
0.353711
0.338915
0.132546
0.21318
0.100929
0.113513
0.1
0.1
0.100001
0.100001
0.100001
0.100001
0.100001
0.100002
0.100002
0.100002
0.100002
0.100003
0.100003
0.100003
0.100003
0.100004
0.100004
0.100004
0.100004
0.100004
0.100005
0.100005
0.100005
0.100006
0.100017
0.100458
0.106214
0.13866
0.170597
0.166183
0.130546
0.109067
0.108644
0.1562
0.118427
0.263023
0.201779
0.331451
0.300766
0.360404
0.348097
0.375672
0.368749
0.390266
0.38424
0.398603
0.392819
0.403946
0.396073
0.410403
0.401325
0.419633
0.411997
0.428192
0.424394
0.431794
0.434219
0.413211
0.437414
0.411221
0.314783
0.405733
0.393637
0.170218
0.279075
0.102822
0.133357
0.1
0.1
0.100001
0.100001
0.100001
0.100001
0.100001
0.100002
0.100002
0.100002
0.100002
0.100003
0.100003
0.100003
0.100003
0.100004
0.100004
0.100004
0.100004
0.100004
0.100005
0.100005
0.100005
0.100009
0.100176
0.102943
0.126523
0.167887
0.167349
0.132814
0.109345
0.102533
0.106876
0.101162
0.133194
0.111401
0.243483
0.180926
0.324382
0.276027
0.355877
0.334646
0.376921
0.368155
0.385302
0.376351
0.386336
0.375435
0.387761
0.372737
0.396267
0.377834
0.412565
0.395018
0.429358
0.416197
0.440419
0.435023
0.441193
0.446207
0.442491
0.372814
0.441106
0.434889
0.409257
0.22796
0.33894
0.107292
0.16775
0.1
0.1
0.100001
0.100001
0.100001
0.100001
0.100002
0.100002
0.100002
0.100002
0.100002
0.100003
0.100003
0.100003
0.100003
0.100004
0.100004
0.100004
0.100004
0.100004
0.100005
0.100005
0.100006
0.100057
0.10114
0.115566
0.161326
0.170489
0.140219
0.113909
0.103409
0.100475
0.102957
0.100741
0.118177
0.104916
0.210429
0.151979
0.29453
0.233404
0.33082
0.295897
0.365674
0.35165
0.36345
0.350083
0.357245
0.341164
0.359208
0.340766
0.378842
0.363153
0.401946
0.389401
0.422856
0.412201
0.441425
0.431573
0.4516
0.445146
0.448931
0.450864
0.455217
0.428176
0.387695
0.42211
0.449495
0.458024
0.456389
0.447821
0.28893
0.410151
0.397718
0.35293
0.116324
0.217537
0.100001
0.100002
0.100002
0.100003
0.100002
0.100002
0.100002
0.100002
0.100002
0.100002
0.100002
0.100003
0.100003
0.100003
0.100003
0.100004
0.100004
0.100004
0.100004
0.100004
0.100005
0.100005
0.100022
0.100543
0.107672
0.147086
0.172122
0.151856
0.123959
0.108418
0.101331
0.100141
0.100176
0.101166
0.100287
0.107267
0.101846
0.16875
0.125009
0.242888
0.178635
0.28087
0.234616
0.333963
0.312282
0.323997
0.30494
0.321849
0.301422
0.346622
0.328775
0.378306
0.367753
0.407289
0.409398
0.425643
0.424169
0.426158
0.431428
0.441664
0.43854
0.433591
0.442873
0.438616
0.448283
0.454955
0.451765
0.444926
0.457377
0.444235
0.438251
0.458258
0.461794
0.459726
0.457675
0.378198
0.299699
0.356166
0.429664
0.41744
0.134216
0.326736
0.29583
0.228406
0.100007
0.100015
0.100016
0.100012
0.100007
0.100004
0.100003
0.100002
0.100002
0.100002
0.100002
0.100003
0.100003
0.100003
0.100003
0.100004
0.100004
0.100004
0.100004
0.100004
0.100005
0.10001
0.100269
0.103257
0.130539
0.171299
0.163547
0.135611
0.118375
0.105642
0.100345
0.100077
0.100064
0.10044
0.100127
0.102726
0.10074
0.13088
0.109726
0.177749
0.134151
0.212698
0.169403
0.281974
0.252102
0.279122
0.254893
0.309169
0.287097
0.355738
0.340509
0.414055
0.415239
0.438979
0.448836
0.457998
0.467169
0.438424
0.447725
0.460219
0.443141
0.444747
0.451448
0.464022
0.451525
0.448655
0.4553
0.452393
0.447695
0.45826
0.455615
0.45163
0.463185
0.461069
0.463631
0.463881
0.400826
0.379206
0.445035
0.434843
0.262552
0.173527
0.237939
0.352687
0.325749
0.100072
0.100114
0.100091
0.100048
0.10002
0.100008
0.100004
0.100003
0.100002
0.100002
0.100002
0.100003
0.100003
0.100003
0.100003
0.100004
0.100004
0.100004
0.100004
0.100004
0.100006
0.100086
0.101244
0.116514
0.165495
0.172111
0.148156
0.130036
0.115121
0.101877
0.10004
0.100184
0.100042
0.100035
0.10021
0.100075
0.101315
0.100417
0.112255
0.104055
0.135514
0.115994
0.167665
0.14222
0.227991
0.198257
0.262709
0.236719
0.32161
0.298966
0.409651
0.395866
0.472991
0.47679
0.476531
0.473455
0.474295
0.488103
0.499769
0.508022
0.464934
0.48194
0.500248
0.450882
0.459944
0.481707
0.497049
0.475585
0.451948
0.455828
0.455727
0.456319
0.458967
0.463491
0.461535
0.465861
0.461931
0.464766
0.467575
0.420325
0.400813
0.457204
0.449469
0.304039
0.142431
0.25295
0.377128
0.353773
0.100517
0.100615
0.100366
0.100148
0.100051
0.100018
0.100007
0.100003
0.100002
0.100002
0.100002
0.100003
0.100003
0.100003
0.100003
0.100004
0.100004
0.100004
0.100004
0.100005
0.10003
0.10062
0.107594
0.147925
0.174351
0.161165
0.142519
0.127319
0.108394
0.100437
0.100042
0.10005
0.100027
0.10002
0.100145
0.100056
0.100965
0.100319
0.106804
0.102701
0.124193
0.113092
0.159311
0.141853
0.209582
0.182731
0.273912
0.248271
0.376576
0.351909
0.467342
0.457027
0.446139
0.429062
0.512013
0.511786
0.507124
0.497905
0.517368
0.53118
0.540167
0.543586
0.502874
0.524915
0.544774
0.467365
0.485734
0.522137
0.539026
0.510519
0.460918
0.458966
0.464452
0.473458
0.461797
0.468524
0.468376
0.467472
0.464323
0.466736
0.46995
0.437319
0.420404
0.466318
0.461275
0.319723
0.172348
0.264305
0.399038
0.370175
0.102348
0.10218
0.10107
0.100365
0.100113
0.100035
0.100012
0.100004
0.100003
0.100002
0.100002
0.100003
0.100003
0.100003
0.100003
0.100004
0.100004
0.100004
0.100004
0.100012
0.100317
0.103077
0.128208
0.172374
0.172217
0.155063
0.140453
0.121803
0.102645
0.100027
0.100231
0.100015
0.100023
0.100018
0.100012
0.100118
0.100051
0.100856
0.100273
0.1063
0.102535
0.12939
0.11808
0.184883
0.168152
0.223748
0.202316
0.325265
0.297873
0.409971
0.377875
0.484971
0.469887
0.453975
0.437118
0.541895
0.533937
0.520856
0.504885
0.559937
0.569006
0.571219
0.567473
0.547424
0.569564
0.585765
0.494037
0.521646
0.567369
0.584329
0.553238
0.477945
0.467077
0.480737
0.500186
0.468905
0.471885
0.473021
0.469343
0.470155
0.471114
0.471853
0.452009
0.437418
0.472922
0.470421
0.327368
0.117892
0.20712
0.415753
0.382571
0.106506
0.105439
0.102381
0.100718
0.100201
0.100057
0.100016
0.100005
0.100003
0.100002
0.100002
0.100003
0.100003
0.100003
0.100003
0.100004
0.100004
0.100004
0.100006
0.1001
0.101129
0.114178
0.163824
0.177292
0.167014
0.153404
0.136963
0.11214
0.100603
0.100038
0.100053
0.10001
0.100013
0.100013
0.100009
0.1001
0.100037
0.100775
0.100226
0.107869
0.102626
0.147035
0.123056
0.218748
0.187571
0.271574
0.245761
0.346842
0.315278
0.408702
0.388122
0.352851
0.371091
0.487319
0.468555
0.448765
0.428653
0.556102
0.539913
0.521317
0.499731
0.594424
0.595655
0.589768
0.57635
0.591466
0.608611
0.616942
0.53012
0.564415
0.610476
0.626387
0.598153
0.503807
0.482059
0.505146
0.53564
0.481969
0.474422
0.476533
0.472477
0.480904
0.479534
0.47437
0.464103
0.451342
0.477785
0.477439
0.314321
0.111799
0.18245
0.428166
0.385031
0.112038
0.109322
0.103769
0.101095
0.10029
0.100076
0.10002
0.100006
0.100003
0.100002
0.100002
0.100003
0.100003
0.100003
0.100003
0.100004
0.100004
0.100005
0.100033
0.100645
0.106193
0.141648
0.176832
0.177054
0.165644
0.151675
0.128867
0.103784
0.100018
0.100311
0.100012
0.100021
0.100008
0.100009
0.100011
0.100008
0.100084
0.100025
0.100587
0.100162
0.108068
0.102225
0.152954
0.122535
0.223386
0.186181
0.285959
0.256092
0.337691
0.321388
0.29136
0.383234
0.362577
0.326328
0.343796
0.476442
0.452479
0.428605
0.405391
0.558082
0.536083
0.510053
0.482123
0.617437
0.610672
0.596296
0.576382
0.628636
0.637029
0.63747
0.572416
0.608732
0.645992
0.660587
0.639269
0.537917
0.504343
0.537246
0.57693
0.501643
0.47689
0.479537
0.478509
0.49752
0.492769
0.478474
0.47345
0.462252
0.481751
0.482887
0.294921
0.10663
0.159172
0.436145
0.382943
0.117408
0.112621
0.104873
0.101385
0.100355
0.10009
0.100023
0.100007
0.100003
0.100002
0.100002
0.100003
0.100003
0.100003
0.100003
0.100004
0.100004
0.100013
0.100327
0.102401
0.12222
0.171547
0.182157
0.176504
0.165169
0.145769
0.115857
0.100801
0.10004
0.100066
0.100008
0.100012
0.100007
0.100007
0.10001
0.100008
0.100055
0.100019
0.100368
0.100127
0.106296
0.101402
0.145665
0.115064
0.197875
0.159558
0.262376
0.232476
0.310703
0.297797
0.246276
0.233236
0.347398
0.325968
0.289157
0.306692
0.453314
0.424683
0.39712
0.371219
0.551546
0.522567
0.490587
0.457129
0.630724
0.616626
0.596562
0.570992
0.654946
0.655962
0.650232
0.616036
0.64906
0.670756
0.684298
0.672547
0.577673
0.533773
0.574992
0.619505
0.527749
0.479961
0.482553
0.488414
0.519851
0.511043
0.485338
0.480759
0.470417
0.485379
0.487371
0.276208
0.102393
0.136189
0.442185
0.379962
0.121934
0.114931
0.105544
0.101545
0.100389
0.100097
0.100025
0.100007
0.100003
0.100003
0.100002
0.100003
0.100003
0.100003
0.100003
0.100004
0.100006
0.100105
0.10098
0.11044
0.154806
0.182088
0.18498
0.17706
0.16148
0.133873
0.104572
0.100018
0.10039
0.100012
0.100022
0.100007
0.100008
0.100007
0.100007
0.100009
0.100008
0.100041
0.100015
0.100247
0.100105
0.103294
0.100733
0.122634
0.105767
0.147388
0.120074
0.221703
0.207825
0.176306
0.273481
0.259424
0.207625
0.197309
0.306304
0.283943
0.246822
0.264221
0.423399
0.390547
0.359692
0.331574
0.540587
0.506409
0.469594
0.431385
0.637461
0.619019
0.595458
0.567231
0.672722
0.668717
0.658146
0.655716
0.681689
0.687239
0.700052
0.695541
0.619151
0.568776
0.614972
0.658684
0.559356
0.484365
0.485836
0.50241
0.547314
0.533758
0.495231
0.486623
0.477124
0.488887
0.491564
0.25233
0.100838
0.121497
0.448333
0.377925
0.125501
0.116224
0.1058
0.101592
0.100403
0.100102
0.100026
0.100008
0.100004
0.100003
0.100003
0.100003
0.100003
0.100003
0.100003
0.100004
0.100035
0.100623
0.104474
0.131475
0.178101
0.189109
0.186981
0.175452
0.151777
0.116121
0.100929
0.100045
0.100084
0.100008
0.100012
0.100007
0.100007
0.100007
0.100007
0.100009
0.100008
0.100031
0.100013
0.100188
0.100083
0.101328
0.100403
0.106289
0.1018
0.121513
0.112363
0.105011
0.188481
0.181189
0.128744
0.137508
0.231775
0.218924
0.169708
0.160904
0.265175
0.241868
0.205299
0.22203
0.393213
0.356429
0.322458
0.292028
0.534356
0.497132
0.456661
0.414413
0.6424
0.622061
0.597076
0.56746
0.685777
0.67807
0.665812
0.688025
0.704331
0.700105
0.711828
0.710495
0.658086
0.606697
0.653635
0.69123
0.594589
0.490832
0.490026
0.520067
0.578369
0.559699
0.507812
0.491954
0.484104
0.492652
0.495849
0.232041
0.100415
0.117065
0.456036
0.380896
0.128266
0.116664
0.105754
0.101581
0.100409
0.100105
0.100028
0.100009
0.100004
0.100003
0.100003
0.100003
0.100003
0.100003
0.100004
0.100013
0.100309
0.101745
0.115875
0.165597
0.189
0.194197
0.187335
0.168363
0.13478
0.104329
0.100034
0.100448
0.100012
0.100025
0.100007
0.100008
0.100007
0.100007
0.100007
0.100007
0.100009
0.100008
0.100026
0.100012
0.10015
0.100062
0.100595
0.100262
0.101888
0.100834
0.111721
0.107642
0.104646
0.10284
0.153264
0.145581
0.116483
0.121778
0.191312
0.179725
0.147917
0.14057
0.234063
0.21122
0.178102
0.192809
0.372109
0.331531
0.294479
0.261888
0.533281
0.494727
0.45267
0.408534
0.649901
0.630369
0.606734
0.578797
0.695731
0.687395
0.676109
0.710675
0.718759
0.710314
0.72144
0.721141
0.691511
0.644799
0.688415
0.714805
0.630302
0.499119
0.495112
0.5402
0.61055
0.58663
0.522453
0.497472
0.491923
0.496396
0.500445
0.235885
0.100536
0.121248
0.465962
0.395132
0.130479
0.116519
0.105621
0.101572
0.10042
0.100112
0.100032
0.100011
0.100005
0.100003
0.100003
0.100003
0.100003
0.100003
0.100007
0.100104
0.100893
0.10744
0.141847
0.185727
0.19765
0.196813
0.182972
0.153632
0.112975
0.10091
0.100054
0.100116
0.100008
0.100013
0.100007
0.100007
0.100007
0.100007
0.100007
0.100007
0.100009
0.100008
0.100022
0.100012
0.100142
0.100054
0.100437
0.100222
0.101777
0.101157
0.100765
0.110552
0.107138
0.107678
0.104664
0.133919
0.127632
0.1148
0.119801
0.16628
0.156445
0.145427
0.138401
0.222852
0.201383
0.171946
0.184809
0.364221
0.321839
0.283495
0.25031
0.546042
0.508069
0.465573
0.419822
0.662421
0.646024
0.625883
0.601227
0.705541
0.698451
0.689957
0.725089
0.728813
0.719596
0.730088
0.729991
0.717243
0.67933
0.715873
0.730675
0.66353
0.508478
0.501135
0.561682
0.640785
0.613222
0.537403
0.503631
0.500731
0.50102
0.505918
0.268422
0.106294
0.153972
0.478674
0.426219
0.132397
0.116183
0.105544
0.101601
0.100446
0.100126
0.100041
0.100013
0.100006
0.100004
0.100003
0.100003
0.100003
0.100005
0.10004
0.100611
0.103322
0.123194
0.175872
0.197535
0.203459
0.195219
0.171267
0.130618
0.103201
0.100129
0.100013
0.100035
0.100007
0.100008
0.100007
0.100006
0.100007
0.100007
0.100007
0.100007
0.100009
0.100008
0.100021
0.100012
0.100137
0.10006
0.10045
0.100238
0.102613
0.101469
0.100848
0.101392
0.116974
0.1117
0.115837
0.109589
0.131726
0.125506
0.123521
0.131115
0.161759
0.153124
0.162989
0.155504
0.227274
0.207748
0.184066
0.193849
0.372901
0.327525
0.287185
0.253638
0.571593
0.536723
0.496858
0.452953
0.679926
0.66711
0.650919
0.630732
0.715821
0.711351
0.706178
0.736473
0.739133
0.728905
0.741144
0.741037
0.733495
0.708279
0.733267
0.741862
0.692235
0.518251
0.507707
0.581505
0.6679
0.635225
0.551409
0.510903
0.510617
0.506937
0.512951
0.352852
0.250641
0.324688
0.494825
0.46551
0.134218
0.115995
0.105635
0.101699
0.100498
0.100153
0.100049
0.100017
0.100008
0.100005
0.100004
0.100004
0.100004
0.100018
0.100326
0.101414
0.11201
0.154954
0.194931
0.207068
0.204851
0.186748
0.150785
0.109126
0.100598
0.100007
0.100014
0.100044
0.100007
0.100006
0.100006
0.100006
0.100006
0.100007
0.100007
0.100007
0.100007
0.100009
0.100008
0.100022
0.100012
0.100165
0.10007
0.100548
0.100325
0.105271
0.102606
0.101197
0.102321
0.134436
0.124091
0.12988
0.118461
0.147553
0.139391
0.146455
0.159371
0.176296
0.169585
0.202679
0.194538
0.257169
0.238523
0.21899
0.22645
0.406796
0.360966
0.319276
0.284274
0.605909
0.57605
0.541074
0.501428
0.699692
0.691183
0.680071
0.665652
0.726613
0.724078
0.72121
0.745715
0.747969
0.740336
0.748734
0.748245
0.746007
0.727544
0.746499
0.750351
0.716167
0.528397
0.51609
0.599045
0.690985
0.657904
0.565971
0.519807
0.522447
0.515025
0.522542
0.454589
0.333797
0.468364
0.514749
0.505287
0.136045
0.116209
0.10597
0.101887
0.100586
0.100192
0.100063
0.100025
0.100013
0.100008
0.100006
0.100005
0.100012
0.100141
0.100964
0.106336
0.134217
0.187038
0.207307
0.211697
0.199715
0.169364
0.122625
0.101937
0.100085
0.100007
0.100008
0.100013
0.100006
0.100006
0.100006
0.100006
0.100006
0.100007
0.100007
0.100007
0.100007
0.100009
0.100008
0.100023
0.100012
0.100221
0.100086
0.101023
0.100591
0.100373
0.110162
0.104796
0.101969
0.103972
0.16127
0.144223
0.148071
0.130931
0.184286
0.172461
0.179981
0.198966
0.213742
0.20872
0.254686
0.245963
0.309069
0.289528
0.269594
0.276975
0.458472
0.414492
0.373052
0.33732
0.647332
0.624628
0.596972
0.563963
0.717896
0.713691
0.70831
0.700895
0.738804
0.73699
0.734751
0.752184
0.756428
0.749417
0.760641
0.758828
0.752673
0.743288
0.752497
0.756311
0.734515
0.540924
0.52771
0.62044
0.71854
0.68995
0.585874
0.531625
0.537116
0.527775
0.537053
0.511193
0.155168
0.428347
0.537474
0.535682
0.137877
0.117001
0.106579
0.102183
0.100721
0.100251
0.100091
0.10004
0.100021
0.100012
0.100008
0.100012
0.100104
0.100741
0.10339
0.120819
0.171588
0.205703
0.216102
0.210061
0.185722
0.142202
0.105496
0.100305
0.100012
0.100006
0.100006
0.100007
0.100006
0.100006
0.100006
0.100006
0.100006
0.100007
0.100007
0.100007
0.100007
0.10001
0.100008
0.100029
0.100014
0.100253
0.100158
0.101413
0.100745
0.100358
0.100596
0.117644
0.108415
0.102883
0.106033
0.191443
0.168369
0.165517
0.144308
0.233218
0.217297
0.216152
0.241024
0.264946
0.260488
0.310972
0.299934
0.378631
0.356589
0.331869
0.34164
0.526176
0.485457
0.445349
0.408929
0.691118
0.678084
0.660855
0.637954
0.73204
0.729296
0.726499
0.723678
0.749633
0.749689
0.749731
0.76387
0.769768
0.763406
0.782643
0.774779
0.758779
0.75059
0.758759
0.771216
0.745307
0.559943
0.549368
0.653188
0.735532
0.719643
0.616031
0.547131
0.554749
0.549477
0.556697
0.524073
0.124535
0.373953
0.558946
0.557693
0.139608
0.1183
0.107517
0.102605
0.100911
0.100335
0.100135
0.100064
0.100033
0.100017
0.100014
0.100069
0.100391
0.101877
0.112727
0.153541
0.200566
0.217864
0.217794
0.199674
0.161502
0.113306
0.100938
0.100038
0.100006
0.100006
0.100007
0.100006
0.100006
0.100006
0.100006
0.100006
0.100006
0.100006
0.100007
0.100007
0.100007
0.100007
0.10001
0.100008
0.100044
0.100018
0.100454
0.100382
0.100283
0.100243
0.102017
0.101083
0.100768
0.126601
0.113238
0.104047
0.108447
0.217663
0.18987
0.176488
0.153378
0.284645
0.26461
0.247919
0.279274
0.325371
0.3189
0.371574
0.355592
0.467036
0.440191
0.405346
0.420279
0.608489
0.572576
0.536111
0.500281
0.719932
0.715018
0.708877
0.700016
0.748694
0.746587
0.743592
0.740228
0.76684
0.772277
0.779094
0.784815
0.796255
0.789698
0.799055
0.795694
0.776757
0.757184
0.782601
0.790515
0.752483
0.593785
0.580803
0.688806
0.743788
0.729292
0.659512