/*--------------------------------*- C++ -*----------------------------------*\
  =========                 |
  \\      /  F ield         | OpenFOAM: The Open Source CFD Toolbox
   \\    /   O peration     | Website:  https://openfoam.org
    \\  /    A nd           | Version:  dev
     \\/     M anipulation  |
\*---------------------------------------------------------------------------*/
FoamFile
{
    version     2.0;
    format      ascii;
    class       volScalarField;
    location    "2500";
    object      alphat;
}
// * * * * * * * * * * * * * * * * * * * * * * * * * * * * * * * * * * * * * //

dimensions      [1 -1 -1 0 0 0 0];

internalField   nonuniform List<scalar> 
9842
(
0.000151413
0.000155855
0.000148342
0.000141748
0.000191336
0.000131667
0.00013129
0.000201617
0.000181934
0.000124829
0.000126078
0.000192867
0.000210569
0.000155584
0.000122223
0.00012252
0.000170372
0.000225515
0.00019566
0.000140079
0.000120875
0.000120566
0.000152092
0.000223357
0.00022218
0.000166154
0.00013289
0.000119876
0.000119597
0.000140043
0.000209787
0.000237605
0.000200584
0.000148341
0.000128514
0.000119179
0.000119284
0.000131735
0.000184324
0.000243636
0.000228273
0.000171055
0.000139152
0.000125512
0.000118654
0.00011915
0.000127067
0.000161704
0.000238296
0.000243946
0.000199486
0.000153015
0.000133262
0.000123389
0.000118336
0.000119053
0.000124332
0.000148085
0.000221318
0.000255555
0.000229447
0.00017138
0.000143041
0.000129262
0.000121685
0.000118181
0.000118921
0.000122759
0.000138075
0.000193976
0.000257841
0.000249557
0.000195472
0.000154346
0.000136463
0.00012644
0.000120386
0.000118035
0.000118626
0.000121813
0.00013211
0.000168882
0.000251415
0.000260428
0.000224511
0.000169319
0.000144646
0.000131857
0.00012406
0.000119636
0.000117804
0.000118353
0.000121396
0.000128415
0.000154922
0.000232963
0.000270625
0.000249016
0.000190221
0.000154026
0.000138213
0.000128552
0.000122114
0.000119165
0.000117509
0.000118139
0.000121116
0.000126288
0.000144096
0.000203732
0.0002707
0.000266233
0.000216698
0.000166201
0.000145162
0.000133518
0.000125817
0.000120773
0.000118743
0.000117301
0.000117963
0.000120906
0.000124906
0.000137468
0.000176057
0.000263433
0.000275031
0.000244782
0.000184462
0.000152796
0.000138942
0.000129921
0.000123541
0.000119951
0.0001182
0.000117207
0.000117839
0.000120664
0.000123937
0.000133218
0.000162461
0.000244447
0.000283372
0.000265212
0.000207468
0.000163241
0.000144863
0.000134254
0.000126949
0.000121746
0.00011934
0.000117635
0.000117183
0.00011781
0.000120214
0.00012317
0.000130424
0.000151658
0.000214753
0.000282702
0.000279875
0.000234292
0.000177716
0.000151351
0.000139019
0.000130581
0.000124487
0.00012056
0.000118715
0.000117228
0.000117157
0.000117857
0.000119769
0.000122631
0.000128454
0.000144346
0.000187381
0.000275006
0.000286825
0.000260511
0.000198695
0.000159498
0.000143894
0.000134434
0.000127627
0.000122517
0.000119762
0.000117985
0.000117048
0.000117106
0.000117949
0.000119399
0.000122207
0.000127046
0.000139501
0.000171849
0.000257638
0.000294208
0.000277921
0.000222073
0.000172303
0.000149514
0.000138424
0.000130835
0.000125147
0.000121048
0.000119032
0.000117337
0.000116988
0.000117082
0.000117958
0.000118948
0.00012177
0.000125897
0.000136103
0.000161833
0.000230768
0.000293976
0.000290758
0.000247832
0.000188952
0.000156593
0.000143045
0.000134295
0.00012797
0.000123123
0.000120061
0.00011829
0.000116966
0.000116923
0.000117093
0.000117932
0.000118524
0.000121329
0.000124833
0.000133768
0.000153746
0.00020441
0.00028798
0.000296692
0.000271672
0.000210714
0.000166739
0.000147883
0.000138106
0.00013103
0.000125591
0.000121523
0.000119249
0.000117599
0.000116824
0.000116873
0.00011711
0.000117886
0.000118176
0.000120945
0.000123911
0.000132218
0.000148398
0.000184234
0.00027363
0.000304467
0.00028795
0.000232896
0.000181225
0.000154242
0.000142177
0.000134318
0.000128359
0.000123621
0.000120359
0.000118559
0.000117094
0.000116802
0.000116901
0.000117136
0.00011784
0.000117926
0.000120573
0.000123132
0.000130696
0.000145385
0.000173969
0.000250273
0.000305905
0.000300268
0.000257578
0.000198608
0.000162572
0.000146916
0.000137871
0.000131337
0.000126149
0.000122049
0.000119536
0.000117996
0.000116838
0.000116851
0.000116996
0.000117173
0.000117793
0.000117758
0.000120084
0.000122427
0.000129228
0.00014359
0.000165933
0.000223858
0.000301644
0.000307228
0.000279615
0.000219639
0.000174106
0.000152361
0.000141806
0.000134525
0.0001289
0.000124354
0.000120854
0.000118913
0.000117565
0.000116804
0.000116975
0.00011713
0.000117213
0.000117747
0.000117586
0.00011952
0.000121919
0.000127918
0.000142206
0.000160222
0.000200555
0.000290229
0.000314036
0.000297098
0.000240908
0.00018868
0.000159424
0.000146189
0.000137976
0.000131849
0.000126929
0.000122918
0.000120015
0.000118485
0.000117353
0.000116975
0.000117205
0.000117299
0.000117251
0.000117702
0.00011743
0.000119055
0.000121484
0.000126882
0.000140861
0.000156746
0.000187217
0.000270256
0.000316971
0.000308724
0.000264296
0.000206268
0.00016835
0.000150992
0.000141753
0.000135031
0.000129692
0.000125362
0.000121809
0.000119502
0.000118268
0.0001174
0.000117312
0.000117537
0.000117504
0.000117279
0.00011766
0.000117288
0.000118687
0.000121075
0.000126095
0.000139391
0.000154654
0.000179401
0.00024525
0.000314555
0.000316805
0.000285116
0.000225902
0.000180332
0.000156831
0.000145701
0.000138441
0.00013269
0.000127987
0.000124163
0.000121021
0.000119251
0.00011831
0.000117739
0.000117793
0.00011797
0.000117741
0.000117271
0.000117624
0.000117121
0.000118364
0.000120694
0.000125434
0.000137988
0.000153186
0.000172679
0.000221409
0.000306458
0.000321716
0.000304711
0.000246951
0.00019449
0.000164202
0.000150205
0.000142043
0.000135943
0.000130877
0.000126746
0.000123318
0.00012061
0.000119261
0.00011867
0.000118382
0.000118462
0.000118509
0.000118149
0.000117383
0.000117592
0.00011693
0.000118078
0.00012036
0.000124869
0.000136782
0.00015201
0.000167934
0.000202499
0.000289739
0.000326603
0.000315602
0.000267726
0.000211895
0.000173478
0.000155322
0.000145985
0.000139383
0.000134105
0.000129588
0.000125913
0.000122916
0.000120555
0.000119594
0.000119375
0.00011933
0.000119454
0.000119184
0.000118524
0.000117553
0.000117564
0.000116716
0.000117821
0.000120074
0.000124434
0.000135818
0.000150985
0.000164643
0.000192671
0.000268351
0.000325852
0.000324596
0.000288946
0.000229885
0.000185287
0.000161455
0.000150234
0.000143083
0.0001375
0.00013285
0.000128825
0.000125582
0.000122885
0.000120911
0.000120288
0.000120419
0.000120467
0.000120367
0.000119711
0.000118726
0.000117691
0.000117534
0.000116484
0.000117601
0.000119835
0.000124142
0.000135155
0.000149959
0.00016237
0.000184715
0.000243345
0.000320842
0.000328319
0.000308607
0.000250277
0.000199105
0.000168958
0.000154891
0.000146999
0.000141189
0.000136358
0.000132153
0.000128619
0.000125701
0.0001234
0.000121754
0.000121397
0.00012171
0.000122075
0.000121754
0.000120438
0.000118838
0.000117804
0.00011747
0.000116245
0.000117445
0.000119652
0.000123975
0.000134863
0.000148918
0.000160611
0.000178279
0.000221132
0.000308793
0.000334275
0.000320749
0.000269427
0.000215257
0.00017818
0.000160194
0.000151134
0.000145067
0.000140162
0.000135902
0.000132149
0.000128982
0.000126416
0.000124526
0.000123202
0.000123164
0.000123562
0.00012397
0.000123578
0.000121475
0.000119003
0.000117911
0.000117322
0.000116068
0.000117394
0.000119541
0.000123969
0.000134928
0.000147913
0.00015907
0.000173416
0.000205934
0.000290827
0.00033541
0.00033006
0.000290885
0.000232623
0.000189207
0.000166232
0.000155598
0.000149037
0.000144183
0.000140024
0.000136218
0.000132901
0.000130075
0.000127969
0.000126366
0.000125504
0.000125611
0.000126043
0.000126318
0.000125555
0.000122458
0.000119111
0.000117514
0.000118184
0.000117288
0.000116069
0.000117483
0.00011951
0.000124165
0.000135121
0.0001469
0.00015749
0.000169604
0.00019672
0.000267751
0.000333099
0.000335879
0.000308816
0.000251318
0.00020248
0.00017343
0.000160272
0.000153225
0.000148405
0.000144384
0.000140767
0.000137453
0.000134566
0.000132248
0.000130481
0.000129226
0.00012859
0.000128688
0.000128786
0.000128288
0.000126158
0.000122553
0.000118773
0.000120183
0.000117586
0.000118258
0.00011718
0.000116207
0.000117622
0.000119559
0.000124699
0.000135403
0.000146017
0.000155739
0.000166398
0.000188708
0.000244078
0.00032601
0.000339502
0.000325006
0.000270329
0.00021705
0.000182126
0.000165314
0.000157488
0.00015276
0.000148938
0.000145667
0.000142745
0.000139893
0.000137665
0.000135671
0.000134
0.000133067
0.000132197
0.00013158
0.000130534
0.000128184
0.00012477
0.000125733
0.000121672
0.00012435
0.000122632
0.00011888
0.000120245
0.000117627
0.000118346
0.00011652
0.000116867
0.000117617
0.00011969
0.000125672
0.000135693
0.0001452
0.000153807
0.000163512
0.000182053
0.000223719
0.000311471
0.000343761
0.000333877
0.00028866
0.000233775
0.000192275
0.000171027
0.000161694
0.000156987
0.000153568
0.00015086
0.000148524
0.000146304
0.000143919
0.000142109
0.000140397
0.000138432
0.000136187
0.000133728
0.000131679
0.000129151
0.00012647
0.000127043
0.000125141
0.000121606
0.000123419
0.000122139
0.000119042
0.00012042
0.000117705
0.000118463
0.000116347
0.000117826
0.000117737
0.000119782
0.000126909
0.000135906
0.000144298
0.000151733
0.000160881
0.000176577
0.000209583
0.000293563
0.000343346
0.000341411
0.00030763
0.000250047
0.000204249
0.000177596
0.00016596
0.000161022
0.000158043
0.000156021
0.000154592
0.000153156
0.000151556
0.000149336
0.000146515
0.000142795
0.000139567
0.000135646
0.000132049
0.000129414
0.000127397
0.000127392
0.000125732
0.000126032
0.000123982
0.000121497
0.000122531
0.00012164
0.000119299
0.000120683
0.000113722
0.000109972
0.000116636
0.00011753
0.000120445
0.000120424
0.000127382
0.000135822
0.000143344
0.000149855
0.000158461
0.000172024
0.000200318
0.0002714
0.000339895
0.000345161
0.000324696
0.000268142
0.000217535
0.000185044
0.000170506
0.000164744
0.000162269
0.000161033
0.000160574
0.000160248
0.000152495
0.000148048
0.000152106
0.000148724
0.000143327
0.000136438
0.000128088
0.000121279
0.000126392
0.000122141
0.00012576
0.000124511
0.000124303
0.000124018
0.000122828
0.000121344
0.000121764
0.000121184
0.000108098
0.000106525
9.75343e-05
9.37121e-05
0.000117122
0.000116745
0.000120314
0.000126348
0.00012676
0.00013493
0.000142464
0.000148137
0.000155795
0.000168094
0.000192211
0.000248816
0.000331403
0.000349534
0.000336528
0.000284604
0.000231992
0.000194036
0.000175312
0.000168195
0.000165967
0.000165721
0.000166022
0.000160141
0.000149731
0.000150202
0.000160505
0.000158988
0.00015399
0.000148566
0.000141077
0.000127469
0.000111782
0.000103074
0.000119991
0.000108848
0.000122713
0.00011812
0.000122591
0.000121255
0.000121535
0.000106479
0.000121028
0.000106092
9.19971e-05
9.08007e-05
8.37004e-05
8.02122e-05
0.000117275
0.000116091
0.000119428
0.000126268
0.000131479
0.000133156
0.000141203
0.000146545
0.000153182
0.000164807
0.000185262
0.000229421
0.000316988
0.000352451
0.000344518
0.000304324
0.000247413
0.00020411
0.000180665
0.00017152
0.000169303
0.000169309
0.000170276
0.000158972
0.000150939
0.000163931
0.000181934
0.000179585
0.000183659
0.000188063
0.00019239
0.000188225
0.000117591
0.00018855
9.96053e-05
0.000112873
0.000107135
9.91973e-05
0.000116624
0.000105779
0.000120074
0.000115389
0.000119418
9.02345e-05
0.00010778
9.18754e-05
7.86193e-05
7.7542e-05
7.25286e-05
6.94601e-05
0.000117314
0.00011641
0.00011848
0.000123912
0.000136281
0.000134951
0.00013804
0.000144781
0.000150707
0.00016201
0.000179641
0.00021391
0.000298998
0.00035166
0.000351466
0.000320656
0.000263455
0.00021621
0.000186672
0.000174749
0.000172234
0.000172258
0.000173946
0.000159244
0.000153784
0.000187047
0.000210612
0.000235711
0.000248185
0.000298293
0.000358977
0.000393686
0.00029116
0.00040469
0.000193482
0.000311289
0.00011429
0.00019934
9.9236e-05
0.000116468
0.000104693
9.9482e-05
0.000114682
0.000103968
0.000110293
7.8265e-05
9.58905e-05
8.24583e-05
6.7676e-05
6.74e-05
6.31861e-05
6.06556e-05
0.000117296
0.000116887
0.000118285
0.00012209
0.00013451
0.00013926
0.000138153
0.000140594
0.000148362
0.000158915
0.000175069
0.000203811
0.000278255
0.000347512
0.000354602
0.000337932
0.000281273
0.000228838
0.000194233
0.000178114
0.000174527
0.000174284
0.00017666
0.000160168
0.000155968
0.000200334
0.000240217
0.000286119
0.000355535
0.000431801
0.000465868
0.000478436
0.000447271
0.000480876
0.000402781
0.00045578
0.000318543
0.00040733
0.000205578
0.000324885
0.000119063
0.000211737
9.95919e-05
0.000121328
0.000103686
9.90142e-05
9.93021e-05
7.05527e-05
8.66434e-05
7.43213e-05
5.92548e-05
6.09071e-05
5.59194e-05
5.3067e-05
0.000117399
0.000117644
0.000118994
0.000122322
0.000130088
0.000138693
0.000141678
0.000140097
0.000144645
0.000156092
0.000171684
0.000196448
0.000256063
0.000338145
0.000359593
0.000347774
0.000296987
0.000243908
0.000202939
0.000182069
0.000176345
0.000175441
0.000177822
0.000163439
0.000157379
0.000207628
0.000265774
0.000335582
0.000445791
0.000510673
0.000516156
0.000507366
0.000492549
0.000503341
0.000481567
0.000494232
0.000461089
0.000485898
0.00041411
0.00046937
0.000331537
0.000420778
0.000217091
0.000337512
0.000122266
0.000219688
9.77243e-05
0.000120546
9.56308e-05
6.33377e-05
9.45576e-05
8.36385e-05
5.40658e-05
5.53284e-05
5.02114e-05
4.82422e-05
0.000117679
0.0001187
0.00012036
0.000123434
0.000128624
0.000136014
0.000142663
0.000142841
0.000143392
0.000153929
0.00016911
0.000190127
0.000236142
0.000323206
0.000361425
0.000355499
0.000317417
0.000258155
0.00021339
0.000187034
0.000177731
0.000176712
0.000178525
0.000168682
0.000160568
0.000208014
0.000277155
0.000379628
0.000508971
0.000547043
0.000541056
0.000526017
0.000510382
0.000516905
0.000499808
0.000503984
0.000497359
0.000501557
0.000492929
0.000503669
0.000478488
0.000502766
0.00042697
0.000485391
0.000341795
0.000431322
0.000217235
0.000342486
0.000116035
0.000206784
0.000108472
6.62124e-05
0.00010312
9.8634e-05
4.97124e-05
5.38969e-05
4.52361e-05
4.5095e-05
0.00011812
0.00011998
0.000122036
0.000125022
0.000128919
0.000133486
0.00014045
0.000144815
0.000144765
0.000152303
0.000166757
0.000185055
0.000220273
0.000304597
0.000359963
0.000361502
0.000334616
0.000275323
0.000225142
0.00019304
0.000179321
0.000178041
0.000179638
0.000174547
0.000164363
0.000206714
0.000276738
0.000397935
0.000548135
0.000566331
0.000553532
0.000530831
0.000511059
0.000508818
0.000510013
0.000501952
0.000503332
0.000507114
0.000503356
0.000510872
0.000513702
0.000512908
0.000518127
0.00048891
0.000518313
0.000432893
0.000489918
0.000337915
0.000429701
0.000187393
0.000325509
0.000159325
9.1034e-05
0.000139748
0.000120829
4.55619e-05
7.44477e-05
4.0508e-05
4.21024e-05
0.000118714
0.000121379
0.000123873
0.000127115
0.000129958
0.000133014
0.000136971
0.000143137
0.000146661
0.000151664
0.000164789
0.000181332
0.000208914
0.000284448
0.000354867
0.000364929
0.000349431
0.000292271
0.000238374
0.000200504
0.00018193
0.000179152
0.000180354
0.000179813
0.000166645
0.000202594
0.000271274
0.000395454
0.000570744
0.000587124
0.000548594
0.000511004
0.000483221
0.000495785
0.000476286
0.000503847
0.000502042
0.000500663
0.000499019
0.000506851
0.000500581
0.00051934
0.000512006
0.000525241
0.000524022
0.000518638
0.000528402
0.00048761
0.000516691
0.000422132
0.000480951
0.000304793
0.000408189
0.000274522
0.00010414
0.000237442
0.000188735
5.11031e-05
9.48361e-05
3.85069e-05
4.03268e-05
0.000120515
0.000123092
0.0001261
0.000129624
0.000131794
0.000133494
0.000135574
0.000140064
0.000146363
0.000152243
0.00016405
0.000178622
0.000201443
0.00026441
0.000344152
0.000369697
0.000358673
0.000312004
0.000253286
0.000209367
0.000185668
0.0001794
0.000180259
0.000184666
0.000171718
0.000189671
0.000256577
0.000381557
0.000581686
0.00060668
0.000553367
0.000439257
0.000415057
0.000458563
0.00042333
0.000479443
0.000459344
0.000496669
0.000491804
0.000496591
0.000493798
0.00050429
0.000498512
0.000518844
0.000514594
0.000530527
0.000531028
0.000529904
0.000538397
0.000513741
0.000531891
0.000472557
0.000509723
0.000387859
0.000460711
0.000363854
0.000145129
0.0003314
0.000288549
8.45106e-05
0.000115164
3.77021e-05
5.09079e-05
0.000126528
0.000126025
0.000129201
0.000132547
0.000134339
0.000134911
0.000135691
0.000139198
0.000146066
0.00015344
0.000164044
0.000177179
0.000196313
0.000246321
0.000329419
0.000370342
0.000366771
0.000331154
0.000269286
0.000220753
0.000189659
0.000178894
0.000179753
0.000183868
0.000178657
0.000180793
0.000238449
0.000353009
0.000581834
0.000629755
0.000568166
0.000422108
0.000286124
0.000392568
0.000321387
0.0004396
0.000415624
0.000464675
0.000447728
0.000489528
0.000481104
0.000495017
0.000491182
0.000509724
0.000506559
0.000532482
0.000533656
0.000548071
0.000558429
0.000548198
0.00056863
0.000535636
0.000561243
0.000506916
0.000539938
0.000446485
0.00050238
0.000428648
0.00023343
0.000404084
0.000371671
9.47255e-05
0.000167598
4.17483e-05
7.75902e-05
0.000139322
0.000132868
0.000133706
0.000135964
0.000137293
0.000137468
0.000137319
0.000140006
0.00014679
0.000154764
0.000164402
0.000176833
0.000193003
0.000232093
0.000312116
0.000368437
0.000371585
0.000349808
0.000287972
0.000233721
0.000195875
0.00018054
0.000179225
0.000182481
0.000187765
0.000179623
0.000221157
0.000319038
0.000551976
0.000664495
0.000602521
0.000438355
0.000246568
0.000246186
0.000382369
0.000319245
0.000432066
0.000410675
0.000460156
0.000450731
0.00048462
0.000473804
0.000503552
0.000498429
0.000532005
0.000530961
0.00056769
0.00057368
0.000592119
0.000608485
0.000592726
0.000622111
0.000574836
0.000615774
0.000546203
0.00058838
0.000494735
0.000549313
0.000485515
0.000325255
0.000469516
0.000444317
0.000121759
0.000260874
6.57714e-05
8.40287e-05
0.000148867
0.000141372
0.00014065
0.000141097
0.000141278
0.000141216
0.000143296
0.000149083
0.000156379
0.000165252
0.000176891
0.000191471
0.000222352
0.000294172
0.000362838
0.000375797
0.000362455
0.00030602
0.000248509
0.000205383
0.000183256
0.00017804
0.000180784
0.000187647
0.000184242
0.000207644
0.000283783
0.000488362
0.000688474
0.000665083
0.000499933
0.000254231
0.000201188
0.00026153
0.000219138
0.000382146
0.000313286
0.000437385
0.000418839
0.000473861
0.000467648
0.000490985
0.000481909
0.00052853
0.000522618
0.000573258
0.000570197
0.000611694
0.000606961
0.000632595
0.000627968
0.000641029
0.000639368
0.00063245
0.000648007
0.000598256
0.000642623
0.000548854
0.000603684
0.000544021
0.000406691
0.000531615
0.000510955
0.000179436
0.000351321
5.90295e-05
0.000111195
0.000153938
0.000149016
0.000147566
0.000148223
0.000148222
0.000149503
0.000153718
0.000159533
0.000167418
0.000177452
0.000192003
0.000217184
0.000277711
0.000352395
0.000380362
0.000370844
0.000328199
0.000264208
0.000216975
0.00018613
0.000176297
0.000178568
0.000184948
0.000192944
0.000200557
0.000250228
0.000419398
0.000685992
0.000743309
0.000628479
0.000340633
0.000201999
0.000195885
0.000180853
0.000251001
0.000213782
0.000376336
0.000306212
0.000450606
0.000420777
0.000497991
0.000480002
0.000514741
0.000508183
0.00056172
0.000549872
0.000596533
0.000584224
0.000619509
0.000608607
0.00063155
0.00061685
0.000639004
0.000624351
0.000651038
0.000637621
0.000646162
0.000651319
0.000604083
0.000644128
0.000598797
0.000478971
0.000587503
0.000573505
0.000534904
0.00026953
0.000429516
5.45303e-05
0.000166185
0.000161573
0.000158905
0.000158165
0.000158885
0.000158906
0.000160358
0.000164294
0.000170894
0.00017972
0.000192478
0.000215654
0.000264804
0.000339334
0.000380437
0.000378776
0.000347951
0.00028249
0.000229876
0.000191045
0.000177144
0.000176562
0.000181537
0.000191387
0.000198315
0.000225568
0.000350643
0.000660719
0.00079002
0.000764729
0.000548302
0.000241215
0.000175993
0.000187635
0.000172539
0.000230462
0.000193842
0.000355721
0.000281884
0.00045239
0.000394694
0.000503531
0.000476348
0.000536936
0.000521641
0.000570984
0.000556365
0.000594037
0.000575032
0.000594919
0.000564735
0.000592726
0.000555935
0.000608568
0.000566633
0.000631675
0.000593043
0.000649533
0.000623356
0.000641355
0.000647478
0.000648435
0.000616463
0.000634838
0.000560634
0.000499385
0.000546823
0.000602757
0.000625084
0.000630066
0.00059466
0.000356593
0.000527758
0.00050642
0.000446878
6.94433e-05
0.000250792
0.000170883
0.000173288
0.000172377
0.000172446
0.000171106
0.00017336
0.000177189
0.000185262
0.000194568
0.000216465
0.000256633
0.000324475
0.000378312
0.000382468
0.000364476
0.000302642
0.000243669
0.000201146
0.00017971
0.000174252
0.000177854
0.000187698
0.000197173
0.000212105
0.000289582
0.000580471
0.000795213
0.000887772
0.00075706
0.000400442
0.000193919
0.000160296
0.000169062
0.000170972
0.000161269
0.000195455
0.000167913
0.00030953
0.000242997
0.000417434
0.000327356
0.000477724
0.000412141
0.000539259
0.000516631
0.00055133
0.000523526
0.000531256
0.000495501
0.00052111
0.000489816
0.000529729
0.000493479
0.000544732
0.000498762
0.00060103
0.000574547
0.000549349
0.000522534
0.000636568
0.000616294
0.0005673
0.000559376
0.000590689
0.000637808
0.000643537
0.0006344
0.000633115
0.000640619
0.000583634
0.000569901
0.000618535
0.000632346
0.000636818
0.000610656
0.000478744
0.00037282
0.000447105
0.000552983
0.000532239
0.000109198
0.000408272
0.00037182
0.000191947
0.000187314
0.000195937
0.000193146
0.000189806
0.000187609
0.000188194
0.000193355
0.000200822
0.000217436
0.000253921
0.0003114
0.000372856
0.000387533
0.000375686
0.000324503
0.000260341
0.000213805
0.000182386
0.000172467
0.000174579
0.000181892
0.000194438
0.000205706
0.000246718
0.000457639
0.000777947
0.000938344
0.000938986
0.000680378
0.000272179
0.000174451
0.00015649
0.000159285
0.000156071
0.000153383
0.000158093
0.000148271
0.000245107
0.000187818
0.000318807
0.00023267
0.000366973
0.000280067
0.000487674
0.000437637
0.000456815
0.000414243
0.000459902
0.000428361
0.000461165
0.000432801
0.000463228
0.000441161
0.000499651
0.000479863
0.000467997
0.000458147
0.000538945
0.000512074
0.00048994
0.000613422
0.00058542
0.000530548
0.000522528
0.000554081
0.000630206
0.000637823
0.000627648
0.00060978
0.000629855
0.000600782
0.000588478
0.000627069
0.000624284
0.00061564
0.000620466
0.000506955
0.000476485
0.000573123
0.000553914
0.000191477
0.000199932
0.00012073
0.000442195
0.000411879
0.000216583
0.000227425
0.000219959
0.000212155
0.000207339
0.000206247
0.000212995
0.000221615
0.000254532
0.000303318
0.000363971
0.000390656
0.000383968
0.000346894
0.000278917
0.000226694
0.000187795
0.000173711
0.00017204
0.000176542
0.000189098
0.000201587
0.000222186
0.000353957
0.000721125
0.000936028
0.00108978
0.000935829
0.000518592
0.000204704
0.000157414
0.000170101
0.000148067
0.000153779
0.000145801
0.000146207
0.000137777
0.000137708
0.000175599
0.000146683
0.00021214
0.000164761
0.000253297
0.000201203
0.000366663
0.00031246
0.000393559
0.000354687
0.000407514
0.000381174
0.000426708
0.000413276
0.000453884
0.000450172
0.00044915
0.000447544
0.000474056
0.000464266
0.000459608
0.000458329
0.000504002
0.000482844
0.000469193
0.000581059
0.000548182
0.000495783
0.000488312
0.000516073
0.000606629
0.000602713
0.000603576
0.00057711
0.000588041
0.000612213
0.000601653
0.00061272
0.000577737
0.000573169
0.000614905
0.000530141
0.00050129
0.000588014
0.000570447
0.000186456
0.000144592
0.000148493
0.000469543
0.000443098
0.000265681
0.000264754
0.000245689
0.000234313
0.000227996
0.000228046
0.000232114
0.000256419
0.00030061
0.00035472
0.000390885
0.000390048
0.000366684
0.000300634
0.000240146
0.000197299
0.000175966
0.000169564
0.000172393
0.000182117
0.000195629
0.000210413
0.000286224
0.000603443
0.000911006
0.00113748
0.00114695
0.000848948
0.000323447
0.000177743
0.000154498
0.000157918
0.000143912
0.000147908
0.000139429
0.000141193
0.000128769
0.000132092
0.000136861
0.000127389
0.0001659
0.000138727
0.000217686
0.000181866
0.000310893
0.000263428
0.00035207
0.00032011
0.000399416
0.000382901
0.000446359
0.000444233
0.000441049
0.000436857
0.000458969
0.000460368
0.000461931
0.000463071
0.000462578
0.000461273
0.000463284
0.000467005
0.000475957
0.000464295
0.000460107
0.000542984
0.000510173
0.000468767
0.000461299
0.000481138
0.000574179
0.000579349
0.000572509
0.000538792
0.000562276
0.00061776
0.000609298
0.000570863
0.000550071
0.0005425
0.000577807
0.00054797
0.000520328
0.000597562
0.000581539
0.000408797
0.000222752
0.000136728
0.000490253
0.000460776
0.000351524
0.000324163
0.000276272
0.000252251
0.000249664
0.000250285
0.00026324
0.000301159
0.000348636
0.000390408
0.000394375
0.000379526
0.000321614
0.00025746
0.00020948
0.000178609
0.000169006
0.000169467
0.000175172
0.000187848
0.000202762
0.000241416
0.000439404
0.000828672
0.00112621
0.00131065
0.00114026
0.000658294
0.0002188
0.000156557
0.000170975
0.000144396
0.000151777
0.000136956
0.000140285
0.000133867
0.000134876
0.000124969
0.000128454
0.000121743
0.000120063
0.000152233
0.000124854
0.000217355
0.000187382
0.000285384
0.000250207
0.000362468
0.0003394
0.000435979
0.000419916
0.000463257
0.000462227
0.000459595
0.000455491
0.000470561
0.000474101
0.00047681
0.000478255
0.000461464
0.00046604
0.000471956
0.000477346
0.000458468
0.000455956
0.000459055
0.000505027
0.000474294
0.00045134
0.000442955
0.000453368
0.000536256
0.000572055
0.000535423
0.000500948
0.000555369
0.000591001
0.000608165
0.000540415
0.000541466
0.000530172
0.000546654
0.000560328
0.000534299
0.000602182
0.000587835
0.000223578
7.69966e-05
0.000140068
0.000506509
0.000479134
0.000493218
0.000432046
0.000309775
0.000270603
0.000271986
0.000277775
0.000305045
0.000347625
0.00038749
0.00039843
0.000389499
0.000345417
0.000277122
0.000224146
0.000184286
0.00017055
0.000166919
0.00017002
0.000179649
0.00019441
0.000215602
0.00032106
0.000719272
0.00108007
0.00136
0.00136922
0.00102871
0.000381988
0.000183699
0.000153358
0.000157856
0.000139608
0.000145072
0.000131238
0.000134648
0.000129425
0.000129771
0.000122442
0.00012565
0.00011092
0.000114693
0.000154298
0.000119835
0.000246962
0.000205596
0.000312065
0.000281666
0.000398344
0.000370359
0.000461531
0.000452037
0.000430447
0.000443097
0.000478482
0.000477566
0.000474693
0.000469198
0.000482192
0.000485748
0.000487918
0.000488756
0.000465343
0.000473011
0.000479498
0.000484864
0.00044968
0.000453561
0.000460587
0.000468166
0.000445286
0.000441145
0.000430666
0.000433489
0.000498471
0.000536376
0.000497757
0.000463282
0.000539593
0.000561708
0.000587021
0.000526068
0.000540619
0.000528449
0.000527528
0.000568612
0.000546021
0.000601615
0.000590716
0.000255638
5.99234e-05
0.0001772
0.000523085
0.000486241
0.000649746
0.000539083
0.000338902
0.000289616
0.000294509
0.000313936
0.000349273
0.000386696
0.00040104
0.000395982
0.000367057
0.000299858
0.000240873
0.00019721
0.000172327
0.00016577
0.000166808
0.000172159
0.000185958
0.00020135
0.000265311
0.000570197
0.00095189
0.00134048
0.00153584
0.0013457
0.000786748
0.000238292
0.000158078
0.000177284
0.000142613
0.000151588
0.000131992
0.000136492
0.000125046
0.000127736
0.000125336
0.000124445
0.000122074
0.000123234
0.000108393
0.000115414
0.000157704
0.000118847
0.000256238
0.000205627
0.000337189
0.000298832
0.000418079
0.000402208
0.000376076
0.000463327
0.000453634
0.000428955
0.000442594
0.000487659
0.000483925
0.000478347
0.000471499
0.000489049
0.0004917
0.000492525
0.000491073
0.000468938
0.000476656
0.000481772
0.000486689
0.000444977
0.000451737
0.000459477
0.000437512
0.000423418
0.000433553
0.000419871
0.000418729
0.000460572
0.000499046
0.000460122
0.000430565
0.000502834
0.000539601
0.000564889
0.000520116
0.000510087
0.000520142
0.000518212
0.000574845
0.000557685
0.000595557
0.000590558
0.000284982
4.48748e-05
0.000162438
0.000538083
0.000417032
0.000790381
0.00061916
0.000360056
0.000306471
0.000321181
0.000352693
0.000387153
0.000403613
0.000399989
0.000382688
0.000323136
0.000259313
0.000211817
0.000176432
0.000166606
0.000164576
0.000167053
0.000178413
0.000191337
0.000226192
0.000386398
0.000803798
0.00126442
0.00158556
0.00158754
0.00118632
0.000437564
0.000195051
0.000156597
0.000163073
0.000137494
0.000144685
0.000126335
0.000131591
0.000119914
0.00012214
0.000121526
0.000119978
0.000122162
0.000120627
0.000110587
0.000118473
0.000150524
0.000114367
0.000235502
0.000173238
0.000335752
0.000289022
0.000413783
0.000396791
0.000331152
0.000323144
0.000425605
0.000398124
0.000353463
0.000373489
0.000486967
0.000481993
0.000475247
0.000456378
0.000489483
0.000490573
0.000489436
0.000485636
0.000467963
0.000473035
0.000478368
0.000481689
0.000439254
0.000445584
0.000452945
0.000413326
0.000406044
0.000423832
0.000406183
0.000404692
0.000425753
0.000462508
0.000423059
0.000403885
0.000467
0.000525252
0.000544457
0.000516589
0.000474421
0.000485113
0.000512837
0.000580188
0.000568583
0.000576368
0.000587596
0.000285967
2.69032e-05
0.000119289
0.000498389
0.000389077
0.000899874
0.000667503
0.000372237
0.00032326
0.000350191
0.000387145
0.00040914
0.000404486
0.000391463
0.000343247
0.000278761
0.000224874
0.000185795
0.000167957
0.000163494
0.000164041
0.000171119
0.000182046
0.000201255
0.000281891
0.000670423
0.00110775
0.00156089
0.00175324
0.00152617
0.000874362
0.000264601
0.000164382
0.000189383
0.000145315
0.000156622
0.000130228
0.000136744
0.000120847
0.000125035
0.000115494
0.000117152
0.000118128
0.000116087
0.000119387
0.000116983
0.000115997
0.000121077
0.00012343
0.000113195
0.000166532
0.000122753
0.000301762
0.000274138
0.000222264
0.000336298
0.000324
0.000273473
0.000265489
0.00036565
0.000337645
0.000295668
0.000314105
0.000479549
0.000470857
0.000434082
0.000398141
0.000483204
0.000482703
0.000479513
0.000473266
0.000459465
0.000463415
0.000467801
0.000470392
0.000428383
0.000433007
0.000438902
0.000393216
0.000388984
0.000408054
0.000385862
0.000387294
0.000396043
0.000424697
0.000390583
0.00038089
0.000430012
0.000515522
0.000524965
0.000500169
0.000438348
0.000450063
0.000507777
0.000584023
0.0005278
0.000537008
0.00054275
0.000257168
5.39526e-06