/*--------------------------------*- C++ -*----------------------------------*\
  =========                 |
  \\      /  F ield         | OpenFOAM: The Open Source CFD Toolbox
   \\    /   O peration     | Website:  https://openfoam.org
    \\  /    A nd           | Version:  dev
     \\/     M anipulation  |
\*---------------------------------------------------------------------------*/
FoamFile
{
    version     2.0;
    format      ascii;
    class       volScalarField;
    location    "2500";
    object      CO2;
}
// * * * * * * * * * * * * * * * * * * * * * * * * * * * * * * * * * * * * * //

dimensions      [0 0 0 0 0 0 0];

internalField   nonuniform List<scalar> 
9842
(
6.11349e-35
2.01436e-34
8.69169e-35
3.64336e-34
4.33107e-34
9.40992e-35
5.49774e-34
8.27808e-34
3.96419e-34
3.73582e-35
8.34601e-34
1.70072e-33
1.23932e-33
3.5039e-34
1.62767e-35
1.12546e-33
2.31752e-33
2.47616e-33
1.03691e-33
2.35862e-34
5.97507e-36
1.63925e-33
4.37142e-33
5.40914e-33
2.9365e-33
7.07869e-34
1.1524e-34
4.88674e-36
3.22865e-33
6.66057e-33
8.99938e-33
6.36719e-33
2.11983e-33
4.86069e-34
4.53742e-35
1.77501e-36
3.92344e-33
1.18839e-32
1.93192e-32
1.25928e-32
5.99036e-33
1.56478e-33
2.47701e-34
1.40242e-35
2.6534e-37
4.49432e-33
2.89685e-32
3.77174e-32
2.59782e-32
1.29817e-32
3.91793e-33
9.64315e-34
1.4012e-34
5.70029e-36
1.30403e-37
1.94155e-32
5.47254e-32
5.7888e-32
5.22047e-32
2.64826e-32
1.20465e-32
2.20328e-33
5.83382e-34
4.02451e-35
1.93372e-36
3.64967e-38
2.60231e-32
7.8714e-32
1.07287e-31
1.02391e-31
6.56564e-32
2.50681e-32
9.09821e-33
1.57719e-33
2.11341e-34
1.38424e-35
3.4935e-37
1.13099e-38
2.93213e-32
1.01329e-31
2.42872e-31
2.49245e-31
1.38025e-31
6.29323e-32
2.11619e-32
4.74666e-33
8.31823e-34
5.93253e-35
4.28868e-36
1.22304e-37
4.38985e-38
5.08652e-32
2.05223e-31
4.12179e-31
4.42771e-31
3.04569e-31
1.37973e-31
4.1756e-32
1.32894e-32
2.45273e-33
3.11442e-34
1.69225e-35
1.6996e-36
5.08374e-37
3.67028e-37
3.95049e-32
3.01346e-31
5.64161e-31
8.91146e-31
6.1342e-31
3.13577e-31
1.25651e-31
3.12104e-32
6.36745e-33
1.09906e-33
1.408e-34
8.66021e-36
3.05644e-36
3.87915e-36
1.76059e-36
3.38538e-32
1.78544e-31
9.71389e-31
1.46965e-30
1.27519e-30
6.99674e-31
2.91037e-31
8.1713e-32
2.43337e-32
3.43352e-33
4.94687e-34
4.85615e-35
2.12298e-35
4.72846e-35
4.52407e-35
2.87355e-35
3.29647e-32
1.74294e-31
1.18459e-30
2.19503e-30
2.30533e-30
1.45135e-30
6.61493e-31
2.20459e-31
6.27632e-32
9.66683e-33
1.77209e-33
2.68213e-34
1.08179e-34
1.91537e-34
5.35103e-34
6.12678e-34
7.93684e-34
7.46464e-32
4.179e-31
1.27102e-30
3.07206e-30
3.23382e-30
2.80109e-30
1.40804e-30
5.85461e-31
1.59195e-31
3.04829e-32
3.87426e-33
9.96371e-34
4.89141e-34
1.08585e-33
4.37503e-33
8.88533e-33
1.57882e-32
1.78524e-32
2.72592e-31
1.11625e-30
2.46028e-30
3.97578e-30
5.23874e-30
4.57195e-30
2.7388e-30
1.22853e-30
3.86292e-31
1.16542e-31
1.58666e-32
3.33663e-33
3.22035e-33
8.4037e-33
2.93988e-32
1.2337e-31
3.00093e-31
4.90846e-31
5.76404e-31
1.48491e-31
1.68531e-30
3.31908e-30
6.34786e-30
8.50774e-30
7.26233e-30
4.3377e-30
2.4584e-30
8.06918e-31
2.76901e-31
4.21692e-32
1.15558e-32
1.65019e-32
8.24562e-32
3.28391e-31
1.64135e-30
5.567e-30
1.2872e-29
2.27542e-29
1.92043e-29
4.40193e-31
1.82051e-30
9.43153e-30
1.44071e-29
1.4582e-29
1.60713e-29
7.90618e-30
4.13866e-30
1.71954e-30
5.56158e-31
1.44444e-31
4.00844e-32
1.19049e-31
6.86319e-31
4.1946e-30
2.20493e-29
8.78914e-29
2.7933e-28
5.33111e-28
8.51351e-28
8.05225e-28
1.85512e-30
9.55738e-30
1.55469e-29
2.41323e-29
2.83098e-29
2.19656e-29
1.98128e-29
9.20298e-30
3.87433e-30
1.10824e-30
3.0348e-31
1.44755e-31
7.79794e-31
6.15699e-30
4.8756e-29
2.80861e-28
1.45059e-27
4.74157e-27
1.35736e-26
2.58744e-26
2.97011e-26
1.5965e-26
1.25696e-29
1.69936e-29
5.02798e-29
7.72357e-29
7.73057e-29
4.76529e-29
3.74765e-29
2.16399e-29
8.98532e-30
3.38629e-30
1.00529e-30
4.57592e-31
3.7146e-30
4.65166e-29
4.50198e-28
3.0901e-27
1.94403e-26
8.01679e-26
2.38485e-25
6.59351e-25
8.19958e-25
7.91986e-25
4.96478e-25
2.29261e-29
8.12616e-29
1.16284e-28
1.87984e-28
1.66622e-28
1.12357e-28
7.03304e-29
5.17777e-29
2.53725e-29
9.40431e-30
3.2314e-30
2.04338e-30
1.74395e-29
2.57331e-28
3.41102e-27
3.47153e-26
2.07927e-25
1.13773e-24
4.22242e-24
1.25844e-23
2.38305e-23
2.13873e-23
1.87922e-23
8.46341e-24
8.82341e-29
2.08365e-28
1.82309e-28
3.86416e-28
4.5764e-28
3.72289e-28
2.98272e-28
1.89872e-28
9.55589e-29
3.38653e-29
1.35082e-29
8.25551e-30
8.83556e-29
1.19738e-27
1.75122e-26
2.34217e-25
2.35975e-24
1.48068e-23
6.16403e-23
2.0424e-22
4.5677e-22
6.42456e-22
5.08413e-22
3.68599e-22
1.29422e-22
5.43528e-29
6.36144e-28
5.9173e-28
5.23671e-28
1.13533e-27
1.32711e-27
1.08972e-27
1.01142e-27
4.32539e-28
1.95096e-28
8.0613e-29
4.20665e-29
3.18725e-28
6.13242e-27
9.59231e-26
1.19971e-24
1.64244e-23
1.5125e-22
8.29802e-22
3.12615e-21
7.68054e-21
1.19051e-20
1.46555e-20
1.10809e-20
7.37266e-21
2.01047e-21
2.30293e-28
1.15444e-27
2.56332e-27
1.88387e-27
1.8964e-27
4.28032e-27
5.5519e-27
5.47301e-27
3.16255e-27
1.2632e-27
5.24069e-28
2.40196e-28
1.00153e-27
2.06623e-26
4.6111e-25
6.79292e-24
8.8327e-23
1.14645e-21
9.40904e-21
3.88036e-20
1.30974e-19
1.89552e-19
3.28418e-19
3.06934e-19
1.95346e-19
1.03879e-19
2.7106e-20
5.17816e-28
1.67721e-27
6.56575e-27
9.04612e-27
5.45134e-27
1.36287e-26
1.73373e-26
1.99125e-26
2.21676e-26
1.25298e-26
3.9527e-27
1.51186e-27
2.87796e-27
6.56876e-26
1.45777e-24
3.28037e-23
4.47203e-22
6.33241e-21
8.30783e-20
5.30105e-19
1.55439e-18
3.69896e-18
4.51845e-18
6.16213e-18
4.37431e-18
2.78914e-18
1.36247e-18
4.82962e-19
1.53183e-27
4.65298e-27
2.39753e-26
3.89875e-26
3.41617e-26
3.22422e-26
6.88574e-26
1.21436e-25
1.00107e-25
6.48011e-26
2.54474e-26
8.66868e-27
8.70582e-27
1.66297e-25
4.697e-24
1.2015e-22
2.24299e-21
3.44447e-20
4.17159e-19
5.00024e-18
2.21791e-17
3.75443e-17
7.71502e-17
9.47877e-17
8.21224e-17
5.73024e-17
3.30129e-17
1.65099e-17
5.08305e-18
4.10751e-27
2.1682e-26
8.39231e-26
1.6839e-25
1.86716e-25
2.13273e-25
2.70016e-25
4.05614e-25
5.43896e-25
2.63808e-25
1.58161e-25
6.03605e-26
4.2334e-26
3.21794e-25
1.31492e-23
3.63712e-22
9.00343e-21
1.73344e-19
2.38092e-18
2.71656e-17
1.98779e-16
5.11842e-16
7.91783e-16
1.23196e-15
1.30034e-15
1.11e-15
7.16703e-16
4.15281e-16
1.63431e-16
3.52246e-17
2.73739e-26
1.3664e-25
4.0743e-25
6.39714e-25
1.0781e-24
1.29012e-24
9.71917e-25
2.36389e-24
2.68226e-24
1.78851e-24
9.71955e-25
3.89903e-25
1.85109e-25
5.81716e-25
2.26128e-23
9.72521e-22
2.85435e-20
6.43358e-19
1.13093e-17
1.58977e-16
1.27248e-15
5.04116e-15
1.121e-14
1.90706e-14
2.48824e-14
2.39572e-14
1.74391e-14
9.66458e-15
4.15722e-15
1.70379e-15
2.71156e-16
9.46434e-26
1.02539e-24
1.5925e-24
3.44422e-24
5.72763e-24
9.20224e-24
5.61882e-24
9.97966e-24
7.8114e-24
1.08999e-23
5.56258e-24
1.46909e-24
9.78179e-25
1.06591e-24
3.35357e-23
1.69038e-21
7.5383e-20
2.10444e-18
4.51787e-17
8.33006e-16
7.57633e-15
4.73779e-14
1.11002e-13
2.50203e-13
3.96579e-13
4.49049e-13
3.7942e-13
2.42699e-13
1.18573e-13
4.36307e-14
1.11e-14
1.26399e-15
1.29598e-24
2.69936e-24
1.03247e-23
1.44891e-23
2.85803e-23
4.18051e-23
4.73125e-23
3.06396e-23
4.12294e-23
4.84863e-23
2.47447e-23
1.06101e-23
3.34896e-24
2.40961e-24
3.75522e-23
2.33139e-21
1.3245e-19
5.65406e-18
1.5216e-16
3.26938e-15
4.33223e-14
3.17794e-13
9.44422e-13
2.58258e-12
5.13e-12
6.94948e-12
6.8685e-12
5.11452e-12
2.8851e-12
1.21833e-12
3.71365e-13
5.11634e-14
1.5447e-15
8.90577e-24
1.77964e-23
3.29918e-23
8.50471e-23
1.30147e-22
1.54552e-22
2.87123e-22
1.75192e-22
2.97125e-22
1.9908e-22
1.3758e-22
5.39223e-23
2.34094e-23
1.27116e-23
4.21568e-23
2.46123e-21
1.67547e-19
1.0115e-17
4.18621e-16
1.01432e-14
1.84629e-13
1.77006e-12
7.89149e-12
1.98424e-11
5.10363e-11
8.66849e-11
1.0196e-10
8.86352e-11
5.83257e-11
2.87159e-11
1.00878e-11
1.85238e-12
6.55975e-14
2.51689e-15
4.98929e-14
4.26297e-23
8.65519e-23
1.6029e-22
2.49456e-22
5.53494e-22
7.60629e-22
1.57855e-21
1.27496e-21
1.07518e-21
1.09902e-21
5.53562e-22
2.89339e-22
9.12739e-23
6.84961e-23
6.35137e-23
2.25857e-21
1.73033e-19
1.25688e-17
7.98471e-16
2.91636e-14
6.20653e-13
7.548e-12
4.16719e-11
1.21626e-10
3.80434e-10
8.22825e-10
1.21469e-09
1.25404e-09
9.62508e-10
5.56416e-10
2.3217e-10
6.09258e-11
0
4.81729e-13
4.50997e-12
1.55239e-14
2.74842e-13
1.69809e-22
3.93048e-22
8.7347e-22
1.2845e-21
2.66362e-21
5.0716e-21
6.04168e-21
8.11665e-21
6.97523e-21
6.21202e-21
3.61879e-21
1.59073e-21
5.13504e-22
3.14722e-22
1.9149e-22
1.70142e-21
1.49262e-19
1.25286e-17
9.28495e-16
6.32844e-14
1.85646e-12
2.52684e-11
1.7896e-10
6.02075e-10
2.26332e-09
5.82737e-09
1.08978e-08
1.4173e-08
1.29125e-08
8.7263e-09
4.35525e-09
1.42169e-09
8.30783e-11
4.10705e-10
3.28241e-11
2.95386e-10
2.45672e-10
2.75747e-12
2.34646e-11
8.6375e-14
1.50107e-12
8.85179e-22
1.7693e-21
5.6806e-21
7.82152e-21
1.21786e-20
2.12918e-20
3.27197e-20
2.41658e-20
3.63121e-20
2.98956e-20
1.49092e-20
6.77423e-21
2.86249e-21
1.2683e-21
7.93544e-22
1.66998e-21
9.51877e-20
1.06472e-17
9.04664e-16
6.76535e-14
4.61003e-12
7.59863e-11
6.64008e-10
2.42255e-09
1.06784e-08
3.27793e-08
7.24443e-08
1.18809e-07
1.38362e-07
1.11204e-07
6.54155e-08
2.6788e-08
1.89178e-09
9.76513e-09
1.6472e-09
1.75097e-10
1.45737e-09
1.15209e-09
1.46427e-11
1.19938e-10
4.44414e-13
7.56416e-12
4.21202e-21
1.33866e-20
1.96597e-20
4.48819e-20
4.74617e-20
8.50893e-20
1.22363e-19
1.40136e-19
1.60793e-19
1.36702e-19
7.48518e-20
3.32963e-20
1.12573e-20
5.43601e-21
2.66935e-21
2.52794e-21
5.88048e-20
6.12234e-18
7.25932e-16
6.42604e-14
4.73937e-12
2.12626e-10
2.25281e-09
8.37778e-09
4.02568e-08
1.46073e-07
3.80424e-07
7.31815e-07
1.07608e-06
1.14494e-06
8.03928e-07
3.9362e-07
4.19893e-08
1.82762e-07
8.72002e-09
4.1416e-08
7.94214e-09
8.57388e-10
6.75983e-09
5.37668e-09
7.20457e-11
5.70293e-10
1.99389e-12
3.36101e-11
3.23352e-20
4.38243e-20
1.50142e-19
1.49571e-19
2.68449e-19
2.90136e-19
3.81229e-19
6.5555e-19
5.75241e-19
6.86812e-19
3.96924e-19
2.1617e-19
4.39709e-20
1.67058e-20
9.23885e-21
8.23791e-21
4.00612e-20
3.2784e-18
4.04936e-16
4.84184e-14
4.41617e-12
2.16448e-10
6.6188e-09
3.37941e-08
1.25118e-07
5.24765e-07
1.58597e-06
3.5327e-06
6.05638e-06
8.20933e-06
8.19306e-06
4.85739e-06
6.78065e-07
2.56506e-06
1.77395e-07
6.99872e-07
3.89319e-08
1.73793e-07
3.51792e-08
3.92374e-09
2.99365e-08
2.35878e-08
3.16392e-10
2.45644e-09
7.40862e-12
1.29707e-10
8.13784e-20
1.94068e-19
6.41694e-19
8.96138e-19
6.88897e-19
1.3443e-18
1.84415e-18
2.80336e-18
2.5198e-18
2.57495e-18
1.29974e-18
8.96731e-19
2.58025e-19
6.45981e-20
3.4376e-20
1.82367e-20
3.68574e-20
1.66841e-18
1.99388e-16
2.65508e-14
3.13705e-12
2.22684e-10
6.22267e-09
9.26901e-08
3.29804e-07
1.55627e-06
5.30063e-06
1.34212e-05
2.60012e-05
4.07431e-05
5.23477e-05
5.08055e-05
8.71623e-06
3.11566e-05
2.58882e-06
9.21669e-06
7.05172e-07
2.66195e-06
1.63563e-07
6.93421e-07
1.48036e-07
1.6485e-08
1.25187e-07
9.62983e-08
1.24278e-09
9.66691e-09
2.58398e-11
4.73014e-10
4.14473e-19
1.38397e-18
2.16423e-18
3.57437e-18
4.61681e-18
5.43986e-18
5.32081e-18
8.56633e-18
8.97704e-18
1.00152e-17
4.58831e-18
3.76171e-18
2.01894e-18
4.73828e-19
1.16948e-19
9.71937e-20
5.20024e-20
8.53629e-19
9.23221e-17
1.18654e-14
1.65331e-12
1.75246e-10
7.23897e-09
1.16516e-07
7.80997e-07
3.94188e-06
1.4463e-05
3.97508e-05
8.54157e-05
0.000145641
0.00020877
0.000254704
9.92577e-05
0.000281836
3.21596e-05
0.000105761
9.6366e-06
3.39403e-05
2.70361e-06
1.00194e-05
6.5638e-07
2.67963e-06
5.93743e-07
6.43781e-08
4.95009e-07
3.71533e-07
4.62731e-09
3.63738e-08
8.86811e-11
1.6897e-09
6.92695e-18
6.56746e-18
9.20641e-18
1.06406e-17
1.75067e-17
2.8842e-17
2.83626e-17
2.09143e-17
2.81019e-17
2.65786e-17
2.26075e-17
1.0145e-17
7.23715e-18
2.33922e-18
6.00391e-19
3.66646e-19
1.45499e-19
4.8804e-19
3.8637e-17
4.66069e-15
6.86929e-13
9.46162e-11
5.53649e-09
1.15083e-07
9.71686e-07
7.03837e-06
3.08853e-05
9.29825e-05
0.000208322
0.000379175
0.000551595
0.000710396
0.00052093
0.000834066
0.00028902
0.000571373
0.000111881
0.000305724
3.58849e-05
0.000118717
1.03163e-05
3.7857e-05
2.54969e-06
1.02829e-05
2.29278e-06
2.42769e-07
1.88517e-06
1.39787e-06
1.68357e-08
1.34363e-07
3.06161e-10
6.05712e-09
3.75431e-17
6.38505e-17
4.58469e-17
3.19073e-17
5.5745e-17
1.11474e-16
8.80499e-17
1.06225e-16
7.82427e-17
7.22731e-17
5.58062e-17
3.47396e-17
1.77274e-17
1.00697e-17
2.88526e-18
1.2041e-18
9.07331e-19
5.45563e-19
1.50011e-17
1.68793e-15
2.49693e-13
3.60101e-11
3.54897e-09
1.06741e-07
9.92436e-07
9.41949e-06
5.00249e-05
0.000161236
0.000370252
0.000646343
0.000955567
0.00120498
0.00107809
0.00137425
0.00087151
0.00116527
0.000599396
0.000914082
0.000323546
0.000631561
0.000126623
0.000344561
3.93577e-05
0.000134382
9.78931e-06
3.92434e-05
8.71922e-06
9.04071e-07
7.11335e-06
5.28379e-06
6.15602e-08
4.97964e-07
1.07412e-09
2.20205e-08
1.00959e-16
2.36578e-16
2.09713e-16
1.64901e-16
2.34983e-16
2.72824e-16
3.1748e-16
2.78845e-16
2.73907e-16
2.12156e-16
1.87777e-16
9.83829e-17
5.814e-17
2.89649e-17
1.35282e-17
4.7435e-18
2.09316e-18
1.2739e-18
6.54713e-18
5.8648e-16
8.35353e-14
1.21438e-11
1.56858e-09
8.17286e-08
9.42312e-07
9.79968e-06
6.28713e-05
0.000228734
0.0005301
0.000889377
0.00125735
0.00159242
0.00157671
0.00178252
0.0014485
0.00169566
0.00123026
0.0015336
0.000962847
0.00129947
0.000671748
0.00102379
0.000368486
0.000719922
0.000139644
0.000389979
3.71835e-05
0.000138812
3.2656e-05
3.43377e-06
2.65847e-05
1.9854e-05
2.28742e-07
1.88688e-06
3.8134e-09
8.04224e-08
2.18387e-16
8.03324e-16
6.99333e-16
6.36194e-16
6.99468e-16
9.36277e-16
1.12911e-15
1.14228e-15
9.56541e-16
6.26662e-16
5.12257e-16
3.52988e-16
2.71247e-16
9.66975e-17
5.01937e-17
1.29014e-17
7.40108e-18
4.08056e-18
5.2152e-18
1.84692e-16
2.64849e-14
3.83982e-12
5.07944e-10
4.36466e-08
7.73747e-07
9.31723e-06
6.46811e-05
0.000270106
0.000661204
0.00109255
0.00141715
0.0017258
0.00188253
0.00193676
0.00189689
0.00202999
0.00180603
0.00202981
0.00162607
0.00192399
0.0013825
0.00173374
0.00110065
0.00148681
0.000773611
0.00118901
0.000403826
0.000825756
0.000130161
0.000400255
0.000113531
1.30087e-05
9.29323e-05
6.97527e-05
8.59468e-07
7.25787e-06
1.36702e-08
2.96664e-07
9.05644e-16
2.13717e-15
2.49542e-15
2.79326e-15
3.83065e-15
4.28104e-15
5.33406e-15
5.2506e-15
4.28281e-15
3.06591e-15
1.72049e-15
1.1095e-15
7.42818e-16
3.20295e-16
1.45291e-16
7.09292e-17
2.51839e-17
1.5256e-17
1.01726e-17
7.04288e-17
8.04215e-15
1.15977e-12
1.51136e-10
1.57372e-08
5.62845e-07
7.53404e-06
6.20893e-05
0.000275072
0.000719924
0.00107311
0.00138999
0.00170002
0.00201599
0.00209312
0.00213535
0.00218952
0.00228033
0.00217398
0.00236215
0.00205792
0.00233579
0.00186425
0.00221639
0.00161173
0.00202129
0.0012843
0.00175061
0.00086774
0.00137654
0.000373235
0.000886165
0.000334116
4.63201e-05
0.000283462
0.000215455
3.30902e-06
2.63933e-05
4.96694e-08
1.11313e-06
2.9533e-15
9.2674e-15
1.11982e-14
1.14446e-14
1.64378e-14
2.31553e-14
2.86164e-14
2.91614e-14
2.45266e-14
1.63422e-14
9.15726e-15
4.72104e-15
2.25294e-15
1.16999e-15
4.71952e-16
2.3886e-16
9.94572e-17
4.93723e-17
2.66926e-17
4.74074e-17
2.45708e-15
3.37453e-13
4.38344e-11
4.80646e-09
2.94509e-07
4.85592e-06
5.35219e-05
0.00026604
0.00070318
0.000969669
0.00119775
0.00151982
0.00191546
0.00227915
0.00223234
0.00230828
0.00230273
0.00248099
0.00253364
0.0025518
0.00269963
0.00252093
0.00276435
0.00240228
0.00273209
0.00219944
0.0026104
0.0018933
0.00238904
0.00145381
0.00202693
0.000866518
0.00149956
0.000807909
0.000146185
0.000700405
0.000544521
1.2386e-05
8.66912e-05
1.89812e-07
4.34547e-06
1.48928e-14
3.91378e-14
4.80661e-14
5.93566e-14
8.8482e-14
1.3118e-13
1.66375e-13
1.72324e-13
1.44764e-13
9.92878e-14
5.68062e-14
2.70169e-14
1.17807e-14
4.775e-15
1.80072e-15
6.05644e-16
2.66043e-16
1.31747e-16
5.65828e-17
6.31056e-17
7.55794e-16
9.49031e-14
1.2379e-11
1.34836e-09
1.11144e-07
2.59932e-06
3.7664e-05
0.000237269
0.0006676
0.000866058
0.000936072
0.00100854
0.00154079
0.0021928
0.00209718
0.0024829
0.00245198
0.00253849
0.00252161
0.00277999
0.00280243
0.00293578
0.00303974
0.00299882
0.00318475
0.00296783
0.00323551
0.00283326
0.00320092
0.00257203
0.00305286
0.00213886
0.00273464
0.00150623
0.00221524
0.00146265
0.000398893
0.0013577
0.00116896
4.30857e-05
0.000250135
7.30431e-07
1.53368e-05
7.06821e-14
1.73018e-13
2.11203e-13
3.08958e-13
5.10569e-13
7.79282e-13
9.99811e-13
1.04462e-12
8.86099e-13
6.14404e-13
3.53108e-13
1.69971e-13
6.99006e-14
2.51857e-14
9.42359e-15
3.01006e-15
1.00828e-15
4.4546e-16
2.05042e-16
1.40831e-16
3.21502e-16
2.61768e-14
3.41447e-12
3.75345e-10
3.19167e-08
1.23471e-06
2.22847e-05
0.000185506
0.000620162
0.000804416
0.00076668
0.000544392
0.000660437
0.00189804
0.00133342
0.0024057
0.00228328
0.00273042
0.00268847
0.00279494
0.00276318
0.00308268
0.00308085
0.00328122
0.00331006
0.00337455
0.00342918
0.00341302
0.00349926
0.00340169
0.00354786
0.00324702
0.00354987
0.00286625
0.00340486
0.0022443
0.00295575
0.00221348
0.000901367
0.00211269
0.00192861
0.000129508
0.000602208
2.96261e-06
5.09502e-05
2.29301e-13
7.54715e-13
1.04026e-12
1.72041e-12
3.11842e-12
4.89571e-12
6.26403e-12
6.50857e-12
5.50286e-12
3.82196e-12
2.206e-12
1.0714e-12
4.41862e-13
1.59323e-13
5.28856e-14
1.68107e-14
4.23802e-15
1.58053e-15
6.94379e-16
3.40342e-16
3.47434e-16
7.22144e-15
9.22165e-13
1.02941e-10
8.91294e-09
5.06969e-07
1.1105e-05
0.000127548
0.000546887
0.000771589
0.000692819
0.000330598
0.00021424
0.000533162
0.00194955
0.00132595
0.00258988
0.00236612
0.00293064
0.00282471
0.00305384
0.00300054
0.00329478
0.00324951
0.0034256
0.00340166
0.00350421
0.0034868
0.00357625
0.00355811
0.00365501
0.00364294
0.00367418
0.00374072
0.00352165
0.00377822
0.0029943
0.00359973
0.00296759
0.00163563
0.00288136
0.00269983
0.000344693
0.00122834
9.74933e-06
0.00014244
2.42434e-12
5.60749e-12
1.0945e-11
2.07378e-11
3.30334e-11
4.17901e-11
4.23512e-11
3.50262e-11
2.39832e-11
1.3767e-11
6.69409e-12
2.77989e-12
1.00705e-12
3.30829e-13
1.05554e-13
2.52333e-14
7.25346e-15
3.21957e-15
9.77194e-16
5.63072e-16
2.42334e-15
2.44272e-13
2.78159e-11
2.49107e-09
1.5737e-07
5.36644e-06
7.50814e-05
0.000438016
0.000750384
0.000684181
0.000295882
9.16148e-05
0.000104812
0.000666877
0.000225492
0.00188681
0.001189
0.00264902
0.00230257
0.0029856
0.00283865
0.00317538
0.00308837
0.00334781
0.00327253
0.00344156
0.00336555
0.00350475
0.00339886
0.00358872
0.00346744
0.00370968
0.00360825
0.00382004
0.00377272
0.00386639
0.00389952
0.00363006
0.00393731
0.00360448
0.00240779
0.003534
0.00337942
0.000752888
0.0019854
2.94799e-05
0.000353829
2.54009e-11
7.33487e-11
1.50978e-10
2.43442e-10
3.02875e-10
2.94736e-10
2.32764e-10
1.53768e-10
8.63506e-11
4.15743e-11
1.72615e-11
6.30071e-12
2.07391e-12
6.53873e-13
1.62474e-13
3.8318e-14
1.637e-14
4.64192e-15
1.64985e-15
1.90641e-15
6.44272e-14
7.39454e-12
6.90674e-10
4.6791e-08
2.34519e-06
3.66334e-05
0.000307102
0.000725306
0.000697041
0.000317337
8.99857e-05
2.63116e-05
8.54384e-05
1.38831e-05
0.000393251
0.000137227
0.00165425
0.000942488
0.00256178
0.00201152
0.00291775
0.00266516
0.00318037
0.0030693
0.00326834
0.0031542
0.00327001
0.00312874
0.0032892
0.0030945
0.00340704
0.00317906
0.00362521
0.00341798
0.00383834
0.00368527
0.00398077
0.00391886
0.00398529
0.0040541
0.0040029
0.00311778
0.00398463
0.00390351
0.00357583
0.00139722
0.00270016
7.56936e-05
0.000725378
3.81199e-10
1.08268e-09
1.91108e-09
2.40369e-09
2.24531e-09
1.65811e-09
1.02712e-09
5.50543e-10
2.58248e-10
1.05956e-10
3.87709e-11
1.28881e-11
3.9806e-12
1.04555e-12
2.23067e-13
8.28394e-14
2.36446e-14
6.68867e-15
3.37362e-15
1.97549e-14
1.93284e-12
1.88716e-10
1.38191e-08
7.05788e-07
1.45398e-05
0.000184378
0.0006684
0.00073423
0.000392188
0.000131192
3.16441e-05
4.65381e-06
3.61987e-05
8.88118e-06
0.000215203
5.92615e-05
0.00126761
0.000603917
0.00220344
0.00151161
0.00259829
0.00219409
0.00301995
0.00284732
0.00297648
0.00281018
0.0028976
0.00269666
0.00295238
0.00272787
0.00322915
0.00303512
0.00352439
0.00338108
0.00378336
0.00367483
0.004004
0.00390806
0.00412454
0.00405764
0.00409589
0.00411125
0.00416984
0.0038165
0.00330275
0.0037383
0.00409242
0.00420449
0.00418407
0.00406996
0.00210215
0.00358522
0.00342767
0.00287117
0.000168877
0.00128118
5.76293e-09
1.41291e-08
1.99672e-08
1.87797e-08
1.29731e-08
7.32954e-09
3.62713e-09
1.61903e-09
6.47972e-10
2.34909e-10
7.89367e-11
2.39194e-11
6.46386e-12
1.34885e-12
3.89986e-13
1.33105e-13
3.21966e-14
1.1882e-14
1.53597e-14
5.02444e-13
5.05148e-11
3.99576e-09
2.30149e-07
6.33165e-06
9.32087e-05
0.000528806
0.00075983
0.000516589
0.00023217
7.6798e-05
1.13655e-05
1.45024e-06
1.52058e-06
1.42001e-05
3.35805e-06
8.58148e-05
2.20207e-05
0.000786129
0.000290752
0.00159646
0.000883865
0.00199688
0.00147956
0.00261439
0.00235794
0.00248635
0.0022584
0.00249669
0.00224912
0.00283186
0.00261263
0.00325569
0.00313564
0.00365017
0.00370613
0.00385261
0.00385881
0.00390812
0.00400082
0.00402662
0.00401247
0.00399654
0.00413202
0.00404169
0.00409874
0.00417289
0.00414375
0.00407331
0.00420354
0.00402285
0.00394497
0.00420653
0.00425756
0.0042327
0.00419808
0.00318326
0.00223081
0.00291157
0.00383402
0.00367771
0.000357167
0.00255637
0.00219906
0.00141464
7.44837e-08
1.49545e-07
1.60684e-07
1.10634e-07
5.69973e-08
2.52765e-08
1.04008e-08
3.98796e-09
1.41345e-09
4.75134e-10
1.41801e-10
3.83516e-11
8.31863e-12
1.91487e-12
7.26763e-13
1.74037e-13
5.30045e-14
3.24046e-14
1.57274e-13
1.32859e-11
1.12137e-09
7.14537e-08
3.32376e-06
4.0523e-05
0.000352119
0.000756631
0.000645665
0.00035364
0.000177835
5.02302e-05
2.89173e-06
7.07915e-07
5.31574e-07
5.24669e-06
1.36105e-06
3.17467e-05
8.6024e-06
0.000351124
0.000112209
0.000857194
0.000380473
0.00121964
0.000753071
0.00199113
0.00165339
0.00198329
0.00170096
0.00237286
0.00210636
0.00298894
0.00279604
0.00377711
0.00378468
0.00411557
0.004257
0.00437921
0.00449561
0.00408739
0.0042339
0.00441668
0.00407723
0.00413142
0.00427513
0.00445564
0.00425596
0.00412518
0.0041889
0.00417426
0.00414054
0.00422605
0.00417027
0.00411763
0.00427404
0.00426026
0.00429046
0.00428115
0.00346766
0.00319889
0.00403161
0.00390037
0.00182415
0.000820309
0.00154834
0.00287813
0.00256941
7.5292e-07
1.17643e-06
9.29366e-07
4.71811e-07
1.88688e-07
6.99223e-08
2.50043e-08
8.58778e-09
2.81935e-09
8.25567e-10
2.20159e-10
5.00048e-11
1.04594e-11
3.73532e-12
9.59575e-13
2.54007e-13
1.17734e-13
1.36663e-13
3.50642e-12
3.05762e-10
2.11923e-08
1.09012e-06
1.56264e-05
0.000195388
0.0007086
0.000748842
0.000485158
0.000298623
0.000143993
1.60968e-05
2.93788e-07
1.52955e-06
3.66537e-07
2.57221e-07
2.39964e-06
7.4815e-07
1.49852e-05
4.7116e-06
0.000138186
4.60909e-05
0.000388961
0.000177045
0.00073533
0.000461251
0.00139579
0.00106701
0.00181727
0.00151516
0.00255677
0.00227507
0.00369853
0.00349727
0.00456004
0.00459241
0.00456984
0.00450655
0.0046117
0.0047937
0.00493737
0.00502802
0.00447947
0.0047232
0.00497389
0.00421816
0.00437629
0.00471896
0.00493842
0.00462114
0.00419807
0.00421759
0.00424689
0.00429404
0.00425552
0.00427433
0.00424669
0.00431564
0.00428954
0.00432054
0.00433424
0.00371588
0.00347268
0.00418927
0.0040889
0.00234459
0.000493721
0.00178684
0.00318706
0.00292368
5.37158e-06
6.33698e-06
3.72326e-06
1.47212e-06
4.93818e-07
1.62798e-07
5.30798e-08
1.66204e-08
4.71817e-09
1.23297e-09
2.88106e-10
5.85741e-11
1.78638e-11
5.09004e-12
1.26231e-12
4.76586e-13
3.02196e-13
1.2116e-12
8.16489e-11
6.027e-09
3.3633e-07
7.11368e-06
9.19089e-05
0.000543406
0.000784836
0.000623723
0.000430064
0.000270663
7.47685e-05
3.68922e-06
3.05063e-07
3.63882e-07
2.16381e-07
1.22686e-07
1.56173e-06
5.48457e-07
1.08119e-05
3.52292e-06
7.60007e-05
3.02525e-05
0.000265622
0.000144718
0.000650865
0.000459608
0.00120672
0.000907932
0.00197273
0.00166868
0.00322863
0.00290361
0.00439939
0.00422706
0.00407463
0.00383366
0.00505532
0.00502295
0.00491998
0.00475733
0.00519695
0.00536433
0.00545714
0.00547165
0.00501973
0.0053201
0.00557731
0.00448132
0.00476599
0.00529419
0.00553635
0.00513142
0.00435603
0.00428641
0.00440174
0.004566
0.00431802
0.00434363
0.00433854
0.00434872
0.0043437
0.00436614
0.00437387
0.00393438
0.00372415
0.00430863
0.00424237
0.00254889
0.000833062
0.00192069
0.00346813
0.00313484
2.4285e-05
2.23643e-05
1.08573e-05
3.63862e-06
1.09463e-06
3.27958e-07
9.63902e-08
2.64176e-08
6.7494e-09
1.59207e-09
3.30054e-10
7.97662e-11
2.60828e-11
6.34994e-12
2.05487e-12
1.09514e-12
1.18726e-12
2.21243e-11
1.66193e-09
9.9388e-08
3.84994e-06
3.79248e-05
0.000326239
0.000770379
0.000748318
0.000563608
0.000409454
0.000210792
2.31465e-05
1.73931e-07
1.93355e-06
6.6454e-08
1.40459e-07
1.26491e-07
5.11303e-08
1.20562e-06
4.97723e-07
9.48871e-06
2.96029e-06
7.0241e-05
2.81839e-05
0.000324272
0.000198825
0.000937376
0.000746618
0.00138301
0.00113668
0.00256289
0.00222248
0.00356329
0.00315326
0.00455992
0.00434565
0.0041274
0.0038976
0.00539976
0.00524011
0.00502855
0.00479577
0.00575812
0.0058433
0.00583444
0.00571941
0.00563858
0.00592473
0.00611524
0.00488365
0.00529091
0.00592358
0.00616855
0.00574133
0.0046255
0.00443193
0.00465964
0.00496937
0.00444842
0.00439305
0.00440361
0.0043888
0.00445401
0.00445328
0.00441127
0.00412456
0.00394448
0.0043976
0.00436229
0.00264705
0.000198052
0.00120515
0.00368371
0.00329457
6.71946e-05
5.57495e-05
2.40786e-05
7.11594e-06
1.95394e-06
5.3603e-07
1.41712e-07
3.5729e-08
8.45085e-09
1.82047e-09
3.97327e-10
1.31845e-10
3.20646e-11
9.26002e-12
4.22091e-12
2.84467e-12
8.7956e-12
4.52258e-10
2.84498e-08
1.27324e-06
1.39972e-05
0.000167065
0.000695324
0.000814527
0.000692461
0.00054789
0.00037071
0.000110716
5.16209e-06
2.68515e-07
3.93654e-07
2.39856e-08
5.30577e-08
6.79681e-08
2.29913e-08
1.00627e-06
3.32164e-07
8.41446e-06
2.34949e-06
8.55825e-05
2.8702e-05
0.000508069
0.000246601
0.00128805
0.000938106
0.00190498
0.00160034
0.00276818
0.00238769
0.00347644
0.00321625
0.00278569
0.00300653
0.00454139
0.00427246
0.0040012
0.00373392
0.00551413
0.00526465
0.0049788
0.00465551
0.00618774
0.0061604
0.00601115
0.00577556
0.00623522
0.00643549
0.00649867
0.0054121
0.00590351
0.00650936
0.00674217
0.00637039
0.00501713
0.0046711
0.00503062
0.00549019
0.00466055
0.00443595
0.00445394
0.00445553
0.00463356
0.00459822
0.0044622
0.00428206
0.00412476
0.00446535
0.00445594
0.00247504
0.000127427
0.000918085
0.00384239
0.00331947
0.000124417
9.55093e-05
3.79315e-05
1.07757e-05
2.80534e-06
7.17109e-07
1.7875e-07
4.27421e-08
9.53202e-09
2.02845e-09
6.14251e-10
1.59751e-10
4.22799e-11
1.67197e-11
9.95599e-12
9.76765e-12
1.29188e-10
8.00401e-09
3.85855e-07
7.15386e-06
7.43084e-05
0.000476643
0.000815204
0.000804607
0.000680056
0.000528422
0.00028322
3.35615e-05
9.19819e-08
2.64976e-06
4.66554e-08
1.24799e-07
9.34263e-09
1.65549e-08
4.07835e-08
1.17724e-08
8.3031e-07
2.03561e-07
6.12365e-06
1.62476e-06
8.63043e-05
2.35911e-05
0.000560647
0.000235504
0.00131972
0.000904702
0.00203976
0.00169284
0.00260512
0.00241429
0.00205504
0.00311359
0.0028641
0.00243787
0.00264171
0.00432543
0.00399865
0.00368424
0.00338818
0.00548241
0.00513291
0.00474803
0.00435151
0.00646
0.00629624
0.00603841
0.00570778
0.00671994
0.0067829
0.00674409
0.00602025
0.00652681
0.00697215
0.00718971
0.00693353
0.00552036
0.00501144
0.00550658
0.00608656
0.0049631
0.00448123
0.00450162
0.00456482
0.00489254
0.00480945
0.00454265
0.0044039
0.00426464
0.00452104
0.00453022
0.00222035
7.75585e-05
0.000671682
0.00394044
0.00328086
0.000180053
0.000129154
4.87465e-05
1.35461e-05
3.40495e-06
8.40669e-07
2.03058e-07
4.69023e-08
1.01871e-08
2.62245e-09
7.68442e-10
1.94821e-10
6.79926e-11
3.59877e-11
2.44067e-11
6.03588e-11
2.25828e-09
1.1437e-07
3.94408e-06
2.92625e-05
0.000257376
0.000768367
0.000868359
0.000799055
0.000674818
0.000462901
0.000147313
6.97281e-06
2.82547e-07
5.09343e-07
1.34103e-08
4.47053e-08
4.031e-09
5.59527e-09
2.66785e-08
7.2445e-09
5.04293e-07
1.29982e-07
3.66474e-06
1.22484e-06
6.47893e-05
1.42245e-05
0.000466404
0.000149066
0.00100558
0.000590313
0.00172416
0.00138902
0.00225841
0.00211664
0.00150932
0.00136958
0.00264284
0.00239415
0.00197743
0.00217416
0.00395968
0.00358551
0.00323857
0.00292453
0.00531545
0.00488022
0.00442263
0.00396465
0.00657984
0.00632126
0.00597932
0.00556798
0.00704295
0.00701545
0.00686814
0.0066368
0.00708179
0.00727774
0.00748226
0.00737293
0.00609742
0.00545062
0.0060574
0.00669182
0.00535523
0.00453979
0.00455351
0.00472836
0.00523024
0.00508934
0.00466115
0.00449855
0.00436711
0.00457388
0.00459079
0.00199559
2.98654e-05
0.000419399
0.00401207
0.00323004
0.000226927
0.000152387
5.50614e-05
1.49962e-05
3.71311e-06
9.06306e-07
2.16317e-07
4.92671e-08
1.1759e-08
3.66807e-09
8.98105e-10
2.83178e-10
1.32792e-10
8.30092e-11
7.36322e-11
6.95288e-10
3.3592e-08
1.29278e-06
1.12879e-05
0.00012235
0.00061165
0.000871553
0.000894504
0.000805242
0.000632783
0.000334632
4.12208e-05
8.65913e-08
3.38485e-06
4.37416e-08
1.30725e-07
4.07666e-09
1.18913e-08
2.31912e-09
2.1164e-09
1.89646e-08
5.46835e-09
3.49281e-07
8.06744e-08
2.3975e-06
9.85063e-07
3.20091e-05
7.12441e-06
0.000213126
5.34629e-05
0.000447956
0.000179941
0.00124422
0.00109264
0.000749492
0.00180448
0.00165174
0.00107096
0.000966102
0.0021263
0.00187651
0.00147537
0.00166129
0.00352323
0.00311181
0.00274158
0.00241456
0.00510516
0.00460639
0.00409275
0.00358531
0.00662745
0.0063096
0.00592557
0.00547867
0.00726771
0.00715039
0.00694267
0.00718592
0.00751683
0.0074921
0.00768762
0.00765675
0.00669107
0.00596444
0.0066339
0.0072381
0.00582274
0.00462046
0.0046121
0.00494729
0.00563993
0.0054312
0.00482144
0.00457449
0.00445112
0.00462887
0.00464808
0.00172307
1.0204e-05
0.000246289
0.00408062
0.00318998
0.00026368
0.00016484
5.70823e-05
1.53102e-05
3.80845e-06
9.37017e-07
2.24706e-07
5.35084e-08
1.6191e-08
4.17177e-09
1.20585e-09
5.02131e-10
2.89598e-10
1.89261e-10
3.91046e-10
1.00677e-08
4.03195e-07
7.04712e-06
5.29953e-05
0.00035902
0.000836414
0.000945724
0.000915672
0.000785969
0.000525684
0.000150472
8.24488e-06
3.32781e-07
6.73606e-07
1.10343e-08
4.65427e-08
1.32652e-09
3.28232e-09
1.87881e-09
1.06676e-09
1.59261e-08
4.92151e-09
2.40698e-07
5.88849e-08
1.78958e-06
7.44122e-07
1.24387e-05
3.82586e-06
5.67444e-05
1.6505e-05
0.000194553
0.000109394
4.65361e-05
0.000876382
0.000801034
0.000260929
0.000349266