/*--------------------------------*- C++ -*----------------------------------*\
  =========                 |
  \\      /  F ield         | OpenFOAM: The Open Source CFD Toolbox
   \\    /   O peration     | Website:  https://openfoam.org
    \\  /    A nd           | Version:  dev
     \\/     M anipulation  |
\*---------------------------------------------------------------------------*/
FoamFile
{
    version     2.0;
    format      ascii;
    class       volScalarField;
    location    "2500";
    object      G;
}
// * * * * * * * * * * * * * * * * * * * * * * * * * * * * * * * * * * * * * //

dimensions      [1 0 -3 0 0 0 0];

internalField   nonuniform List<scalar> 
9842
(
4014.93
4020.71
4022.18
4025.77
4027.98
4030.19
4030.1
4033.05
4036.01
4038.98
4033.7
4037.38
4041.08
4044.8
4048.54
4036.6
4040.98
4045.41
4049.87
4054.38
4058.91
4038.81
4043.88
4049
4054.19
4059.45
4064.76
4070.11
4040.34
4046.07
4051.87
4057.76
4063.74
4069.81
4075.96
4082.15
4041.22
4047.59
4054.03
4060.59
4067.27
4074.07
4080.99
4088
4095.07
4041.46
4048.44
4055.51
4062.71
4070.05
4077.55
4085.21
4093.01
4100.93
4108.91
4041.11
4048.67
4056.33
4064.13
4072.1
4080.26
4088.62
4097.17
4105.9
4114.76
4123.71
4040.17
4048.28
4056.5
4064.87
4073.43
4082.22
4091.24
4100.5
4110
4119.7
4129.56
4139.52
4038.69
4047.31
4056.06
4064.97
4074.09
4083.45
4093.08
4103.01
4113.22
4123.71
4134.44
4145.36
4156.39
4036.69
4045.8
4055.03
4064.44
4074.08
4083.98
4094.18
4104.72
4115.59
4126.81
4138.35
4150.17
4162.21
4174.39
4034.2
4043.76
4053.45
4063.32
4073.44
4083.84
4094.57
4105.66
4117.14
4129.03
4141.31
4153.97
4166.95
4180.19
4193.6
4031.25
4041.23
4051.34
4061.65
4072.2
4083.05
4094.26
4105.86
4117.89
4130.38
4143.34
4156.75
4170.61
4184.84
4199.37
4214.09
4027.88
4038.24
4048.74
4059.44
4070.4
4081.66
4093.3
4105.36
4117.88
4130.91
4144.47
4158.56
4173.19
4188.33
4203.9
4219.82
4235.97
4024.11
4034.83
4045.69
4056.74
4068.06
4079.7
4091.72
4104.19
4117.15
4130.65
4144.74
4159.43
4174.75
4190.69
4207.2
4224.23
4241.65
4259.34
4019.98
4031.02
4042.2
4053.58
4065.22
4077.2
4089.56
4102.38
4115.72
4129.64
4144.18
4159.4
4175.32
4191.95
4209.29
4227.3
4245.9
4264.97
4284.34
4015.51
4026.84
4038.32
4049.99
4061.93
4074.19
4086.86
4099.99
4113.66
4127.92
4142.86
4158.51
4174.94
4192.17
4210.22
4229.08
4248.71
4269.03
4289.9
4311.12
4010.74
4022.34
4034.07
4046
4058.2
4070.72
4083.65
4097.05
4110.99
4125.55
4140.8
4156.82
4173.66
4191.39
4210.03
4229.62
4250.13
4271.54
4293.74
4316.58
4339.84
4005.7
4017.53
4029.49
4041.65
4054.07
4066.82
4079.97
4093.6
4107.77
4122.57
4138.08
4154.38
4171.55
4189.66
4208.79
4228.97
4250.22
4272.54
4295.89
4320.17
4345.19
4370.7
4000.41
4012.44
4024.61
4036.97
4049.59
4062.53
4075.87
4089.68
4104.03
4119.02
4134.73
4151.25
4168.67
4187.07
4206.56
4227.19
4249.03
4272.1
4296.4
4321.9
4348.47
4375.91
4403.94
3994.89
4007.1
4019.45
4031.99
4044.77
4057.88
4071.37
4085.33
4099.83
4114.96
4130.82
4147.49
4165.08
4183.69
4203.42
4224.37
4246.65
4270.3
4295.36
4321.84
4349.71
4378.83
4408.98
4439.81
3989.18
4001.55
4014.05
4026.73
4039.66
4052.9
4066.52
4080.59
4095.2
4110.43
4126.39
4143.15
4160.85
4179.58
4199.46
4220.61
4243.16
4267.21
4292.84
4320.09
4348.99
4379.49
4411.47
4444.65
4478.73
3983.3
3995.8
4008.43
4021.24
4034.28
4047.63
4061.34
4075.5
4090.19
4105.48
4121.48
4138.3
4156.03
4174.81
4194.75
4216
4238.68
4262.96
4288.96
4316.76
4346.43
4378
4411.45
4446.62
4483.3
4521.06
3977.26
3989.87
4002.61
4015.52
4028.66
4042.1
4055.88
4070.1
4084.83
4100.15
4116.16
4132.98
4150.7
4169.45
4189.38
4210.62
4233.33
4257.67
4283.82
4311.94
4342.14
4374.49
4409.05
4445.8
4484.66
4525.32
4567.22
3971.09
3983.8
3996.62
4009.62
4022.83
4036.33
4050.17
4064.42
4079.16
4094.48
4110.47
4127.24
4144.9
4163.58
4183.41
4204.56
4227.18
4251.47
4277.6
4305.8
4336.26
4369.1
4404.43
4442.34
4482.87
4525.92
4571.08
4617.73
3964.82
3977.59
3990.49
4003.55
4016.82
4030.36
4044.22
4058.49
4073.22
4088.52
4104.46
4121.15
4138.71
4157.26
4176.94
4197.91
4220.36
4244.46
4270.44
4298.51
4328.95
4361.98
4397.76
4436.42
4478.14
4522.99
4570.76
4621.08
4673.2
3958.45
3971.28
3984.23
3997.33
4010.64
4024.2
4038.08
4052.34
4067.05
4082.29
4098.15
4114.74
4132.16
4150.54
4170.02
4190.76
4212.94
4236.76
4262.45
4290.25
4320.45
4353.34
4389.21
4428.25
4470.69
4516.75
4566.45
4619.64
4675.94
4734.45
3951.99
3964.87
3977.86
3990.99
4004.32
4017.89
4031.77
4046
4060.67
4075.84
4091.61
4108.06
4125.32
4143.5
4162.73
4183.18
4205.03
4228.48
4253.77
4281.16
4310.94
4343.44
4379.02
4418.04
4460.77
4507.5
4558.43
4613.67
4673.12
4736.44
4802.47
3945.47
3958.37
3971.39
3984.55
3997.88
4011.45
4025.3
4039.5
4054.1
4069.19
4084.85
4101.16
4118.23
4136.17
4155.13
4175.26
4196.72
4219.73
4244.53
4271.37
4300.58
4332.5
4367.52
4406.08
4448.63
4495.52
4547.04
4603.5
4665.11
4731.9
4803.48
4878.39
3938.9
3951.81
3964.85
3978.01
3991.34
4004.89
4018.71
4032.85
4047.38
4062.37
4077.9
4094.05
4110.92
4128.62
4147.28
4167.05
4188.09
4210.61
4234.83
4261.04
4289.54
4320.71
4354.95
4392.72
4434.59
4481.11
4532.65
4589.58
4652.37
4721.36
4796.8
4878.24
4963.7
3932.3
3945.21
3958.25
3971.41
3984.72
3998.24
4012.02
4026.1
4040.54
4055.42
4070.81
4086.78
4103.44
4120.88
4139.23
4158.61
4179.21
4201.19
4224.8
4250.29
4277.99
4308.25
4341.52
4378.28
4419.1
4464.67
4515.6
4572.34
4635.42
4705.47
4783.05
4868.95
4962.14
5034.73
5036.33
3925.68
3938.57
3951.6
3964.74
3978.04
3991.52
4005.24
4019.25
4033.6
4048.36
4063.59
4079.38
4095.81
4112.98
4131
4150
4170.13
4191.57
4214.53
4239.26
4266.07
4295.33
4327.47
4363
4402.51
4446.71
4496.38
4552.22
4614.82
4684.89
4763.32
4850.97
4949.99
5034.86
5030
5086.35
5087.69
3919.06
3931.92
3944.92
3958.04
3971.3
3984.74
3998.4
4012.33
4026.58
4041.21
4056.29
4071.89
4088.08
4104.97
4122.65
4141.26
4160.92
4181.8
4204.1
4228.04
4253.93
4282.1
4312.99
4347.12
4385.1
4427.64
4475.58
4529.77
4591.1
4660.3
4738.34
4826.6
4914.23
4901.14
5022.33
4954.48
5011.14
5085.51
5079.8
5141.72
5142.69
3912.43
3925.26
3938.23
3951.31
3964.53
3977.92
3991.51
4005.35
4019.49
4033.99
4048.91
4064.31
4080.27
4096.88
4114.23
4132.43
4151.61
4171.93
4193.57
4216.72
4241.67
4268.72
4298.3
4330.9
4367.15
4407.78
4453.67
4505.69
4564.9
4632.36
4709
4796.2
4886.74
4870.09
4940.27
5070.7
4997.41
5058.17
5139.74
5132.93
5201.23
5201.75
3905.82
3918.6
3931.53
3944.57
3957.73
3971.06
3984.58
3998.34
4012.37
4026.73
4041.48
4056.69
4072.41
4088.74
4105.76
4123.57
4142.28
4162.04
4183
4205.37
4229.37
4255.31
4283.55
4314.56
4348.95
4387.47
4431.01
4480.52
4537.04
4601.82
4676.11
4761.13
4852.63
4833.27
4923.92
4905.62
4981.36
5122.37
5042.68
5108.13
5197.89
5189.8
5265.32
5265.38
3899.23
3911.96
3924.84
3937.82
3950.93
3964.19
3977.63
3991.29
4005.21
4019.44
4034.03
4049.04
4064.53
4080.57
4097.26
4114.68
4132.94
4152.15
4172.47
4194.06
4217.14
4241.97
4268.87
4298.28
4330.75
4367.02
4407.99
4454.67
4508.15
4569.63
4640.57
4722.4
4813.43
4791.86
4885.97
4864.91
4962.99
4942.63
5024.61
5177.58
5090.63
5161.39
5260.43
5250.82
5334.53
5334.05
3892.67
3905.33
3918.16
3931.08
3944.12
3957.31
3970.67
3984.24
3998.04
4012.13
4026.56
4041.37
4056.63
4072.4
4088.77
4105.81
4123.62
4142.31
4162.01
4182.86
4205.05
4228.8
4254.39
4282.21
4312.76
4346.72
4384.99
4428.6
4478.73
4536.58
4603.46
4681.08
4770.15
4747.05
4842.81
4819.57
4920.79
4897.59
5004.01
4981.32
5070.24
5236.7
5141.55
5218.22
5327.83
5316.45
5409.36
5408.31
3886.14
3898.74
3911.5
3924.36
3937.33
3950.44
3963.71
3977.17
3990.86
4004.82
4019.08
4033.7
4048.74
4064.25
4080.3
4096.97
4114.35
4132.54
4151.64
4171.79
4193.14
4215.89
4240.26
4266.54
4295.19
4326.83
4362.35
4402.77
4449.31
4503.28
4565.82
4638.36
4724.35
4700.38
4795.62
4770.95
4873.26
4847.93
4957.06
4931.45
5047.16
5021.84
5118.53
5300.08
5195.68
5278.91
5400.71
5387.23
5490.68
5489.05
3879.65
3892.18
3904.87
3917.66
3930.56
3943.58
3956.76
3970.12
3983.69
3997.51
4011.61
4026.04
4040.86
4056.11
4071.87
4088.19
4105.16
4122.86
4141.4
4160.88
4181.44
4203.24
4226.48
4251.37
4278.25
4307.63
4340.39
4377.6
4420.42
4470.08
4527.94
4595.13
4676.99
4652.16
4746.08
4720.65
4821.86
4795.26
4904.72
4877.1
4994.86
4966.58
5092.66
5064.39
5169.64
5368.2
5253.25
5343.89
5479.87
5463.85
5579.41
5577.11
3873.2
3885.66
3898.28
3910.99
3923.81
3936.75
3949.84
3963.09
3976.54
3990.22
4004.16
4018.41
4033.01
4048.01
4063.48
4079.47
4096.05
4113.3
4131.3
4150.15
4169.97
4190.89
4213.08
4236.7
4262
4289.34
4319.46
4353.49
4392.5
4437.49
4490.01
4551.36
4628.43
4603.56
4694.94
4668.81
4768.26
4740.78
4848.82
4819.99
4937.28
4907.2
5034.35
5003.19
5140.65
5109.08
5223.79
5441.65
5314.66
5413.67
5566.06
5547.04
5676.54
5673.38
3866.8
3879.18
3891.73
3904.36
3917.1
3929.95
3942.94
3956.08
3969.41
3982.95
3996.74
4010.8
4025.2
4039.96
4055.15
4070.81
4087.02
4103.84
4121.35
4139.62
4158.76
4178.87
4200.08
4222.54
4246.42
4271.99
4299.78
4330.86
4366.19
4406.52
4453.11
4508.01
4579.65
4555.07
4642.71
4616.41
4712.92
4684.8
4790.64
4760.8
4876.45
4845.11
4971.22
4938.42
5075.8
5041.72
5191.28
5156.23
5281.38
5521.06
5380.45
5488.85
5660.2
5637.74
5783.38
5779.12
3860.46
3872.76
3885.23
3897.78
3910.43
3923.19
3936.08
3949.11
3962.32
3975.72
3989.35
4003.24
4017.43
4031.96
4046.88
4062.24
4078.1
4094.51
4111.54
4129.27
4147.78
4167.16
4187.49
4208.91
4231.53
4255.54
4281.35
4309.9
4342.09
4377.97
4418.71
4466.54
4531.55
4508.38
4590.36
4564.45
4656.61
4628.45
4730.6
4700.24
4813.14
4780.68
4904.89
4870.7
5006.9
4971.06
5119.77
5082.7
5245.1
5206.65
5343.08
5607.26
5451.27
5570.26
5763.38
5736.87
5901.5
5895.77
3854.18
3866.39
3878.78
3891.24
3903.8
3916.47
3929.26
3942.19
3955.27
3968.54
3982.01
3995.73
4009.72
4024.03
4038.69
4053.75
4069.27
4085.3
4101.89
4119.12
4137.04
4155.74
4175.29
4195.78
4217.29
4239.95
4264.09
4290.56
4320.29
4352.68
4388
4428.71
4477.65
4539.27
4514.99
4600.55
4573.06
4669.91
4639.8
4747.93
4715.16
4835.81
4800.43
4934.35
4896.9
5044.7
5005.42
5167.12
5126.75
5303.08
5261.57
5409.95
5701.27
5528.4
5659.38
5876.81
5845.66
6032.91
6025.24
3847.95
3860.08
3872.38
3884.76
3897.23
3909.8
3922.49
3935.31
3948.27
3961.4
3974.73
3988.27
4002.07
4016.16
4030.58
4045.36
4060.56
4076.22
4092.4
4109.15
4126.53
4144.61
4163.44
4183.1
4203.65
4225.15
4247.86
4272.64
4300.56
4330.85
4362.04
4395.49
4436.47
4496.85
4473.61
4546.46
4521.07
4610.13
4581.09
4682.61
4650.52
4764.91
4729.58
4858.72
4820.12
4965.06
4923.88
5085.11
5041.84
5218.71
5174.57
5366.83
5322.23
5483.99
5804.65
5614.28
5758.75
6002.23
5965.85
6180.13
6169.88
3841.79
3853.83
3866.05
3878.33
3890.71
3903.19
3915.77
3928.48
3941.32
3954.33
3967.5
3980.88
3994.5
4008.37
4022.55
4037.06
4051.96
4067.27
4083.06
4099.37
4116.24
4133.75
4151.93
4170.84
4190.53
4211.04
4232.52
4255.81
4282.39
4311.56
4340.69
4369.01
4400.77
4451.93
4431.54
4501.44
4477.51
4553.14
4526.62
4619.09
4588.49
4694.72
4660.59
4781.58
4743.5
4881.96
4839.75
4997.25
4951.73
5128.67
5080.68
5275.61
5226.93
5438.23
5390.14
5567.89
5920.28
5712.31
5872.72
6141.78
6100.2
6346.3
6332.72
3835.7
3847.65
3859.77
3871.97
3884.25
3896.63
3909.11
3921.71
3934.44
3947.31
3960.34
3973.56
3986.99
4000.67
4014.61
4028.87
4043.47
4058.46
4073.88
4089.77
4106.18
4123.15
4140.73
4158.96
4177.89
4197.53
4217.96
4239.86
4265.16
4293.75
4322.29
4348.59
4374.35
4412.7
4397.32
4454.97
4433.91
4505.33
4480.55
4559.19
4531.51
4627.36
4595.17
4706.2
4669.9
4797.85
4756.81
4905.48
4859.24
5031.02
4980.39
5175.84
5122.06
5338.96
5284.53
5519.07
5466.66
5663.87
6052.88
5825.63
6006.43
6298.74
6253.95
6535.6
6518.13
3829.75
3841.54
3853.57
3865.67
3877.85
3890.13
3902.51
3915
3927.61
3940.36
3953.25
3966.31
3979.57
3993.05
4006.77
4020.78
4035.11
4049.79
4064.86
4080.35
4096.32
4112.8
4129.82
4147.44
4165.67
4184.53
4204.06
4224.72
4248.53
4276.58
4305.19
4331.28
4355.16
4379.33
4414.93
4399.22
4457.27
4435.78
4508.33
4482.72
4564.47
4535.57
4634.75
4600.89
4716.91
4678.3
4813.71
4769.46
4929.3
4878.57
5066.42
5009.94
5226.86
5166.1
5409.57
5347.71
5611.2
5552.79
5774.41
6209.07
5957.69
6163.6
6479
6435.43
6753.82
6731.68
3835.57
3847.44
3859.44
3871.52
3883.69
3895.97
3908.35
3920.85
3933.47
3946.23
3959.15
3972.23
3985.52
3999.03
4012.81
4026.87
4041.25
4055.99
4071.12
4086.67
4102.69
4119.2
4136.25
4153.84
4172.01
4190.75
4210.33
4232.49
4259.65
4288.48
4315.03
4338.66
4361.24
4389
4379.11
4416.86
4401.43
4458.88
4437.26
4510.42
4484.08
4568.77
4538.66
4641.06
4605.48
4726.72
4685.56
4828.96
4781.12
4953.28
4897.4
5103.47
5040.16
5281.89
5212.83
5487.82
5416.68
5716.06
5649.11
5901.41
6394.87
6111.45
6347.67
6691.13
6654.08
7007.89
6981.6
3841.47
3853.29
3865.26
3877.32
3889.49
3901.76
3914.15
3926.66
3939.29
3952.06
3964.98
3978.09
3991.4
4004.94
4018.75
4032.85
4047.28
4062.06
4077.23
4092.82
4108.86
4125.37
4142.38
4159.91
4177.96
4196.63
4217.17
4242.82
4271.7
4298.96
4322.94
4345.12
4370.37
4362.04
4392.36
4382.54
4418.81
4404.05
4459.89
4438.59
4511.53
4484.65
4571.98
4540.68
4646.11
4608.79
4735.29
4691.45
4843.3
4791.63
4977.12
4915.64
5142
5071.1
5340.98
5262.34
5574.03
5491.7
5834.53
5755.55
6046.23
6615.73
6289.6
6492.99
6524.47
6945.99
6915.88
7306.77
7279.89
3847.31
3859.09
3871.03
3883.08
3895.24
3907.52
3919.92
3932.43
3945.06
3957.83
3970.75
3983.87
3997.2
4010.76
4024.59
4038.72
4053.18
4067.98
4083.17
4098.76
4114.79
4131.26
4148.2
4165.61
4183.54
4202.67
4226.24
4254.67
4282.67
4307.37
4329.6
4351.19
4373.63
4365.06
4395.92
4386.07
4421.04
4407.2
4460.58
4440.16
4511.75
4484.83
4573.95
4541.58
4649.82
4610.85
4742.52
4695.94
4856.74
4801.03
5001.25
4933.7
5182.43
5103.03
5404.23
5315.05
5668.61
5573.6
5968
5820.6
5867.83
6190.77
6148.5
6639.03
6822.38
6795.01
6459.42
6418.95
6278.5
6606.87
7254.97
6960.19
7136.33
7158.58
7662.13
7641.6
3853.09
3864.82
3876.73
3888.78
3900.96
3913.25
3925.64
3938.14
3950.76
3963.52
3976.45
3989.57
4002.9
4016.48
4030.32
4044.46
4058.93
4073.74
4088.92
4104.49
4120.47
4136.87
4153.69
4170.97
4189
4210.27
4237.48
4265.95
4291.56
4314.3
4335.38
4359.62
4351.3
4376.91
4368.12
4399.59
4389.51
4423.8
4410.71
4461.5
4442.37
4511.57
4485.22
4574.78
4541.61
4652.23
4611.83
4748.58
4699.36
4869.62
4809.68
5025.51
4951.37
5224.93
5136.01
5480.27
5431.32
5382.37
5332.35
5771.85
5720.22
5517.28
5611.72
5666.99
5931.4
6103.34
6053.1
5880.74
6233.39
6765.12
6933.83
6568.6
6524.25
6373.58
6728.93
7324.06
7540.5
7523.52
7113.07
7304.58
8091.48
7739.46
7968.6
7979.98
3858.79
3870.47
3882.38
3894.44
3906.63
3918.92
3931.31
3943.79
3956.39
3969.14
3982.06
3995.17
4008.5
4022.08
4035.92
4050.06
4064.52
4079.31
4094.46
4109.98
4125.88
4142.17
4158.85
4176.05
4195.26
4220.38
4248.76
4275.27
4298.87
4320.11
4340.19
4362.13
4353.57
4380.02
4370.92
4403.06
4392.65
4427.07
4414.33
4463.17
4445.26
4511.76
4486.52
4574.84
4541.34
4653.79
4612.3
4753.9
4702.27
4881.82
4817.55
5049.81
4968.21
5283.19
5233.59
5185.15
5136.57
5465.27
5412.73
5359.66
5827.74
5772.25
5556.12
5655.93
5714.79
5999.66
6183.59
6129.26
5944
6323.35
6900.41
7083.04
6685.8
6474.17
6636.16
6859.49
7508.52
7727.8
7277.89
7486.1
8226.83
8556.71
8532.76
7963.99
8224.69
3864.41
3876.05
3887.98
3900.07
3912.28
3924.56
3936.91
3949.36
3961.94
3974.67
3987.57
4000.66
4013.98
4027.55
4041.38
4055.5
4069.93
4084.68
4099.78
4115.22
4131.01
4147.14
4163.68
4181.34
4203.73
4231.29
4258.49
4282.98
4304.97
4324.69
4347.33
4339.22
4364.4
4355.7
4382.82
4373.43
4406.07
4395.35
4430.45
4417.63
4465.53
4448.09
4512.79
4488.18
4574.89
4541.66
4655.16
4612.86
4758.52
4704.71
4892.69
4823.97
5090.05
5043.85
5000.38
4957.59
5306.94
5254.46
5202.54
5151.36
5500.32
5444.03
5387.32
5886.42
5826.6
5596.4
5701.89
5764.86
6071.11
6268.54
6209.34
6010.38
6418.66
7044.98
7243.05
6810.79
6580.64
6755.03
6998.51
7709.43
7950.43
7455.04
7682.31
8526.31
8902.34
8888.35
8214.45
8513.43
3869.93
3881.56
3893.56
3905.69
3917.88
3930.13
3942.44
3954.85
3967.4
3980.09
3992.96
4006.03
4019.33
4032.87
4046.67
4060.76
4075.15
4089.85
4104.87
4120.19
4135.82
4151.78
4168.36
4188.04
4213.88
4241.27
4266.59
4289.49
4309.74
4328.02
4348.92
4340.6
4366.36
4357.49
4385.23
4375.6
4408.48
4397.53
4433.28
4420.27
4467.47
4450.06
4513.65
4489.09
4575.27
4542.27
4656.35
4613.44
4761.71
4706.07
4918.12
4879.46
4844.19
4809.73
5101.66
5053.39
5007.2
4962.98
5330.95
5275
5219.63
5165.32
5536.44
5476.03
5415.28
5947.95
5883.46
5637.98
5749.42
5817.07
6146.08
6358.34
6293.72
6080.13
6519.38
7199.37
7414.51
6943.79
6693.29
6881.55
7146.64
7927.24
8194.01
7645.36
7893.71
8863.37
9275.98
9263.44
8490.69
8829.76
3875.34
3887.03
3899.13
3911.28
3923.44
3935.63
3947.89
3960.25
3972.75
3985.4
3998.23
4011.27
4024.53
4038.03
4051.8
4065.84
4080.18
4094.79
4109.68
4124.85
4140.29
4156.12
4173.66
4196.92
4223.79
4249.76
4273.53
4294.79
4313.05
4333.77
4326.03
4350.22
4341.82
4367.97
4358.93
4387.19
4377.37
4410.21
4399.14
4435.19
4422.1
4468.27
4450.81
4513.58
4488.6
4575.65
4542.53
4656.7
4613.13
4761.91
4705.25
4921.41
4882.01
4845.19
4810.48
5112.6
5061.75
5013.19
4967.14
5354.96
5295.22
5236.21
5178.53
5573.46
5508.56
5443.43
6012.49
5942.95
5680.63
5798.55
5871.49
6225.15
6453.12
6382.66
6153.67
6625.87
7364.16
7597.9
7085.33
6812.88
7016.17
7304.15
8162.69
8458.18
7849.12
8120.29
9217.42
9634.05
9622.1
8788.94
9161.89
3880.63
3892.49
3904.69
3916.83
3928.93
3941.05
3953.24
3965.55
3977.99
3990.59
4003.38
4016.37
4029.59
4043.05
4056.76
4070.73
4084.97
4099.46
4114.2
4129.17
4144.43
4160.54
4180.77
4206.38
4232.61
4257.13
4279.39
4298.57
4315.06
4334.6
4326.72
4351.19
4342.72
4369.17
4360.01
4388.67
4378.71
4411.29
4400.19
4436.05
4423.12
4467.61
4450.43
4511.83
4486.76
4574.87
4541.24
4655.4
4611.23
4776.93
4745.15
4689.78
4717.19
4923.92
4883.35
4845.45
4809.96
5122.72
5069.2
5018.29
4970.29
5378.88
5315.12
5252.3
5191.13
5611.2
5541.5
5471.74
6080.21
6005.07
5724.32
5849.14
5928.01
6308.45
6553.3
6476.43
6230.82
6738.57
7539.75
7793.29
7235.39
6939.89
7158.7
7471.56
8415.42
8740.48
8066.41
8361.79
9569.3
9949.84
9946.56
9101.68
9498.12
3885.88
3897.95
3910.22
3922.32
3934.33
3946.37
3958.49
3970.73
3983.11
3995.66
4008.4
4021.35
4034.51
4047.9
4061.54
4075.42
4089.53
4103.87
4118.42
4133.19
4148.38
4165.97
4189.46
4215.32
4240.38
4263.5
4283.9
4300.76
4319.66
4312.33
4335.17
4327.27
4351.85
4343.35
4369.95
4360.71
4389.65
4379.58
4411.81
4400.71
4436.13
4423.51
4466.17
4449.63
4509.28
4484.62
4572.58
4538.65
4665.45
4641.91
4608.01
4775.12
4743.88
4688.22
4715.18
4925.46
4883.7
4844.88
4808.73
5132.19
5075.87
5022.57
4972.62
5402.78
5334.84
5268.13
5203.38
5649.61
5574.88
5500.31
6150.89
6069.49
5769
5900.88
5986.15
6395.79
6659.07
6575.11
6311.35
6857.69
7726.43
8000.94
7394.58
7074.38
7309.59
7649.5
8683.66
9036.61
8297
8617.37
9902.45
10260.4
10261.4
9421.49
9828.09
3891.13
3903.4
3915.69
3927.71
3939.63
3951.58
3963.62
3975.79
3988.12
4000.61
4013.29
4026.17
4039.27
4052.58
4066.12
4079.88
4093.84
4108.01
4122.35
4136.95
4152.72
4173.31
4198.19
4223.42
4247.23
4268.71
4286.75
4301.7
4319.88
4312.47
4335.45
4327.53
4352.18
4343.66
4370.3
4361.04
4390.12
4379.99
4411.83
4400.71
4435.84
4423.47
4464.75
4448.88
4506.54
4482.73
4569.43
4535.44
4663.37
4639.95
4616.29
4595.26
4773.08
4741.89
4686.21
4713.07
4926.24
4883.3
4843.65
4806.98
5141.19
5082.03
5026.34
4974.5
5426.81
5354.63
5283.97
5215.58
5688.75
5608.8
5529.3
6224.36
6135.9
5814.63
5953.74
6045.66
6487.25
6770.41
6678.61
6395.48
6983.67
7924.54
8221.02
7563.75
7216.8
7469.65
7838.34
8965.07
9341.7
8540.74
8885.67
10224.1
10561.7
10564.3
9742.54
10151.5
3896.39
3908.8
3921.06
3932.98
3944.8
3956.66
3968.64
3980.74
3993
4005.42
4018.03
4030.84
4043.85
4057.06
4070.49
4084.11
4097.91
4111.88
4126.02
4140.69
4158.4
4181.57
4206.45
4230.69
4253.07
4272.44
4287.98
4305.42
4298.48
4319.92
4312.55
4335.44
4327.54
4352.17
4343.65
4370.25
4361.02
4390.08
4379.93
4411.35
4400.19
4435.4
4423.06
4463.79
4448.31
4504.37
4481.49
4576.27
4558.45
4532.32
4661.33
4638.11
4614.28
4593.61
4770.84
4739.63
4684.13
4710.86
4926.58
4882.45
4842.04
4804.94
5150.1
5088.06
5029.95
4976.16
5451.21
5374.77
5300.14
5228.12
5728.68
5643.38
5558.87
6300.78
6204.34
5861.33
6007.88
6106.61
6582.7
6887.8
6787.15
6482.93
7117.04
8134.49
8453.66
7743.04
7367.47
7638.81
8038.4
9257.01
9652.49
8797.33
9165.4
10534.5
10856.9
10857.3
10063.5
10469.3
3901.64
3914.13
3926.32
3938.13
3949.86
3961.64
3973.53
3985.55
3997.73
4010.08
4022.61
4035.33
4048.24
4061.35
4074.65
4088.11
4101.73
4115.49
4129.5
4145.07
4165.72
4189.74
4214.05
4237.08
4257.63
4274.42
4288.09
4305.24
4298.21
4319.74
4312.39
4335.16
4327.32
4351.8
4343.31
4369.82
4360.62
4389.55
4379.43
4410.31
4399.11
4434.71
4422.14
4463
4447.28
4509.3
4497.07
4479.51
4574.52
4556.56
4522.98
4538.15
4659.34
4636.18
4612.44
4591.88
4768.63
4737.42
4682.2
4708.76
4926.71
4881.46
4840.34
4802.87
5159.35
5094.38
5033.75
4977.88
5476.15
5395.45
5316.87
5241.23
5769.54
5678.68
5589.09
6379.81
6274.8
5909.22
6063.28
6169.1
6682.07
7011.38
6900.59
6573.28
7257.54
8356.53
8699.15
7932.71
7526.15
7817.51
8249.76
9557.59
9968.59
9065.72
9455.83
10833.6
11153.8
11150
10385.9
10783.6
3906.86
3919.37
3931.46
3943.16
3954.79
3966.48
3978.28
3990.22
4002.31
4014.57
4027.01
4039.64
4052.44
4065.43
4078.58
4091.88
4105.3
4118.86
4133.14
4150.94
4173.59
4197.53
4220.91
4242.39
4260.6
4274.86
4291.15
4284.52
4304.9
4297.93
4319.35
4312.03
4334.63
4326.87
4351.08
4342.69
4368.97
4359.84
4388.53
4378.51
4408.6
4397.47
4433.31
4420.5
4461.01
4444.96
4507.79
4495.39
4481.63
4471.49
4572.77
4554.83
4521.44
4536.47
4657.51
4634.36
4610.65
4590.12
4766.8
4735.6
4680.59
4707.03
4926.91
4880.64
4838.9
4801.12
5169.21
5101.35
5038.19
4980.22
5501.74
5416.78
5334.3
5255.1
5811.41
5714.73
5619.92
6461.28
6347.44
5958.08
6119.84
6233.29
6785.23
7140.83
7018.68
6666.34
7405.16
8591.02
8956.87
8132.89
7693.38
8005.82
8472.76
9867.15
10291.8
9345.79
9757.49
11132.1
11459.7
11452.3
10713.2
11104.2
3912.01
3924.5
3936.46
3948.05
3959.58
3971.18
3982.89
3994.73
4006.73
4018.9
4031.24
4043.76
4056.45
4069.3
4082.29
4095.4
4108.63
4122.16
4137.65
4158.17
4181.35
4204.75
4226.87
4246.31
4261.81
4274.45
4290.72
4284.06
4304.39
4297.47
4318.73
4311.47
4333.86
4326.18
4350.05
4341.8
4367.68
4358.66
4387.02
4377.12
4406.18
4395.24
4430.79
4417.97
4462.24
4453.84
4440.82
4505.52
4493.02
4478.7
4468.62
4570.95
4553.02
4519.25
4534.28
4655.91
4632.63
4608.79
4588.15
4765.49
4734.25
4679.21
4705.66
4927.71
4880.42
4838.02
4799.9
5179.88
5109.18
5043.54
4983.48
5527.88
5438.64
5352.28
5269.59
5853.88
5751.26
5651.14
6544.87
6421.66
6007.41
6176.77
6298.53
6892.05
7276.41
7141.67
6762
7560.02
8837.76
9226.26
8343.73
7868.85
8203.59
8707.65
10187.7
10626.4
9638.31
10072.7
11449.2
11789.6
11789
11055
11453.6
3917.07
3929.48
3941.32
3952.8
3964.23
3975.73
3987.34
3999.09
4010.99
4023.05
4035.29
4047.69
4060.26
4072.96
4085.78
4098.7
4111.78
4125.82
4143.71
4165.75
4188.78
4211.23
4231.63
4248.57
4261.73
4273.74
4290.22
4283.68
4303.73
4296.9
4317.88
4310.72
4332.81
4325.23
4348.72
4340.63
4365.96
4357.14
4384.96
4375.23
4403
4392.35
4426.96
4414.45
4459.45
4451.09
4433.15
4440.12
4502.4
4489.92
4474.88
4464.95
4568.8
4550.79
4516.19
4531.31
4654.42
4630.93
4606.69
4585.76
4764.52
4733.17
4677.84
4704.44
4929.34
4880.87
4837.6
4799.07
5191.28
5117.86
5049.85
4987.73
5554.23
5460.57
5370.31
5284.21
5896.41
5787.8
5682.32
6630.1
6496.84
6056.44
6233.07
6364.05
7002.61
7417.76
7269.23
6860.67
7721.41
9096.18
9508.18
8565.46
8052.03
8410.46
8953.63
10523.4
10980
9945.33
10404.3
11824.9
12271.9
12273.6
11428.9
11865.5
3922
3934.32
3946.03
3957.4
3968.73
3980.12
3991.63
4003.27
4015.07
4027.03
4039.15
4051.44
4063.87
4076.42
4089.06
4101.81
4115
4130.58
4150.87
4173.22
4195.65
4216.7
4234.9
4249.12
4261.12
4276.14
4283.05
4269.91
4289.59
4302.94
4296.21
4316.85
4309.81
4331.51
4324.07
4347.09
4339.18
4363.86
4355.29
4382.34
4372.86
4399.04
4388.82
4421.81
4409.96
4455.93
4447.72
4429.84
4436.6
4498.31
4485.93
4470.18
4460.49
4566.12
4547.91
4512.11
4527.37
4652.84
4629.07
4603.86
4582.6
4763.47
4731.85
4675.94
4702.86
4931.86
4881.99
4837.63
4798.4
5202.91
5126.89
5056.59
4992.41
5580.23
5481.82
5387.52
5298.03
5938.18
5823.28
5712.04
6717.28
6573.1
6104.15
6288.27
6429.63
7116.92
7564.54
7401.32
6961.99
7888.92
9366.17
9804.5
8797.2
8242.43
8625.89
9210.34
10879.9
11365.2
10269.5
10757.5
12345.7
13207.2
13090.4
11856.1
12378.2
3926.77
3938.98
3950.58
3961.86
3973.08
3984.36
3995.75
4007.28
4018.97
4030.82
4042.83
4054.99
4067.28
4079.67
4092.14
4104.83
4118.84
4136.88
4158.24
4180.33
4201.69
4220.85
4236.41
4248.73
4260.19
4282.46
4275.49
4269.23
4288.89
4302.05
4295.42
4315.67
4308.79
4329.98
4322.73
4345.16
4337.46
4361.4
4353.12
4379.18
4370.06
4394.4
4384.73
4420.15
4414.4
4404.62
4451.76
4443.85
4426.23
4432.64
4493.21
4481.02
4464.69
4455.35
4562.63
4544.18
4506.93
4522.28
4650.56
4626.49
4599.78
4578.17
4761.74
4729.58
4672.84
4700.18
4934.71
4883.35
4837.75
4797.47
5213.82
5135.31
5062.82
4996.64
5604.37
5500.93
5402.47
5309.55
5978.07
5856.14
5738.36
6805.61
6649.24
6149.87
6341.6
6493.92
7234.38
7716.17
7536.91
7064.91
8062.38
9649.44
10117.9
9038.23
8440.45
8849.54
9478.45
11266.9
11796.3
10615.2
11140.6
13041.7
14009.7
13925
12354.5
12995.8
3931.37
3943.48
3954.98
3966.15
3977.26
3988.42
3999.7
4011.12
4022.69
4034.43
4046.33
4058.36
4070.5
4082.73
4095.08
4108.13
4124.02
4143.96
4165.43
4186.78
4206.58
4223.37
4236.44
4247.98
4259.19
4281.77
4274.81
4268.67
4288.11
4301.04
4294.53
4314.37
4307.65
4328.26
4321.23
4342.93
4335.49
4358.59
4350.62
4375.57
4366.89
4389.24
4380.2
4416.61
4411.05
4397.84
4402.68
4447.01
4439.51
4422.35
4428.36
4487.16
4475.24
4458.55
4449.67
4557.94
4539.29
4500.68
4515.99
4647.03
4622.67
4594.07
4572.21
4758.79
4725.82
4668
4695.82
4937.09
4884.16
4837.21
4795.63
5222.51
5141.61
5067.08
4999.07
5624.56
5515.8
5413.01
5316.57
6015.25
5885.38
5760.23
6893.6
6723.09
6192.65
6386.79
6555.28
7353.87
7872.29
7674.94
7169.09
8242.25
9948.83
10453.1
9289.24
8645.93
9082.12
9761.07
11695.1
12282.8
10990.4
11561.8
13783
14618.2
14609.7
12927.7
13667.4
3935.8
3947.81
3959.21
3970.28
3981.27
3992.31
4003.47
4014.77
4026.24
4037.87
4049.65
4061.55
4073.55
4085.65
4098.1
4112.35
4130.51
4151.1
4172.14
4192.25
4209.98
4224.13
4235.88
4247.1
4261.36
4267.94
4255.45
4281.01
4274.06
4287.26
4299.95
4293.57
4312.95
4306.4
4326.4
4319.61
4340.47
4333.34
4355.47
4347.83
4371.6
4363.38
4394.68
4387.29
4383.08
4375.31
4412.92
4407.72
4399.44
4441.81
4434.78
4418.29
4423.88
4480.18
4468.64
4451.9
4443.61
4551.82
4533.06
4493.4
4508.48
4641.82
4617.21
4586.5
4564.58
4754.07
4720.11
4661.06
4689.38
4937.79
4883.32
4835.02
4792.13
5226.67
5143.48
5067.11
4997.56
5639.5
5524.82
5417.35
5317.2
6048.08
5902.91
5768.76
6973.49
6786.17
6226.72
6456.04
6613.5
7474.28
8033.58
7811.6
7275.02
8428.93
10269.5
10816.3
9552.86
8858.79
9325.78
10063.1
12171.5
12828.5
11401.2
12026.6
14479.8
15123.4
15164.9
13555.5
14348.5
3940.04
3951.96
3963.26
3974.23
3985.1
3996.01
4007.05
4018.24
4029.6
4041.13
4052.79
4064.57
4076.45
4088.53
4101.68
4118.02
4137.45
4157.92
4178.03
4196.4
4211.64
4223.82
4235.13
4246.13
4267.31
4260.74
4254.8
4280.18
4273.31
4286.33
4298.77
4292.52
4311.43
4305.07
4324.4
4317.87
4337.85
4331.05
4352.08
4344.84
4367.28
4359.56
4391.68
4384.38
4380.19
4370.18
4409.14
4404.25
4396.18
4436.32
4429.81
4414.14
4419.3
4472.42
4461.41
4445
4437.37
4544.19
4525.45
4485.18
4499.89
4634.61
4609.83
4577.02
4555.26
4746.57
4711.7
4651.63
4680.3
4934.84
4878.99
4829.64
4785.7
5224.25
5138.66
5060.46
4989.56
5643.64
5525.21
5414.64
5311.58
6080.86
5946.95
5756.74
7074.14
6798.96
6229.03
6431.95
6634.6
7590.99
8199.5
7965.36
7396.21
8621.87
10616.5
11213.5
9834.48
9081.75
9584.92
10389.6
12698.7
13428.6
11851.8
12537.5
15117.1
15541.7
15667.8
14216.8
15026.4
3944.11
3955.91
3967.12
3977.99
3988.73
3999.52
4010.44
4021.53
4032.79
4044.22
4055.78
4067.46
4079.29
4091.74
4106.51
4124.55
4144.25
4164.08
4182.76
4198.91
4211.77
4223.23
4234.35
4245.27
4266.64
4260.12
4254.3
4279.33
4272.56
4285.37
4297.53
4291.43
4309.81
4303.65
4322.3
4316.03
4335.09
4328.64
4348.46
4341.68
4362.67
4355.45
4388.61
4381.44
4377.49
4374.47
4367.86
4364.4
4405.33
4400.73
4392.9
4430.69
4424.75
4409.98
4414.74
4464.15
4453.82
4438.05
4431.14
4535.11
4516.59
4476.31
4490.46
4625.09
4600.31
4565.52
4544.28
4734.96
4699.52
4639.15
4667.84
4925.78
4869.17
4819.47
4774.85
5216.05
5128.42
5048.97
4977.65
5634.66
5518.07
5408.23
5304.98
6091.36
5923.6
5752.01
7046.43
6793.43
6223.93
6425.7
6629.95
7637.03
8380.6
7942.2
7375.72
8830.06
10994.9
11647
10137
9321.79
9861.86
10742.7
13278.4
14070.7
12344.4
13095.8
15737.4
16062.5
16376.5
14903.2
15728.2
3947.99
3959.68
3970.77
3981.55
3992.15
4002.82
4013.64
4024.64
4035.83
4047.17
4058.64
4070.27
4082.31
4095.88
4112.48
4131.21
4150.53
4169.23
4186
4199.67
4211.35
4222.59
4233.63
4244.44
4253.72
4265.96
4259.52
4278.48
4271.79
4284.41
4296.26
4290.33
4308.15
4302.2
4320.1
4314.12
4332.21
4326.13
4344.65
4338.36
4357.79
4351.12
4385.5
4378.41
4371.59
4365.04
4361.56
4401.55
4397.22
4389.61
4425.11
4419.72
4405.89
4410.3
4455.63
4446.09
4431.2
4425.07
4524.62
4506.62
4467.01
4480.36
4612.85
4588.37
4551.86
4531.57
4718.08
4682.66
4623.29
4651.49
4913.86
4855.84
4803.8
4758.46
5208.9
5120.86
5041.35
4970.23
5630.08
5513.63
5403.92
5300.8
6086.95
5918.12
5747.81
7039.96
6788.26
6219.32
6420.4
6625.36
7632.12
8363.72
7934.65
7368.57
8817
11418.7
12116.8
10454.8
9313.36
9858.78
11117.3
13902
14749.3
12878.6
13699.3
16526.1
18630.5
17678.4
15628
16533
3951.7
3963.23
3974.22
3984.87
3995.36
4005.92
4016.66
4027.6
4038.72
4049.98
4061.42
4073.19
4085.98
4101.23
4118.84
4137.48
4155.95
4173.03
4187.48
4199.49
4210.85
4221.99
4232.94
4243.71
4253.28
4252.77
4265.29
4258.98
4277.62
4271.04
4283.44
4295
4289.24
4306.48
4300.75
4317.88
4312.19
4329.24
4323.56
4340.7
4334.93
4355.52
4352.49
4346.58
4382.36
4375.38
4368.62
4362.14
4358.79
4397.83
4393.73
4386.31
4419.71
4414.86
4401.91
4405.99
4447.02
4438.39
4424.57
4419.23
4512.81
4495.67
4457.44
4469.76
4597.59
4573.83
4536.02
4517.12
4698.48
4662.72
4603.76
4631.24
4906.44
4826.7
4782.07
4738.53
5204.84
5116.94
5037.52
4966.5
5626.04
5509.66
5400.08
5297.11
6082.72