/*--------------------------------*- C++ -*----------------------------------*\
  =========                 |
  \\      /  F ield         | OpenFOAM: The Open Source CFD Toolbox
   \\    /   O peration     | Website:  https://openfoam.org
    \\  /    A nd           | Version:  dev
     \\/     M anipulation  |
\*---------------------------------------------------------------------------*/
FoamFile
{
    version     2.0;
    format      ascii;
    class       volScalarField;
    location    "2500";
    object      H2O;
}
// * * * * * * * * * * * * * * * * * * * * * * * * * * * * * * * * * * * * * //

dimensions      [0 0 0 0 0 0 0];

internalField   nonuniform List<scalar> 
9842
(
5.82663e-35
1.91984e-34
8.28384e-35
3.4724e-34
4.12784e-34
8.96838e-35
5.23977e-34
7.88965e-34
3.77818e-34
3.56052e-35
7.95439e-34
1.62092e-33
1.18117e-33
3.33949e-34
1.55129e-35
1.07265e-33
2.20878e-33
2.35997e-33
9.88253e-34
2.24794e-34
5.6947e-36
1.56233e-33
4.1663e-33
5.15532e-33
2.79871e-33
6.74654e-34
1.09832e-34
4.65744e-36
3.07715e-33
6.34804e-33
8.5771e-33
6.06842e-33
2.02036e-33
4.63261e-34
4.32451e-35
1.69172e-36
3.73934e-33
1.13263e-32
1.84127e-32
1.20019e-32
5.70928e-33
1.49136e-33
2.36078e-34
1.33661e-35
2.5289e-37
4.28343e-33
2.76092e-32
3.59476e-32
2.47592e-32
1.23726e-32
3.73409e-33
9.19067e-34
1.33545e-34
5.43281e-36
1.24284e-37
1.85045e-32
5.21576e-32
5.51718e-32
4.9755e-32
2.52399e-32
1.14812e-32
2.09989e-33
5.56008e-34
3.83567e-35
1.84298e-36
3.47842e-38
2.48021e-32
7.50205e-32
1.02252e-31
9.75867e-32
6.25756e-32
2.38918e-32
8.67129e-33
1.50318e-33
2.01424e-34
1.31928e-35
3.32958e-37
1.07792e-38
2.79454e-32
9.65742e-32
2.31476e-31
2.37549e-31
1.31549e-31
5.99793e-32
2.01689e-32
4.52393e-33
7.92792e-34
5.65416e-35
4.08744e-36
1.16565e-37
4.18386e-38
4.84785e-32
1.95594e-31
3.92838e-31
4.21995e-31
2.90278e-31
1.31499e-31
3.97967e-32
1.26659e-32
2.33764e-33
2.96828e-34
1.61285e-35
1.61985e-36
4.84519e-37
3.49806e-37
3.76512e-32
2.87206e-31
5.37689e-31
8.49331e-31
5.84636e-31
2.98863e-31
1.19755e-31
2.97459e-32
6.06867e-33
1.04748e-33
1.34194e-34
8.25385e-36
2.91302e-36
3.69713e-36
1.67798e-36
3.22653e-32
1.70167e-31
9.25808e-31
1.40069e-30
1.21535e-30
6.66843e-31
2.77381e-31
7.78788e-32
2.31918e-32
3.27241e-33
4.71474e-34
4.62829e-35
2.02336e-35
4.50659e-35
4.31178e-35
2.73872e-35
3.14179e-32
1.66115e-31
1.12901e-30
2.09203e-30
2.19716e-30
1.38325e-30
6.30454e-31
2.10115e-31
5.98181e-32
9.21323e-33
1.68894e-33
2.55627e-34
1.03103e-34
1.82549e-34
5.09994e-34
5.8393e-34
7.56442e-34
7.11438e-32
3.98291e-31
1.21138e-30
2.92791e-30
3.08208e-30
2.66966e-30
1.34197e-30
5.57989e-31
1.51725e-31
2.90526e-32
3.69247e-33
9.49618e-34
4.66189e-34
1.03489e-33
4.16974e-33
8.4684e-33
1.50473e-32
1.70147e-32
2.59801e-31
1.06387e-30
2.34484e-30
3.78922e-30
4.99292e-30
4.35742e-30
2.61029e-30
1.17089e-30
3.68166e-31
1.11073e-31
1.51221e-32
3.18007e-33
3.06924e-33
8.00937e-33
2.80193e-32
1.17581e-31
2.86011e-31
4.67814e-31
5.49357e-31
1.41524e-31
1.60623e-30
3.16334e-30
6.05e-30
8.10853e-30
6.92156e-30
4.13416e-30
2.34304e-30
7.69055e-31
2.63908e-31
4.01905e-32
1.10136e-32
1.57276e-32
7.85871e-32
3.12982e-31
1.56433e-30
5.30578e-30
1.2268e-29
2.16865e-29
1.83032e-29
4.19538e-31
1.73509e-30
8.98897e-30
1.37311e-29
1.38978e-29
1.53172e-29
7.5352e-30
3.94446e-30
1.63885e-30
5.30061e-31
1.37666e-31
3.82035e-32
1.13463e-31
6.54115e-31
3.99777e-30
2.10147e-29
8.37673e-29
2.66223e-28
5.08096e-28
8.11403e-28
7.67441e-28
1.76807e-30
9.10892e-30
1.48174e-29
2.29999e-29
2.69815e-29
2.09349e-29
1.88831e-29
8.77115e-30
3.69253e-30
1.05624e-30
2.8924e-31
1.37962e-31
7.43204e-31
5.86808e-30
4.64682e-29
2.67682e-28
1.38252e-27
4.51908e-27
1.29366e-26
2.46603e-26
2.83074e-26
1.52159e-26
1.19798e-29
1.61962e-29
4.79206e-29
7.36116e-29
7.36783e-29
4.54169e-29
3.5718e-29
2.06245e-29
8.5637e-30
3.22739e-30
9.58115e-31
4.3612e-31
3.5403e-30
4.43339e-29
4.29073e-28
2.94511e-27
1.85281e-26
7.64062e-26
2.27294e-25
6.28412e-25
7.81483e-25
7.54823e-25
4.73182e-25
2.18503e-29
7.74485e-29
1.10828e-28
1.79163e-28
1.58804e-28
1.07085e-28
6.70302e-29
4.93481e-29
2.41819e-29
8.96303e-30
3.07977e-30
1.9475e-30
1.66211e-29
2.45256e-28
3.25097e-27
3.30864e-26
1.9817e-25
1.08435e-24
4.02429e-24
1.19939e-23
2.27123e-23
2.03838e-23
1.79104e-23
8.06628e-24
8.40939e-29
1.98588e-28
1.73754e-28
3.68284e-28
4.36166e-28
3.5482e-28
2.84276e-28
1.80963e-28
9.1075e-29
3.22763e-29
1.28743e-29
7.86814e-30
8.42097e-29
1.1412e-27
1.66904e-26
2.23227e-25
2.24902e-24
1.4112e-23
5.87479e-23
1.94657e-22
4.35337e-22
6.1231e-22
4.84556e-22
3.51304e-22
1.23349e-22
5.18024e-29
6.06294e-28
5.63964e-28
4.99099e-28
1.08206e-27
1.26484e-27
1.03859e-27
9.63962e-28
4.12243e-28
1.85942e-28
7.68304e-29
4.00926e-29
3.03769e-28
5.84466e-27
9.14221e-26
1.14341e-24
1.56537e-23
1.44153e-22
7.90865e-22
2.97946e-21
7.32014e-21
1.13464e-20
1.39678e-20
1.05609e-20
7.02672e-21
1.91614e-21
2.19487e-28
1.10027e-27
2.44304e-27
1.79547e-27
1.80742e-27
4.07948e-27
5.29139e-27
5.2162e-27
3.01415e-27
1.20393e-27
4.99478e-28
2.28926e-28
9.54534e-28
1.96928e-26
4.39473e-25
6.47417e-24
8.41824e-23
1.09266e-21
8.96754e-21
3.69828e-20
1.24829e-19
1.80658e-19
3.13008e-19
2.92532e-19
1.8618e-19
9.90051e-20
2.58341e-20
4.93518e-28
1.59851e-27
6.25766e-27
8.62165e-27
5.19555e-27
1.29892e-26
1.65238e-26
1.89782e-26
2.11275e-26
1.19418e-26
3.76723e-27
1.44092e-27
2.74292e-27
6.26053e-26
1.38937e-24
3.12645e-23
4.26219e-22
6.03527e-21
7.918e-20
5.05231e-19
1.48146e-18
3.52539e-18
4.30643e-18
5.87298e-18
4.16905e-18
2.65827e-18
1.29854e-18
4.603e-19
1.45995e-27
4.43465e-27
2.28503e-26
3.71581e-26
3.25587e-26
3.07293e-26
6.56264e-26
1.15738e-25
9.54095e-26
6.17605e-26
2.42533e-26
8.26192e-27
8.29731e-27
1.58494e-25
4.4766e-24
1.14512e-22
2.13775e-21
3.28285e-20
3.97584e-19
4.76561e-18
2.11384e-17
3.57826e-17
7.35301e-17
9.034e-17
7.8269e-17
5.46136e-17
3.14639e-17
1.57352e-17
4.84454e-18
3.91477e-27
2.06646e-26
7.99852e-26
1.60489e-25
1.77955e-25
2.03266e-25
2.57346e-25
3.86581e-25
5.18375e-25
2.5143e-25
1.5074e-25
5.75282e-26
4.03475e-26
3.06694e-25
1.25322e-23
3.46645e-22
8.58096e-21
1.6521e-19
2.2692e-18
2.58909e-17
1.89451e-16
4.87825e-16
7.5463e-16
1.17415e-15
1.23932e-15
1.05791e-15
6.83073e-16
3.95795e-16
1.55763e-16
3.35718e-17
2.60894e-26
1.30228e-25
3.88312e-25
6.09697e-25
1.02751e-24
1.22959e-24
9.26311e-25
2.25296e-24
2.5564e-24
1.70459e-24
9.26348e-25
3.71607e-25
1.76423e-25
5.5442e-25
2.15518e-23
9.26888e-22
2.72041e-20
6.13169e-19
1.07786e-17
1.51517e-16
1.21277e-15
4.80462e-15
1.0684e-14
1.81758e-14
2.37148e-14
2.28331e-14
1.66208e-14
9.21109e-15
3.96215e-15
1.62384e-15
2.58433e-16
9.02025e-26
9.77278e-25
1.51777e-24
3.28261e-24
5.45887e-24
8.77044e-24
5.35517e-24
9.51139e-24
7.44487e-24
1.03885e-23
5.30157e-24
1.40015e-24
9.3228e-25
1.01589e-24
3.19621e-23
1.61107e-21
7.18458e-20
2.0057e-18
4.30588e-17
7.93919e-16
7.22082e-15
4.51548e-14
1.05793e-13
2.38462e-13
3.7797e-13
4.27978e-13
3.61617e-13
2.31311e-13
1.1301e-13
4.15834e-14
1.05791e-14
1.20468e-15
1.23517e-24
2.57269e-24
9.84023e-24
1.38092e-23
2.72392e-23
3.98435e-23
4.50925e-23
2.92019e-23
3.92948e-23
4.62112e-23
2.35836e-23
1.01123e-23
3.19181e-24
2.29654e-24
3.57902e-23
2.222e-21
1.26235e-19
5.38875e-18
1.4502e-16
3.11597e-15
4.12895e-14
3.02882e-13
9.00107e-13
2.4614e-12
4.88928e-12
6.62339e-12
6.54621e-12
4.87453e-12
2.74972e-12
1.16116e-12
3.53939e-13
4.87627e-14
1.47222e-15
8.48788e-24
1.69613e-23
3.14437e-23
8.10564e-23
1.2404e-22
1.473e-22
2.7365e-22
1.66971e-22
2.83183e-22
1.89739e-22
1.31124e-22
5.13921e-23
2.23109e-23
1.21151e-23
4.01787e-23
2.34574e-21
1.59685e-19
9.64037e-18
3.98978e-16
9.66721e-15
1.75965e-13
1.687e-12
7.5212e-12
1.89113e-11
4.86415e-11
8.26174e-11
9.71753e-11
8.44762e-11
5.55889e-11
2.73685e-11
9.61444e-12
1.76546e-12
6.25195e-14
2.39879e-15
4.75518e-14
4.06294e-23
8.24906e-23
1.52769e-22
2.37751e-22
5.27522e-22
7.24938e-22
1.50448e-21
1.21514e-21
1.02473e-21
1.04745e-21
5.27588e-22
2.75762e-22
8.6991e-23
6.52821e-23
6.05334e-23
2.1526e-21
1.64914e-19
1.19791e-17
7.61005e-16
2.77951e-14
5.9153e-13
7.19382e-12
3.97166e-11
1.15919e-10
3.62582e-10
7.84215e-10
1.15769e-09
1.1952e-09
9.17344e-10
5.30307e-10
2.21276e-10
5.8067e-11
0
4.59125e-13
4.29835e-12
1.47955e-14
2.61945e-13
1.61841e-22
3.74605e-22
8.32484e-22
1.22423e-21
2.53864e-21
4.83363e-21
5.75819e-21
7.73579e-21
6.64793e-21
5.92053e-21
3.44899e-21
1.51609e-21
4.89409e-22
2.99955e-22
1.82505e-22
1.62158e-21
1.42259e-19
1.19407e-17
8.84927e-16
6.03149e-14
1.76935e-12
2.40828e-11
1.70563e-10
5.73824e-10
2.15712e-09
5.55393e-09
1.03864e-08
1.35079e-08
1.23066e-08
8.31684e-09
4.15089e-09
1.35498e-09
7.918e-11
3.91433e-10
3.12839e-11
2.81525e-10
2.34144e-10
2.62808e-12
2.23636e-11
8.2322e-14
1.43063e-12
8.43643e-22
1.68628e-21
5.41405e-21
7.45451e-21
1.16072e-20
2.02927e-20
3.11844e-20
2.30319e-20
3.46082e-20
2.84928e-20
1.42096e-20
6.45636e-21
2.72817e-21
1.20879e-21
7.56308e-22
1.59162e-21
9.07212e-20
1.01476e-17
8.62215e-16
6.4479e-14
4.39372e-12
7.24207e-11
6.32851e-10
2.30888e-09
1.01773e-08
3.12412e-08
6.9045e-08
1.13234e-07
1.3187e-07
1.05986e-07
6.2346e-08
2.5531e-08
1.80301e-09
9.30692e-09
1.5699e-09
1.66881e-10
1.38899e-09
1.09803e-09
1.39556e-11
1.1431e-10
4.2356e-13
7.20922e-12
4.01438e-21
1.27584e-20
1.87372e-20
4.27759e-20
4.52346e-20
8.10966e-20
1.16621e-19
1.3356e-19
1.53248e-19
1.30288e-19
7.13395e-20
3.17339e-20
1.0729e-20
5.18093e-21
2.5441e-21
2.40932e-21
5.60455e-20
5.83506e-18
6.91869e-16
6.12451e-14
4.51699e-12
2.02649e-10
2.1471e-09
7.98467e-09
3.83679e-08
1.39219e-07
3.62573e-07
6.97476e-07
1.02559e-06
1.09122e-06
7.66206e-07
3.7515e-07
4.0019e-08
1.74186e-07
8.31085e-09
3.94727e-08
7.56947e-09
8.17157e-10
6.44263e-09
5.12439e-09
6.86651e-11
5.43533e-10
1.90033e-12
3.2033e-11
3.08179e-20
4.17679e-20
1.43097e-19
1.42553e-19
2.55853e-19
2.76522e-19
3.63341e-19
6.24789e-19
5.48249e-19
6.54585e-19
3.78299e-19
2.06027e-19
4.19076e-20
1.59219e-20
8.80534e-21
7.85136e-21
3.81814e-20
3.12457e-18
3.85935e-16
4.61465e-14
4.20895e-12
2.06292e-10
6.30822e-09
3.22084e-08
1.19247e-07
5.00142e-07
1.51155e-06
3.36693e-06
5.77219e-06
7.82412e-06
7.80862e-06
4.62947e-06
6.46248e-07
2.4447e-06
1.69071e-07
6.67032e-07
3.71051e-08
1.65638e-07
3.35285e-08
3.73963e-09
2.85318e-08
2.24809e-08
3.01546e-10
2.34118e-09
7.06099e-12
1.23621e-10
7.75599e-20
1.84962e-19
6.11584e-19
8.54088e-19
6.56571e-19
1.28122e-18
1.75762e-18
2.67182e-18
2.40156e-18
2.45413e-18
1.23875e-18
8.54654e-19
2.45918e-19
6.15669e-20
3.27629e-20
1.73809e-20
3.5128e-20
1.59012e-18
1.90033e-16
2.5305e-14
2.98985e-12
2.12235e-10
5.93069e-09
8.83408e-08
3.14329e-07
1.48325e-06
5.0519e-06
1.27914e-05
2.47811e-05
3.88313e-05
4.98914e-05
4.84216e-05
8.30724e-06
2.96946e-05
2.46734e-06
8.78421e-06
6.72083e-07
2.53705e-06
1.55888e-07
6.60883e-07
1.4109e-07
1.57114e-08
1.19313e-07
9.17797e-08
1.18447e-09
9.21331e-09
2.46273e-11
4.50819e-10
3.95025e-19
1.31903e-18
2.06267e-18
3.40665e-18
4.40018e-18
5.1846e-18
5.07114e-18
8.16437e-18
8.55581e-18
9.54528e-18
4.37301e-18
3.5852e-18
1.92421e-18
4.51594e-19
1.11461e-19
9.26331e-20
4.95623e-20
8.13574e-19
8.79901e-17
1.13086e-14
1.57573e-12
1.67023e-10
6.89929e-09
1.11049e-07
7.4435e-07
3.75692e-06
1.37843e-05
3.78856e-05
8.14077e-05
0.000138807
0.000198973
0.000242752
9.46002e-05
0.000268611
3.06506e-05
0.000100799
9.18442e-06
3.23477e-05
2.57675e-06
9.54921e-06
6.2558e-07
2.5539e-06
5.65883e-07
6.13573e-08
4.71782e-07
3.541e-07
4.41019e-09
3.46671e-08
8.45199e-11
1.61042e-09
6.60192e-18
6.25929e-18
8.77442e-18
1.01413e-17
1.66852e-17
2.74886e-17
2.70317e-17
1.9933e-17
2.67833e-17
2.53314e-17
2.15466e-17
9.66893e-18
6.89756e-18
2.22945e-18
5.72218e-19
3.49442e-19
1.38672e-19
4.6514e-19
3.68241e-17
4.44199e-15
6.54696e-13
9.01766e-11
5.2767e-09
1.09683e-07
9.26091e-07
6.70811e-06
2.9436e-05
8.86195e-05
0.000198546
0.000361383
0.000525713
0.000677062
0.000496486
0.000794929
0.000275458
0.000544562
0.000106631
0.000291378
3.42011e-05
0.000113146
9.83224e-06
3.60806e-05
2.43005e-06
9.8004e-06
2.18519e-06
2.31377e-07
1.79671e-06
1.33228e-06
1.60458e-08
1.28058e-07
2.91795e-10
5.7729e-09
3.57814e-17
6.08545e-17
4.36957e-17
3.04101e-17
5.31293e-17
1.06243e-16
8.39184e-17
1.01241e-16
7.45713e-17
6.88818e-17
5.31876e-17
3.31095e-17
1.68955e-17
9.59717e-18
2.74987e-18
1.1476e-18
8.64756e-19
5.19964e-19
1.42972e-17
1.60873e-15
2.37977e-13
3.43204e-11
3.38245e-09
1.01733e-07
9.45867e-07
8.9775e-06
4.76776e-05
0.00015367
0.000352878
0.000616014
0.000910728
0.00114844
0.0010275
0.00130977
0.000830616
0.00111059
0.000571271
0.000871191
0.000308364
0.000601927
0.000120681
0.000328393
3.75109e-05
0.000128076
9.32997e-06
3.7402e-05
8.31009e-06
8.61649e-07
6.77957e-06
5.03586e-06
5.86716e-08
4.74598e-07
1.02372e-09
2.09872e-08
9.62219e-17
2.25477e-16
1.99872e-16
1.57163e-16
2.23957e-16
2.60022e-16
3.02583e-16
2.6576e-16
2.61055e-16
2.02201e-16
1.78966e-16
9.37664e-17
5.54119e-17
2.76058e-17
1.28934e-17
4.52092e-18
1.99495e-18
1.21413e-18
6.23992e-18
5.5896e-16
7.96156e-14
1.1574e-11
1.49498e-09
7.78936e-08
8.98095e-07
9.33985e-06
5.99212e-05
0.000218001
0.000505226
0.000847645
0.00119835
0.00151769
0.00150273
0.00169888
0.00138053
0.00161609
0.00117253
0.00146164
0.000917667
0.00123849
0.000640228
0.000975747
0.000351195
0.000686141
0.000133092
0.00037168
3.54388e-05
0.000132298
3.11237e-05
3.27265e-06
2.53372e-05
1.89224e-05
2.18009e-07
1.79834e-06
3.63446e-09
7.66487e-08
2.0814e-16
7.6563e-16
6.66518e-16
6.06341e-16
6.66647e-16
8.92344e-16
1.07612e-15
1.08868e-15
9.11657e-16
5.97257e-16
4.8822e-16
3.36425e-16
2.5852e-16
9.21601e-17
4.78385e-17
1.2296e-17
7.0538e-18
3.88909e-18
4.97048e-18
1.76026e-16
2.52421e-14
3.65965e-12
4.8411e-10
4.15986e-08
7.3744e-07
8.88004e-06
6.16461e-05
0.000257432
0.000630179
0.00104129
0.00135065
0.00164482
0.0017942
0.00184588
0.00180788
0.00193474
0.00172129
0.00193456
0.00154977
0.00183371
0.00131762
0.00165238
0.001049
0.00141704
0.000737311
0.00113321
0.000384877
0.000787009
0.000124053
0.000381474
0.000108204
1.23983e-05
8.85717e-05
6.64797e-05
8.1914e-07
6.91731e-06
1.30288e-08
2.82743e-07
8.63148e-16
2.03689e-15
2.37833e-15
2.6622e-15
3.6509e-15
4.08016e-15
5.08377e-15
5.00422e-15
4.08185e-15
2.92205e-15
1.63976e-15
1.05744e-15
7.07962e-16
3.05266e-16
1.38473e-16
6.7601e-17
2.40022e-17
1.45401e-17
9.69523e-18
6.71241e-17
7.66479e-15
1.10535e-12
1.44044e-10
1.49987e-08
5.36434e-07
7.18052e-06
5.91759e-05
0.000262165
0.000686143
0.00102276
0.00132477
0.00162025
0.00192139
0.0019949
0.00203515
0.00208678
0.00217333
0.00207197
0.00225131
0.00196135
0.00222618
0.00177678
0.00211239
0.0015361
0.00192645
0.00122403
0.00166847
0.000827023
0.00131195
0.000355721
0.000844583
0.000318438
4.41466e-05
0.000270161
0.000205345
3.15375e-06
2.51548e-05
4.73388e-08
1.0609e-06
2.81472e-15
8.83255e-15
1.06727e-14
1.09076e-14
1.56665e-14
2.20688e-14
2.72737e-14
2.7793e-14
2.33757e-14
1.55754e-14
8.72757e-15
4.49951e-15
2.14722e-15
1.11509e-15
4.49806e-16
2.27652e-16
9.47904e-17
4.70556e-17
2.54401e-17
4.51829e-17
2.34179e-15
3.21619e-13
4.17776e-11
4.58093e-09
2.80689e-07
4.62806e-06
5.10105e-05
0.000253557
0.000670184
0.00092417
0.00114155
0.00144851
0.00182558
0.0021722
0.0021276
0.00219997
0.00219468
0.00236457
0.00241475
0.00243206
0.00257295
0.00240264
0.00263464
0.00228955
0.00260389
0.00209623
0.00248791
0.00180446
0.00227694
0.00138559
0.00193182
0.000825858
0.0014292
0.000769999
0.000139325
0.00066754
0.000518971
1.18048e-05
8.26234e-05
1.80906e-07
4.14157e-06
1.4194e-14
3.73013e-14
4.58107e-14
5.65714e-14
8.43301e-14
1.25025e-13
1.58568e-13
1.64238e-13
1.37971e-13
9.46289e-14
5.41407e-14
2.57492e-14
1.12279e-14
4.55094e-15
1.71623e-15
5.77225e-16
2.53559e-16
1.25565e-16
5.39277e-17
6.01445e-17
7.2033e-16
9.04499e-14
1.17982e-11
1.28509e-09
1.05928e-07
2.47735e-06
3.58967e-05
0.000226136
0.000636274
0.00082542
0.000892149
0.000961216
0.00146849
0.0020899
0.00199877
0.00236639
0.00233692
0.00241938
0.00240329
0.00264954
0.00267093
0.00279802
0.00289711
0.00285811
0.00303531
0.00282857
0.00308369
0.00270031
0.00305073
0.00245134
0.00290961
0.0020385
0.00260632
0.00143556
0.00211129
0.00139401
0.000380176
0.00129399
0.00111411
4.1064e-05
0.000238398
6.96157e-07
1.46171e-05
6.73655e-14
1.64899e-13
2.01293e-13
2.94461e-13
4.86611e-13
7.42715e-13
9.52897e-13
9.95599e-13
8.44521e-13
5.85575e-13
3.36539e-13
1.61995e-13
6.66207e-14
2.40039e-14
8.98141e-15
2.86882e-15
9.60966e-16
4.24558e-16
1.95421e-16
1.34223e-16
3.06416e-16
2.49485e-14
3.25425e-12
3.57733e-10
3.0419e-08
1.17677e-06
2.1239e-05
0.000176802
0.000591062
0.00076667
0.000730705
0.000518847
0.000629447
0.00180898
0.00127085
0.00229282
0.00217614
0.0026023
0.00256232
0.00266379
0.00263353
0.00293803
0.00293629
0.00312726
0.00315474
0.00321621
0.00326828
0.00325287
0.00333506
0.00324207
0.00338138
0.00309466
0.0033833
0.00273176
0.0032451
0.002139
0.00281706
0.00210962
0.000859072
0.00201355
0.00183811
0.000123431
0.000573951
2.82359e-06
4.85594e-05
2.18542e-13
7.19301e-13
9.91452e-13
1.63968e-12
2.9721e-12
4.66599e-12
5.97011e-12
6.20317e-12
5.24465e-12
3.64262e-12
2.10249e-12
1.02112e-12
4.21128e-13
1.51848e-13
5.0404e-14
1.60219e-14
4.03916e-15
1.50637e-15
6.61797e-16
3.24372e-16
3.31131e-16
6.88259e-15
8.78894e-13
9.81104e-11
8.49472e-09
4.8318e-07
1.05839e-05
0.000121563
0.000521225
0.000735384
0.00066031
0.000315085
0.000204187
0.000508144
0.00185807
0.00126373
0.00246836
0.00225509
0.00279313
0.00269217
0.00291055
0.00285974
0.00314018
0.00309703
0.00326486
0.00324205
0.00333978
0.00332319
0.00340844
0.00339115
0.0034835
0.003472
0.00350178
0.00356519
0.0033564
0.00360093
0.0028538
0.00343082
0.00282834
0.00155888
0.00274615
0.00257315
0.000328519
0.0011707
9.29186e-06
0.000135756
2.31058e-12
5.34437e-12
1.04314e-11
1.97647e-11
3.14834e-11
3.98292e-11
4.0364e-11
3.33826e-11
2.28579e-11
1.3121e-11
6.37998e-12
2.64945e-12
9.59792e-13
3.15305e-13
1.00601e-13
2.40493e-14
6.9131e-15
3.06849e-15
9.31341e-16
5.36651e-16
2.30963e-15
2.3281e-13
2.65107e-11
2.37418e-09
1.49986e-07
5.11463e-06
7.15583e-05
0.000417463
0.000715173
0.000652077
0.000281999
8.7316e-05
9.98937e-05
0.000635585
0.000214912
0.00179827
0.0011332
0.00252472
0.00219452
0.00284551
0.00270545
0.00302638
0.00294346
0.00319072
0.00311897
0.00328007
0.00320763
0.00334029
0.00323937
0.00342032
0.00330474
0.00353561
0.00343894
0.0036408
0.00359569
0.00368497
0.00371654
0.00345972
0.00375256
0.00343535
0.00229481
0.00336817
0.00322085
0.000717561
0.00189224
2.80967e-05
0.000337227
2.4209e-11
6.99069e-11
1.43894e-10
2.32019e-10
2.88663e-10
2.80906e-10
2.21842e-10
1.46553e-10
8.22988e-11
3.96235e-11
1.64516e-11
6.00506e-12
1.97659e-12
6.23191e-13
1.5485e-13
3.652e-14
1.56019e-14
4.4241e-15
1.57243e-15
1.81696e-15
6.14041e-14
7.04757e-12
6.58266e-10
4.45954e-08
2.23515e-06
3.49145e-05
0.000292692
0.000691272
0.000664334
0.000302446
8.57633e-05
2.50769e-05
8.14294e-05
1.32317e-05
0.000374798
0.000130788
0.00157663
0.000898263
0.00244157
0.00191713
0.00278084
0.00254011
0.00303113
0.00292528
0.00311498
0.0030062
0.00311657
0.00298193
0.00313486
0.0029493
0.00324717
0.00302989
0.00345511
0.00325759
0.00365823
0.00351235
0.00379398
0.00373498
0.00379829
0.00386387
0.00381507
0.00297148
0.00379766
0.00372035
0.00340804
0.00133166
0.00257346
7.21418e-05
0.000691341
3.63312e-10
1.03188e-09
1.82141e-09
2.2909e-09
2.13995e-09
1.58031e-09
9.78927e-10
5.2471e-10
2.46131e-10
1.00984e-10
3.69517e-11
1.22833e-11
3.79382e-12
9.96492e-13
2.126e-13
7.89524e-14
2.25351e-14
6.37482e-15
3.21532e-15
1.8828e-14
1.84214e-12
1.7986e-10
1.31706e-08
6.72671e-07
1.38575e-05
0.000175726
0.000637036
0.000699777
0.000373785
0.000125036
3.01592e-05
4.43544e-06
3.45001e-05
8.46445e-06
0.000205105
5.64807e-05
0.00120813
0.00057558
0.00210005
0.00144068
0.00247637
0.00209113
0.00287825
0.00271372
0.00283681
0.00267832
0.00276164
0.00257012
0.00281384
0.00259987
0.00307763
0.0028927
0.00335901
0.00322243
0.00360584
0.0035024
0.00381612
0.00372468
0.003931
0.00386725
0.0039037
0.00391834
0.00397418
0.00363742
0.00314778
0.00356289
0.00390039
0.0040072
0.00398774
0.00387899
0.00200351
0.00341699
0.00326684
0.00273644
0.000160953
0.00122106
5.49252e-09
1.34661e-08
1.90303e-08
1.78985e-08
1.23643e-08
6.98561e-09
3.45693e-09
1.54306e-09
6.17567e-10
2.23886e-10
7.52327e-11
2.2797e-11
6.16056e-12
1.28556e-12
3.71686e-13
1.26859e-13
3.06858e-14
1.13244e-14
1.4639e-14
4.78868e-13
4.81445e-11
3.80827e-09
2.1935e-07
6.03455e-06
8.8835e-05
0.000503993
0.000724177
0.000492349
0.000221276
7.31944e-05
1.08322e-05
1.38219e-06
1.44923e-06
1.35337e-05
3.20048e-06
8.17881e-05
2.09874e-05
0.000749241
0.000277109
0.00152155
0.000842391
0.00190318
0.00141013
0.00249172
0.0022473
0.00236968
0.00215243
0.00237954
0.00214358
0.00269899
0.00249004
0.00310292
0.0029885
0.00347889
0.00353222
0.00367184
0.00367775
0.00372474
0.00381309
0.00383768
0.0038242
0.00380901
0.00393813
0.00385204
0.00390641
0.00397709
0.00394932
0.00388218
0.00400629
0.00383408
0.00375986
0.00400915
0.00405778
0.00403409
0.00400109
0.00303389
0.00212613
0.00277495
0.00365411
0.00350514
0.000340408
0.00243641
0.00209588
0.00134826
7.09887e-08
1.42528e-07
1.53144e-07
1.05443e-07
5.43228e-08
2.40905e-08
9.91275e-09
3.80083e-09
1.34712e-09
4.5284e-10
1.35147e-10
3.65521e-11
7.92829e-12
1.82502e-12
6.92661e-13
1.6587e-13
5.05174e-14
3.0884e-14
1.49894e-13
1.26625e-11
1.06875e-09
6.81009e-08
3.1678e-06
3.86215e-05
0.000335597
0.000721128
0.000615369
0.000337046
0.00016949
4.78733e-05
2.75604e-06
6.74697e-07
5.06631e-07
5.0005e-06
1.29719e-06
3.0257e-05
8.19875e-06
0.000334648
0.000106943
0.000816972
0.00036262
0.00116241
0.000717735
0.0018977
0.00157581
0.00189023
0.00162115
0.00226152
0.00200753
0.00284869
0.00266485
0.00359988
0.00360709
0.00392245
0.00405725
0.00417372
0.00428467
0.0038956
0.00403523
0.00420944
0.00388591
0.00393756
0.00407452
0.00424657
0.00405626
0.00393161
0.00399235
0.00397839
0.00394625
0.00402775
0.00397459
0.00392442
0.00407349
0.00406036
0.00408913
0.00408026
0.00330495
0.00304879
0.00384244
0.00371735
0.00173855
0.000781817
0.00147569
0.00274308
0.00244885
7.17591e-07
1.12123e-06
8.85757e-07
4.49673e-07
1.79834e-07
6.66414e-08
2.38311e-08
8.18481e-09
2.68706e-09
7.86829e-10
2.09828e-10
4.76584e-11
9.96864e-12
3.56004e-12
9.14549e-13
2.42088e-13
1.12209e-13
1.30251e-13
3.34189e-12
2.91414e-10
2.01979e-08
1.03897e-06
1.48931e-05
0.00018622
0.00067535
0.000713704
0.000462393
0.000284611
0.000137236
1.53415e-05
2.80003e-07
1.45778e-06
3.49338e-07
2.45152e-07
2.28704e-06
7.13044e-07
1.42821e-05
4.49052e-06
0.000131702
4.39282e-05
0.00037071
0.000168737
0.000700826
0.000439608
0.00133029
0.00101695
0.00173199
0.00144407
0.0024368
0.00216832
0.00352499
0.00333317
0.00434607
0.00437692
0.00435541
0.00429509
0.0043953
0.00456876
0.00470569
0.00479209
0.00426928
0.00450157
0.0047405
0.00402023
0.00417094
0.00449753
0.00470669
0.0044043
0.00400108
0.00401968
0.00404762
0.00409255
0.00405584
0.00407377
0.00404743
0.00411314
0.00408826
0.00411781
0.00413087
0.00354152
0.00330973
0.0039927
0.00389703
0.00223457
0.000470554
0.001703
0.00303751
0.00278649
5.11953e-06
6.03963e-06
3.54855e-06
1.40304e-06
4.70646e-07
1.55159e-07
5.05891e-08
1.58405e-08
4.49678e-09
1.17511e-09
2.74587e-10
5.58256e-11
1.70256e-11
4.8512e-12
1.20308e-12
4.54223e-13
2.88016e-13
1.15475e-12
7.78177e-11
5.74419e-09
3.20549e-07
6.77989e-06
8.75963e-05
0.000517908
0.000748009
0.000594456
0.000409884
0.000257963
7.12601e-05
3.51611e-06
2.90749e-07
3.46807e-07
2.06227e-07
1.16929e-07
1.48845e-06
5.22722e-07
1.03046e-05
3.35761e-06
7.24345e-05
2.8833e-05
0.000253159
0.000137928
0.000620324
0.000438041
0.0011501
0.000865329
0.00188017
0.00159038
0.00307713
0.00276737
0.00419295
0.00402871
0.00388344
0.00365377
0.00481811
0.00478726
0.00468912
0.0045341
0.00495309
0.00511262
0.00520108
0.0052149
0.00478419
0.00507046
0.0053156
0.00427105
0.00454235
0.00504577
0.00527657
0.00489064
0.00415163
0.00408528
0.0041952
0.00435175
0.00411541
0.00413981
0.00413496
0.00414467
0.00413988
0.00416127
0.00416864
0.00374977
0.0035494
0.00410646
0.0040433
0.00242929
0.000793972
0.00183057
0.00330539
0.00298775
2.31454e-05
2.13149e-05
1.03478e-05
3.46788e-06
1.04326e-06
3.12569e-07
9.18672e-08
2.5178e-08
6.4327e-09
1.51736e-09
3.14567e-10
7.60233e-11
2.48589e-11
6.05198e-12
1.95845e-12
1.04375e-12
1.13155e-12
2.10862e-11
1.58395e-09
9.47244e-08
3.66929e-06
3.61452e-05
0.000310931
0.00073423
0.000713204
0.000537162
0.000390241
0.000200901
2.20604e-05
1.6577e-07
1.84282e-06
6.33357e-08
1.33868e-07
1.20555e-07
4.87311e-08
1.14905e-06
4.74368e-07
9.04347e-06
2.82139e-06
6.69451e-05
2.68615e-05
0.000309057
0.000189495
0.000893392
0.000711584
0.00131811
0.00108335
0.00244263
0.00211819
0.00339609
0.0030053
0.00434595
0.00414174
0.00393373
0.00371471
0.00514639
0.00499423
0.00479259
0.00457073
0.00548793
0.00556912
0.00556067
0.00545103
0.005374
0.00564672
0.00582829
0.00465449
0.00504265
0.00564563
0.0058791
0.00547193
0.00440846
0.00422397
0.00444099
0.00473619
0.00423969
0.00418691
0.00419697
0.00418286
0.00424502
0.00424432
0.00420428
0.00393102
0.00375939
0.00419125
0.0041576
0.00252284
0.000188759
0.0011486
0.00351086
0.00313998
6.40416e-05
5.31336e-05
2.29487e-05
6.78204e-06
1.86226e-06
5.10878e-07
1.35062e-07
3.40525e-08
8.05431e-09
1.73505e-09
3.78683e-10
1.25659e-10
3.056e-11
8.82551e-12
4.02285e-12
2.71119e-12
8.38288e-12
4.31036e-10
2.71149e-08
1.21349e-06
1.33404e-05
0.000159226
0.000662698
0.000776307
0.000659969
0.000522181
0.000353315
0.00010552
4.91987e-06
2.55915e-07
3.75183e-07
2.28601e-08
5.0568e-08
6.47788e-08
2.19124e-08
9.59054e-07
3.16578e-07
8.01963e-06
2.23925e-06
8.15667e-05
2.73552e-05
0.000484229
0.00023503
0.00122761
0.000894087
0.00181559
0.00152524
0.00263829
0.00227565
0.00331331
0.00306534
0.00265498
0.00286545
0.0043283
0.00407198
0.00381345
0.00355872
0.00525539
0.00501761
0.00474518
0.00443706
0.00589739
0.00587133
0.00572909
0.00550455
0.00594264
0.00613352
0.00619373
0.00515815
0.0056265
0.00620392
0.00642581
0.00607147
0.00478172
0.00445192
0.00479457
0.00523257
0.00444186
0.0042278
0.00424495
0.00424646
0.00441614
0.00438246
0.00425282
0.00408114
0.00393122
0.00425583
0.00424685
0.0023589
0.000121448
0.000875005
0.0036621
0.00316371
0.000118579
9.10277e-05
3.61516e-05
1.02701e-05
2.67371e-06
6.8346e-07
1.70363e-07
4.07366e-08
9.08475e-09
1.93327e-09
5.85429e-10
1.52255e-10
4.0296e-11
1.59352e-11
9.48882e-12
9.30932e-12
1.23126e-10
7.62844e-09
3.6775e-07
6.81818e-06
7.08217e-05
0.000454277
0.000776952
0.000766852
0.000648146
0.000503627
0.00026993
3.19867e-05
8.76659e-08
2.52543e-06
4.44662e-08
1.18943e-07
8.90425e-09
1.57781e-08
3.88699e-08
1.122e-08
7.9135e-07
1.94009e-07
5.83631e-06
1.54852e-06
8.22546e-05
2.24842e-05
0.00053434
0.000224453
0.0012578
0.000862251
0.00194405
0.00161341
0.00248288
0.002301
0.00195861
0.00296749
0.00272971
0.00232348
0.00251776
0.00412247
0.00381102
0.00351137
0.0032292
0.00522516
0.00489206
0.00452524
0.00414732
0.00615688
0.0060008
0.00575506
0.00543995
0.00640462
0.00646462
0.00642764
0.00573776
0.00622055
0.00664499
0.00685235
0.00660819
0.00526133
0.00477628
0.0052482
0.00580096
0.00473022
0.00427096
0.00429039
0.00435063
0.00466297
0.00458377
0.0043295
0.00419726
0.00406453
0.0043089
0.00431765
0.00211617
7.39192e-05
0.000640164
0.00375554
0.00312691
0.000171604
0.000123093
4.64592e-05
1.29105e-05
3.24518e-06
8.01222e-07
1.9353e-07
4.47015e-08
9.70913e-09
2.4994e-09
7.32385e-10
1.85679e-10
6.48022e-11
3.4299e-11
2.32614e-11
5.75265e-11
2.15232e-09
1.09003e-07
3.75901e-06
2.78894e-05
0.000245299
0.000732313
0.000827613
0.00076156
0.000643153
0.00044118
0.0001404
6.64562e-06
2.69289e-07
4.85443e-07
1.2781e-08
4.26076e-08
3.84185e-09
5.33272e-09
2.54267e-08
6.90457e-09
4.8063e-07
1.23883e-07
3.49278e-06
1.16737e-06
6.17492e-05
1.35571e-05
0.000444519
0.000142072
0.000958392
0.000562614
0.00164325
0.00132385
0.00215244
0.00201732
0.00143849
0.00130531
0.00251883
0.00228181
0.00188464
0.00207214
0.00377388
0.00341726
0.00308661
0.0027873
0.00506603
0.00465123
0.0042151
0.00377862
0.0062711
0.00602464
0.00569875
0.00530671
0.00671248
0.00668627
0.00654587
0.00632538
0.00674949
0.00693624
0.00713117
0.00702697
0.00581131
0.00519486
0.00577317
0.00637782
0.00510395
0.00432677
0.00433984
0.00450649
0.00498482
0.00485053
0.00444243
0.00428747
0.00416219
0.00435926
0.00437538
0.00190195
2.8464e-05
0.00039972
0.00382381
0.00307848
0.000216279
0.000145236
5.24778e-05
1.42925e-05
3.53888e-06
8.63779e-07
2.06167e-07
4.69553e-08
1.12072e-08
3.49595e-09
8.55963e-10
2.69891e-10
1.26561e-10
7.91142e-11
7.01771e-11
6.62663e-10
3.20158e-08
1.23212e-06
1.07582e-05
0.000116609
0.000582949
0.000830658
0.000852531
0.000767458
0.000603091
0.00031893
3.92866e-05
8.25282e-08
3.22602e-06
4.16891e-08
1.24591e-07
3.88537e-09
1.13333e-08
2.2103e-09
2.01709e-09
1.80747e-08
5.21176e-09
3.32891e-07
7.68889e-08
2.28501e-06
9.38841e-07
3.05071e-05
6.79011e-06
0.000203125
5.09542e-05
0.000426936
0.000171498
0.00118584
0.00104137
0.000714324
0.00171981
0.00157424
0.00102071
0.000920769
0.00202652
0.00178845
0.00140614
0.00158333
0.00335791
0.0029658
0.00261294
0.00230126
0.00486561
0.00439025
0.00390071
0.00341708
0.00631647
0.00601353
0.00564753
0.0052216
0.00692668
0.00681487
0.0066169
0.00684874
0.00716411
0.00714055
0.0073269
0.00729747
0.0063771
0.00568457
0.00632262
0.00689846
0.00554952
0.00440365
0.00439568
0.00471515
0.00537528
0.00517635
0.00459521
0.00435985
0.00424226
0.00441167
0.00442997
0.00164222
9.72518e-06
0.000234732
0.00388915
0.0030403
0.000251307
0.000157105
5.44038e-05
1.45918e-05
3.62975e-06
8.9305e-07
2.14162e-07
5.09976e-08
1.54313e-08
3.97602e-09
1.14927e-09
4.7857e-10
2.76009e-10
1.80381e-10
3.72697e-10
9.5953e-09
3.84276e-07
6.71645e-06
5.05086e-05
0.000342173
0.000797167
0.000901347
0.000872706
0.000749089
0.000501017
0.000143411
7.85801e-06
3.17166e-07
6.41999e-07
1.05165e-08
4.43588e-08
1.26427e-09
3.1283e-09
1.79065e-09
1.01671e-09
1.51788e-08
4.69058e-09
2.29404e-07
5.61219e-08
1.70561e-06
7.09206e-07
1.1855e-05
3.64634e-06
5.40818e-05
1.57306e-05
0.000185424
0.000104261
4.43525e-05
0.000835259
0.000763447
0.000248686