/*--------------------------------*- C++ -*----------------------------------*\
  =========                 |
  \\      /  F ield         | OpenFOAM: The Open Source CFD Toolbox
   \\    /   O peration     | Website:  https://openfoam.org
    \\  /    A nd           | Version:  dev
     \\/     M anipulation  |
\*---------------------------------------------------------------------------*/
FoamFile
{
    version     2.0;
    format      ascii;
    class       volScalarField;
    location    "2500";
    object      k;
}
// * * * * * * * * * * * * * * * * * * * * * * * * * * * * * * * * * * * * * //

dimensions      [0 2 -2 0 0 0 0];

internalField   nonuniform List<scalar> 
9842
(
0.000162871
0.000170466
0.000156251
0.000144527
0.000227697
0.00012588
0.000121676
0.000241812
0.000207689
0.000110914
0.000111416
0.000224473
0.000254343
0.000159887
0.000106264
0.000105807
0.000182913
0.000277362
0.000225477
0.000131515
0.000104193
0.000103059
0.000147724
0.000271852
0.000269286
0.000172249
0.000119498
0.000102787
0.00010167
0.000127896
0.000246264
0.000293173
0.000228063
0.000141386
0.000112946
0.000101858
0.000100896
0.000115813
0.000200258
0.00030081
0.000273923
0.000175383
0.000126757
0.000108587
0.000101185
0.000100483
0.000109259
0.000160416
0.000290189
0.000299195
0.000221045
0.000145434
0.000118117
0.000105684
0.000100661
0.000100249
0.000105582
0.00013718
0.000259901
0.000316362
0.000270038
0.000172313
0.000130207
0.000112298
0.000103585
0.000100292
0.000100103
0.000103553
0.00012242
0.00021267
0.000318918
0.000303043
0.000209665
0.000145082
0.000120824
0.000108256
0.000101941
0.000100031
0.000100015
0.00010238
0.000114059
0.000170283
0.000307035
0.000320716
0.000256237
0.00016596
0.000130661
0.000114394
0.000105228
0.000100756
9.97626e-05
9.99659e-05
0.000101634
0.000109262
0.00014535
0.000275385
0.000335887
0.000296641
0.000197081
0.000142318
0.000121631
0.000109721
0.000102824
9.99529e-05
9.94409e-05
9.99379e-05
0.000101115
0.000106436
0.00012925
0.000226781
0.0003358
0.000324979
0.000238196
0.000158789
0.000129552
0.000115141
0.000106138
0.000100934
9.93199e-05
9.92088e-05
9.98646e-05
0.000100761
0.000104627
0.000119741
0.000181425
0.000323436
0.000339779
0.000283234
0.000184528
0.000138809
0.000121064
0.000110195
0.00010328
9.96682e-05
9.86426e-05
9.90895e-05
9.97241e-05
0.00010045
0.000103408
0.000113954
0.000155287
0.000291891
0.000352797
0.000317844
0.000219054
0.000152107
0.00012763
0.00011475
0.000106328
0.000100921
9.87306e-05
9.79976e-05
9.90397e-05
9.96321e-05
0.000100142
0.000102475
0.000110302
0.000138431
0.000243918
0.000352031
0.000342763
0.000260756
0.000171934
0.000135155
0.000119829
0.000109879
0.000103245
9.92617e-05
9.78719e-05
9.7527e-05
9.89972e-05
9.96347e-05
9.99254e-05
0.000101697
0.000107864
0.000127775
0.000198752
0.000340001
0.000355383
0.000303021
0.000201486
0.000145301
0.000125112
0.00011384
0.000106053
0.000100714
9.80741e-05
9.69972e-05
9.72817e-05
9.89427e-05
9.96987e-05
9.97753e-05
0.000101056
0.000106098
0.000121029
0.000170214
0.000311725
0.000367171
0.000333826
0.000236769
0.000161499
0.000131361
0.000118003
0.000109183
0.000102949
9.87772e-05
9.70461e-05
9.62549e-05
9.71737e-05
9.89198e-05
9.97101e-05
9.94935e-05
0.000100468
0.000104656
0.000116539
0.000152124
0.000268207
0.000367803
0.000356504
0.000276714
0.000184226
0.000139554
0.000122737
0.000112649
0.000105499
0.000100404
9.73912e-05
9.61063e-05
9.57977e-05
9.70929e-05
9.89333e-05
9.96963e-05
9.91689e-05
9.99009e-05
0.00010335
0.000113476
0.000139811
0.000224606
0.000358846
0.000368518
0.000315594
0.000214798
0.000151867
0.000127843
0.000116426
0.000108445
0.000102516
9.83403e-05
9.62551e-05
9.52977e-05
9.55883e-05
9.70533e-05
9.89553e-05
9.9664e-05
9.88656e-05
9.94078e-05
0.000102233
0.000111357
0.000131904
0.000190347
0.000335998
0.000380833
0.000345501
0.000248577
0.000170213
0.000134747
0.000120436
0.000111639
0.000105041
0.00010008
9.67933e-05
9.53386e-05
9.47216e-05
9.55335e-05
9.71057e-05
9.89929e-05
9.96248e-05
9.85967e-05
9.89664e-05
0.000101294
0.000109466
0.000127315
0.000169833
0.000297584
0.000384474
0.000368082
0.000286407
0.00019402
0.000144354
0.000125167
0.000115044
0.00010788
0.000102277
9.80997e-05
9.5671e-05
9.46312e-05
9.44237e-05
9.56012e-05
9.72339e-05
9.90428e-05
9.95798e-05
9.83898e-05
9.85579e-05
0.000100479
0.000107727
0.000124676
0.000156066
0.000254361
0.000378341
0.000382141
0.000323207
0.000223704
0.00015845
0.000130856
0.000118794
0.00011092
0.000104827
0.000100053
9.65693e-05
9.48279e-05
9.41316e-05
9.43836e-05
9.57864e-05
9.74103e-05
9.90962e-05
9.9534e-05
9.81921e-05
9.81002e-05
9.97892e-05
0.000106181
0.000122703
0.000147071
0.000215851
0.000360369
0.000393492
0.000354863
0.000256134
0.000177332
0.000138738
0.000123048
0.000114158
0.000107617
0.000102377
9.82921e-05
9.54729e-05
9.42613e-05
9.39084e-05
9.4601e-05
9.61016e-05
9.76347e-05
9.91433e-05
9.9494e-05
9.80261e-05
9.76673e-05
9.91845e-05
0.00010487
0.000120746
0.000141544
0.000190979
0.000327686
0.000399251
0.000377552
0.000291971
0.000201376
0.000149349
0.000127976
0.000117719
0.000110636
0.000104976
0.000100451
9.69598e-05
9.4776e-05
9.39929e-05
9.40127e-05
9.50532e-05
9.6545e-05
9.79053e-05
9.91755e-05
9.9455e-05
9.7882e-05
9.72669e-05
9.86505e-05
0.000103825
0.00011869
0.000137969
0.000174653
0.000286457
0.000395997
0.000393444
0.00032695
0.000229442
0.000164175
0.000134309
0.000121549
0.000113879
0.000107871
0.000102937
9.90257e-05
9.60339e-05
9.44462e-05
9.40654e-05
9.44882e-05
9.5702e-05
9.71207e-05
9.82119e-05
9.91684e-05
9.94166e-05
9.77129e-05
9.69043e-05
9.81719e-05
0.000102981
0.000116784
0.00013539
0.000163058
0.000246682
0.000383481
0.000403161
0.000360631
0.000260836
0.000182762
0.000142772
0.000126113
0.000117361
0.00011104
0.000105782
0.000101485
9.80613e-05
9.55794e-05
9.44832e-05
9.45453e-05
9.53489e-05
9.65967e-05
9.784e-05
9.86559e-05
9.92491e-05
9.93808e-05
9.75151e-05
9.65652e-05
9.77451e-05
0.00010228
0.000115159
0.000133304
0.000155033
0.000213915
0.000356735
0.00041121
0.00038359
0.000293176
0.000206268
0.000153935
0.000131564
0.000121249
0.000114441
0.000109012
0.000104352
0.000100573
9.76429e-05
9.55752e-05
9.49806e-05
9.54676e-05
9.66058e-05
9.78892e-05
9.87428e-05
9.90826e-05
9.93541e-05
9.93502e-05
9.72908e-05
9.6249e-05
9.73755e-05
0.000101718
0.000113821
0.000131436
0.00014945
0.00019305
0.000319977
0.000410495
0.000401277
0.000327272
0.000232138
0.000168672
0.000138456
0.000125571
0.000118144
0.000112481
0.000107723
0.000103578
0.00010029
9.77024e-05
9.61196e-05
9.60078e-05
9.68699e-05
9.81665e-05
9.92689e-05
9.95985e-05
9.94275e-05
9.94579e-05
9.93229e-05
9.70391e-05
9.59612e-05
9.70551e-05
0.000101321
0.000112818
0.000129574
0.000145393
0.000178112
0.000278501
0.000402733
0.000410123
0.000360587
0.000261734
0.000186744
0.000147244
0.000130533
0.000122115
0.000116292
0.000111472
0.000107143
0.000103533
0.000100587
9.84536e-05
9.73214e-05
9.76385e-05
9.88093e-05
0.000100296
0.000101135
0.000100728
9.98027e-05
9.95845e-05
9.92654e-05
9.67552e-05
9.57334e-05
9.67897e-05
0.000101064
0.000112209
0.000127667
0.000142118
0.000167069
0.000240439
0.000383165
0.000419351
0.000385789
0.000291413
0.00020849
0.000158391
0.000136381
0.000126419
0.000120376
0.000115556
0.000111319
0.000107475
0.000104241
0.000101681
0.000100019
9.93163e-05
0.000100066
0.00010153
0.000103033
0.000103503
0.000102114
0.000100224
9.97667e-05
9.91337e-05
9.64867e-05
9.56038e-05
9.66192e-05
0.000100957
0.000111888
0.000125727
0.000139122
0.000158777
0.000212375
0.000351764
0.000421243
0.00040464
0.000324198
0.000232841
0.000172194
0.000143282
0.000131173
0.000124612
0.000119961
0.000115985
0.000112198
0.000108815
0.000105945
0.000103893
0.000102548
0.000102373
0.000103447
0.000104979
0.000106304
0.000106255
0.000103554
0.000100643
9.98825e-05
9.99267e-05
9.90935e-05
9.63225e-05
9.56233e-05
9.66008e-05
0.000101047
0.000111693
0.00012376
0.000136059
0.000152217
0.000193038
0.000312408
0.00041738
0.000416401
0.000355081
0.000259504
0.000189149
0.000151712
0.000136315
0.000129115
0.00012464
0.000121014
0.000117625
0.000114347
0.000111418
0.00010917
0.000107454
0.000106462
0.000106612
0.000107773
0.000109084
0.000109773
0.00010843
0.000104593
0.000100341
0.000101765
9.9996e-05
0.000100076
9.89484e-05
9.63962e-05
9.57843e-05
9.67929e-05
0.000101486
0.000111511
0.000121857
0.000132814
0.000146633
0.000178528
0.000272813
0.000405263
0.000423485
0.000384193
0.000287581
0.000208558
0.000162091
0.000141962
0.00013377
0.000129503
0.000126334
0.000123601
0.000121024
0.000118261
0.000116097
0.000114209
0.0001127
0.000112012
0.000112023
0.000112579
0.000112894
0.000112097
0.000108118
0.00011041
0.000103914
0.000108551
0.000106642
0.000100567
0.000102033
0.000100058
0.000100269
9.86175e-05
9.72906e-05
9.58008e-05
9.72017e-05
0.000102401
0.000111274
0.00011994
0.000129335
0.000141557
0.000167066
0.000237574
0.000380266
0.000429218
0.000403832
0.000315894
0.000230968
0.000174523
0.000148426
0.000138383
0.000134215
0.0001318
0.000130049
0.000128537
0.000126824
0.000124726
0.000123106
0.000121637
0.000120025
0.00011853
0.000117021
0.000115966
0.000114711
0.000112082
0.000113894
0.00011086
0.000104421
0.00010921
0.000107092
0.000100876
0.00010249
0.000100181
0.000100551
9.85161e-05
9.68755e-05
9.60464e-05
9.73526e-05
0.000103596
0.000111048
0.000117931
0.000125773
0.000136788
0.000157681
0.000211285
0.00034851
0.000428253
0.000418663
0.000346142
0.000253899
0.000189409
0.000155909
0.000143005
0.000138649
0.000137045
0.000136535
0.000136586
0.000136471
0.000135889
0.000134638
0.000132965
0.000131234
0.000130093
0.000127634
0.000123538
0.000119664
0.00011536
0.000117384
0.000112908
0.00011475
0.000111547
0.000104989
0.000109701
0.000107776
0.000101347
0.000103157
0.000100342
0.000100888
9.87718e-05
9.64468e-05
9.74051e-05
9.69164e-05
0.000103775
0.000110637
0.000115843
0.000122348
0.000132309
0.00014979
0.000192119
0.000310931
0.000422012
0.000426739
0.00037557
0.000279239
0.000206454
0.000164479
0.000147831
0.0001427
0.000141879
0.000142834
0.000144689
0.000146827
0.00014777
0.000149144
0.000150849
0.00015684
0.000163322
0.000166985
0.000161208
0.000142299
0.000120886
0.000129952
0.000116577
0.000120052
0.000113637
0.0001155
0.000112032
0.000105759
0.000110457
0.000108659
0.000101902
0.000103914
0.000100452
0.000101152
9.92008e-05
9.60588e-05
9.69641e-05
0.00010228
0.000101267
0.00010892
0.000113652
0.000118971
0.000127763
0.000142961
0.000177143
0.000273472
0.000406799
0.000433309
0.000399873
0.000304368
0.000225223
0.000174929
0.000152909
0.000146341
0.00014594
0.000148591
0.000152092
0.00015646
0.000160716
0.000170416
0.000189716
0.000224452
0.000275392
0.000328593
0.00036276
0.000346488
0.000156033
0.00025218
0.000128846
0.000156531
0.000118955
0.00012788
0.000114003
0.000117486
0.000112644
0.00010669
0.000111125
0.00010939
0.000102389
0.000104688
0.000100558
0.000101387
9.93584e-05
9.59932e-05
9.61693e-05
0.000102117
0.000105901
0.000103803
0.000110803
0.000115617
0.000123417
0.000137139
0.000164987
0.000240007
0.000381603
0.000436892
0.000416731
0.000333679
0.000245786
0.000187019
0.000158481
0.000149685
0.000149304
0.000152514
0.000157488
0.000163838
0.000174312
0.000202365
0.000275541
0.000395337
0.000597256
0.000854608
0.00108559
0.0012407
0.00056171
0.0014173
0.000255142
0.000596012
0.000157024
0.000262513
0.000126651
0.000157433
0.000116153
0.000125476
0.000114621
0.000107394
0.000112763
0.00011051
0.000102902
0.000105311
0.000100674
0.00010167
9.94098e-05
9.64558e-05
9.51475e-05
9.98205e-05
0.000110868
0.000105204
0.000104645
0.000112301
0.000119174
0.00013214
0.00015525
0.00021266
0.000350261
0.0004351
0.000429615
0.000362013
0.000267657
0.000201591
0.00016492
0.000152663
0.000151929
0.000155281
0.000161392
0.000169392
0.000185727
0.000244387
0.000408899
0.000768529
0.00128109
0.00201657
0.00271897
0.00326036
0.00244888
0.00359109
0.00149437
0.00272748
0.000627968
0.00158615
0.000271143
0.000664127
0.000157787
0.000279654
0.000123784
0.000156457
0.000121422
0.000107994
0.000118164
0.000114297
0.00010351
0.000105615
0.000100764
0.000102226
9.94174e-05
9.68488e-05
9.4933e-05
9.68213e-05
0.000108695
0.000111329
0.000103721
0.000105994
0.00011536
0.000127058
0.000147429
0.000192966
0.000314955
0.000427644
0.000436244
0.000392201
0.00029274
0.000217312
0.000173085
0.000155554
0.000153845
0.000157006
0.000163919
0.000173483
0.000193305
0.00028401
0.000578271
0.00124605
0.00234494
0.00327739
0.00371681
0.00397637
0.0039707
0.0042271
0.0036661
0.00415431
0.00287119
0.00380892
0.00168577
0.003018
0.000702395
0.00178934
0.000284554
0.000733929
0.000152832
0.000280491
0.000146485
0.000110319
0.000137597
0.000127906
0.000103785
0.000106986
0.000100944
0.000102626
9.94638e-05
9.73781e-05
9.53636e-05
9.58459e-05
0.000102353
0.000110424
0.000108123
0.000104219
0.000109603
0.00012266
0.000141221
0.000178094
0.000278458
0.000411115
0.00044307
0.000413635
0.000317142
0.00023601
0.000182848
0.000158929
0.000154977
0.000157608
0.00016476
0.000175579
0.000197366
0.000304037
0.000739999
0.00176531
0.00329258
0.00406214
0.00413252
0.00411304
0.0041965
0.00417658
0.00433352
0.00431269
0.00432482
0.00450671
0.00399678
0.0045536
0.00317793
0.00420198
0.00188453
0.00333304
0.000745668
0.00194555
0.00026652
0.000722348
0.000241164
0.000118714
0.000210087
0.000178754
0.000104691
0.000111493
0.000101218
0.000102935
9.96455e-05
9.81248e-05
9.63188e-05
9.60812e-05
9.85015e-05
0.000104597
0.000108936
0.000106833
0.000107096
0.00011848
0.000136326
0.000166453
0.0002459
0.000385097
0.000445253
0.000429498
0.00034862
0.000255189
0.000194594
0.000163374
0.000155422
0.000157602
0.000164693
0.00017569
0.00019734
0.000303458
0.000811077
0.0022302
0.00396857
0.0044661
0.00437258
0.00422916
0.00415324
0.00417803
0.0042436
0.00418577
0.00448643
0.00439591
0.00475014
0.00473587
0.00481486
0.00505012
0.004413
0.00507585
0.00345804
0.00459571
0.00194595
0.00353119
0.000660457
0.00185165
0.000559303
0.000149788
0.000451441
0.000349381
0.000106892
0.000128054
0.000101382
0.000103945
0.000100035
9.90558e-05
9.75998e-05
9.69214e-05
9.73685e-05
9.94313e-05
0.000105349
0.000108555
0.000108329
0.000115451
0.000132122
0.000157471
0.000219137
0.000353361
0.000442462
0.000440745
0.000379129
0.000278369
0.000208315
0.000168993
0.000155824
0.000157412
0.000164216
0.00017526
0.000195689
0.000294409
0.000805207
0.00242554
0.00439395
0.00467281
0.00452451
0.00430069
0.00416396
0.00418468
0.00419482
0.00430102
0.00427106
0.00464392
0.00451814
0.00504647
0.00496911
0.00537581
0.00538959
0.00531217
0.00566899
0.00472991
0.00550734
0.00353568
0.00479568
0.00165247
0.00343564
0.00135637
0.000257631
0.00110236
0.000827662
0.000114459
0.000186439
0.000101361
0.000106809
0.000100659
0.000100053
9.90681e-05
9.83834e-05
9.74492e-05
9.76516e-05
0.000100493
0.000106567
0.000109988
0.000114609
0.000128825
0.00015076
0.000199094
0.000319556
0.000433528
0.00044716
0.000408029
0.000303681
0.000224199
0.000176458
0.000156728
0.000156906
0.000163101
0.000174196
0.00019213
0.000271332
0.000759502
0.00239943
0.00462916
0.0048687
0.00446555
0.00415359
0.00398754
0.00419951
0.0040382
0.00426649
0.00425195
0.00444992
0.0044243
0.00482943
0.00473188
0.00533752
0.00522368
0.00575332
0.00574437
0.00592394
0.00611153
0.00565627
0.00615689
0.00480635
0.00574232
0.00322185
0.00472327
0.00287263
0.000564401
0.00241244
0.00182309
0.000141275
0.000364519
0.000101891
0.000116341
0.000102534
0.000101322
0.000100796
0.000100371
9.86351e-05
9.75607e-05
9.85953e-05
0.00010282
0.000109296
0.0001151
0.000127234
0.000145731
0.000184595
0.000286634
0.000415012
0.000453636
0.000427719
0.000333273
0.000243251
0.000185721
0.000158916
0.000155283
0.000160854
0.000172235
0.000188836
0.000243626
0.000647628
0.00224824
0.00472864
0.00504827
0.00445352
0.00345365
0.00339923
0.00390285
0.00362553
0.00423508
0.00405704
0.00440292
0.00435515
0.00468174
0.00465357
0.00513956
0.00508316
0.0057232
0.005726
0.00623859
0.00638098
0.00650182
0.00683921
0.00640602
0.00694622
0.00581775
0.00665143
0.00453788
0.00583461
0.00428048
0.00126768
0.00389866
0.00334131
0.000229567
0.000813251
0.000103513
0.000147291
0.00010986
0.00010399
0.000103135
0.000102795
0.000100871
9.88443e-05
9.8622e-05
0.000101512
0.000107987
0.000115767
0.000126846
0.000142709
0.000173942
0.000257169
0.000389631
0.0004542
0.000443132
0.000365993
0.000264435
0.000198244
0.000162207
0.000153017
0.000157858
0.000168797
0.000185128
0.000222012
0.000509016
0.00192448
0.00471999
0.00526218
0.00456426
0.00312028
0.00210625
0.00336584
0.00269072
0.00389993
0.00374039
0.00434043
0.00419016
0.00460553
0.00450575
0.00504678
0.00499937
0.00571889
0.00569668
0.00653665
0.00665911
0.00721492
0.00757521
0.00753603
0.00819402
0.00745828
0.00832526
0.0069353
0.00798511
0.00579412
0.00716785
0.00568079
0.00258612
0.00541121
0.00496636
0.000465433
0.00170452
0.000109544
0.00024535
0.000129322
0.000111337
0.000106798
0.000105729
0.000104026
0.00010185
0.00010042
0.00010216
0.000108148
0.000116388
0.000127013
0.000141456
0.000166648
0.000233265
0.000360095
0.000450674
0.000452391
0.000399865
0.000290601
0.000213308
0.000167791
0.000152352
0.000154681
0.000164435
0.000180552
0.000207778
0.000385002
0.00150433
0.00442394
0.00559388
0.00487754
0.00322139
0.00148904
0.00178787
0.00344479
0.00284299
0.00409208
0.00396675
0.00462791
0.00455738
0.00490567
0.00476839
0.00565309
0.00556326
0.00667916
0.00665779
0.00786983
0.00803819
0.00884004
0.00927374
0.00928866
0.0100985
0.00915191
0.0103924
0.00855832
0.0099891
0.00730513
0.00903152
0.00736799
0.00427084
0.00723261
0.00685764
0.0010188
0.00326255
0.000126785
0.000480583
0.000133028
0.000113963
0.000110238
0.00010857
0.000106613
0.00010479
0.000105384
0.000110122
0.000117694
0.0001277
0.000141136
0.000162484
0.00021562
0.000329783
0.000440886
0.000459166
0.000425818
0.00031843
0.000231506
0.00017678
0.000152772
0.000150963
0.000159431
0.000175152
0.00019808
0.000295127
0.00107844
0.00378488
0.00583045
0.005509
0.00375798
0.00150428
0.00102136
0.00219326
0.00140448
0.00368219
0.00291081
0.00450945
0.00437402
0.00521314
0.0051873
0.00542588
0.0052994
0.00659047
0.0064369
0.00802272
0.00791639
0.00940502
0.00925351
0.0104349
0.0103122
0.0111689
0.0112295
0.011393
0.0120112
0.0107424
0.0122596
0.00937365
0.0113703
0.00954126
0.00618461
0.00945605
0.00908083
0.00204088
0.00516957
0.000176505
0.00101787
0.000127479
0.000118984
0.000115687
0.000114428
0.000112437
0.000111977
0.000114899
0.000120826
0.00012977
0.000141609
0.00016159
0.000204439
0.000302021
0.000422515
0.000465214
0.000443544
0.000353852
0.000252043
0.000188804
0.000154584
0.000146953
0.000153746
0.000168648
0.000190107
0.000243538
0.000714475
0.0030077
0.00580141
0.00630611
0.00504359
0.00216892
0.000904177
0.00103907
0.000797407
0.0019431
0.00130771
0.00385147
0.00290617
0.00506538
0.00465197
0.00600318
0.0057497
0.00626448
0.00613854
0.00766537
0.00734107
0.00891298
0.00848536
0.00999603
0.00951562
0.0109639
0.010421
0.0118611
0.0114172
0.0127665
0.0124954
0.0129914
0.0135027
0.0118256
0.013572
0.0120379
0.00838121
0.0119831
0.0117239
0.0101315
0.00371287
0.00726137
0.000296328
0.00202549
0.000132357
0.000128033
0.000125515
0.000124502
0.000122633
0.000122988
0.000126604
0.000133841
0.000143963
0.000161847
0.00019881
0.000279419
0.000399427
0.000464907
0.000457866
0.000389087
0.000277328
0.000203459
0.000158833
0.000145106
0.000148401
0.00016098
0.000182267
0.000217022
0.00046241
0.00212626
0.00557891
0.00678468
0.00648443
0.00408308
0.00119822
0.000689289
0.000933003
0.000735802
0.00163397
0.00107797
0.00372142
0.00255244
0.00531153
0.00442499
0.00633092
0.00583282
0.00701734
0.00668622
0.00804306
0.00760005
0.00896473
0.00836462
0.00968312
0.00880727
0.0105221
0.00950861
0.0117673
0.0107282
0.0131122
0.0122414
0.0142087
0.0137912
0.0140953
0.0147357
0.0144568
0.0132202
0.0143095
0.0113788
0.00924365
0.0110133
0.0130603
0.0143854
0.0143591
0.0129014
0.00571934
0.0104539
0.00986312
0.0079453
0.000589561
0.00378382
0.000140666
0.000144399
0.000141733
0.000139792
0.000136656
0.000137864
0.000141925
0.000150529
0.000164057
0.000197843
0.000263605
0.000373685
0.000460786
0.000465189
0.000421697
0.000307196
0.000220344
0.00016794
0.000145262
0.000143255
0.000152715
0.000173062
0.000201355
0.000322241
0.00133066
0.00482996
0.00683649
0.0078009
0.0062743
0.00257649
0.000793112
0.000617843
0.00061687
0.000790435
0.000660487
0.00120548
0.000836572
0.00311732
0.00194791
0.00488963
0.00350028
0.00598197
0.00490868
0.00716047
0.00667276
0.00771969
0.00704868
0.00791955
0.00703076
0.00855715
0.00769014
0.00984963
0.00903098
0.0112833
0.010552
0.0130972
0.0126013
0.0121934
0.01186
0.0145996
0.0142671
0.0129766
0.0132857
0.0137707
0.0150424
0.0149426
0.0153273
0.0149321
0.0151471
0.0125885
0.0121584
0.0142436
0.0152833
0.0152574
0.0140504
0.00909589
0.00627603
0.00828571
0.0116172
0.0109603
0.00129508
0.00735326
0.00661418
0.00476186
0.000161554
0.000177398
0.000171854
0.000163594
0.000157636
0.000156377
0.000161647
0.000171409
0.000198633
0.00025639
0.00035059
0.000450413
0.000471972
0.000444372
0.000341428
0.000241562
0.000180234
0.00014687
0.000138914
0.000145295
0.000161706
0.000188894
0.000252959
0.000780721
0.00360632
0.00664038
0.00833712
0.00829769
0.00524832
0.00143844
0.000603321
0.000584182
0.000557218
0.000678854
0.000613131
0.000846252
0.000684893
0.00213822
0.00125686
0.00345258
0.00209708
0.004242
0.00291635
0.00629869
0.00538788
0.00614098
0.00525527
0.00687532
0.00606883
0.008274
0.00754112
0.0100646
0.00971425
0.0116487
0.0115602
0.0115957
0.0116514
0.0125625
0.0123099
0.0122427
0.0145915
0.0140782
0.0129543
0.0132913
0.0136085
0.0152449
0.015547
0.015522
0.0149005
0.0157479
0.0137408
0.0133103
0.0152294
0.0158939
0.0159849
0.0150695
0.0101888
0.00931478
0.0127547
0.0120637
0.00633484
0.00419708
0.00700277
0.00840756
0.00775703
0.000219261
0.000249547
0.000228534
0.000201908
0.000185871
0.000180592
0.000187187
0.000203486
0.000255689
0.000334951
0.000433941
0.000475569
0.000460029
0.000379927
0.000266881
0.000194548
0.00015139
0.000137542
0.000139376
0.000150842
0.000175511
0.000217646
0.000470407
0.0023227
0.00612947
0.00829875
0.0100005
0.0080622
0.00359441
0.000815568
0.000517207
0.000536337
0.000540788
0.000528869
0.000612002
0.000568987
0.000684505
0.000612795
0.00125392
0.000851831
0.00191282
0.00125981
0.00261411
0.00188198
0.00437453
0.00348612
0.00525784
0.00444618
0.00680419
0.00605431
0.00931094
0.00874865
0.0117143
0.0117187
0.0116678
0.0115217
0.0123441
0.0125524
0.0127978
0.0130047
0.0128116
0.0128781
0.0131461
0.014386
0.0139031
0.0132507
0.0136488
0.0136352
0.015185
0.0157903
0.0154727
0.0146614
0.016031
0.0147946
0.0143852
0.0160028
0.016233
0.0163875
0.0159109
0.0112463
0.0103177
0.0138291
0.0131156
0.00809766
0.00251458
0.00688064
0.0093772
0.00880789
0.000386255
0.000416547
0.000331326
0.000257857
0.00022173
0.000212508
0.000217645
0.000257923
0.000328533
0.000416554
0.000474734
0.000470719
0.000415858
0.000298014
0.000211255
0.000159764
0.000137909
0.000134354
0.00014193
0.000161478
0.000193574
0.000316108
0.00133131
0.0050804
0.00796617
0.010569
0.0105351
0.00693884
0.00186864
0.000545699
0.000490762
0.00047429
0.000515694
0.000498451
0.000571439
0.00054002
0.000620809
0.000577757
0.000881278
0.000698498
0.00138431
0.00101783
0.00222386
0.00172439
0.00364732
0.00288679
0.00528784
0.00452257
0.00802499
0.00726064
0.0113127
0.0109953
0.0106461
0.0101962
0.0131248
0.0131385
0.0130392
0.0128329
0.0135407
0.0139663
0.0143302
0.0145767
0.0134687
0.0139054
0.0144774
0.0141665
0.0139243
0.0139821
0.014399
0.0139794
0.0149272
0.0157561
0.0151957
0.014399
0.0160325
0.0156946
0.01533
0.0164835
0.0162952
0.016529
0.016492
0.0122422
0.0112434
0.0147987
0.0140749
0.0084215
0.00502808
0.00918539
0.010264
0.00958362
0.000794861
0.000778258
0.000502999
0.00032623
0.000266101
0.000248797
0.000268043
0.000329036
0.000404912
0.000471031
0.000476942
0.000442143
0.000331216
0.000233034
0.000171499
0.000139697
0.00013136
0.000135228
0.000148518
0.000173831
0.000239861
0.000730886
0.00352143
0.00707772
0.0104195
0.0124902
0.0102645
0.0049117
0.000873023
0.000441657
0.000476391
0.000446516
0.000445054
0.000480793
0.000461255
0.000541355
0.000506929
0.000598165
0.000558344
0.000768377
0.000650894
0.00133129
0.000986586
0.00257657
0.0020933
0.00379413
0.0031371
0.00645675
0.00566266
0.00994626
0.00890176
0.0125244
0.0121375
0.0116816
0.011196
0.0146536
0.0145854
0.0143708
0.0140282
0.0150793
0.0156069
0.0159703
0.0161342
0.0145715
0.0153094
0.016077
0.0141592
0.0142256
0.0151126
0.0155048
0.0147011
0.0146202
0.0154651
0.0148406
0.0143459
0.015756
0.0163849
0.0161118
0.0167097
0.0160652
0.0163891
0.0168023
0.0131537
0.0121119
0.0156333
0.0149184
0.00974181
0.0012925
0.00769476
0.0111844
0.010751
0.00150308
0.0013249
0.000706931
0.000399215
0.00031354
0.000296608
0.000336198
0.000403268
0.000464293
0.000480898
0.000460677
0.000369882
0.000259255
0.000187242
0.00014436
0.000130865
0.000130034
0.000138237
0.000157297
0.000197835
0.000422138
0.00208787
0.00604629
0.00975904
0.0131324
0.0130463
0.00885024
0.00235569
0.000518701
0.00042041
0.000415593
0.000422476
0.000416216
0.000453391
0.00043391
0.000518333
0.000482026
0.000590969
0.00054484
0.000746561
0.000641393
0.00160775
0.00109188
0.00336696
0.00259929
0.004871
0.00411052
0.00782541
0.00672636
0.0112108
0.0104917
0.0092173
0.00992059
0.0135869
0.013079
0.0125081
0.0118786
0.0160951
0.0158614
0.0154628
0.0149346
0.016761
0.0172666
0.0175089
0.0175101
0.0159922
0.0169062
0.0177325
0.0143958
0.0148855
0.0164973
0.0168071
0.0157412
0.0144988
0.0150767
0.0146403
0.0145038
0.0153505
0.0168084
0.0166689
0.0166895
0.0156799
0.0160614
0.0169175
0.0140013
0.0130319
0.0163126
0.0156757
0.0101808
0.00100965
0.00525612
0.0123066
0.011871
0.00231897
0.00185939
0.000883914
0.000467412
0.000360807
0.000359089
0.000407975
0.000463271
0.000482336
0.000471418
0.000407672
0.000291531
0.000206628
0.000155396
0.000131584
0.000126756
0.000131136
0.000143847
0.000171636
0.000275449
0.00112475
0.00469392
0.00831172
0.0128835
0.0151349
0.012584
0.00614819
0.000983526
0.000395041
0.000450862
0.000380252
0.000388548
0.000390671
0.000381834
0.000425016
0.000403555
0.000498142
0.000456433
0.000588733
0.000530286
0.000771724
0.000653517
0.00179837
0.00112321
0.00367283
0.00268253
0.00566859
0.00464155
0.00862751
0.00793715
0.00698438
0.0113541
0.0106322
0.00922799
0.00994076
0.0143029
0.0135852
0.0128368
0.0120899
0.0172677
0.0168117
0.0161788
0.0154059
0.0183727
0.0187292
0.0187919
0.0185892
0.0175272
0.0184696
0.0192267
0.0149659
0.0158305
0.0179225
0.0180875
0.0169309
0.0145796
0.0147909
0.0146441
0.0149551
0.0149812
0.0170219
0.0170097
0.016466
0.015265
0.0156471
0.0168245
0.0148475
0.0140771
0.0168147
0.0163638
0.00971412
0.000554779
0.0038835
0.0135648
0.012662
0.00307296
0.0022686
0.00100701
0.000520308
0.000411872
0.000424216
0.00046697
0.000485842
0.000476756
0.000435621
0.000327397
0.000230208
0.00016908
0.000134756
0.000125822
0.000126247
0.000133956
0.000153975
0.000205685
0.000595487
0.0029741
0.00679726
0.0118254
0.0158307
0.0156338
0.0105518
0.00278585
0.00052263
0.000383341
0.000390126
0.000360838
0.000364363
0.000367853
0.000362232
0.000401627
0.000380033
0.000477577
0.000434148
0.000581187
0.000511204
0.000785731
0.000662984
0.00172871
0.00104652
0.00334671
0.00217227
0.00572695
0.00450961
0.00853884
0.00787228
0.00639014
0.00566725
0.0110923
0.0102654
0.00865994
0.00945601
0.014536
0.013666
0.012798
0.011937
0.0181019
0.0173964
0.0165127
0.0154996
0.0197254
0.0198744
0.0197913
0.0193692
0.0189467
0.01979
0.020417
0.0157953
0.0168892
0.0191616
0.0191235
0.0180476
0.0148972
0.0147295
0.0148132
0.0156442
0.014827
0.0170977
0.0172037
0.0161069
0.0149989
0.0152757
0.0165986
0.0157377
0.015221
0.0171839
0.0169927
0.00930636
0.000316455
0.00280851
0.0147396
0.0132579
0.00368125
0.00252596
0.00107106
0.000559052
0.000462516
0.000479002
0.000496397
0.000483619
0.000451784
0.000359691
0.000257437
0.000184392
0.000142348
0.000126166
0.0001233
0.000127162
0.000140704
0.000169585
0.000339739
0.00164485
0.00555393
0.00991104
0.0155245
0.0178123
0.0146973
0.00697661
0.00107551
0.000378341
0.000455217
0.000347145
0.000364824
0.000336189
0.000338053
0.000347941
0.000339462
0.000381789
0.000360656
0.000456985
0.000413637
0.000554241
0.000486332
0.00077803
0.000654251
0.00130762
0.000905126
0.00212468
0.00133027
0.00505905
0.00434477
0.00321735
0.00788613
0.00713171
0.00534891
0.00473526
0.0102979
0.00934638
0.00756804
0.00843467
0.0144341
0.0133582
0.0123129
0.0112901
0.0186644
0.0177324
0.016617
0.0153789
0.0207327
0.020769
0.0205489
0.0199947
0.0200592
0.0207538
0.0212516
0.0167071
0.0178361
0.0200222
0.0197184
0.0188693
0.0154239
0.0147874
0.0151813
0.0163935
0.0148165
0.017027
0.0173377
0.0157189
0.0148827
0.0150287
0.0162733
0.0166474
0.0163133
0.0174831
0.0175441
0.00885672
0.000189566
0.00208993
0.015765
0.0138421
0.00412531
0.00264686
0.00108838
0.00058883
0.000507613
0.000510812
0.000497264
0.000467837
0.000390654
0.000286502
0.00020305
0.000152339
0.000128143
0.000122495
0.000122988
0.000130817
0.000148387
0.000223622
0.000857028
0.00399732
0.00780755
0.0142339
0.0185946
0.0180601
0.0117754
0.00281543
0.000539216
0.000374232
0.000389321
0.00033213
0.000344654
0.000322527
0.000324968
0.000334514
0.000326324
0.00036777
0.00034726
0.000438029
0.00039784
0.00051152
0.000460063
0.000736578
0.000605808
0.000966543
0.000791775
0.00167429
0.00131377
0.00106126
0.00418983
0.00369945
0.00194861
0.00244143
0.00676011
0.00602222
0.00447535
0.00389744
0.00931189
0.00829953
0.00654662
0.00738168
0.0140935
0.0128102
0.0115796
0.0104122
0.0191596
0.018078
0.0167878
0.0153638
0.0214752
0.021476
0.0212419
0.0206914
0.0207358
0.0213048
0.0217362
0.0174662
0.0184397
0.0204172
0.0199039
0.0192431
0.016012
0.0149752
0.01561
0.0169794
0.014848
0.0168855
0.0174333
0.0153649
0.0148181
0.0148564
0.0159898
0.0174808
0.0173065
0.0177873
0.0180277
0.00849143
0.000146741
0.00195322
0.0167478
0.014583
0.0044296
0.00266758
0.00108225
0.000617392
0.000538811
0.0005139
0.000486574
0.000424421
0.000320892