/*--------------------------------*- C++ -*----------------------------------*\
  =========                 |
  \\      /  F ield         | OpenFOAM: The Open Source CFD Toolbox
   \\    /   O peration     | Website:  https://openfoam.org
    \\  /    A nd           | Version:  dev
     \\/     M anipulation  |
\*---------------------------------------------------------------------------*/
FoamFile
{
    version     2.0;
    format      ascii;
    class       volScalarField;
    location    "2500";
    object      N2;
}
// * * * * * * * * * * * * * * * * * * * * * * * * * * * * * * * * * * * * * //

dimensions      [0 0 0 0 0 0 0];

internalField   nonuniform List<scalar> 
9842
(
0.76699
0.76699
0.76699
0.76699
0.76699
0.76699
0.76699
0.76699
0.76699
0.76699
0.76699
0.76699
0.76699
0.76699
0.76699
0.76699
0.76699
0.76699
0.76699
0.76699
0.76699
0.76699
0.76699
0.76699
0.76699
0.76699
0.76699
0.76699
0.76699
0.76699
0.76699
0.76699
0.76699
0.76699
0.76699
0.76699
0.76699
0.76699
0.76699
0.76699
0.76699
0.76699
0.76699
0.76699
0.76699
0.76699
0.76699
0.76699
0.76699
0.76699
0.76699
0.76699
0.76699
0.76699
0.76699
0.76699
0.76699
0.76699
0.76699
0.76699
0.76699
0.76699
0.76699
0.76699
0.76699
0.76699
0.76699
0.76699
0.76699
0.76699
0.76699
0.76699
0.76699
0.76699
0.76699
0.76699
0.76699
0.76699
0.76699
0.76699
0.76699
0.76699
0.76699
0.76699
0.76699
0.76699
0.76699
0.76699
0.76699
0.76699
0.76699
0.76699
0.76699
0.76699
0.76699
0.76699
0.76699
0.76699
0.76699
0.76699
0.76699
0.76699
0.76699
0.76699
0.76699
0.76699
0.76699
0.76699
0.76699
0.76699
0.76699
0.76699
0.76699
0.76699
0.76699
0.76699
0.76699
0.76699
0.76699
0.76699
0.76699
0.76699
0.76699
0.76699
0.76699
0.76699
0.76699
0.76699
0.76699
0.76699
0.76699
0.76699
0.76699
0.76699
0.76699
0.76699
0.76699
0.76699
0.76699
0.76699
0.76699
0.76699
0.76699
0.76699
0.76699
0.76699
0.76699
0.76699
0.76699
0.76699
0.76699
0.76699
0.76699
0.76699
0.76699
0.76699
0.76699
0.76699
0.76699
0.76699
0.76699
0.76699
0.76699
0.76699
0.76699
0.76699
0.76699
0.76699
0.76699
0.76699
0.76699
0.76699
0.76699
0.76699
0.76699
0.76699
0.76699
0.76699
0.76699
0.76699
0.76699
0.76699
0.76699
0.76699
0.76699
0.76699
0.76699
0.76699
0.76699
0.76699
0.76699
0.76699
0.76699
0.76699
0.76699
0.76699
0.76699
0.76699
0.76699
0.76699
0.76699
0.76699
0.76699
0.76699
0.76699
0.76699
0.76699
0.76699
0.76699
0.76699
0.76699
0.76699
0.76699
0.76699
0.76699
0.76699
0.76699
0.76699
0.76699
0.76699
0.76699
0.76699
0.76699
0.76699
0.76699
0.76699
0.76699
0.76699
0.76699
0.76699
0.76699
0.76699
0.76699
0.76699
0.76699
0.76699
0.76699
0.76699
0.76699
0.76699
0.76699
0.76699
0.76699
0.76699
0.76699
0.76699
0.76699
0.76699
0.76699
0.76699
0.76699
0.76699
0.76699
0.76699
0.76699
0.76699
0.76699
0.76699
0.76699
0.76699
0.76699
0.76699
0.76699
0.76699
0.76699
0.76699
0.76699
0.76699
0.76699
0.76699
0.76699
0.76699
0.76699
0.76699
0.76699
0.76699
0.76699
0.76699
0.76699
0.76699
0.76699
0.76699
0.76699
0.76699
0.76699
0.76699
0.76699
0.76699
0.76699
0.76699
0.76699
0.76699
0.76699
0.76699
0.76699
0.76699
0.76699
0.76699
0.76699
0.76699
0.76699
0.76699
0.76699
0.76699
0.76699
0.76699
0.76699
0.76699
0.76699
0.76699
0.76699
0.76699
0.76699
0.76699
0.76699
0.76699
0.76699
0.76699
0.76699
0.76699
0.76699
0.76699
0.76699
0.76699
0.76699
0.76699
0.76699
0.76699
0.76699
0.76699
0.76699
0.76699
0.76699
0.76699
0.76699
0.76699
0.76699
0.76699
0.76699
0.76699
0.76699
0.76699
0.76699
0.76699
0.76699
0.76699
0.76699
0.76699
0.76699
0.76699
0.76699
0.76699
0.76699
0.76699
0.76699
0.76699
0.76699
0.76699
0.76699
0.76699
0.76699
0.76699
0.76699
0.76699
0.76699
0.76699
0.76699
0.76699
0.76699
0.76699
0.76699
0.76699
0.76699
0.76699
0.76699
0.76699
0.76699
0.76699
0.76699
0.76699
0.76699
0.76699
0.76699
0.76699
0.76699
0.76699
0.76699
0.76699
0.76699
0.76699
0.76699
0.76699
0.76699
0.76699
0.76699
0.76699
0.76699
0.76699
0.76699
0.76699
0.76699
0.76699
0.76699
0.76699
0.76699
0.76699
0.76699
0.76699
0.76699
0.76699
0.76699
0.76699
0.76699
0.76699
0.76699
0.76699
0.76699
0.76699
0.76699
0.76699
0.76699
0.76699
0.76699
0.76699
0.76699
0.76699
0.76699
0.76699
0.76699
0.76699
0.76699
0.76699
0.76699
0.76699
0.76699
0.76699
0.76699
0.76699
0.76699
0.76699
0.76699
0.76699
0.76699
0.76699
0.76699
0.76699
0.76699
0.76699
0.76699
0.76699
0.76699
0.76699
0.76699
0.76699
0.76699
0.76699
0.76699
0.76699
0.76699
0.76699
0.76699
0.76699
0.76699
0.76699
0.76699
0.76699
0.76699
0.76699
0.76699
0.76699
0.76699
0.76699
0.76699
0.76699
0.76699
0.76699
0.76699
0.76699
0.76699
0.76699
0.76699
0.76699
0.76699
0.76699
0.76699
0.76699
0.76699
0.76699
0.76699
0.76699
0.76699
0.76699
0.76699
0.76699
0.76699
0.76699
0.76699
0.76699
0.76699
0.76699
0.76699
0.76699
0.76699
0.76699
0.76699
0.76699
0.76699
0.76699
0.76699
0.76699
0.76699
0.76699
0.76699
0.76699
0.76699
0.76699
0.76699
0.76699
0.76699
0.76699
0.76699
0.76699
0.76699
0.76699
0.76699
0.76699
0.76699
0.76699
0.76699
0.76699
0.76699
0.76699
0.76699
0.76699
0.76699
0.76699
0.76699
0.76699
0.76699
0.76699
0.76699
0.76699
0.76699
0.76699
0.76699
0.76699
0.76699
0.76699
0.76699
0.76699
0.76699
0.76699
0.76699
0.76699
0.76699
0.76699
0.76699
0.76699
0.76699
0.76699
0.76699
0.76699
0.76699
0.76699
0.76699
0.76699
0.76699
0.76699
0.76699
0.76699
0.76699
0.76699
0.76699
0.76699
0.76699
0.76699
0.76699
0.76699
0.76699
0.76699
0.76699
0.76699
0.76699
0.76699
0.76699
0.76699
0.76699
0.76699
0.76699
0.76699
0.76699
0.76699
0.76699
0.76699
0.76699
0.76699
0.76699
0.76699
0.76699
0.76699
0.76699
0.76699
0.76699
0.76699
0.76699
0.76699
0.76699
0.76699
0.76699
0.76699
0.76699
0.76699
0.76699
0.76699
0.76699
0.76699
0.76699
0.76699
0.76699
0.76699
0.76699
0.76699
0.76699
0.76699
0.76699
0.76699
0.76699
0.76699
0.76699
0.76699
0.76699
0.76699
0.76699
0.76699
0.76699
0.76699
0.76699
0.76699
0.76699
0.76699
0.76699
0.76699
0.76699
0.76699
0.76699
0.76699
0.76699
0.76699
0.76699
0.76699
0.76699
0.76699
0.76699
0.76699
0.76699
0.76699
0.76699
0.76699
0.76699
0.76699
0.76699
0.76699
0.76699
0.76699
0.76699
0.76699
0.76699
0.76699
0.76699
0.76699
0.76699
0.76699
0.76699
0.76699
0.76699
0.76699
0.76699
0.76699
0.76699
0.76699
0.76699
0.76699
0.76699
0.76699
0.76699
0.76699
0.76699
0.76699
0.76699
0.76699
0.76699
0.76699
0.76699
0.76699
0.76699
0.76699
0.76699
0.76699
0.76699
0.76699
0.76699
0.76699
0.76699
0.76699
0.76699
0.76699
0.76699
0.76699
0.76699
0.76699
0.76699
0.76699
0.76699
0.76699
0.76699
0.76699
0.76699
0.76699
0.76699
0.76699
0.76699
0.76699
0.76699
0.76699
0.76699
0.76699
0.76699
0.76699
0.76699
0.76699
0.76699
0.76699
0.76699
0.76699
0.76699
0.76699
0.76699
0.76699
0.76699
0.76699
0.76699
0.76699
0.76699
0.76699
0.76699
0.76699
0.76699
0.76699
0.76699
0.76699
0.76699
0.76699
0.76699
0.76699
0.76699
0.76699
0.76699
0.76699
0.76699
0.76699
0.76699
0.76699
0.76699
0.76699
0.76699
0.76699
0.76699
0.76699
0.76699
0.76699
0.76699
0.76699
0.76699
0.76699
0.76699
0.76699
0.76699
0.76699
0.76699
0.76699
0.76699
0.76699
0.76699
0.76699
0.76699
0.76699
0.766989
0.766989
0.766988
0.766987
0.766987
0.766988
0.76699
0.766989
0.76699
0.76699
0.76699
0.76699
0.76699
0.76699
0.76699
0.76699
0.76699
0.76699
0.76699
0.76699
0.76699
0.76699
0.76699
0.76699
0.76699
0.76699
0.76699
0.76699
0.76699
0.76699
0.76699
0.76699
0.76699
0.76699
0.76699
0.76699
0.76699
0.76699
0.76699
0.76699
0.76699
0.76699
0.76699
0.76699
0.76699
0.766989
0.766988
0.766985
0.766979
0.766973
0.766969
0.766969
0.766986
0.766977
0.766989
0.766986
0.76699
0.766989
0.76699
0.76699
0.76699
0.76699
0.76699
0.76699
0.76699
0.76699
0.76699
0.76699
0.76699
0.76699
0.76699
0.76699
0.76699
0.76699
0.76699
0.76699
0.76699
0.76699
0.76699
0.76699
0.76699
0.76699
0.76699
0.76699
0.76699
0.76699
0.76699
0.76699
0.76699
0.76699
0.76699
0.76699
0.76699
0.766988
0.766984
0.766974
0.766955
0.766931
0.766905
0.766886
0.76695
0.766875
0.766977
0.766947
0.766986
0.766976
0.766989
0.766986
0.76699
0.766989
0.76699
0.76699
0.76699
0.76699
0.76699
0.76699
0.76699
0.76699
0.76699
0.76699
0.76699
0.76699
0.76699
0.76699
0.76699
0.76699
0.76699
0.76699
0.76699
0.76699
0.76699
0.76699
0.76699
0.76699
0.76699
0.76699
0.76699
0.76699
0.76699
0.76699
0.76699
0.76699
0.76699
0.766987
0.766977
0.766952
0.766905
0.766836
0.766766
0.766701
0.766778
0.766651
0.766872
0.766758
0.766944
0.766866
0.766975
0.766942
0.766986
0.766975
0.766989
0.766986
0.766989
0.76699
0.766989
0.766989
0.76699
0.76699
0.76699
0.76699
0.76699
0.76699
0.76699
0.76699
0.76699
0.76699
0.76699
0.76699
0.76699
0.76699
0.76699
0.76699
0.76699
0.76699
0.76699
0.76699
0.76699
0.76699
0.76699
0.76699
0.76699
0.76699
0.76699
0.76699
0.76699
0.766986
0.76697
0.766924
0.766839
0.766727
0.766601
0.7665
0.766551
0.766431
0.766635
0.766516
0.766746
0.766618
0.766858
0.766733
0.766938
0.76685
0.766974
0.766935
0.766986
0.766974
0.766986
0.76699
0.766987
0.766988
0.76699
0.76699
0.76699
0.76699
0.76699
0.76699
0.76699
0.76699
0.76699
0.76699
0.76699
0.76699
0.76699
0.76699
0.76699
0.76699
0.76699
0.76699
0.76699
0.76699
0.76699
0.76699
0.76699
0.76699
0.76699
0.76699
0.76699
0.76699
0.76699
0.766986
0.766964
0.766897
0.766774
0.766628
0.766478
0.766342
0.766349
0.766265
0.766401
0.7663
0.766489
0.766366
0.766598
0.766461
0.766717
0.766573
0.76684
0.766697
0.766933
0.766831
0.766975
0.766934
0.766977
0.766989
0.766979
0.766982
0.76699
0.766989
0.76699
0.76699
0.76699
0.76699
0.76699
0.76699
0.76699
0.76699
0.76699
0.76699
0.76699
0.76699
0.76699
0.76699
0.76699
0.76699
0.76699
0.76699
0.76699
0.76699
0.76699
0.76699
0.76699
0.76699
0.76699
0.76699
0.76699
0.766986
0.766964
0.76688
0.766721
0.766545
0.766413
0.766288
0.766224
0.766202
0.766218
0.766164
0.766255
0.766164
0.766328
0.766207
0.766428
0.766285
0.766542
0.766385
0.766675
0.766506
0.766826
0.766654
0.766937
0.766827
0.766944
0.766985
0.766952
0.766962
0.76699
0.766987
0.76699
0.76699
0.76699
0.76699
0.76699
0.76699
0.76699
0.76699
0.76699
0.76699
0.76699
0.76699
0.76699
0.76699
0.76699
0.76699
0.76699
0.76699
0.76699
0.76699
0.76699
0.76699
0.76699
0.76699
0.76699
0.76699
0.76699
0.766987
0.766965
0.766878
0.766697
0.766553
0.766424
0.766298
0.76617
0.766138
0.766121
0.766099
0.766062
0.766106
0.766029
0.766153
0.76604
0.766232
0.766088
0.766334
0.766168
0.766467
0.766278
0.766637
0.76643
0.766838
0.766629
0.766854
0.766971
0.766875
0.766902
0.766989
0.766979
0.76699
0.76699
0.76699
0.76699
0.76699
0.76699
0.76699
0.76699
0.76699
0.76699
0.76699
0.76699
0.76699
0.76699
0.76699
0.76699
0.76699
0.76699
0.76699
0.76699
0.76699
0.76699
0.76699
0.76699
0.76699
0.76699
0.76699
0.766988
0.766968
0.766882
0.766704
0.766595
0.766503
0.766372
0.766211
0.766063
0.766082
0.766051
0.766053
0.765981
0.765959
0.765952
0.765892
0.765964
0.765865
0.766013
0.765878
0.766095
0.765928
0.76622
0.766018
0.766399
0.766165
0.766637
0.76638
0.766661
0.766931
0.766705
0.766768
0.766985
0.766955
0.76699
0.766988
0.76699
0.76699
0.76699
0.76699
0.76699
0.76699
0.76699
0.76699
0.76699
0.76699
0.76699
0.76699
0.76699
0.76699
0.76699
0.76699
0.76699
0.76699
0.76699
0.76699
0.76699
0.76699
0.76699
0.76699
0.76699
0.766989
0.766975
0.766893
0.766718
0.766638
0.766609
0.76658
0.766363
0.766098
0.766137
0.76598
0.765992
0.765957
0.765964
0.765859
0.76585
0.765796
0.765753
0.76577
0.765694
0.765783
0.765674
0.765837
0.765688
0.765944
0.765748
0.76612
0.765877
0.766377
0.766089
0.766395
0.766828
0.766438
0.766514
0.766972
0.766888
0.76699
0.766984
0.76699
0.76699
0.76699
0.76699
0.76699
0.76699
0.76699
0.76699
0.76699
0.76699
0.76699
0.76699
0.76699
0.76699
0.76699
0.76699
0.76699
0.76699
0.76699
0.76699
0.76699
0.76699
0.76699
0.76699
0.76699
0.766989
0.766981
0.766915
0.766738
0.766663
0.766678
0.766769
0.766721
0.766218
0.766448
0.766011
0.766061
0.765879
0.765896
0.765853
0.765866
0.765736
0.765737
0.765655
0.765643
0.765617
0.765595
0.765601
0.765566
0.765606
0.765547
0.765669
0.765546
0.765824
0.765605
0.766077
0.765787
0.766089
0.766623
0.76613
0.766205
0.766937
0.766745
0.766989
0.766969
0.76699
0.76699
0.76699
0.76699
0.76699
0.76699
0.76699
0.76699
0.76699
0.76699
0.76699
0.76699
0.76699
0.76699
0.76699
0.76699
0.76699
0.76699
0.76699
0.76699
0.76699
0.76699
0.76699
0.76699
0.76699
0.76699
0.766985
0.766938
0.766768
0.766676
0.766708
0.766855
0.766903
0.766773
0.766197
0.766451
0.765936
0.766027
0.765798
0.765841
0.765748
0.765769
0.76565
0.765668
0.765596
0.765606
0.765564
0.765571
0.765535
0.765542
0.765503
0.765508
0.765495
0.765468
0.765557
0.765453
0.765772
0.765525
0.765783
0.766325
0.765818
0.765892
0.76685
0.76649
0.766986
0.766932
0.76699
0.76699
0.76699
0.76699
0.76699
0.76699
0.76699
0.76699
0.76699
0.76699
0.76699
0.76699
0.76699
0.76699
0.76699
0.76699
0.76699
0.76699
0.76699
0.76699
0.76699
0.76699
0.76699
0.76699
0.76699
0.766988
0.766959
0.766812
0.766685
0.766712
0.76687
0.766953
0.766947
0.766719
0.766898
0.766222
0.766506
0.765912
0.766053
0.765775
0.765835
0.765698
0.765734
0.765628
0.765659
0.76559
0.765621
0.765564
0.765607
0.76553
0.765579
0.765481
0.765522
0.765436
0.765455
0.765417
0.765403
0.765513
0.765388
0.765524
0.76601
0.765552
0.765615
0.766684
0.766182
0.766978
0.766846
0.76699
0.76699
0.76699
0.76699
0.76699
0.76699
0.76699
0.76699
0.76699
0.76699
0.76699
0.76699
0.76699
0.76699
0.76699
0.76699
0.76699
0.76699
0.76699
0.76699
0.76699
0.76699
0.76699
0.76699
0.766989
0.766975
0.766865
0.766695
0.766706
0.766861
0.766953
0.766979
0.766955
0.766984
0.76683
0.766934
0.766317
0.766607
0.765948
0.766172
0.765803
0.765906
0.765696
0.765741
0.76566
0.765707
0.76566
0.765717
0.765652
0.765731
0.765604
0.765697
0.765515
0.765599
0.765428
0.765491
0.76537
0.765396
0.765369
0.765341
0.765361
0.765722
0.765369
0.765402
0.765535
0.766422
0.765891
0.766959
0.766695
0.76699
0.76699
0.76699
0.76699
0.76699
0.76699
0.76699
0.76699
0.76699
0.76699
0.76699
0.76699
0.76699
0.76699
0.76699
0.76699
0.76699
0.76699
0.76699
0.76699
0.76699
0.76699
0.76699
0.76699
0.766984
0.766915
0.766718
0.766691
0.76683
0.766937
0.766977
0.766988
0.766975
0.766986
0.766902
0.766966
0.766474
0.766744
0.766094
0.766375
0.765933
0.766097
0.765761
0.765832
0.765779
0.765847
0.765811
0.765893
0.765789
0.76588
0.765676
0.765755
0.765556
0.765614
0.765451
0.765495
0.765361
0.7654
0.765312
0.765339
0.765324
0.765317
0.765294
0.765437
0.765646
0.765469
0.765325
0.765279
0.765288
0.765334
0.766135
0.765531
0.765595
0.765822
0.766921
0.766469
0.76699
0.76699
0.76699
0.76699
0.76699
0.76699
0.76699
0.76699
0.76699
0.76699
0.76699
0.76699
0.76699
0.76699
0.76699
0.76699
0.76699
0.76699
0.76699
0.76699
0.76699
0.76699
0.76699
0.766987
0.766952
0.766775
0.766681
0.76678
0.766896
0.766959
0.766985
0.766989
0.766989
0.766984
0.766989
0.766955
0.766981
0.76667
0.766872
0.76634
0.76663
0.766178
0.766388
0.765926
0.766031
0.765978
0.766071
0.765974
0.766075
0.765838
0.765927
0.765665
0.765714
0.765505
0.765482
0.765423
0.76542
0.7654
0.765362
0.765352
0.765358
0.765364
0.765309
0.765346
0.765322
0.765292
0.765304
0.765333
0.76528
0.765353
0.765385
0.765279
0.765258
0.765268
0.765282
0.765695
0.766082
0.765805
0.76543
0.765494
0.766845
0.76595
0.766095
0.766414
0.76699
0.76699
0.76699
0.76699
0.76699
0.76699
0.76699
0.76699
0.76699
0.76699
0.76699
0.76699
0.76699
0.76699
0.76699
0.76699
0.76699
0.76699
0.76699
0.76699
0.76699
0.76699
0.766989
0.766974
0.766847
0.766682
0.766727
0.766846
0.766918
0.76697
0.766989
0.76699
0.76699
0.766988
0.766989
0.766977
0.766987
0.766847
0.766944
0.766641
0.766835
0.766494
0.766684
0.76618
0.766317
0.766183
0.766298
0.766025
0.766133
0.765774
0.765852
0.765453
0.76545
0.765316
0.765258
0.765208
0.765161
0.765327
0.765267
0.765193
0.765331
0.765309
0.765251
0.765177
0.765258
0.765312
0.765286
0.765292
0.765305
0.765271
0.765293
0.765315
0.765251
0.765257
0.765244
0.765248
0.765579
0.765689
0.76535
0.765403
0.766248
0.766656
0.76636
0.765819
0.765945
0.76699
0.76699
0.76699
0.76699
0.76699
0.76699
0.76699
0.76699
0.76699
0.76699
0.76699
0.76699
0.76699
0.76699
0.76699
0.76699
0.76699
0.76699
0.76699
0.76699
0.76699
0.76699
0.766984
0.76691
0.766702
0.766685
0.766793
0.766869
0.766931
0.766983
0.76699
0.766989
0.76699
0.76699
0.766989
0.76699
0.766984
0.766988
0.766934
0.766971
0.766832
0.766918
0.766691
0.766802
0.766422
0.766556
0.766251
0.766374
0.76595
0.766064
0.765485
0.765567
0.765135
0.765122
0.765131
0.765157
0.765114
0.76504
0.764981
0.764944
0.765168
0.765068
0.764966
0.765274
0.76521
0.76507
0.764981
0.76511
0.765282
0.765274
0.765262
0.765243
0.765259
0.765251
0.765262
0.765234
0.765245
0.765232
0.765227
0.765478
0.765577
0.765286
0.765326
0.766036
0.766789
0.766263
0.765693
0.765801
0.766988
0.766987
0.766988
0.766989
0.76699
0.76699
0.76699
0.76699
0.76699
0.76699
0.76699
0.76699
0.76699
0.76699
0.76699
0.76699
0.76699
0.76699
0.76699
0.76699
0.76699
0.766987
0.766953
0.766769
0.766671
0.766736
0.766815
0.76688
0.76696
0.766988
0.76699
0.76699
0.76699
0.76699
0.766989
0.76699
0.766986
0.766989
0.766959
0.766978
0.766882
0.766931
0.766725
0.766803
0.766499
0.766621
0.766187
0.766311
0.765676
0.765809
0.7652
0.76527
0.765332
0.76543
0.764933
0.764946
0.764988
0.765054
0.764876
0.764808
0.76477
0.764764
0.764948
0.764826
0.764721
0.765167
0.765051
0.764836
0.764738
0.764902
0.765218
0.765246
0.765199
0.765132
0.765233
0.765223
0.765225
0.765221
0.765223
0.765214
0.765211
0.765389
0.765475
0.765237
0.765264
0.765953
0.766651
0.766209
0.765579
0.765715
0.76698
0.766981
0.766986
0.766989
0.76699
0.76699
0.76699
0.76699
0.76699
0.76699
0.76699
0.76699
0.76699
0.76699
0.76699
0.76699
0.76699
0.76699
0.76699
0.76699
0.766988
0.766975
0.766857
0.766677
0.766686
0.766761
0.766823
0.766904
0.766981
0.76699
0.766989
0.76699
0.76699
0.76699
0.76699
0.76699
0.76699
0.766986
0.766989
0.766961
0.766979
0.766858
0.766909
0.766609
0.766686
0.766427
0.766528
0.765947
0.766086
0.76554
0.765707
0.765135
0.765222
0.765311
0.765404
0.764793
0.764858
0.764944
0.765039
0.764647
0.764613
0.764616
0.764663
0.764696
0.76458
0.764502
0.765003
0.764837
0.76458
0.76448
0.764654
0.765108
0.765187
0.765094
0.764968
0.76518
0.765203
0.765198
0.765204
0.765178
0.765178
0.765195
0.765312
0.765385
0.765201
0.765215
0.765913
0.766909
0.7665
0.765491
0.76565
0.766963
0.766967
0.76698
0.766987
0.766989
0.76699
0.76699
0.76699
0.76699
0.76699
0.76699
0.76699
0.76699
0.76699
0.76699
0.76699
0.76699
0.76699
0.76699
0.766989
0.766984
0.766922
0.766707
0.766659
0.766708
0.766767
0.766839
0.766945
0.766988
0.76699
0.76699
0.76699
0.76699
0.76699
0.76699
0.76699
0.76699
0.766987
0.766989
0.766955
0.766978
0.766783
0.76689
0.766466
0.766608
0.766215
0.766339
0.765864
0.766019
0.765576
0.765681
0.765857
0.765767
0.765142
0.765252
0.765362
0.765471
0.764747
0.764848
0.764964
0.765096
0.764473
0.764484
0.764544
0.76464
0.764453
0.764372
0.764346
0.764788
0.764588
0.764342
0.764247
0.764398
0.764949
0.76509
0.764943
0.764756
0.765094
0.765185
0.765178
0.765177
0.765105
0.765119
0.765175
0.765248
0.765312
0.765173
0.765177
0.765983
0.766938
0.766616
0.765427
0.765639
0.766939
0.766951
0.766975
0.766986
0.766989
0.76699
0.76699
0.76699
0.76699
0.76699
0.76699
0.76699
0.76699
0.76699
0.76699
0.76699
0.76699
0.76699
0.76699
0.766987
0.76696
0.766796
0.766658
0.766663
0.766713
0.766775
0.766875
0.766976
0.76699
0.766989
0.76699
0.76699
0.76699
0.76699
0.76699
0.76699
0.76699
0.76699
0.766988
0.766989
0.766955
0.76698
0.766762
0.766894
0.766453
0.766622
0.76616
0.766301
0.76593
0.766008
0.766154
0.765723
0.765825
0.765998
0.765915
0.76523
0.765363
0.765491
0.765612
0.76476
0.764902
0.765058
0.76522
0.764362
0.764428
0.764533
0.764668
0.764256
0.76423
0.764246
0.764541
0.764335
0.764153
0.764065
0.764169
0.764744
0.764951
0.76475
0.764514
0.764971
0.765167
0.765159
0.765133
0.764999
0.765033
0.765142
0.765198
0.765255
0.765151
0.765147
0.766087
0.766958
0.766717
0.765387
0.765655
0.766917
0.766937
0.76697
0.766984
0.766989
0.76699
0.76699
0.76699
0.76699
0.76699
0.76699
0.76699
0.76699
0.76699
0.76699
0.76699
0.76699
0.76699
0.766988
0.766978
0.766885
0.766677
0.766637
0.766665
0.766715
0.766802
0.76693
0.766987
0.76699
0.76699
0.76699
0.76699
0.76699
0.76699
0.76699
0.76699
0.76699
0.76699
0.766989
0.76699
0.766964
0.766984
0.7668
0.766929
0.766581
0.76675
0.766289
0.766425
0.766071
0.766129
0.766376
0.766433
0.765915
0.766016
0.766185
0.766105
0.765379
0.765531
0.765672
0.7658
0.764827
0.765004
0.765191
0.765377
0.764313
0.764418
0.764557
0.764725
0.764125
0.764136
0.764196
0.76429
0.764109
0.764029
0.763946
0.76399
0.764509
0.764772
0.764526
0.764267
0.764811
0.765143
0.765137
0.765066
0.764862
0.764919
0.765094
0.76516
0.765213
0.765129
0.765122
0.766178
0.766978
0.766819
0.765358
0.765676
0.766898
0.766928
0.766968
0.766984
0.766988
0.76699
0.76699
0.76699
0.76699
0.76699
0.76699
0.76699
0.76699
0.76699
0.76699
0.76699
0.76699
0.766989
0.766985
0.76694
0.766741
0.766635
0.766626
0.766662
0.766733
0.766854
0.766973
0.76699
0.766989
0.76699
0.76699
0.76699
0.76699
0.76699
0.76699
0.76699
0.76699
0.76699
0.76699
0.766989
0.76699
0.766977
0.766987
0.766903
0.766968
0.766808
0.766917
0.766484
0.766545
0.766685
0.766256
0.766318
0.766554
0.766597
0.766125
0.766227
0.76639
0.766314
0.765557
0.765724
0.765875
0.766008
0.764913
0.765116
0.765325
0.765531
0.764294
0.764423
0.764579
0.764761
0.764033
0.764081
0.764165
0.764066
0.763932
0.763942
0.763862
0.763875
0.764268
0.764563
0.764291
0.764045
0.764621
0.76511
0.765114
0.764977
0.764695
0.76478
0.765028
0.765129
0.765179
0.765107
0.765099
0.766289
0.766986
0.76689
0.76533
0.765692
0.766883
0.766923
0.766967
0.766984
0.766988
0.76699
0.76699
0.76699
0.76699
0.76699
0.76699
0.76699
0.76699
0.76699
0.76699
0.76699
0.76699
0.766987
0.766968
0.766844
0.76665
0.766605
0.766617
0.76667
0.766776
0.766929
0.766987
0.76699
0.76699
0.76699
0.76699
0.76699
0.76699
0.76699
0.76699
0.76699
0.76699
0.76699
0.76699
0.766989
0.76699
0.766985
0.766988
0.766967
0.766983
0.766911
0.766945
0.766971
0.766633
0.766664
0.766884
0.766848
0.766454
0.766508
0.766719
0.766754
0.766325
0.766425
0.766577
0.766508
0.765728
0.765908
0.766067
0.766206
0.764965
0.765184
0.76541
0.765634
0.764279
0.764419
0.764583
0.764771
0.763972
0.764038
0.764129
0.76389
0.763818
0.763877
0.763798
0.763797
0.764045
0.764339
0.764067
0.763865
0.764411
0.765066
0.765084
0.764868
0.764509
0.764623
0.764948
0.7651
0.765144
0.765083
0.765075
0.766395
0.766988
0.766916
0.765295
0.765686
0.766871
0.766922
0.766967
0.766984
0.766988
0.76699
0.76699
0.76699
0.76699
0.76699
0.76699
0.76699
0.76699
0.76699
0.76699
0.76699
0.766988
0.766981
0.766916
0.766697
0.766604
0.766584
0.766617
0.766703
0.766851
0.766974
0.76699
0.766988
0.76699
0.76699
0.76699
0.76699
0.76699
0.76699
0.76699
0.76699
0.76699
0.76699
0.76699
0.76699
0.766989
0.76699
0.766988
0.766989
0.766983
0.766987
0.766945
0.766961
0.766971
0.766978
0.766785
0.766816
0.766926
0.766903
0.766633
0.766679
0.766794
0.766824
0.766457
0.766548
0.766676
0.76662
0.765845
0.766036
0.766202
0.766342
0.764981
0.765206
0.765439
0.76567
0.764241
0.764375
0.764532
0.764712
0.763921
0.763987
0.764069
0.763776
0.763744
0.763823
0.763744
0.763738
0.763858
0.764116
0.763869
0.763746
0.764199
0.765011
0.76505
0.764744
0.764316
0.76446
0.764856
0.765072
0.765106
0.765059
0.76505
0.766396
0.766988
0.766908
0.76525
0.76563
0.766862
0.766923
0.766968
0.766984
0.766988
0.76699
0.76699
0.76699
0.76699
0.76699
0.76699
0.76699
0.76699
0.76699
0.76699
0.766989
0.766986
0.766955
0.766799
0.766616
0.766567
0.766573
0.766637
0.766769
0.766941
0.766987
0.76699
0.76699
0.76699
0.76699
0.76699
0.76699
0.76699
0.76699
0.76699
0.76699
0.76699
0.76699
0.76699
0.76699
0.766989
0.76699
0.766988
0.766989
0.766983
0.766985
0.766987
0.766945
0.76696
0.766956
0.76697
0.766852
0.766879
0.766927
0.766904
0.766721
0.76676
0.76679
0.76682
0.766495
0.766577
0.766685
0.766638
0.765888
0.766084
0.766251
0.766388
0.764915
0.76514
0.765377
0.765617
0.764166
0.764278
0.764414
0.764575
0.763865
0.763919
0.763981
0.763702
0.763689
0.763769
0.763694
0.763687
0.763727
0.763914
0.763729
0.763665
0.764005
0.76495
0.765011
0.764612
0.764137
0.764298
0.764763
0.76504
0.765063
0.765031
0.765021
0.766282
0.766976
0.766803
0.765189
0.765486
0.766855
0.766925
0.766969
0.766984
0.766988
0.76699
0.76699
0.76699
0.76699
0.76699
0.76699
0.76699
0.76699
0.76699
0.76699
0.766987
0.766974
0.766884
0.766655
0.766566
0.766542
0.766581
0.76669
0.766868
0.766978
0.76699
0.76699
0.76699
0.76699
0.76699
0.76699
0.76699
0.76699
0.76699
0.76699
0.76699
0.76699
0.76699
0.76699
0.76699
0.766989
0.76699
0.766988
0.766989
0.766979
0.766984
0.766986
0.766984
0.766912
0.766937
0.76692
0.766949
0.76685
0.766878
0.76688
0.766843
0.766724
0.766758
0.766685
0.766721
0.766452
0.76652
0.766599
0.766566
0.765847
0.766052
0.766222
0.766354
0.764762
0.764972
0.7652
0.765436
0.764053
0.764143
0.764253
0.764388
0.7638
0.763834
0.763874
0.763642
0.763631
0.76371
0.76363
0.763625
0.763643
0.763758
0.76364
0.763605
0.763841
0.764888
0.76497
0.764489
0.763974
0.764167
0.764674
0.765004
0.765014
0.764998
0.764985
0.765924
0.766478
0.766174
0.765109
0.765288
0.766848
0.766927
0.766968
0.766984
0.766988
0.766989
0.76699
0.76699
0.76699
0.76699
0.76699
0.76699
0.76699
0.76699
0.766988
0.766983
0.766935
0.766743
0.766576
0.766524
0.766537
0.766621
0.766781
0.766955
0.766988
0.76699
0.76699
0.76699
0.76699
0.76699
0.76699
0.76699
0.76699
0.76699
0.76699
0.76699
0.76699
0.76699
0.76699
0.76699
0.76699
0.766989
0.76699
0.766988
0.766989
0.766968
0.766979
0.766985
0.766981
0.766834
0.766882
0.766863
0.766913
0.766761
0.766802
0.766776
0.766713
0.766627
0.766655
0.766485
0.766529
0.766291
0.766352
0.766412
0.76639
0.765667
0.765879
0.766056
0.766193
0.764547
0.764732
0.764937
0.765158
0.763921
0.763983
0.76406
0.764158
0.763729
0.763749
0.76377
0.76359
0.763584
0.763642
0.763587
0.763587
0.763584
0.763666
0.763579
0.763569
0.763724
0.764827
0.764923
0.764381
0.763848
0.764033
0.76459
0.76496
0.764956
0.764956
0.764938
0.765386
0.765897
0.765278
0.765008
0.765068
0.766841
0.766926
0.766967
0.766983
0.766988
0.766989
0.76699
0.76699
0.76699
0.76699
0.76699
0.76699
0.76699
0.766989
0.766986
0.766961
0.766836
0.766608
0.766522
0.766505
0.766561
0.766699
0.766901
0.766983
0.76699
0.76699
0.76699
0.76699
0.76699
0.76699
0.76699
0.76699
0.76699
0.76699
0.76699
0.76699
0.76699
0.76699
0.76699
0.76699
0.76699
0.766989
0.76699
0.766986
0.766988
0.766988
0.766949
0.766971
0.766982
0.766975
0.766721
0.766799
0.766793
0.766865
0.766584
0.766646
0.766633
0.76654
0.766431
0.766454
0.766234
0.766287
0.766027
0.766094
0.766158
0.766134
0.765381
0.765593
0.765777
0.765922
0.764278
0.764422
0.764591
0.764784
0.763795
0.763825
0.763864
0.763915
0.763655
0.763668
0.763685
0.763555
0.763543
0.763591
0.763537
0.763538
0.763557
0.763597
0.763562
0.763532
0.76364
0.764757
0.764863
0.764267
0.763724
0.763879
0.764481
0.764901
0.764881
0.764893
0.764866
0.765027
0.766684
0.765353
0.764886
0.764891
0.766834
0.766924
0.766965
0.766982
0.766987
0.766989
0.76699
0.76699
0.76699
0.76699
0.76699
0.76699
0.76699
0.766987
0.766975
0.766897
0.766674
0.766529
0.766484
0.766514
0.766625
0.766818
0.766969
0.766989
0.76699
0.76699
0.76699
0.76699
0.76699
0.76699
0.76699
0.76699
0.76699
0.76699
0.76699
0.76699
0.76699
0.76699
0.76699
0.76699
0.76699
0.766989
0.766989
0.766985
0.766987
0.766988
0.766988
0.766921
0.766958
0.766979
0.766967
0.766602
0.766705
0.766729
0.766817
0.76636
0.766446
0.766487
0.766364
0.766176
0.766199
0.765962
0.766033
0.765671
0.765753
0.765844
0.765807
0.764991
0.765199
0.765389
0.765549
0.763982
0.764068
0.764177
0.764318
0.763702
0.76372
0.763737
0.763755
0.763596
0.763601
0.763606
0.763505
0.76349
0.763531
0.763461
0.763481
0.763522
0.763573
0.763533
0.763477
0.763608
0.764658
0.764757
0.764086
0.763673
0.763758
0.764314
0.764823
0.764789
0.764787
0.764768
0.764908
0.766856
0.765592
0.764766
0.764758
0.766828
0.76692
0.766962
0.766981
0.766987
0.766989
0.76699
0.76699
0.76699
0.76699
0.76699
0.76699
0.766988
0.766982
0.766934
0.766754
0.76655
0.766475
0.766478
0.766562
0.766733
0.766938
0.766986
0.76699
0.76699
0.76699
0.76699
0.76699
0.76699
0.76699
0.76699
0.76699
0.76699
0.76699
0.76699
0.76699
0.76699
0.76699
0.76699
0.76699
0.76699
0.76699
0.766988
0.766988
0.766989
0.766989
0.766982
0.766986
0.766987
0.766889
0.766942
0.766975
0.76696
0.766506
0.766627
0.766702
0.766793
0.766126
0.76624
0.766366
0.766209
0.765874
0.765911
0.765662
0.765766
0.7652
0.765315
0.765464
0.765399
0.76449
0.764689
0.764876
0.76505
0.76378
0.76381
0.763848
0.763903
0.763614
0.763627
0.763644
0.76366
0.763525
0.76351
0.763492
0.763438
0.763413
0.763447
0.763413
0.763416
0.763454
0.763549
0.763444
0.763418
0.763594
0.764492
0.764599
0.763915
0.763655
0.763718
0.764116
0.764724
0.764685
0.764643
0.764635
0.764922
0.766972
0.766333
0.764657
0.764677
0.766822
0.766914
0.766957
0.766979
0.766986
0.766988
0.766989
0.76699
0.76699
0.76699
0.76699
0.766989
0.766983
0.766955
0.766827
0.766595
0.766476
0.766452
0.766508
0.766657
0.766878
0.76698
0.76699
0.76699
0.76699
0.76699
0.76699
0.76699
0.76699
0.76699
0.76699
0.76699
0.76699
0.76699
0.76699
0.76699
0.76699
0.76699
0.76699
0.76699
0.766989
0.76699
0.766987
0.766987
0.766988
0.766988
0.766981
0.766985
0.766985
0.766867
0.766924
0.766972
0.766954
0.766449
0.766589
0.766702
0.766793
0.765895
0.766047
0.766277
0.766073
0.765519
0.765582
0.765324
0.765473
0.764584
0.764744
0.764995
0.764881
0.763981
0.764105
0.764257
0.764413
0.763669
0.763688
0.763693
0.763707
0.763497
0.763504
0.763516
0.763529
0.76345
0.763456
0.763296
0.7634
0.763273
0.763286
0.763295
0.763283
0.763395
0.763481
0.76341
0.763398
0.763546
0.76428
0.764392
0.763812
0.763627
0.763706
0.763907
0.764609
0.764578
0.764464
0.76449
0.765075
0.766975
0.766561
0.764563
0.76466
0.766818
0.766907
0.76695
0.766976
0.766985
0.766988
0.766989
0.76699
0.76699
0.76699
0.766989
0.766985
0.766966
0.766875
0.766647
0.766485
0.766435
0.766467
0.766589
0.766799
0.766965
0.766989
0.76699
0.76699
0.76699
0.76699
0.76699
0.76699
0.76699
0.76699
0.76699
0.76699
0.76699
0.76699
0.76699
0.76699
0.76699
0.76699
0.76699
0.76699
0.766989
0.766989