/*--------------------------------*- C++ -*----------------------------------*\
  =========                 |
  \\      /  F ield         | OpenFOAM: The Open Source CFD Toolbox
   \\    /   O peration     | Website:  https://openfoam.org
    \\  /    A nd           | Version:  dev
     \\/     M anipulation  |
\*---------------------------------------------------------------------------*/
FoamFile
{
    version     2.0;
    format      ascii;
    class       volScalarField;
    location    "2500";
    object      nut;
}
// * * * * * * * * * * * * * * * * * * * * * * * * * * * * * * * * * * * * * //

dimensions      [0 2 -1 0 0 0 0];

internalField   nonuniform List<scalar> 
9842
(
0.000129222
0.000133031
0.000126607
0.000120993
0.000163358
0.000112374
0.000112062
0.000172158
0.000155329
0.00010653
0.00010761
0.000164694
0.000179828
0.000132827
0.000104302
0.000104568
0.000145473
0.000192619
0.00016709
0.000119581
0.000103149
0.000102897
0.000129862
0.000190792
0.000189787
0.000141879
0.000113434
0.000102296
0.000102069
0.000119564
0.000179199
0.000202993
0.000171328
0.000126657
0.000109692
0.0001017
0.000101799
0.000112462
0.000157444
0.000208162
0.000195026
0.000146092
0.000118801
0.000107125
0.00010125
0.000101682
0.000108479
0.000138113
0.000203604
0.000208449
0.000170417
0.000130672
0.000113767
0.000105311
0.000100978
0.000101601
0.000106142
0.000126464
0.000189085
0.000218389
0.000196062
0.000146388
0.000122143
0.000110344
0.000103854
0.000100845
0.000101487
0.000104791
0.000117901
0.000165722
0.00022036
0.000213278
0.000167016
0.000131827
0.000116516
0.000107932
0.000102744
0.000100719
0.000101234
0.00010398
0.000112809
0.000144278
0.00021487
0.000222597
0.000191868
0.00014465
0.000123531
0.000112575
0.000105898
0.000102102
0.000100522
0.000101001
0.000103624
0.000109652
0.000132344
0.00019909
0.000231327
0.000212843
0.000162546
0.000131569
0.000118026
0.00010975
0.000104235
0.0001017
0.00010027
0.000100818
0.000103384
0.000107828
0.000123082
0.000174093
0.000231396
0.000227593
0.00018521
0.000142002
0.000123984
0.000114011
0.000107412
0.000103086
0.000101338
0.000100091
0.000100666
0.0001032
0.000106646
0.000117412
0.000150436
0.000225185
0.000235131
0.000209252
0.000157645
0.000130533
0.000118663
0.000110934
0.000105467
0.000102385
0.000100874
0.000100011
0.000100559
0.000102991
0.000105816
0.000113776
0.000138806
0.000208944
0.000242273
0.00022675
0.000177344
0.000139484
0.000123744
0.000114654
0.000108393
0.000103931
0.000101863
0.000100391
9.99913e-05
0.000100533
0.000102606
0.000105156
0.000111385
0.000129561
0.000183558
0.000241701
0.000239309
0.000200309
0.000151893
0.000129309
0.000118743
0.000111511
0.000106288
0.000102919
0.000101329
0.000100044
9.99692e-05
0.000100574
0.000102228
0.000104695
0.000109696
0.000123309
0.000160157
0.00023512
0.000245266
0.000222757
0.000169865
0.000136302
0.000122931
0.000114821
0.000108985
0.000104602
0.000102236
0.000100704
9.98899e-05
9.99247e-05
0.000100651
0.00010191
0.000104328
0.000108488
0.000119157
0.000146866
0.000220267
0.000251582
0.000237668
0.000189884
0.000147272
0.000127756
0.000118249
0.000111742
0.000106863
0.000103348
0.000101612
0.000100151
9.98394e-05
9.99046e-05
0.000100658
0.000101523
0.000103955
0.000107507
0.000116248
0.000138294
0.000197281
0.00025139
0.000248671
0.000211937
0.000161542
0.000133828
0.000122217
0.000114714
0.000109291
0.000105133
0.000102504
0.000100978
9.98336e-05
9.97837e-05
9.99144e-05
0.000100636
0.000101161
0.000103576
0.000106592
0.000114256
0.000131367
0.000174726
0.000246269
0.000253762
0.000232354
0.000180179
0.000142527
0.000126372
0.000117989
0.000111921
0.000107255
0.000103766
0.00010181
0.000100387
9.97132e-05
9.97412e-05
9.99292e-05
0.000100598
0.000100863
0.000103247
0.000105805
0.000112933
0.000126786
0.000157488
0.000234001
0.000260419
0.000246304
0.000199186
0.000154941
0.000131828
0.000121487
0.000114746
0.000109634
0.000105572
0.000102771
0.00010122
9.99563e-05
9.96939e-05
9.97656e-05
9.99518e-05
0.000100558
0.000100649
0.000102929
0.000105138
0.000111631
0.00012421
0.000148701
0.000214012
0.000261655
0.000256857
0.000220325
0.00016984
0.000138978
0.00012556
0.000117801
0.000112195
0.000107744
0.000104227
0.000102068
0.000100739
9.97379e-05
9.97362e-05
9.98475e-05
9.99828e-05
0.000100518
0.000100505
0.000102505
0.000104535
0.000110373
0.000122678
0.000141825
0.000191419
0.000258012
0.000262825
0.0002392
0.00018786
0.000148867
0.000130233
0.000121182
0.000114936
0.00011011
0.000106209
0.000103206
0.000101535
0.000100371
9.971e-05
9.98432e-05
9.99614e-05
0.000100018
0.000100478
0.000100359
0.000102025
0.000104095
0.000109252
0.000121495
0.000136938
0.000171482
0.000248243
0.00026866
0.000254179
0.000206082
0.000161363
0.000136298
0.000124949
0.000117901
0.000112645
0.000108423
0.000104982
0.000102488
0.000101169
0.00010019
9.98558e-05
0.00010004
0.000100107
0.00010005
0.00010044
0.000100226
0.000101631
0.000103725
0.000108366
0.000120344
0.000133963
0.000160069
0.000231149
0.000271174
0.000264144
0.000226117
0.000176433
0.000143958
0.000129075
0.000121149
0.000115379
0.000110796
0.000107082
0.000104033
0.00010205
0.000100984
0.000100231
0.000100145
0.000100325
0.000100282
0.000100075
0.000100405
0.000100103
0.000101317
0.000103378
0.00010769
0.000119089
0.00013217
0.000153377
0.000209756
0.000269112
0.000271073
0.000243953
0.000193257
0.000154231
0.000134087
0.000124542
0.000118309
0.000113375
0.000109339
0.000106057
0.000103359
0.000101836
0.00010102
0.000100522
0.000100557
0.000100695
0.000100486
0.000100069
0.000100374
9.99602e-05
0.000101041
0.000103053
0.000107127
0.000117887
0.000130916
0.000147629
0.00018936
0.00026218
0.000275284
0.000260742
0.000211293
0.000166362
0.000140417
0.00012841
0.000121406
0.00011617
0.000111821
0.000108275
0.000105334
0.000103008
0.000101845
0.000101329
0.000101072
0.00010113
0.000101157
0.000100836
0.000100165
0.000100346
9.97973e-05
0.000100797
0.000102769
0.000106645
0.000116855
0.000129911
0.000143569
0.000173183
0.000247873
0.000279472
0.000270082
0.000229095
0.000181286
0.000148372
0.000132805
0.000124795
0.000119126
0.000114595
0.000110717
0.000107564
0.00010499
0.000102961
0.000102131
0.000101933
0.000101883
0.000101978
0.000101735
0.000101157
0.000100311
0.000100322
9.96147e-05
0.000100578
0.000102525
0.000106274
0.000116033
0.000129032
0.000140758
0.000164778
0.000229575
0.000278838
0.000277794
0.000247277
0.000196706
0.000158505
0.000138068
0.000128447
0.000122305
0.000117509
0.000113519
0.000110063
0.000107279
0.000104964
0.000103267
0.000102725
0.000102826
0.000102857
0.00010276
0.000102187
0.000101331
0.00010043
0.000100297
9.94177e-05
0.00010039
0.000102321
0.000106027
0.000115468
0.000128154
0.000138814
0.000157969
0.000208181
0.000274551
0.000280992
0.000264126
0.00021418
0.000170351
0.000144513
0.000132447
0.000125671
0.000120678
0.000116532
0.000112919
0.000109886
0.000107381
0.000105404
0.000103988
0.000103673
0.000103931
0.000104233
0.000103946
0.00010281
0.000101429
0.000100527
0.000100242
9.92131e-05
0.000100258
0.000102165
0.000105886
0.000115219
0.000127268
0.000137308
0.000152462
0.000189178
0.000264235
0.000286098
0.000274536
0.000230591
0.000184197
0.000152434
0.000137002
0.000129224
0.00012401
0.000119797
0.000116135
0.000112915
0.000110195
0.000107992
0.000106368
0.000105227
0.000105186
0.000105516
0.000105854
0.000105507
0.000103698
0.000101571
0.000100618
0.000100117
9.90624e-05
0.000100214
0.000102073
0.000105883
0.000115275
0.00012641
0.000135989
0.000148306
0.000176174
0.000248867
0.000287081
0.000282522
0.00024898
0.000199081
0.000161891
0.000142189
0.000133058
0.000127424
0.000123246
0.000119673
0.000116402
0.000113556
0.00011113
0.00010932
0.000107942
0.000107196
0.000107279
0.000107638
0.000107863
0.000107199
0.00010454
0.000101665
0.000100269
0.000100854
0.000100088
9.90645e-05
0.000100291
0.000102047
0.000106051
0.000115444
0.000125548
0.00013464
0.000145045
0.000168289
0.000229122
0.000285105
0.000287517
0.000264351
0.000215106
0.000173271
0.000148369
0.000137079
0.00013102
0.00012687
0.000123413
0.000120305
0.000117455
0.000114978
0.000112987
0.000111468
0.000110388
0.000109836
0.000109911
0.000109985
0.000109549
0.000107718
0.00010462
0.00010137
0.000102585
0.00010033
0.000100917
9.99964e-05
9.91822e-05
0.000100411
0.00010209
0.000106511
0.000115689
0.000124795
0.000133147
0.000142305
0.000161439
0.000208869
0.000279046
0.00029063
0.00027823
0.000231403
0.000185762
0.000155831
0.00014141
0.000134687
0.000130616
0.00012732
0.000124504
0.00012199
0.00011954
0.000117627
0.000115915
0.000114478
0.000113673
0.000112922
0.000112386
0.000111483
0.000109465
0.000106531
0.000107362
0.000103868
0.000106167
0.000104699
0.000101462
0.000102639
0.000100366
0.000100993
9.94334e-05
9.97475e-05
0.000100409
0.000102203
0.000107344
0.000115941
0.000124101
0.000131497
0.000139839
0.000155745
0.000191445
0.000266604
0.000294288
0.000285843
0.000247118
0.000200101
0.000164543
0.000146315
0.000138301
0.000134251
0.000131304
0.000128959
0.000126942
0.00012503
0.000122981
0.000121426
0.000119956
0.000118269
0.000116344
0.000114235
0.000112477
0.000110307
0.000108
0.000108498
0.000106854
0.000103814
0.000105381
0.000104281
0.000101601
0.00010279
0.000100432
0.000101094
9.92853e-05
0.00010057
0.000100515
0.000102286
0.000108403
0.000116126
0.000123334
0.000129728
0.000137594
0.000151061
0.000179347
0.000251278
0.000293943
0.000292308
0.00026338
0.000214051
0.000174814
0.000151964
0.000141965
0.000137711
0.000135144
0.000133394
0.000132145
0.0001309
0.000129519
0.000127612
0.000125195
0.000122011
0.000119247
0.00011589
0.000112809
0.000110548
0.000108809
0.000108813
0.00010737
0.000107637
0.000105872
0.000103723
0.000104626
0.000103857
0.000101822
0.000103018
9.70337e-05
9.38484e-05
9.9534e-05
0.000100316
0.000102838
0.000102841
0.000108811
0.000116057
0.000122522
0.000128125
0.000135524
0.00014717
0.000171422
0.000232315
0.000290999
0.000295533
0.000278012
0.00022957
0.000186209
0.000158359
0.000145881
0.000140914
0.000138765
0.000137694
0.000137282
0.000136975
0.000130335
0.000126524
0.000129985
0.000127096
0.000122484
0.000116596
0.000109454
0.000103623
0.000107968
0.000104349
0.000107414
0.000106357
0.000106156
0.000105923
0.000104891
0.000103595
0.000103976
0.000103472
9.22631e-05
9.09341e-05
8.32221e-05
7.99735e-05
9.99477e-05
9.96453e-05
0.000102726
0.000107917
0.000108288
0.0001153
0.000121776
0.000126664
0.000133248
0.000143811
0.000164484
0.000212982
0.000283733
0.000299292
0.000288162
0.000243684
0.000198607
0.000166074
0.000150014
0.000143887
0.000141948
0.000141711
0.000141953
0.000136903
0.000127986
0.000128379
0.000137186
0.000135902
0.000131658
0.000127052
0.000120669
0.000109021
9.55176e-05
8.81206e-05
0.000102509
9.30085e-05
0.000104819
0.000100908
0.000104699
0.000103569
0.000103792
9.09079e-05
0.000103351
9.05898e-05
7.85224e-05
7.75133e-05
7.14186e-05
6.84537e-05
0.000100078
9.90893e-05
0.000101968
0.000107849
0.000112338
0.000113793
0.000120698
0.000125307
0.000131019
0.000141005
0.000158543
0.000196386
0.000271399
0.000301801
0.000295023
0.000260592
0.00021183
0.000174719
0.000154614
0.000146753
0.000144823
0.000144793
0.0001456
0.000135922
0.000129037
0.000140134
0.000155543
0.000153601
0.000157212
0.000161162
0.000165059
0.00016162
0.000100668
0.000161979
8.51551e-05
9.66389e-05
9.15437e-05
8.48073e-05
9.96267e-05
9.03828e-05
0.000102556
9.85673e-05
0.000101989
7.70416e-05
9.20434e-05
7.84542e-05
6.71056e-05
6.6197e-05
6.18865e-05
5.92787e-05
0.000100114
9.93609e-05
0.00010116
0.000105835
0.000116445
0.000115344
0.000118007
0.000123804
0.000128907
0.000138612
0.000153737
0.000183107
0.000256002
0.000301135
0.000300993
0.000274599
0.000225589
0.000185103
0.000159776
0.000149536
0.000147347
0.000147336
0.000148747
0.000136161
0.000131482
0.000159918
0.000180129
0.000201824
0.000212959
0.000256762
0.000309986
0.000340943
0.000251254
0.000351262
0.000166234
0.000268869
9.78612e-05
0.000171317
8.48412e-05
9.97367e-05
8.94528e-05
8.50524e-05
9.79593e-05
8.88296e-05
9.42041e-05
6.68251e-05
8.18964e-05
7.0418e-05
5.77664e-05
5.75411e-05
5.39153e-05
5.17657e-05
0.000100101
9.97761e-05
0.000100999
0.00010428
0.000114932
0.000119036
0.000118117
0.000120229
0.000126906
0.000135965
0.000149826
0.000174461
0.000238247
0.000297595
0.000303693
0.000289416
0.000240872
0.000195935
0.000166269
0.000152433
0.000149331
0.000149089
0.000151087
0.000136959
0.000133359
0.000171309
0.000205547
0.000245312
0.000306023
0.000373566
0.000405329
0.00041815
0.000389968
0.000421547
0.00034983
0.000397998
0.000275268
0.00035404
0.000176731
0.000280904
0.000101972
0.000182093
8.51462e-05
0.000103923
8.85841e-05
8.4649e-05
8.48322e-05
6.02439e-05
7.40109e-05
6.34777e-05
5.05798e-05
5.20006e-05
4.77152e-05
4.52903e-05
0.000100189
0.000100424
0.00010161
0.000104489
0.000111159
0.000118554
0.000121138
0.000119812
0.00012373
0.000133555
0.000146931
0.000168159
0.000219253
0.000289579
0.00030798
0.000297865
0.000254349
0.000208862
0.000173743
0.000155838
0.000150904
0.000150099
0.000152102
0.00013977
0.00013457
0.000177558
0.000227496
0.000288111
0.000384878
0.000443838
0.000451618
0.000446603
0.000433373
0.000444533
0.000422686
0.000435744
0.000403084
0.000427104
0.000360236
0.000410807
0.000286857
0.000366422
0.000186774
0.000292273
0.000104735
0.000189079
8.35395e-05
0.000103256
8.17387e-05
5.40889e-05
8.08067e-05
7.14603e-05
4.61523e-05
4.72414e-05
4.28451e-05
4.11735e-05
0.000100427
0.000101327
0.000102778
0.000105443
0.000109914
0.000116267
0.000121987
0.00012217
0.000122665
0.000131705
0.000144727
0.000162755
0.000202198
0.000276792
0.000309565
0.000304498
0.000271871
0.000221088
0.000182713
0.000160112
0.000152111
0.000151203
0.000152723
0.000144273
0.000137307
0.000177891
0.000237258
0.000326215
0.000440532
0.000477288
0.000474863
0.00046421
0.000451578
0.000457818
0.000442262
0.000447031
0.000439315
0.000444793
0.000433958
0.000445762
0.000419379
0.000443417
0.000372309
0.000426185
0.00029626
0.000376679
0.000187009
0.000297128
9.93729e-05
0.000177994
9.2862e-05
5.65579e-05
8.82406e-05
8.4358e-05
4.24382e-05
4.60264e-05
3.86002e-05
3.84887e-05
0.000100805
0.000102418
0.000104213
0.000106806
0.000110174
0.000114112
0.000120099
0.000123863
0.000123846
0.00013032
0.000142718
0.000158416
0.000188604
0.00026086
0.000308322
0.000309658
0.000286622
0.000235814
0.000192802
0.000165278
0.00015349
0.00015236
0.000153694
0.000149308
0.000140568
0.000176782
0.000236894
0.000341996
0.000474991
0.000493973
0.000485613
0.00046828
0.00045329
0.000451845
0.00045325
0.000446409
0.000448365
0.000450787
0.000448921
0.000453136
0.000457847
0.000453349
0.000460768
0.000430186
0.000459326
0.000378669
0.000432085
0.000293371
0.000376468
0.000161216
0.000282681
0.000136964
7.78147e-05
0.000120015
0.000103628
3.88987e-05
6.36032e-05
3.45663e-05
3.59364e-05
0.000101314
0.000103616
0.000105792
0.000108604
0.000111069
0.000113715
0.000117129
0.000122433
0.000125475
0.00012978
0.000141039
0.000155231
0.000178883
0.000243612
0.000303966
0.000312609
0.000299334
0.000250352
0.000204158
0.000171688
0.000155749
0.00015333
0.000154325
0.000153832
0.000142537
0.000173267
0.000232188
0.000339815
0.000494448
0.000511163
0.000479635
0.000449375
0.000427883
0.000441668
0.000423973
0.000449058
0.000447413
0.000447448
0.000446393
0.000453422
0.000448946
0.000464261
0.000459593
0.000468516
0.00047004
0.000460972
0.000472932
0.000431075
0.000460671
0.000370315
0.000426129
0.000264584
0.000358345
0.000238041
8.91902e-05
0.000205476
0.000162852
4.36394e-05
8.11188e-05
3.28594e-05
3.44244e-05
0.000102856
0.000105086
0.000107705
0.000110761
0.00011265
0.000114134
0.000115941
0.00011981
0.000125225
0.000130281
0.000140412
0.000152915
0.000172489
0.00022645
0.000294795
0.000316704
0.000307268
0.000267275
0.000216949
0.000179298
0.000158969
0.000153564
0.000154263
0.000158001
0.000146893
0.000162225
0.00021956
0.000327704
0.000503612
0.00052721
0.00048155
0.000382783
0.00036514
0.000407933
0.000375981
0.000428536
0.000410369
0.000444335
0.000439862
0.00044598
0.000443645
0.00045397
0.000449547
0.000467469
0.000465065
0.000477673
0.000480235
0.000475982
0.000486551
0.000459401
0.000479441
0.000419452
0.000456992
0.000340511
0.000409427
0.000319168
0.000124881
0.000290142
0.000251767
7.22139e-05
9.88116e-05
3.21737e-05
4.34682e-05
0.000107994
0.000107606
0.00011037
0.000113272
0.000114838
0.000115356
0.000116049
0.000119074
0.000124975
0.00013131
0.000140411
0.000151683
0.000168099
0.000210962
0.000282182
0.000317272
0.000314225
0.000283701
0.000230678
0.00018907
0.000162408
0.000153151
0.00015385
0.000157337
0.000152846
0.000154645
0.000204007
0.000302905
0.000503308
0.000546658
0.000492932
0.000364769
0.000247764
0.000347465
0.00028164
0.000392435
0.000370274
0.000416999
0.000401529
0.000439757
0.000431967
0.000446715
0.000443245
0.000461395
0.000458753
0.000482653
0.000484161
0.000497022
0.000507138
0.000496969
0.000516733
0.000484288
0.000509954
0.000455413
0.000489363
0.000396941
0.000451948
0.000380847
0.000202689
0.000358372
0.000328562
8.10787e-05
0.00014473
3.56292e-05
6.62996e-05
0.000118921
0.000113476
0.000114239
0.000116207
0.000117375
0.000117553
0.00011745
0.000119772
0.0001256
0.000132448
0.000140723
0.000151391
0.000165267
0.00019878
0.000267366
0.000315652
0.000318369
0.000299704
0.000246705
0.000200198
0.000167748
0.000154582
0.000153419
0.00015617
0.000160657
0.000153659
0.000189192
0.000273476
0.000476839
0.000576476
0.000522051
0.000377345
0.000211775
0.000212646
0.000338708
0.000279709
0.00038687
0.000366359
0.000414266
0.000405105
0.000437135
0.000427018
0.000455924
0.000450967
0.000482647
0.000481528
0.00051562
0.000520932
0.000538364
0.000553111
0.000539511
0.000566189
0.000523282
0.000561204
0.000495907
0.000536432
0.000445299
0.000499288
0.00043676
0.000286058
0.000421722
0.000397852
0.000104637
0.000227792
5.61401e-05
7.19279e-05
0.00012716
0.000120818
0.00012023
0.00012064
0.000120822
0.000120792
0.000122594
0.000127568
0.000133835
0.000141455
0.000151446
0.000163959
0.000190441
0.000252
0.000310866
0.000321996
0.000310565
0.00026219
0.000212889
0.000175911
0.000156929
0.000152425
0.000154738
0.000160577
0.000157628
0.000177629
0.000243038
0.000421038
0.000597051
0.000576167
0.000430095
0.000217871
0.000172421
0.000226433
0.000188206
0.000338108
0.000273795
0.000392003
0.000373201
0.000426968
0.000420393
0.000443713
0.000434918
0.000478923
0.000473006
0.000520189
0.000516795
0.000555584
0.000550378
0.000575279
0.000570016
0.000583982
0.000581594
0.000577065
0.000590879
0.000546123
0.00058701
0.000499046
0.000551615
0.000494391
0.000362359
0.000482511
0.000462557
0.000155348
0.000310773
5.04055e-05
9.55568e-05
0.000131589
0.000127407
0.000126188
0.000126772
0.000126794
0.000127912
0.000131541
0.00013654
0.000143314
0.00015193
0.000164419
0.000186017
0.000237904
0.00030193
0.000325923
0.000317776
0.000281215
0.000226361
0.000185862
0.000159407
0.000150954
0.000152862
0.000158288
0.000165094
0.000171574
0.000214169
0.000360715
0.000594618
0.000644084
0.00054091
0.00029192
0.000172876
0.000167806
0.000154726
0.000216227
0.000183304
0.000331588
0.000266423
0.000403231
0.000373027
0.000448193
0.000430228
0.000465201
0.000458469
0.000508328
0.000496703
0.000539823
0.000527493
0.000560774
0.000549209
0.000572713
0.000557394
0.00058139
0.000566261
0.000594195
0.000580629
0.000590912
0.000595125
0.000552313
0.000589637
0.000547552
0.000431725
0.000536991
0.000523475
0.000485715
0.000235999
0.00038447
4.66052e-05
0.000143773
0.000138171
0.000135906
0.000135291
0.000135927
0.000135966
0.000137231
0.000140622
0.000146295
0.000153877
0.000164829
0.000184711
0.000226852
0.000290747
0.000326001
0.000324594
0.000298164
0.000242048
0.000196936
0.000163635
0.0001517
0.000151165
0.000155388
0.000163783
0.000169675
0.000193006
0.000300913
0.0005721
0.000685006
0.000659102
0.000470283
0.000206473
0.000150546
0.000160584
0.000147593
0.000197882
0.000165962
0.000311279
0.000243754
0.000402344
0.000346854
0.000450768
0.000423553
0.000483978
0.000468886
0.000514275
0.000499755
0.000534365
0.000515576
0.000535644
0.000506628
0.000536003
0.000501199
0.000552825
0.000513595
0.000576029
0.000539914
0.000594194
0.00056945
0.000587644
0.000592735
0.000593926
0.000564616
0.000582003
0.000510987
0.000451429
0.000497755
0.000551816
0.000573271
0.000577705
0.000544169
0.000315992
0.000479201
0.000458647
0.000401095
5.9453e-05
0.000219097
0.000146174
0.000148246
0.000147485
0.000147565
0.000146439
0.00014839
0.000151691
0.000158628
0.000166624
0.000185411
0.000219857
0.000278024
0.000324193
0.000327776
0.00031235
0.000259337
0.000208776
0.00017231
0.000153913
0.000149208
0.000152257
0.000160648
0.000168719
0.000181476
0.000248116
0.00050132
0.000689799
0.000766904
0.000650614
0.000343095
0.000165912
0.0001371
0.000144603
0.000146261
0.000137934
0.000167419
0.000143658
0.000268534
0.000208928
0.000367369
0.000284493
0.000423334
0.000361968
0.000482839
0.000460613
0.000492609
0.000465986
0.000474791
0.000441012
0.000468278
0.000438593
0.000479206
0.000445571
0.00049573
0.000454277
0.000548603
0.000524469
0.000501825
0.000477983
0.00058249
0.000563816
0.000518878
0.000512615
0.00054061
0.000584202
0.000590038
0.00058143
0.000579694
0.000587588
0.000533648
0.000520421
0.000567236
0.000580379
0.000584312
0.000559891
0.000431849
0.000331048
0.000401511
0.00050406
0.000483924
9.38091e-05
0.000364472
0.000329941
0.000168058
0.000160267
0.000167664
0.000165296
0.000162458
0.000160598
0.000161122
0.000165565
0.000171986
0.000186248
0.000217539
0.000266828
0.000319529
0.000332133
0.000321981
0.000278093
0.000223084
0.000183176
0.000156224
0.0001477
0.000149473
0.0001557
0.000166401
0.000176007
0.00021121
0.000393964
0.00067476
0.000812473
0.000808822
0.000584121
0.000233066
0.000149224
0.000133838
0.000136233
0.000133486
0.00013118
0.000135275
0.000126816
0.000210973
0.000160952
0.000276932
0.000200377
0.000320842
0.000242834
0.000432114
0.000385534
0.000404755
0.000365259
0.000410183
0.000380349
0.000415433
0.000388685
0.000422393
0.000402367
0.000457836
0.000440645
0.000430555
0.000422263
0.000493593
0.000469994
0.000450897
0.000561688
0.000536457
0.000487204
0.000481057
0.000508644
0.000577433
0.000584917
0.000575465
0.000558834
0.000577887
0.000550559
0.000538804
0.000575632
0.000573024
0.0005653
0.000569585
0.000459368
0.00042987
0.000524007
0.000505372
0.000168825
0.000173181
0.000105943
0.000396834
0.000367735
0.000185358
0.000194664
0.000188293
0.00018163
0.000177526
0.000176614
0.00018242
0.000189834
0.00021807
0.00025991
0.000311925
0.000334824
0.000329101
0.000297306
0.000239025
0.000194242
0.000160879
0.000148779
0.000147319
0.000151141
0.000161854
0.000172505
0.000190146
0.000303852
0.0006249
0.000811919
0.000941009
0.000805316
0.000444918
0.000175166
0.000134632
0.000145496
0.00012663
0.000131518
0.000124692
0.000125036
0.00011785
0.000117768
0.000150553
0.000125542
0.000182727
0.000141362
0.000219561
0.000173536
0.00032159
0.000272462
0.000347731
0.000311749
0.000364561
0.000339413
0.000388726
0.000375364
0.000418778
0.000415611
0.000414582
0.000412769
0.00043755
0.000429693
0.000426323
0.000425758
0.000464205
0.000446307
0.000435292
0.000533097
0.000504066
0.000458171
0.000452633
0.000476203
0.000556377
0.000552918
0.000553933
0.000530019
0.000539722
0.000561906
0.000551936
0.000562786
0.000530493
0.000526503
0.000564906
0.000482248
0.000454214
0.000538907
0.000521958
0.000165846
0.000124487
0.000130824
0.000423474
0.000397895
0.000227467
0.000226707
0.000210384
0.000200648
0.000195255
0.000195323
0.000198837
0.000219694
0.000257598
0.000304008
0.000335035
0.000334333
0.000314293
0.000257658
0.000205791
0.000169043
0.00015073
0.000145219
0.000147608
0.0001559
0.000167428
0.000180062
0.000245268
0.000521333
0.000790659
0.000984666
0.000989449
0.00073016
0.000277116
0.000152051
0.000132134
0.000135068
0.000123071
0.000126493
0.000119235
0.000120744
0.00011013
0.000112957
0.000117199
0.00010899
0.000142571
0.000118948
0.000188403
0.000156848
0.000271777
0.000229057
0.000311902
0.000282109
0.000361278
0.000344553
0.000411064
0.000408086
0.000404257
0.000398954
0.000426587
0.000427753
0.000428625
0.000428715
0.000430579
0.000430453
0.00043297
0.000436604
0.000441765
0.000432822
0.000430532
0.000500002
0.000471686
0.000436727
0.000431163
0.000447147
0.000527762
0.000531969
0.000526536
0.000496702
0.000516496
0.000567565
0.000559704
0.000524566
0.000505442
0.000498618
0.000531106
0.00050015
0.000473319
0.000548632
0.000533339
0.000364804
0.000192951
0.000120726
0.000444119
0.000415146
0.000301191
0.000277759
0.000236668
0.000216067
0.000213861
0.000214418
0.00022555
0.00025808
0.000298805
0.000334641
0.00033806
0.000325325
0.000275662
0.000220651
0.000179501
0.000153016
0.000144754
0.000145123
0.000149975
0.000160792
0.00017352
0.000206696
0.000378125
0.000718977
0.000977036
0.00113346
0.000983329
0.000565523
0.000187265
0.000133904
0.000146251
0.00012349
0.000129808
0.000117118
0.00011997
0.000114472
0.000115336
0.000106869
0.000109838
0.000104235
0.000102711
0.000130956
0.000107147
0.000189079
0.000162439
0.000250249
0.000218443
0.000324353
0.000301982
0.000396513
0.000379438
0.00042768
0.000425401
0.000421613
0.000416399
0.000439546
0.000441905
0.000443131
0.000443017
0.000432964
0.000437846
0.00044341
0.000447814
0.000429238
0.000428642
0.000432755
0.000467661
0.000441716
0.000424158
0.000417591
0.000424885
0.000494745
0.000526312
0.000494178
0.000464398
0.00051105
0.000543351
0.000559179
0.000496836
0.000498268
0.000487846
0.000502709
0.000512912
0.000487677
0.000553588
0.000540069
0.000199812
6.59332e-05
0.00012212
0.000460373
0.000432735
0.000423118
0.000370566
0.000265509
0.000231856
0.000233036
0.00023802
0.000261423
0.000297953
0.000332155
0.000341552
0.000333898
0.000296089
0.000237524
0.00019209
0.0001579
0.000146096
0.000142959
0.000145585
0.000153795
0.000166394
0.000184542
0.00027551
0.000623176
0.000938003
0.00117889
0.00118386
0.000886478
0.000327518
0.000157158
0.000131164
0.00013502
0.000119391
0.000124069
0.000112224
0.000115145
0.000110667
0.000110966
0.000104699
0.000107433
9.49853e-05
9.81129e-05
0.000133173
0.000102927
0.000216186
0.000178846
0.000276155
0.000247933
0.000357701
0.000330467
0.000419142
0.000408835
0.000386607
0.000399403
0.000441602
0.000439013
0.000434599
0.000427816
0.000451115
0.000452889
0.000453086
0.00045175
0.00043918
0.000446298
0.000451545
0.000455168
0.000424456
0.000429343
0.000436413
0.000436689
0.000418171
0.000417846
0.000409083
0.000409697
0.000462368
0.000495103
0.000461752
0.000432545
0.000497967
0.00051671
0.000540108
0.000484063
0.000498696
0.000487204
0.000485434
0.000521724
0.000499732
0.000553595
0.00054345
0.000227761
5.12485e-05
0.000153708
0.000476569
0.000439247
0.000558198
0.000462856
0.000290621
0.000248219
0.000252392
0.000269062
0.000299381
0.00033149
0.000343808
0.000339479
0.000314663
0.000257034
0.000206447
0.000168996
0.00014764
0.000141989
0.000142854
0.000147404
0.000159183
0.000172338
0.000227316
0.000492053
0.000826641
0.00116425
0.00133116
0.00116312
0.000676839
0.000204
0.00013521
0.000151657
0.000121968
0.000129651
0.000112873
0.000116727
0.000106924
0.000109229
0.000107165
0.000106407
0.000104377
0.000105361
9.28201e-05
9.87143e-05
0.000136242
0.000102054
0.000224432
0.000178761
0.00029909
0.000263473
0.000374381
0.000359023
0.000333647
0.000418285
0.000407891
0.000383003
0.000396518
0.000448552
0.00044294
0.000435734
0.00042752
0.000457258
0.000457482
0.00045572
0.000451738
0.000444132
0.000450483
0.000453764
0.00045633
0.000422709
0.000429522
0.000436681
0.000411454
0.000400932
0.000413106
0.00040108
0.000398644
0.000430142
0.000462788
0.000429595
0.000405221
0.000465954
0.000496659
0.00052007
0.000479277
0.000472182
0.000480907
0.000477358
0.000528384
0.000511456
0.000548435
0.00054387
0.000252777
3.8344e-05
0.000140287
0.000490912
0.000376418
0.000679899
0.000532064
0.000308889
0.000262732
0.000275306
0.000302333
0.000331901
0.000346032
0.000342934
0.000328089
0.000277011
0.000222274
0.000181534
0.000151179
0.000142724
0.000140959
0.000143052
0.000152746
0.000163776
0.00019367
0.000332141
0.000697399
0.00109929
0.00137719
0.0013759
0.0010241
0.000375454
0.000166885
0.000133939
0.000139488
0.000117584
0.000123741
0.000108032
0.00011253
0.000102531
0.00010444
0.000103901
0.000102581
0.000104441
0.000103126
9.46567e-05
0.000101308
0.000129809
9.80442e-05
0.0002051
0.000149735
0.000296171
0.000253449
0.000368346
0.000352375
0.000290977
0.000283244
0.000381231
0.000355153
0.000313105
0.000331952
0.000445336
0.000438267
0.000429796
0.000410669
0.000456445
0.000454631
0.000450559
0.000444013
0.000443807
0.000447094
0.000450034
0.000450596
0.000418942
0.000424833
0.000431027
0.000391867
0.000387218
0.000405323
0.000389325
0.000387374
0.000400692
0.000431452
0.000397891
0.000383122
0.000435036
0.000483813
0.000501591
0.000477063
0.00044116
0.0004502
0.000473141
0.000534014
0.000522207
0.000531135
0.000541586
0.000252655
2.29677e-05
0.000102559
0.00045513
0.000350825
0.0007749
0.000573949
0.000319432
0.000277183
0.000300228
0.000331917
0.000350792
0.00034681
0.000335638
0.000294275
0.000238967
0.000192746
0.000159221
0.000143903
0.000140045
0.000140492
0.000146522
0.000155843
0.000172288
0.000241744
0.000580004
0.000963064
0.00135799
0.00152313
0.00132169
0.000752971
0.000226571
0.000140608
0.000162017
0.000124283
0.000133963
0.000111366
0.000116945
0.000103335
0.00010692
9.87468e-05
0.000100171
0.000100991
9.92494e-05
0.000102062
0.000100005
9.922e-05
0.000103516
0.000105938
9.68594e-05
0.000143554
0.000105287
0.000263916
0.000239108
0.000192661
0.000297017
0.0002854
0.000238415
0.000231022
0.000324668
0.000298534
0.000259611
0.000276694
0.000435499
0.00042486
0.000389363
0.000355221
0.00044908
0.000445404
0.000439118
0.000430077
0.000435857
0.000437758
0.000439626
0.000439345
0.000409613
0.000413391
0.000417883
0.0003754
0.000372912
0.000391143
0.000370646
0.000371914
0.000375614
0.000398887
0.0003701
0.000363798
0.000403067
0.000475343
0.000483994
0.000463242
0.000409828
0.00041956
0.000469459
0.000538105
0.000485305
0.000495216
0.000500629