/*--------------------------------*- C++ -*----------------------------------*\
  =========                 |
  \\      /  F ield         | OpenFOAM: The Open Source CFD Toolbox
   \\    /   O peration     | Website:  https://openfoam.org
    \\  /    A nd           | Version:  dev
     \\/     M anipulation  |
\*---------------------------------------------------------------------------*/
FoamFile
{
    version     2.0;
    format      ascii;
    class       volScalarField;
    location    "2500";
    object      O2;
}
// * * * * * * * * * * * * * * * * * * * * * * * * * * * * * * * * * * * * * //

dimensions      [0 0 0 0 0 0 0];

internalField   nonuniform List<scalar> 
9842
(
0.23301
0.23301
0.23301
0.23301
0.23301
0.23301
0.23301
0.23301
0.23301
0.23301
0.23301
0.23301
0.23301
0.23301
0.23301
0.23301
0.23301
0.23301
0.23301
0.23301
0.23301
0.23301
0.23301
0.23301
0.23301
0.23301
0.23301
0.23301
0.23301
0.23301
0.23301
0.23301
0.23301
0.23301
0.23301
0.23301
0.23301
0.23301
0.23301
0.23301
0.23301
0.23301
0.23301
0.23301
0.23301
0.23301
0.23301
0.23301
0.23301
0.23301
0.23301
0.23301
0.23301
0.23301
0.23301
0.23301
0.23301
0.23301
0.23301
0.23301
0.23301
0.23301
0.23301
0.23301
0.23301
0.23301
0.23301
0.23301
0.23301
0.23301
0.23301
0.23301
0.23301
0.23301
0.23301
0.23301
0.23301
0.23301
0.23301
0.23301
0.23301
0.23301
0.23301
0.23301
0.23301
0.23301
0.23301
0.23301
0.23301
0.23301
0.23301
0.23301
0.23301
0.23301
0.23301
0.23301
0.23301
0.23301
0.23301
0.23301
0.23301
0.23301
0.23301
0.23301
0.23301
0.23301
0.23301
0.23301
0.23301
0.23301
0.23301
0.23301
0.23301
0.23301
0.23301
0.23301
0.23301
0.23301
0.23301
0.23301
0.23301
0.23301
0.23301
0.23301
0.23301
0.23301
0.23301
0.23301
0.23301
0.23301
0.23301
0.23301
0.23301
0.23301
0.23301
0.23301
0.23301
0.23301
0.23301
0.23301
0.23301
0.23301
0.23301
0.23301
0.23301
0.23301
0.23301
0.23301
0.23301
0.23301
0.23301
0.23301
0.23301
0.23301
0.23301
0.23301
0.23301
0.23301
0.23301
0.23301
0.23301
0.23301
0.23301
0.23301
0.23301
0.23301
0.23301
0.23301
0.23301
0.23301
0.23301
0.23301
0.23301
0.23301
0.23301
0.23301
0.23301
0.23301
0.23301
0.23301
0.23301
0.23301
0.23301
0.23301
0.23301
0.23301
0.23301
0.23301
0.23301
0.23301
0.23301
0.23301
0.23301
0.23301
0.23301
0.23301
0.23301
0.23301
0.23301
0.23301
0.23301
0.23301
0.23301
0.23301
0.23301
0.23301
0.23301
0.23301
0.23301
0.23301
0.23301
0.23301
0.23301
0.23301
0.23301
0.23301
0.23301
0.23301
0.23301
0.23301
0.23301
0.23301
0.23301
0.23301
0.23301
0.23301
0.23301
0.23301
0.23301
0.23301
0.23301
0.23301
0.23301
0.23301
0.23301
0.23301
0.23301
0.23301
0.23301
0.23301
0.23301
0.23301
0.23301
0.23301
0.23301
0.23301
0.23301
0.23301
0.23301
0.23301
0.23301
0.23301
0.23301
0.23301
0.23301
0.23301
0.23301
0.23301
0.23301
0.23301
0.23301
0.23301
0.23301
0.23301
0.23301
0.23301
0.23301
0.23301
0.23301
0.23301
0.23301
0.23301
0.23301
0.23301
0.23301
0.23301
0.23301
0.23301
0.23301
0.23301
0.23301
0.23301
0.23301
0.23301
0.23301
0.23301
0.23301
0.23301
0.23301
0.23301
0.23301
0.23301
0.23301
0.23301
0.23301
0.23301
0.23301
0.23301
0.23301
0.23301
0.23301
0.23301
0.23301
0.23301
0.23301
0.23301
0.23301
0.23301
0.23301
0.23301
0.23301
0.23301
0.23301
0.23301
0.23301
0.23301
0.23301
0.23301
0.23301
0.23301
0.23301
0.23301
0.23301
0.23301
0.23301
0.23301
0.23301
0.23301
0.23301
0.23301
0.23301
0.23301
0.23301
0.23301
0.23301
0.23301
0.23301
0.23301
0.23301
0.23301
0.23301
0.23301
0.23301
0.23301
0.23301
0.23301
0.23301
0.23301
0.23301
0.23301
0.23301
0.23301
0.23301
0.23301
0.23301
0.23301
0.23301
0.23301
0.23301
0.23301
0.23301
0.23301
0.23301
0.23301
0.23301
0.23301
0.23301
0.23301
0.23301
0.23301
0.23301
0.23301
0.23301
0.23301
0.23301
0.23301
0.23301
0.23301
0.23301
0.23301
0.23301
0.23301
0.23301
0.23301
0.23301
0.23301
0.23301
0.23301
0.23301
0.23301
0.23301
0.23301
0.23301
0.23301
0.23301
0.23301
0.23301
0.23301
0.23301
0.23301
0.23301
0.23301
0.23301
0.23301
0.23301
0.23301
0.23301
0.23301
0.23301
0.23301
0.23301
0.23301
0.23301
0.23301
0.23301
0.23301
0.23301
0.23301
0.23301
0.23301
0.23301
0.23301
0.23301
0.23301
0.23301
0.23301
0.23301
0.23301
0.23301
0.23301
0.23301
0.23301
0.23301
0.23301
0.23301
0.23301
0.23301
0.23301
0.23301
0.23301
0.23301
0.23301
0.23301
0.23301
0.23301
0.23301
0.23301
0.23301
0.23301
0.23301
0.23301
0.23301
0.23301
0.23301
0.23301
0.23301
0.23301
0.23301
0.23301
0.23301
0.23301
0.23301
0.23301
0.23301
0.23301
0.23301
0.23301
0.23301
0.23301
0.23301
0.23301
0.23301
0.23301
0.23301
0.23301
0.23301
0.23301
0.23301
0.23301
0.23301
0.23301
0.23301
0.23301
0.23301
0.23301
0.23301
0.23301
0.23301
0.23301
0.23301
0.23301
0.23301
0.23301
0.23301
0.23301
0.23301
0.23301
0.23301
0.23301
0.23301
0.23301
0.23301
0.23301
0.23301
0.23301
0.23301
0.23301
0.23301
0.23301
0.23301
0.23301
0.23301
0.23301
0.23301
0.23301
0.23301
0.23301
0.23301
0.23301
0.23301
0.23301
0.23301
0.23301
0.23301
0.23301
0.23301
0.23301
0.23301
0.23301
0.23301
0.23301
0.23301
0.23301
0.23301
0.23301
0.23301
0.23301
0.23301
0.23301
0.23301
0.23301
0.23301
0.23301
0.23301
0.23301
0.23301
0.23301
0.23301
0.23301
0.23301
0.23301
0.23301
0.23301
0.23301
0.23301
0.23301
0.23301
0.23301
0.23301
0.23301
0.23301
0.23301
0.23301
0.23301
0.23301
0.23301
0.23301
0.23301
0.23301
0.23301
0.23301
0.23301
0.23301
0.23301
0.23301
0.23301
0.23301
0.23301
0.23301
0.23301
0.23301
0.23301
0.23301
0.23301
0.23301
0.23301
0.23301
0.23301
0.23301
0.23301
0.23301
0.23301
0.23301
0.23301
0.23301
0.23301
0.23301
0.23301
0.23301
0.23301
0.23301
0.23301
0.23301
0.23301
0.23301
0.23301
0.23301
0.23301
0.23301
0.23301
0.23301
0.23301
0.23301
0.23301
0.23301
0.23301
0.23301
0.23301
0.23301
0.23301
0.23301
0.23301
0.23301
0.23301
0.23301
0.23301
0.23301
0.23301
0.23301
0.23301
0.23301
0.23301
0.23301
0.23301
0.23301
0.23301
0.23301
0.23301
0.23301
0.23301
0.23301
0.23301
0.23301
0.23301
0.23301
0.23301
0.23301
0.23301
0.23301
0.23301
0.23301
0.23301
0.23301
0.23301
0.23301
0.23301
0.23301
0.23301
0.23301
0.23301
0.23301
0.23301
0.23301
0.23301
0.23301
0.23301
0.23301
0.23301
0.23301
0.23301
0.23301
0.23301
0.23301
0.23301
0.23301
0.23301
0.23301
0.23301
0.23301
0.23301
0.23301
0.23301
0.23301
0.23301
0.23301
0.23301
0.23301
0.23301
0.23301
0.23301
0.23301
0.23301
0.23301
0.23301
0.23301
0.23301
0.23301
0.23301
0.23301
0.23301
0.23301
0.23301
0.23301
0.23301
0.23301
0.23301
0.23301
0.23301
0.23301
0.23301
0.23301
0.23301
0.23301
0.23301
0.23301
0.23301
0.23301
0.23301
0.23301
0.23301
0.23301
0.23301
0.23301
0.23301
0.23301
0.23301
0.23301
0.23301
0.23301
0.23301
0.23301
0.23301
0.23301
0.23301
0.23301
0.23301
0.23301
0.23301
0.23301
0.23301
0.23301
0.23301
0.233009
0.233009
0.233008
0.233008
0.233009
0.233009
0.23301
0.23301
0.23301
0.23301
0.23301
0.23301
0.23301
0.23301
0.23301
0.23301
0.23301
0.23301
0.23301
0.23301
0.23301
0.23301
0.23301
0.23301
0.23301
0.23301
0.23301
0.23301
0.23301
0.23301
0.23301
0.23301
0.23301
0.23301
0.23301
0.23301
0.23301
0.23301
0.23301
0.23301
0.23301
0.23301
0.23301
0.233009
0.233008
0.233005
0.233001
0.232997
0.232997
0.233002
0.233009
0.233006
0.23301
0.233009
0.23301
0.23301
0.23301
0.23301
0.23301
0.23301
0.23301
0.23301
0.23301
0.23301
0.23301
0.23301
0.23301
0.23301
0.23301
0.23301
0.23301
0.23301
0.23301
0.23301
0.23301
0.23301
0.23301
0.23301
0.23301
0.23301
0.23301
0.23301
0.23301
0.23301
0.23301
0.23301
0.23301
0.23301
0.233009
0.233008
0.233002
0.232989
0.23297
0.232947
0.232929
0.232931
0.232997
0.232962
0.233006
0.232996
0.233009
0.233006
0.23301
0.233009
0.23301
0.23301
0.23301
0.23301
0.23301
0.23301
0.23301
0.23301
0.23301
0.23301
0.23301
0.23301
0.23301
0.23301
0.23301
0.23301
0.23301
0.23301
0.23301
0.23301
0.23301
0.23301
0.23301
0.23301
0.23301
0.23301
0.23301
0.23301
0.23301
0.23301
0.23301
0.23301
0.233009
0.233004
0.232988
0.232949
0.232878
0.232785
0.232687
0.232616
0.232857
0.232574
0.23296
0.232846
0.232995
0.232958
0.233006
0.232995
0.233009
0.233006
0.233009
0.23301
0.233009
0.233009
0.23301
0.23301
0.23301
0.23301
0.23301
0.23301
0.23301
0.23301
0.23301
0.23301
0.23301
0.23301
0.23301
0.23301
0.23301
0.23301
0.23301
0.23301
0.23301
0.23301
0.23301
0.23301
0.23301
0.23301
0.23301
0.23301
0.23301
0.23301
0.233008
0.232999
0.232962
0.232866
0.232688
0.232424
0.232157
0.231912
0.232205
0.23172
0.232563
0.232127
0.232837
0.232537
0.232955
0.232826
0.232994
0.232951
0.233006
0.232994
0.233006
0.23301
0.233007
0.233008
0.23301
0.23301
0.23301
0.23301
0.23301
0.23301
0.23301
0.23301
0.23301
0.23301
0.23301
0.23301
0.23301
0.23301
0.23301
0.23301
0.23301
0.23301
0.23301
0.23301
0.23301
0.23301
0.23301
0.23301
0.23301
0.23301
0.23301
0.23301
0.233008
0.232995
0.232933
0.232761
0.232438
0.232011
0.231532
0.231147
0.231343
0.230885
0.231662
0.231208
0.232083
0.231597
0.23251
0.232033
0.232814
0.232477
0.232949
0.232802
0.232995
0.232949
0.232997
0.233009
0.232999
0.233002
0.23301
0.233009
0.23301
0.23301
0.23301
0.23301
0.23301
0.23301
0.23301
0.23301
0.23301
0.23301
0.23301
0.23301
0.23301
0.23301
0.23301
0.23301
0.23301
0.23301
0.23301
0.23301
0.23301
0.23301
0.23301
0.23301
0.23301
0.23301
0.233009
0.232995
0.232913
0.232656
0.23219
0.231635
0.231066
0.230548
0.230572
0.230254
0.23077
0.230388
0.231108
0.230639
0.231521
0.231001
0.231971
0.231427
0.23244
0.231897
0.232794
0.232407
0.232953
0.232795
0.23296
0.233005
0.232969
0.232979
0.23301
0.233007
0.23301
0.23301
0.23301
0.23301
0.23301
0.23301
0.23301
0.23301
0.23301
0.23301
0.23301
0.23301
0.23301
0.23301
0.23301
0.23301
0.23301
0.23301
0.23301
0.23301
0.23301
0.23301
0.23301
0.23301
0.23301
0.23301
0.233009
0.232996
0.23291
0.232592
0.231988
0.231321
0.230819
0.230342
0.230099
0.230015
0.230077
0.229871
0.230217
0.229871
0.230496
0.230035
0.230872
0.230329
0.231308
0.230711
0.231814
0.231172
0.232386
0.231733
0.232809
0.232391
0.232834
0.23299
0.232866
0.232902
0.233009
0.232999
0.23301
0.23301
0.23301
0.23301
0.23301
0.23301
0.23301
0.23301
0.23301
0.23301
0.23301
0.23301
0.23301
0.23301
0.23301
0.23301
0.23301
0.23301
0.23301
0.23301
0.23301
0.23301
0.23301
0.23301
0.23301
0.23301
0.233009
0.232998
0.232914
0.232585
0.231897
0.231351
0.230861
0.230381
0.229893
0.229774
0.229708
0.229624
0.229484
0.229649
0.229358
0.229828
0.229398
0.230127
0.229583
0.230518
0.229885
0.231024
0.230303
0.231668
0.230882
0.232433
0.23164
0.232493
0.232938
0.232572
0.232677
0.233005
0.232969
0.23301
0.233008
0.23301
0.23301
0.23301
0.23301
0.23301
0.23301
0.23301
0.23301
0.23301
0.23301
0.23301
0.23301
0.23301
0.23301
0.23301
0.23301
0.23301
0.23301
0.23301
0.23301
0.23301
0.23301
0.23301
0.23301
0.23301
0.233002
0.232927
0.232599
0.231923
0.231511
0.231158
0.23066
0.230048
0.229486
0.229558
0.229441
0.229449
0.229174
0.229092
0.229064
0.228836
0.229112
0.228736
0.229296
0.228786
0.229609
0.228974
0.230083
0.229316
0.230762
0.229876
0.23167
0.230691
0.231761
0.232784
0.231927
0.232168
0.232991
0.232876
0.23301
0.233003
0.23301
0.23301
0.23301
0.23301
0.23301
0.23301
0.23301
0.23301
0.23301
0.23301
0.23301
0.23301
0.23301
0.23301
0.23301
0.23301
0.23301
0.23301
0.23301
0.23301
0.23301
0.23301
0.23301
0.23301
0.23301
0.233006
0.232952
0.232643
0.231978
0.231671
0.231563
0.231451
0.230628
0.229619
0.229767
0.229171
0.229219
0.229085
0.229111
0.228711
0.228677
0.228471
0.22831
0.228373
0.228086
0.228421
0.228007
0.228629
0.228061
0.229033
0.22829
0.229703
0.228782
0.230681
0.229585
0.230748
0.232393
0.230911
0.231203
0.232943
0.232623
0.233009
0.232986
0.23301
0.23301
0.23301
0.23301
0.23301
0.23301
0.23301
0.23301
0.23301
0.23301
0.23301
0.23301
0.23301
0.23301
0.23301
0.23301
0.23301
0.23301
0.23301
0.23301
0.23301
0.23301
0.23301
0.23301
0.23301
0.233008
0.232976
0.232723
0.232051
0.231766
0.231825
0.232168
0.231989
0.230075
0.230948
0.22929
0.22948
0.228788
0.228853
0.228688
0.228737
0.228243
0.228246
0.227936
0.227892
0.227792
0.227708
0.227733
0.227599
0.22775
0.227524
0.227989
0.227521
0.228578
0.227745
0.22954
0.22844
0.229587
0.231616
0.229743
0.230028
0.23281
0.232079
0.233005
0.232931
0.23301
0.23301
0.23301
0.23301
0.23301
0.23301
0.23301
0.23301
0.23301
0.23301
0.23301
0.23301
0.23301
0.23301
0.23301
0.23301
0.23301
0.23301
0.23301
0.23301
0.23301
0.23301
0.23301
0.23301
0.23301
0.233009
0.232993
0.232813
0.232164
0.231817
0.231939
0.232499
0.232679
0.232186
0.229996
0.23096
0.229005
0.229351
0.228479
0.228642
0.228288
0.22837
0.227916
0.227986
0.227713
0.22775
0.227592
0.227619
0.22748
0.227508
0.227359
0.227377
0.227329
0.227226
0.227565
0.227168
0.22838
0.227444
0.228421
0.230481
0.228555
0.228835
0.232477
0.231111
0.232995
0.23279
0.23301
0.23301
0.23301
0.23301
0.23301
0.23301
0.23301
0.23301
0.23301
0.23301
0.23301
0.23301
0.23301
0.23301
0.23301
0.23301
0.23301
0.23301
0.23301
0.23301
0.23301
0.23301
0.23301
0.23301
0.23301
0.233002
0.232894
0.232333
0.23185
0.231952
0.232552
0.232868
0.232848
0.231979
0.232661
0.230093
0.231172
0.228914
0.22945
0.228394
0.228621
0.2281
0.228235
0.227834
0.22795
0.227689
0.227806
0.227591
0.227755
0.227461
0.227649
0.227274
0.227431
0.227103
0.227177
0.227032
0.22698
0.227397
0.226922
0.227437
0.229287
0.227546
0.227785
0.231846
0.22994
0.232964
0.232463
0.23301
0.23301
0.23301
0.23301
0.23301
0.23301
0.23301
0.23301
0.23301
0.23301
0.23301
0.23301
0.23301
0.23301
0.23301
0.23301
0.23301
0.23301
0.23301
0.23301
0.23301
0.23301
0.23301
0.23301
0.233006
0.232953
0.232535
0.231889
0.231932
0.232519
0.232871
0.232969
0.232878
0.232989
0.232402
0.232798
0.230452
0.231553
0.229049
0.2299
0.228498
0.228889
0.228092
0.228264
0.227956
0.228133
0.227954
0.228172
0.227924
0.228225
0.227742
0.228094
0.227405
0.227725
0.227075
0.227312
0.226855
0.226951
0.226848
0.226741
0.226821
0.228189
0.226849
0.226974
0.227481
0.23085
0.228835
0.232893
0.231888
0.23301
0.23301
0.23301
0.23301
0.23301
0.23301
0.23301
0.23301
0.23301
0.23301
0.23301
0.23301
0.23301
0.23301
0.23301
0.23301
0.23301
0.23301
0.23301
0.23301
0.23301
0.23301
0.23301
0.233009
0.232988
0.232725
0.231977
0.231875
0.232404
0.232807
0.232961
0.233003
0.232954
0.232996
0.232677
0.232918
0.23105
0.232076
0.229603
0.230673
0.228992
0.229617
0.22834
0.228607
0.228408
0.228665
0.22853
0.22884
0.228445
0.228792
0.228017
0.228317
0.22756
0.227782
0.22716
0.227328
0.226819
0.226967
0.226633
0.226736
0.226677
0.226653
0.226562
0.227109
0.227903
0.22723
0.226682
0.226509
0.22654
0.226717
0.22976
0.227466
0.22771
0.228571
0.232749
0.231029
0.23301
0.23301
0.23301
0.23301
0.23301
0.23301
0.23301
0.23301
0.23301
0.23301
0.23301
0.23301
0.23301
0.23301
0.23301
0.23301
0.23301
0.23301
0.23301
0.23301
0.23301
0.23301
0.23301
0.233
0.232866
0.232192
0.231835
0.232211
0.232651
0.232891
0.232992
0.233008
0.233008
0.232988
0.233005
0.232877
0.232976
0.231794
0.23256
0.230541
0.231643
0.229922
0.230722
0.228968
0.229364
0.229166
0.229518
0.22915
0.229532
0.228631
0.22897
0.227976
0.228162
0.227366
0.227279
0.227053
0.227043
0.226967
0.226824
0.226784
0.226806
0.22683
0.226621
0.226761
0.226672
0.226558
0.226603
0.226712
0.22651
0.22679
0.22691
0.226506
0.226427
0.226465
0.226519
0.228088
0.229561
0.228508
0.227082
0.227323
0.232458
0.229057
0.22961
0.230823
0.23301
0.23301
0.23301
0.23301
0.23301
0.23301
0.23301
0.23301
0.23301
0.23301
0.23301
0.23301
0.23301
0.23301
0.23301
0.23301
0.23301
0.23301
0.23301
0.23301
0.23301
0.23301
0.233005
0.232947
0.232466
0.23184
0.232012
0.232463
0.232735
0.232932
0.233006
0.233009
0.233009
0.233002
0.233008
0.232961
0.232997
0.232467
0.232836
0.231685
0.232422
0.231124
0.231846
0.229931
0.230453
0.229943
0.23038
0.229341
0.229753
0.228388
0.228687
0.22717
0.227158
0.226646
0.226428
0.226239
0.226059
0.22669
0.226463
0.226181
0.226706
0.226622
0.2264
0.226121
0.226429
0.226632
0.226533
0.226556
0.226608
0.226476
0.226562
0.226643
0.226401
0.226423
0.226376
0.22639
0.227648
0.228064
0.226776
0.226979
0.230189
0.231742
0.230616
0.22856
0.229037
0.233009
0.233008
0.233009
0.233009
0.23301
0.23301
0.23301
0.23301
0.23301
0.23301
0.23301
0.23301
0.23301
0.23301
0.23301
0.23301
0.23301
0.23301
0.23301
0.23301
0.23301
0.233008
0.232986
0.232708
0.231914
0.231852
0.23226
0.232548
0.232787
0.232985
0.23301
0.233008
0.233009
0.23301
0.233006
0.233009
0.232987
0.233003
0.232796
0.232939
0.232409
0.232736
0.231873
0.232297
0.230852
0.23136
0.2302
0.230667
0.229057
0.229492
0.227291
0.227602
0.225959
0.225909
0.225944
0.226042
0.225879
0.225598
0.225376
0.225236
0.226084
0.225707
0.225319
0.226488
0.226243
0.225713
0.225374
0.225865
0.226519
0.226489
0.226443
0.22637
0.22643
0.226401
0.226444
0.226337
0.226377
0.226329
0.226308
0.227264
0.22764
0.226532
0.226688
0.229385
0.232247
0.230247
0.228082
0.228489
0.233002
0.233
0.233004
0.233008
0.233009
0.23301
0.23301
0.23301
0.23301
0.23301
0.23301
0.23301
0.23301
0.23301
0.23301
0.23301
0.23301
0.23301
0.23301
0.23301
0.233009
0.232999
0.232868
0.23217
0.231796
0.232046
0.232345
0.232591
0.232894
0.233004
0.23301
0.233009
0.23301
0.23301
0.233008
0.233009
0.232993
0.233005
0.232892
0.232963
0.232599
0.232786
0.232004
0.232299
0.231144
0.231606
0.22996
0.23043
0.228018
0.22852
0.226208
0.226474
0.22671
0.227082
0.225193
0.225243
0.225403
0.225654
0.224974
0.224716
0.224572
0.22455
0.225248
0.224784
0.224386
0.226081
0.225641
0.224824
0.22445
0.225076
0.226275
0.226382
0.226204
0.22595
0.226333
0.226294
0.226302
0.226286
0.226294
0.226259
0.226247
0.226927
0.227252
0.226348
0.22645
0.229069
0.231722
0.23004
0.227647
0.228163
0.232972
0.232975
0.232993
0.233004
0.233008
0.233009
0.23301
0.23301
0.23301
0.23301
0.23301
0.23301
0.23301
0.23301
0.23301
0.23301
0.23301
0.23301
0.23301
0.23301
0.233004
0.232951
0.232506
0.231819
0.231853
0.232139
0.232377
0.232684
0.232974
0.23301
0.233007
0.23301
0.23301
0.23301
0.23301
0.233008
0.233009
0.232995
0.233005
0.232901
0.232966
0.232509
0.232703
0.231561
0.231856
0.230872
0.231252
0.229047
0.229574
0.2275
0.228134
0.225959
0.226291
0.226628
0.226983
0.224661
0.224908
0.225235
0.225595
0.224107
0.223975
0.223989
0.224166
0.224291
0.223849
0.223554
0.225459
0.224829
0.223851
0.223472
0.224133
0.225858
0.226157
0.225805
0.225326
0.226132
0.226217
0.226201
0.226224
0.226123
0.226124
0.226189
0.226632
0.226911
0.22621
0.226265
0.228917
0.232704
0.231147
0.227314
0.227916
0.232906
0.232924
0.232973
0.232999
0.233007
0.233009
0.23301
0.23301
0.23301
0.23301
0.23301
0.23301
0.23301
0.23301
0.23301
0.23301
0.23301
0.23301
0.23301
0.233008
0.232988
0.232752
0.231935
0.231751
0.231939
0.232163
0.232437
0.232839
0.233002
0.23301
0.233009
0.23301
0.23301
0.23301
0.23301
0.233008
0.233009
0.232997
0.233006
0.232878
0.232966
0.232224
0.232629
0.231018
0.231559
0.230064
0.230536
0.22873
0.229318
0.227635
0.228037
0.228703
0.228361
0.225988
0.226404
0.226823
0.227236
0.224484
0.22487
0.225312
0.225812
0.223442
0.223485
0.223715
0.22408
0.223369
0.223059
0.222962
0.224642
0.223882
0.222945
0.222585
0.22316
0.225252
0.225787
0.225232
0.224521
0.225804
0.226151
0.226123
0.226121
0.225845
0.2259
0.22611
0.226389
0.226632
0.226106
0.22612
0.229183
0.232813
0.23159
0.227069
0.227877
0.232818
0.232862
0.232951
0.232993
0.233006
0.233009
0.23301
0.23301
0.23301
0.23301
0.23301
0.23301
0.23301
0.23301
0.23301
0.23301
0.23301
0.23301
0.233009
0.232999
0.232895
0.232273
0.23175
0.231766
0.231958
0.232193
0.232572
0.232958
0.23301
0.233006
0.23301
0.23301
0.23301
0.23301
0.23301
0.23301
0.233009
0.23301
0.233001
0.233007
0.232877
0.232974
0.232143
0.232646
0.230969
0.231611
0.229856
0.230392
0.228982
0.229277
0.229832
0.228196
0.228581
0.22924
0.228925
0.226322
0.226827
0.227313
0.227771
0.224533
0.225073
0.225668
0.226282
0.223021
0.223275
0.223673
0.224184
0.222619
0.222522
0.222582
0.223701
0.222918
0.222229
0.221893
0.222289
0.224474
0.225261
0.224496
0.223599
0.225336
0.226081
0.226049
0.225952
0.225445
0.225573
0.225986
0.226201
0.226416
0.226019
0.226005
0.229577
0.23289
0.231971
0.226917
0.227937
0.232732
0.23281
0.232935
0.232989
0.233005
0.233009
0.23301
0.23301
0.23301
0.23301
0.23301
0.23301
0.23301
0.23301
0.23301
0.23301
0.23301
0.23301
0.233004
0.232965
0.232612
0.231822
0.231667
0.231774
0.231967
0.232294
0.232782
0.232999
0.23301
0.233009
0.23301
0.23301
0.23301
0.23301
0.23301
0.23301
0.233009
0.23301
0.233004
0.233008
0.23291
0.232988
0.232289
0.23278
0.231455
0.232097
0.230344
0.230862
0.229518
0.229737
0.230676
0.230892
0.228924
0.229308
0.229952
0.229648
0.226887
0.227466
0.228002
0.228488
0.224791
0.225464
0.226172
0.22688
0.222836
0.223236
0.223765
0.224401
0.22212
0.222162
0.22239
0.222748
0.22206
0.221757
0.221441
0.22161
0.223582
0.224582
0.223644
0.222663
0.22473
0.22599
0.225969
0.225699
0.224923
0.225141
0.225803
0.226054
0.226257
0.225938
0.225912
0.229924
0.232964
0.232362
0.226806
0.228016
0.232659
0.232774
0.232925
0.232987
0.233004
0.233009
0.23301
0.23301
0.23301
0.23301
0.23301
0.23301
0.23301
0.23301
0.23301
0.23301
0.23301
0.233008
0.232993
0.232821
0.232064
0.231662
0.231627
0.231765
0.232032
0.232493
0.232946
0.23301
0.233005
0.23301
0.23301
0.23301
0.23301
0.23301
0.23301
0.23301
0.23301
0.233009
0.23301
0.233006
0.233008
0.232961
0.232999
0.23268
0.232927
0.232317
0.232732
0.231086
0.231321
0.231851
0.23022
0.230456
0.231354
0.231516
0.229722
0.230108
0.230729
0.230441
0.227562
0.228198
0.228771
0.229277
0.225116
0.225887
0.226682
0.227466
0.222762
0.223254
0.223848
0.224539
0.221772
0.221954
0.222275
0.221899
0.221387
0.221425
0.221123
0.221171
0.222664
0.223788
0.222752
0.221818
0.224007
0.225866
0.225879
0.22536
0.224289
0.224612
0.225555
0.225937
0.226128
0.225853
0.225823
0.230346
0.232994
0.232629
0.2267
0.228078
0.232602
0.232755
0.232922
0.232986
0.233004
0.233009
0.23301
0.23301
0.23301
0.23301
0.23301
0.23301
0.23301
0.23301
0.23301
0.23301
0.233009
0.232999
0.232928
0.232455
0.231717
0.231548
0.231594
0.231795
0.232197
0.232777
0.232997
0.233009
0.233009
0.23301
0.23301
0.23301
0.23301
0.23301
0.23301
0.23301
0.23301
0.23301
0.23301
0.233007
0.233009
0.232991
0.233004
0.232922
0.232984
0.232709
0.232841
0.232938
0.231655
0.231771
0.232607
0.23247
0.230972
0.231177
0.23198
0.232114
0.230483
0.230864
0.23144
0.23118
0.228212
0.228896
0.229503
0.23003
0.225314
0.226147
0.227006
0.227855
0.222707
0.223238
0.223863
0.224578
0.22154
0.22179
0.222137
0.221227
0.220956
0.221179
0.220878
0.220875
0.221817
0.222935
0.221902
0.221135
0.223208
0.225697
0.225767
0.224944
0.22358
0.224013
0.22525
0.225829
0.225996
0.225763
0.225734
0.230747
0.233003
0.23273
0.226569
0.228053
0.232559
0.23275
0.232923
0.232987
0.233004
0.233009
0.23301
0.23301
0.23301
0.23301
0.23301
0.23301
0.23301
0.23301
0.23301
0.23301
0.233004
0.232978
0.232728
0.231897
0.231545
0.231467
0.231591
0.231918
0.23248
0.232949
0.23301
0.233004
0.23301
0.23301
0.23301
0.23301
0.23301
0.23301
0.23301
0.23301
0.23301
0.23301
0.23301
0.23301
0.233008
0.233009
0.233001
0.233006
0.232983
0.232997
0.232838
0.232899
0.232936
0.232965
0.23223
0.232349
0.232765
0.232681
0.231654
0.231829
0.232264
0.232379
0.230986
0.231332
0.231816
0.231603
0.228658
0.229386
0.230017
0.230549
0.225373
0.22623
0.227116
0.227994
0.222564
0.223072
0.223669
0.224353
0.221347
0.221597
0.221909
0.220795
0.220675
0.220973
0.220673
0.220652
0.221106
0.222087
0.22115
0.220683
0.222404
0.225489
0.225636
0.224473
0.222849
0.223394
0.224901
0.225719
0.22585
0.225671
0.225639
0.230753
0.233003
0.2327
0.226396
0.22784
0.232525
0.232755
0.232926
0.232987
0.233004
0.233008
0.23301
0.23301
0.23301
0.23301
0.23301
0.23301
0.23301
0.23301
0.23301
0.233008
0.232995
0.232877
0.232285
0.231591
0.231401
0.231426
0.231669
0.232168
0.232823
0.232997
0.233009
0.233009
0.23301
0.23301
0.23301
0.23301
0.23301
0.23301
0.23301
0.23301
0.23301
0.23301
0.23301
0.23301
0.233008
0.233009
0.233003
0.233007
0.232982
0.232992
0.232998
0.23284
0.232896
0.23288
0.232933
0.232486
0.232587
0.232769
0.232684
0.231988
0.232134
0.232249
0.232365
0.23113
0.231439
0.231851
0.231672
0.228823
0.229567
0.230201
0.230721
0.225125
0.225978
0.22688
0.227792
0.222276
0.222704
0.223221
0.223833
0.221134
0.221338
0.221573
0.220514
0.220465
0.220769
0.220485
0.220457
0.220609
0.221321
0.220616
0.220373
0.221665
0.225258
0.225488
0.223971
0.222166
0.22278
0.224544
0.2256
0.225686
0.225566
0.225528
0.230318
0.232958
0.232301
0.226166
0.227294
0.232496
0.232763
0.232928
0.232987
0.233004
0.233008
0.233009
0.23301
0.23301
0.23301
0.23301
0.23301
0.23301
0.23301
0.233009
0.233
0.232951
0.232606
0.231739
0.2314
0.231308
0.231457
0.231871
0.232548
0.232964
0.233008
0.23301
0.23301
0.23301
0.23301
0.23301
0.23301
0.23301
0.23301
0.23301
0.23301
0.23301
0.23301
0.23301
0.23301
0.233008
0.233009
0.233003
0.233006
0.232968
0.232987
0.232997
0.232988
0.232713
0.232808
0.232746
0.232853
0.232479
0.232586
0.232593
0.232452
0.231998
0.232128
0.23185
0.231989
0.230965
0.231224
0.231525
0.2314
0.228664
0.229446
0.23009
0.230593
0.224543
0.225341
0.226207
0.227103
0.221846
0.222188
0.222609
0.22312
0.220887
0.221017
0.221166
0.220285
0.220242
0.220545
0.22024
0.220221
0.220288
0.220728
0.22028
0.220146
0.221042
0.225022
0.225334
0.223505
0.221547
0.222279
0.22421
0.225464
0.225502
0.225441
0.22539
0.228958
0.231064
0.229909
0.225862
0.226542
0.23247
0.232769
0.232928
0.232986
0.233003
0.233008
0.233009
0.23301
0.23301
0.23301
0.23301
0.23301
0.23301
0.23301
0.233004
0.232985
0.232801
0.232073
0.231438
0.231241
0.231288
0.231606
0.232215
0.232877
0.233002
0.23301
0.23301
0.233009
0.23301
0.23301
0.23301
0.23301
0.23301
0.23301
0.23301
0.23301
0.23301
0.23301
0.23301
0.23301
0.23301
0.233007
0.233009
0.233001
0.233005
0.232926
0.232969
0.232991
0.232974
0.232417
0.232601
0.232527
0.232718
0.232139
0.232295
0.232197
0.231956
0.231632
0.231736
0.231091
0.231259
0.230352
0.230586
0.230814
0.230728
0.227981
0.228786
0.22946
0.229981
0.223726
0.224427
0.225209
0.226047
0.221348
0.22158
0.221875
0.222248
0.220618
0.220691
0.220773
0.22009
0.220067
0.220284
0.220079
0.220076
0.220067
0.220376
0.220048
0.220007
0.220597
0.22479
0.225154
0.223093
0.221068
0.221771
0.223891
0.225296
0.225278
0.225282
0.22521
0.226912
0.228858
0.226505
0.225478
0.225706
0.232444
0.232769
0.232924
0.232983
0.233002
0.233007
0.233009
0.23301
0.23301
0.23301
0.23301
0.23301
0.23301
0.233008
0.232994
0.232901
0.232426
0.231558
0.231234
0.231167
0.231381
0.231904
0.232672
0.232982
0.233009
0.23301
0.23301
0.23301
0.23301
0.23301
0.23301
0.23301
0.23301
0.23301
0.23301
0.23301
0.23301
0.23301
0.23301
0.23301
0.23301
0.233007
0.233009
0.232994
0.233001
0.233004
0.232854
0.232937
0.23298
0.232951
0.231989
0.232284
0.232259
0.232537
0.231468
0.231704
0.231654
0.2313
0.230884
0.230971
0.230138
0.230338
0.229352
0.229605
0.229847
0.229757
0.226896
0.227701
0.228399
0.228952
0.222704
0.223251
0.223894
0.224624
0.220867
0.220983
0.221128
0.221325
0.220333
0.220386
0.220448
0.219955
0.219909
0.220093
0.219885
0.219891
0.219962
0.220114
0.21998
0.219868
0.220279
0.224522
0.224925
0.222663
0.220597
0.221188
0.223474
0.225072
0.224996
0.225042
0.224938
0.225548
0.231846
0.226787
0.225014
0.225032
0.232418
0.232759
0.232917
0.23298
0.233
0.233007
0.233009
0.233009
0.23301
0.23301
0.23301
0.23301
0.233008
0.232998
0.232952
0.232658
0.231811
0.231257
0.231088
0.2312
0.231624
0.232357
0.23293
0.233006
0.23301
0.23301
0.23301
0.23301
0.23301
0.23301
0.23301
0.23301
0.23301
0.23301
0.23301
0.23301
0.23301
0.23301
0.23301
0.23301
0.23301
0.233006
0.233007
0.232989
0.232999
0.233004
0.233001
0.232748
0.232888
0.232968
0.232924
0.231535
0.231925
0.23202
0.232353
0.230615
0.230943
0.231097
0.230631
0.229915
0.230005
0.229104
0.229372
0.227996
0.228308
0.228654
0.228513
0.225412
0.226204
0.226927
0.227533
0.221578
0.221904
0.22232
0.222853
0.220514
0.22058
0.220646
0.220717
0.220111
0.220128
0.220148
0.219766
0.21971
0.219864
0.219598
0.219673
0.219829
0.220024
0.21987
0.219659
0.220155
0.224147
0.224522
0.221973
0.220405
0.220727
0.222839
0.224775
0.224644
0.224636
0.224565
0.225096
0.232499
0.227696
0.224559
0.224527
0.232393
0.232743
0.232904
0.232974
0.232998
0.233006
0.233008
0.233009
0.23301
0.23301
0.23301
0.233009
0.233003
0.232979
0.232797
0.232112
0.231337
0.231053
0.231063
0.231383
0.232034
0.232811
0.232996
0.23301
0.23301
0.23301
0.23301
0.23301
0.23301
0.23301
0.23301
0.23301
0.23301
0.23301
0.23301
0.23301
0.23301
0.23301
0.23301
0.23301
0.233009
0.23301
0.233003
0.233003
0.233004
0.233005
0.232981
0.232994
0.232998
0.232625
0.232826
0.232953
0.232895
0.231171
0.231631
0.231915
0.232262
0.229726
0.23016
0.230638
0.230041
0.228768
0.228911
0.227964
0.228357
0.226209
0.226643
0.227211
0.226961
0.22351
0.224263
0.224975
0.225638
0.22081
0.220926
0.221068
0.221276
0.220179
0.220228
0.220292
0.220354
0.21984
0.219785
0.219714
0.219511
0.219417
0.219545
0.219416
0.219427
0.21957
0.219933
0.219532
0.219434
0.220102
0.223515
0.223922
0.221325
0.220336
0.220576
0.222089
0.224397
0.22425
0.224091
0.22406
0.22515
0.23294
0.230512
0.224144
0.22422
0.232371
0.23272
0.232886
0.232966
0.232994
0.233004
0.233007
0.233009
0.233009
0.23301
0.233009
0.233005
0.232985
0.232876
0.232391
0.23151
0.231059
0.230966
0.23118
0.231744
0.232583
0.232971
0.233008
0.23301
0.23301
0.23301
0.23301
0.23301
0.23301
0.23301
0.23301
0.23301
0.23301
0.23301
0.23301
0.23301
0.23301
0.23301
0.23301
0.23301
0.233008
0.233009
0.233
0.233
0.233002
0.233001
0.232974
0.23299
0.232993
0.232542
0.23276
0.23294
0.232873
0.230953
0.231488
0.231916
0.232262
0.22885
0.229425
0.230298
0.229523
0.227419
0.227658
0.22668
0.227243
0.223867
0.224476
0.225429
0.224993
0.221575
0.222047
0.222623
0.223217
0.22039
0.220461
0.220479
0.220531
0.219736
0.21976
0.219806
0.219856
0.219555
0.21958
0.218971
0.219365
0.218883
0.218933
0.218966
0.218923
0.219346
0.219672
0.219404
0.219358
0.21992
0.222709
0.223135
0.22093
0.220229
0.22053
0.221292
0.223959
0.223841
0.22341
0.223507
0.225731
0.232953
0.23138
0.223788
0.224153
0.232356
0.232695
0.232859
0.232956
0.232989
0.233001
0.233006
0.233008
0.233009
0.233009
0.233005
0.23299
0.232917
0.232575
0.231709
0.231093
0.2309
0.231021
0.231486
0.232285
0.232913
0.233005
0.23301
0.23301
0.23301
0.23301
0.23301
0.23301
0.23301
0.23301
0.23301
0.23301
0.23301
0.23301
0.23301
0.23301