/*--------------------------------*- C++ -*----------------------------------*\
  =========                 |
  \\      /  F ield         | OpenFOAM: The Open Source CFD Toolbox
   \\    /   O peration     | Website:  https://openfoam.org
    \\  /    A nd           | Version:  dev
     \\/     M anipulation  |
\*---------------------------------------------------------------------------*/
FoamFile
{
    version     2.0;
    format      ascii;
    class       volScalarField;
    location    "2500";
    object      omega;
}
// * * * * * * * * * * * * * * * * * * * * * * * * * * * * * * * * * * * * * //

dimensions      [0 0 -1 0 0 0 0];

internalField   nonuniform List<scalar> 
9842
(
1.2604
1.2814
1.23414
1.19451
1.39385
1.12019
1.08578
1.4046
1.33709
1.04115
1.03536
1.36297
1.41436
1.20372
1.0188
1.01185
1.25737
1.43995
1.34944
1.0998
1.01012
1.00158
1.13754
1.42486
1.41889
1.21406
1.05345
1.00481
0.996083
1.06969
1.37425
1.44425
1.33115
1.11629
1.02966
1.00155
0.991127
1.0298
1.27193
1.44508
1.40454
1.2005
1.06697
1.01365
0.999363
0.988212
1.00719
1.16148
1.42527
1.43534
1.29708
1.11297
1.03824
1.00354
0.996866
0.986699
0.994726
1.08474
1.37452
1.44862
1.37731
1.1771
1.06602
1.01771
0.997411
0.994525
0.986355
0.988184
1.03833
1.28329
1.44726
1.42088
1.25536
1.10055
1.03697
1.00301
0.99219
0.993164
0.987954
0.984622
1.01108
1.18024
1.42893
1.4408
1.33548
1.14732
1.05772
1.01616
0.993673
0.986816
0.992449
0.98975
0.980803
0.996443
1.09828
1.38322
1.452
1.39371
1.21246
1.08169
1.03055
0.99974
0.986468
0.982824
0.99173
0.991273
0.978051
0.987098
1.05011
1.30265
1.45119
1.4279
1.28608
1.11822
1.04491
1.00991
0.988141
0.979126
0.980088
0.991184
0.992037
0.976366
0.981066
1.01984
1.206
1.43631
1.44506
1.35355
1.17052
1.0634
1.02023
0.993337
0.979265
0.973462
0.977879
0.990782
0.991696
0.975326
0.977244
1.00156
1.11873
1.39698
1.4562
1.40173
1.2352
1.0905
1.0314
1.00084
0.980948
0.971036
0.969253
0.976156
0.990483
0.991036
0.975987
0.974502
0.990279
1.06846
1.32883
1.45647
1.4323
1.30177
1.13194
1.04521
1.00914
0.985366
0.971372
0.964467
0.965886
0.974838
0.990277
0.990657
0.97748
0.971368
0.983303
1.03622
1.24098
1.44607
1.44897
1.36032
1.18615
1.06602
1.01774
0.991455
0.973095
0.962832
0.959287
0.963187
0.97389
0.990173
0.990534
0.979055
0.968643
0.97797
1.01572
1.15897
1.41521
1.45945
1.40459
1.24691
1.0966
1.02822
0.997921
0.977099
0.963371
0.955776
0.955067
0.961098
0.973301
0.990143
0.990579
0.980009
0.966449
0.973478
1.0025
1.10001
1.35951
1.46308
1.43364
1.30564
1.14042
1.04278
1.00425
0.981992
0.965304
0.955019
0.950121
0.951757
0.959574
0.973034
0.990181
0.990665
0.980307
0.964519
0.969589
0.993167
1.06428
1.28547
1.45713
1.45222
1.35825
1.19213
1.06553
1.01163
0.986751
0.968941
0.955816
0.947708
0.945439
0.9493
0.958633
0.973051
0.990254
0.990715
0.980198
0.962816
0.966241
0.986049
1.04036
1.20865
1.43588
1.46239
1.40274
1.24797
1.09857
1.02215
0.991351
0.972925
0.958109
0.947984
0.941836
0.941899
0.94763
0.958268
0.973338
0.990406
0.990723
0.979605
0.961499
0.963438
0.980608
1.02499
1.14211
1.39051
1.46939
1.43302
1.29993
1.14237
1.03869
0.996871
0.976596
0.96154
0.949261
0.941212
0.93733
0.939366
0.946718
0.958541
0.973825
0.990599
0.990665
0.978955
0.961492
0.961202
0.976021
1.01629
1.10042
1.32882
1.46637
1.45397
1.3512
1.1908
1.06437
1.00478
0.980293
0.965061
0.952025
0.942035
0.935693
0.933943
0.937833
0.946582
0.959368
0.974479
0.990787
0.990607
0.97841
0.961526
0.958637
0.971886
1.00994
1.07399
1.25874
1.45168
1.46465
1.39612
1.24287
1.09896
1.0179
0.984786
0.968248
0.95537
0.944236
0.93628
0.93155
0.931719
0.937302
0.947376
0.960631
0.975308
0.990933
0.990581
0.978055
0.960995
0.956224
0.967742
1.00334
1.05659
1.1931
1.41764
1.4723
1.42934
1.29124
1.14137
1.03745
0.991481
0.971686
0.958891
0.947467
0.938072
0.932006
0.928725
0.93077
0.937957
0.949156
0.962326
0.976295
0.991011
0.990538
0.977817
0.960026
0.954269
0.964109
0.996648
1.04388
1.13872
1.36567
1.47149
1.45143
1.34022
1.18724
1.06448
1.00165
0.975967
0.96256
0.951446
0.941455
0.933704
0.929129
0.927435
0.931155
0.939974
0.951723
0.964502
0.977366
0.991004
0.990466
0.977518
0.959054
0.952631
0.9613
0.990646
1.03417
1.10451
1.30271
1.46266
1.46453
1.38309
1.23448
1.09859
1.01678
0.982111
0.96668
0.955844
0.945993
0.937289
0.930956
0.92788
0.927718
0.93305
0.943372
0.955177
0.967211
0.978384
0.990859
0.990382
0.977132
0.958018
0.951118
0.959069
0.98548
1.02612
1.07985
1.23519
1.43918
1.47138
1.42027
1.27971
1.13781
1.03749
0.990662
0.971585
0.960674
0.951287
0.942511
0.935013
0.930021
0.928263
0.929991
0.936571
0.948201
0.959904
0.970588
0.979496
0.990462
0.990317
0.976671
0.956963
0.949777
0.957136
0.980933
1.01863
1.06176
1.17158
1.39378
1.47217
1.44451
1.32351
1.18012
1.06414
1.00281
0.97761
0.965978
0.957218
0.948944
0.941079
0.934857
0.930822
0.930786
0.934614
0.942075
0.954399
0.966028
0.974673
0.981216
0.990325
0.990292
0.976076
0.955886
0.94854
0.955619
0.977048
1.01107
1.0474
1.12751
1.33778
1.46688
1.45956
1.36521
1.22203
1.09624
1.0189
0.985544
0.971703
0.963655
0.956577
0.948847
0.942184
0.936725
0.934056
0.935887
0.941792
0.950717
0.962237
0.972958
0.979754
0.983971
0.990629
0.990257
0.975226
0.954873
0.947385
0.954468
0.973877
1.00314
1.03503
1.09581
1.27096
1.45009
1.46576
1.40524
1.26377
1.13189
1.03908
0.99547
0.978294
0.970694
0.9646
0.958533
0.951824
0.945966
0.941561
0.940315
0.943826
0.95133
0.962226
0.97335
0.981011
0.984723
0.986737
0.991535
0.990182
0.973999
0.953993
0.946572
0.953474
0.970618
0.994595
1.02304
1.0706
1.20548
1.41346
1.46733
1.43224
1.3021
1.16958
1.06364
1.00768
0.985834
0.977933
0.973348
0.969184
0.963886
0.95825
0.953345
0.950355
0.950037
0.955004
0.964281
0.975299
0.985553
0.991189
0.990571
0.989949
0.996148
0.990807
0.990061
0.972321
0.953461
0.946631
0.95281
0.967508
0.985755
1.01054
1.04945
1.14706
1.3635
1.46395
1.44827
1.34322
1.2064
1.09164
1.02253
0.99443
0.985454
0.98242
0.980564
0.977727
0.973541
0.969032
0.966212
0.963993
0.96444
0.970649
0.980552
0.991811
1.00204
1.00661
0.999735
0.989849
0.992009
0.996669
0.991662
0.989519
0.97191
0.953922
0.948113
0.952826
0.963883
0.97646
0.997503
1.03041
1.10586
1.30614
1.45232
1.45713
1.38085
1.24277
1.12272
1.04017
1.0039
0.993189
0.991475
0.992255
0.992744
0.992083
0.989301
0.986991
0.98529
0.984464
0.985385
0.992046
1.00172
1.01266
1.02405
1.0149
1.02839
1.00044
1.02246
1.01856
0.991184
0.994091
0.996931
0.992828
0.991794
0.975369
0.954106
0.951062
0.953948
0.959747
0.966474
0.983554
1.01229
1.07269
1.24095
1.42634
1.4585
1.41277
1.27831
1.15426
1.06065
1.01443
1.0006
0.999731
1.00378
1.00845
1.01256
1.01435
1.01419
1.01384
1.01401
1.01485
1.01879
1.02439
1.03102
1.03992
1.03779
1.04973
1.03749
1.00585
1.03633
1.02696
0.992868
0.997085
0.997501
0.994631
0.992253
0.963261
0.955542
0.951767
0.955654
0.95627
0.956191
0.969506
0.994146
1.04382
1.17808
1.38695
1.45693
1.43226
1.31423
1.18616
1.08349
1.02596
1.00733
1.00681
1.01407
1.02354
1.03361
1.04255
1.04918
1.05506
1.06206
1.07559
1.09095
1.10133
1.09511
1.08245
1.06021
1.07877
1.05158
1.06609
1.0536
1.01221
1.0485
1.03773
0.995337
1.00136
0.99829
0.996951
0.992342
0.961426
0.947166
0.942387
0.953715
0.953293
0.945487
0.954904
0.976283
1.0178
1.12074
1.3384
1.45021
1.44396
1.35092
1.21636
1.10872
1.03865
1.01337
1.01268
1.02244
1.03733
1.05396
1.07192
1.09147
1.12212
1.16051
1.23403
1.33342
1.43217
1.47283
1.37323
1.11965
1.24536
1.08531
1.12876
1.07047
1.09042
1.06808
1.02089
1.06234
1.05013
0.998528
1.00691
0.999502
0.999716
0.992527
0.964008
0.943911
0.947764
0.935171
0.944672
0.933288
0.939266
0.958838
0.99409
1.07696
1.28401
1.43374
1.44778
1.38767
1.24903
1.13401
1.05332
1.0193
1.01705
1.02812
1.04855
1.07142
1.10011
1.14142
1.22156
1.38292
1.65157
2.09172
2.58628
3.00625
3.17818
1.63355
2.86176
1.25692
1.68298
1.13486
1.26729
1.08886
1.13438
1.08529
1.03198
1.07522
1.05987
1.00265
1.01442
1.00112
1.00305
0.992812
0.968755
0.943133
0.946849
0.942699
0.912211
0.918018
0.922672
0.941977
0.972584
1.04064
1.22212
1.40606
1.44762
1.41254
1.28046
1.1603
1.0704
1.02501
1.01998
1.03094
1.05333
1.08164
1.12196
1.19277
1.35805
1.77148
2.57379
3.79906
5.3028
6.57697
7.67665
5.5798
8.74992
2.9962
6.16742
1.71529
3.0954
1.27126
1.74184
1.13258
1.27299
1.12386
1.04095
1.10664
1.08334
1.00824
1.02309
1.00285
1.0072
0.992969
0.970762
0.940568
0.94317
0.952106
0.912085
0.886769
0.907085
0.924492
0.953306
1.00985
1.1614
1.3682
1.44487
1.42733
1.31833
1.18648
1.08908
1.03219
1.02091
1.03109
1.05393
1.08501
1.13578
1.23503
1.5184
2.27004
3.80791
6.01566
7.85387
8.77127
9.56275
9.74662
10.2234
8.98954
10.1443
6.41693
9.25857
3.19588
6.65881
1.76392
3.28802
1.26363
1.76132
1.2403
1.05689
1.20208
1.15336
1.01579
1.03623
1.0052
1.01287
0.993172
0.970661
0.939938
0.928471
0.945736
0.935249
0.878124
0.8816
0.909015
0.93449
0.983997
1.10607
1.32197
1.437
1.43646
1.35514
1.21533
1.1091
1.04099
1.02047
1.03023
1.0531
1.08493
1.13987
1.25779
1.65789
2.81334
5.07945
7.66265
8.77326
9.16986
9.50944
10.1821
10.0276
10.4797
10.438
10.4305
10.7584
9.53863
10.7439
6.88814
9.82653
3.34195
7.06221
1.72528
3.31357
1.65105
1.10243
1.53627
1.39774
1.02606
1.06509
1.00825
1.02061
0.992759
0.969667
0.938528
0.917281
0.920775
0.931425
0.892558
0.869853
0.885823
0.918423
0.961139
1.05908
1.27003
1.4197
1.43863
1.38866
1.24688
1.12998
1.05241
1.01984
1.02699
1.05003
1.08322
1.13876
1.25951
1.71233
3.2528
6.1272
8.55486
9.1523
9.15048
9.20962
9.68333
9.39544
10.2523
9.89731
10.7293
10.5518
11.0949
11.0845
11.0785
11.4676
10.0899
11.4038
7.11957
10.2896
3.19034
6.99569
2.95042
1.26287
2.59987
2.19292
1.04477
1.15863
1.01212
1.03198
0.992216
0.968394
0.93715
0.911216
0.896168
0.899626
0.893013
0.874461
0.873077
0.899586
0.941948
1.02272
1.21613
1.39129
1.43832
1.41051
1.2823
1.15424
1.06503
1.02037
1.02177
1.04232
1.07838
1.13371
1.25328
1.70587
3.41854
6.83659
9.00858
9.35724
9.20809
9.11043
9.19719
9.12595
9.59522
9.3635
10.2123
9.88305
10.9461
10.6242
11.4809
11.3891
11.853
11.91
11.6723
12.2006
10.4056
11.8844
6.64625
10.4029
6.02295
1.81262
5.11602
4.14165
1.09337
1.49289
1.01607
1.05529
0.992359
0.967174
0.936546
0.90745
0.88377
0.87135
0.877191
0.876412
0.874707
0.885904
0.925757
0.994034
1.16189
1.3546
1.43506
1.42332
1.32275
1.18046
1.08046
1.02248
1.01521
1.03316
1.06846
1.12171
1.23507
1.66537
3.39902
7.0923
9.25059
9.45964
9.31711
9.18403
9.18609
9.26133
9.25497
9.63469
9.52585
10.3018
10.0645
11.1368
10.8532
11.858
11.697
12.3485
12.342
12.4909
12.746
12.0519
12.7386
10.25
12.1538
9.90313
3.31083
9.18518
7.98683
1.26322
2.46066
1.02146
1.12499
0.993534
0.965609
0.936441
0.905894
0.877373
0.858742
0.857963
0.870413
0.876567
0.8831
0.913405
0.971196
1.11298
1.31174
1.42624
1.43041
1.36312
1.21302
1.09816
1.02778
1.00629
1.02332
1.05687
1.10592
1.20762
1.56598
3.27107
7.06098
9.36227
9.52476
9.31031
9.24303
9.31922
9.50829
9.52467
9.50097
9.50341
9.94512
9.9112
10.6511
10.54
11.4968
11.3659
12.2799
12.221
12.851
12.9226
13.1213
13.365
12.9791
13.4756
12.1771
13.1808
12.0678
6.32807
11.7408
11.1948
1.80398
4.49364
1.03519
1.36382
0.996876
0.964175
0.935855
0.906198
0.875589
0.854794
0.850392
0.858197
0.872797
0.883472
0.906151
0.953022
1.07018
1.26577
1.4078
1.43236
1.39201
1.24693
1.12123
1.03582
0.999665
1.0112
1.04272
1.09009
1.17828
1.44638
2.94967
6.86059
9.38945
9.57545
9.24831
9.02246
9.30939
9.56737
9.64286
9.88267
9.88633
9.909
9.90116
10.4977
10.4894
11.3214
11.3073
12.243
12.3122
13.0604
13.2872
13.6598
14.0565
13.9443
14.4882
13.8699
14.5548
13.3267
14.2507
13.4114
10.1511
13.4371
13.2715
3.17899
8.23032
1.08467
2.06192
1.01728
0.966393
0.934442
0.907509
0.878377
0.856865
0.849831
0.852515
0.864065
0.881631
0.903387
0.940837
1.03476
1.21903
1.38078
1.43158
1.41024
1.29007
1.14634
1.04852
0.998763
0.999125
1.02605
1.07284
1.14709
1.3416
2.49509
6.3534
9.37793
9.62609
9.2594
8.55412
8.50107
9.68683
9.55377
9.93777
10.1017
10.4087
10.4355
10.4729
10.4308
11.2975
11.279
12.3948
12.4177
13.5432
13.7539
14.5163
14.9372
15.164
15.8574
15.4005
16.3255
15.2286
16.3173
14.597
15.8599
14.9162
12.759
15.0994
15.1154
5.74051
11.7773
1.2875
3.70063
1.08746
0.981153
0.934868
0.909838
0.886271
0.866422
0.855004
0.852954
0.861049
0.878741
0.902574
0.93437
1.00836
1.17348
1.34682
1.42776
1.42097
1.3342
1.17793
1.06549
1.00026
0.985575
1.00823
1.05292
1.11663
1.26159
2.03498
5.50076
9.27765
9.70357
9.34304
8.53697
7.03123
8.40773
10.1704
10.1641
10.5774
10.8275
11.1714
11.2499
11.2223
11.1667
12.3992
12.3363
13.8386
13.8264
15.2629
15.4304
16.4202
16.7665
17.2168
17.836
17.4894
18.518
17.2579
18.6214
16.405
18.0888
16.8696
14.9299
17.1502
17.2366
9.73652
14.3225
1.90053
6.68145
1.04615
0.943263
0.916888
0.899946
0.882401
0.867524
0.859617
0.863243
0.879399
0.90276
0.931924
0.991004
1.13221
1.30866
1.41825
1.426
1.37111
1.2145
1.08745
1.00494
0.973507
0.990407
1.03033
1.09077
1.20014
1.66148
4.43733
8.98941
9.76542
9.56146
8.73757
6.90446
5.92361
9.68612
7.46246
10.8906
10.6313
11.5036
11.7203
12.2097
12.3392
12.2283
12.1848
13.761
13.6085
15.4227
15.3182
16.9282
16.813
18.1389
18.0911
19.1255
19.3082
19.7429
20.3277
19.6704
20.8848
18.7831
20.6128
19.299
17.0677
19.5976
19.6318
13.1375
16.6345
3.50171
10.6519
0.968765
0.933887
0.916782
0.902632
0.886772
0.875424
0.873483
0.884916
0.905498
0.932065
0.982794
1.09903
1.26951
1.39938
1.42738
1.39578
1.25829
1.11345
1.01583
0.969745
0.973497
1.00579
1.06545
1.15151
1.41943
3.33604
8.33816
9.75654
9.79081
9.32426
7.42985
5.23021
6.1921
5.15368
8.98638
7.13414
11.6152
10.9081
12.562
12.4709
13.3942
13.3643
13.4662
13.3892
15.0796
14.7796
16.5109
16.0862
17.8254
17.3261
19.1438
18.6959
20.4014
20.1625
21.4854
21.5205
21.9853
22.6888
21.4111
23.0175
21.9849
19.4133
22.3153
22.3963
20.8589
15.7326
18.8867
6.35827
14.088
0.957918
0.942071
0.927746
0.915942
0.901939
0.896215
0.900312
0.914871
0.935573
0.981909
1.07633
1.23172
1.3738
1.42609
1.41058
1.30495
1.14576
1.03312
0.970658
0.956535
0.981714
1.03598
1.11286
1.27905
2.39583
7.06605
9.75163
9.90455
9.83829
8.68218
5.80325
4.5786
5.81005
4.98535
8.25731
6.4953
11.9553
10.4714
13.2015
12.7575
14.0447
13.7712
14.4993
14.2598
15.6396
15.2075
16.7764
16.2238
18.0775
17.3841
19.6306
18.9717
21.2858
20.8884
22.7631
22.6728
23.9125
24.2185
23.9861
24.8605
24.3411
23.4144
24.5867
22.2682
20.4764
22.1259
23.6678
25.0935
24.8554
23.7084
18.0996
21.8153
21.5048
19.809
9.91642
17.2701
0.962318
0.974054
0.961
0.94733
0.933194
0.929065
0.93562
0.948948
0.984595
1.06705
1.19899
1.34408
1.42133
1.41923
1.35008
1.18455
1.05541
0.974642
0.943797
0.960103
1.00301
1.07727
1.19344
1.77567
5.36305
9.63449
9.91084
10.1719
9.64365
7.50953
4.78033
4.5065
4.26597
5.40429
4.78842
7.20037
5.82337
11.6087
9.32336
13.3099
12.3036
14.1306
13.5611
14.8299
14.4867
15.671
15.1264
16.6801
15.9423
18.2737
17.5337
20.5541
20.2683
22.7609
23.2281
23.8738
24.0269
24.298
24.8127
25.0642
25.3045
25.0089
25.9174
25.4725
25.4756
25.3247
26.0509
25.7585
25.7784
23.5895
23.3626
25.1105
26.3333
26.1118
25.0949
21.0627
18.9581
20.6363
23.0472
22.6488
13.8055
20.1751
20.0466
19.2423
1.00803
1.05805
1.03967
1.00699
0.981551
0.970549
0.976335
0.996645
1.0665
1.17859
1.31392
1.40962
1.42104
1.38012
1.22775
1.08283
0.983936
0.940126
0.940517
0.972051
1.03858
1.13517
1.43721
3.69642
9.15394
9.8411
10.2614
10.259
8.98499
6.17182
4.04305
4.36485
4.09019
5.08559
4.67398
6.25578
5.40068
10.135
7.80893
12.4672
10.4657
13.2214
12.0096
14.5765
13.9751
15.1721
14.3878
16.7616
15.956
19.9166
19.4016
23.8276
24.1428
25.443
26.2348
26.932
27.5927
25.4511
26.1916
27.1519
25.9779
26.243
26.589
27.6294
26.7544
26.4012
26.4937
26.973
26.6636
26.9471
24.9579
24.7034
26.4569
27.3132
27.5906
26.4569
22.1801
21.6688
24.3406
23.871
21.6937
24.2353
30.2265
21.1866
21.0941
1.18291
1.28194
1.21371
1.11164
1.04701
1.02252
1.02613
1.07191
1.17251
1.28872
1.39117
1.42035
1.39784
1.2779
1.11654
1.00157
0.941019
0.924468
0.946083
0.998021
1.08438
1.26168
2.47392
7.6442
9.80872
10.2212
10.6274
10.0112
8.07881
4.65598
3.84163
3.68627
4.27061
4.02126
4.90812
4.55058
5.80829
5.2034
8.3288
6.78524
10.4682
8.91197
11.9061
10.8449
13.6028
12.7949
15.1205
14.262
18.6641
17.8376
23.9524
23.3071
27.9725
28.1963
28.1435
27.9131
28.2118
29.2126
30.0191
30.5448
27.599
28.8548
30.2008
26.9856
27.5818
28.9209
30.1542
28.6332
27.2927
27.538
27.9085
27.6621
28.0369
26.3293
26.0632
27.7512
28.4564
28.7788
27.7718
23.3206
22.7155
25.6613
25.1277
23.5877
20.1995
24.7591
22.1435
22.1362
1.69807
1.83738
1.57486
1.28512
1.13559
1.08798
1.09459
1.17401
1.27537
1.37021
1.41697
1.40794
1.32315
1.15663
1.02655
0.945108
0.914939
0.925186
0.961532
1.03578
1.15616
1.75555
5.42799
9.74501
10.0754
10.7335
10.6475
9.50317
6.74317
3.58892
3.71412
3.51149
4.19023
3.94053
4.79253
4.47243
5.63707
5.11484
7.51949
6.40882
9.70962
8.55695
11.8038
10.994
13.4203
12.6029
16.9535
16.0313
22.2128
21.0727
27.5205
26.9435
26.335
25.5574
30.7669
30.7152
30.4211
29.9334
31.4476
32.4455
33.0974
33.3866
30.4883
32.1274
33.6267
28.3329
29.5202
32.0158
33.3957
31.2636
28.2839
28.484
28.8598
28.9892
29.0001
27.6525
27.3894
28.983
29.4502
29.8239
29.0317
24.477
23.7545
26.9739
26.3901
23.085
25.9323
33.1178
23.1109
23.0849
2.63906
2.80192
2.12534
1.50985
1.24427
1.16034
1.1884
1.27494
1.3551
1.40757
1.41082
1.35908
1.20153
1.05612
0.955419
0.912951
0.907467
0.931814
0.990287
1.0811
1.38232
3.53605
9.31287
9.84415
10.6644
11.0195
10.4385
8.68523
4.66197
3.29831
3.25735
3.61581
3.42856
4.10519
3.84476
4.72916
4.39525
5.59716
5.08335
7.37159
6.33712
10.1659
9.20774
13.6269
12.8867
15.1614
14.3612
19.9066
18.7517
25.0843
23.4603
29.2846
28.5318
27.7069
26.8876
33.338
33.0058
32.4301
31.6652
34.828
35.6448
36.017
36.0288
33.9473
35.7161
37.1502
30.2765
32.2054
35.6298
37.1292
34.6002
29.5509
29.3838
30.0308
30.8913
29.8659
28.9246
28.664
30.0881
30.302
30.6963
30.1951
25.6451
24.8358
28.24
27.6231
26.0022
19.6032
34.7777
24.2942
24.8443
3.55238
3.57534
2.66254
1.72182
1.34545
1.24615
1.28603
1.35346
1.39782
1.40798
1.37969
1.24923
1.09149
0.974759
0.914245
0.895743
0.909586
0.949532
1.02277
1.18895
2.28749
7.57822
9.70238
10.4041
11.1396
11.0202
9.9836
7.19256
3.3005
3.20523
3.07801
3.5386
3.35472
4.04007
3.76838
4.68371
4.34393
5.64445
5.07144
7.85975
6.53729
12.0726
10.6083
15.5744
14.5337
17.6386
16.5791
21.8769
20.3541
26.7471
25.6624
23.8415
24.8386
30.7673
29.7918
28.7807
27.7657
35.6786
35.0228
34.1278
33.0595
38.1643
38.6885
38.7755
38.4695
37.6769
39.377
40.6323
32.9657
35.5968
39.4819
41.0848
38.4215
31.3577
30.4516
31.7059
33.5314
30.8264
30.1249
29.8844
31.0113
31.1779
31.5278
31.2169
26.8366
26.0778
29.4667
28.8447
27.9131
19.3252
29.0499
25.8233
26.8279
4.15438
4.01722
3.04147
1.88306
1.42955
1.3346
1.36273
1.39754
1.40292
1.38865
1.29558
1.13421
1.00088
0.919526
0.891249
0.892723
0.917977
0.975872
1.07823
1.59831
4.94795
9.53946
10.0548
11.066
11.3697
10.8192
9.08369
4.8212
2.92168
2.97292
3.11763
2.99686
3.46115
3.27118
3.97492
3.69458
4.64835
4.2895
5.64047
5.03306
8.31419
6.62029
13.1999
11.006
16.365
15.0062
18.9528
17.6168
23.0447
22.1076
20.9334
27.1445
26.0663
24.0938
25.0701
31.8868
30.6706
29.4602
28.2792
37.7637
36.7484
35.5016
34.1037
41.3677
41.5757
41.4133
40.7364
41.464
43.0004
44.0291
36.3731
39.4844
43.3848
45.0969
42.4711
33.8949
31.9604
34.0883
36.906
32.1517
31.2344
31.0508
31.8579
32.3286
32.5367
32.1237
28.0997
27.5236
30.6594
30.0876
28.7334
14.4685
27.6824
27.6319
28.689
4.51973
4.26378
3.26009
1.98037
1.49605
1.40314
1.40696
1.40404
1.39023
1.32775
1.18189
1.03569
0.931398
0.891367
0.881578
0.895629
0.93642
1.00805
1.25589
3.07475
8.95433
9.7466
10.7573
11.4949
11.3626
10.3035
7.41996
3.13168
2.86206
2.79684
3.06875
2.94456
3.40504
3.21897
3.91713
3.63878
4.59647
4.23223
5.56474
4.95709
8.30085
6.54427
13.3174
10.6739
16.3174
14.5075
19.3367
17.793
23.1816
22.2943
20.9975
20.0084
27.2309
26.1071
24.0268
25.0517
32.6405
31.1818
29.777
28.4519
39.6586
38.265
36.6495
34.908
44.4459
44.4524
43.9772
42.9859
45.2251
46.5829
47.3682
40.3078
43.6168
47.2747
49.1197
46.5897
37.1786
34.1395
37.2293
40.8335
34.0822
32.2547
32.1624
32.7763
33.9987
33.9308
33.028
29.4706
29.1474
31.8353
31.3759
30.1428
10.4807
27.3843
29.4954
30.6375
4.75062
4.40102
3.35301
2.0169
1.54055
1.44314
1.41508
1.39448
1.34605
1.22229
1.07729
0.956663
0.894025
0.876742
0.880429
0.905124
0.960295
1.08817
1.97193
6.80407
9.57567
10.2912
11.432
11.6945
11.1201
9.26544
4.74691
2.69075
2.80968
2.79317
2.72333
3.01877
2.89069
3.36713
3.1749
3.86634
3.60042
4.52503
4.16765
5.43042
4.86309
7.84147
6.32028
12.3433
9.34474
14.8006
12.6347
19.1692
18.1708
16.6995
23.025
22.0203
20.4776
19.5068
27.0927
25.8799
23.6385
24.7385
33.1439
31.4414
29.8597
28.4145
41.5614
39.8118
37.8418
35.7585
47.5677
47.4441
46.7419
45.5102
48.971
50.2039
50.8552
44.5048
47.8293
51.1889
53.2001
50.7356
41.0633
37.0716
41.0194
45.0621
36.7593
33.2078
33.2049
33.9323
36.3146
35.8202
34.0045
30.937
30.8444
33.0488
32.7284
32.268
6.87254
27.4016
31.4025
32.9431
4.90521
4.47418
3.3585
2.01227
1.56451
1.45143
1.40835
1.36043
1.25279
1.11652
0.989766
0.903277
0.87661
0.872092
0.884041
0.924522
0.998432
1.40423
4.21175
9.23694
9.8555
11.1589
11.8207
11.6594
10.5214
7.26984
2.99057
2.65548
2.63336
2.76346
2.68593
2.99657
2.86619
3.35073
3.15518
3.84412
3.58566
4.45945
4.12099
5.28258
4.79811
7.13387
6.03518
10.2203
7.99065
14.0275
12.6679
11.1635
18.5818
17.7314
14.9928
16.1825
22.5629
21.5048
20.3709
19.3295
27.0328
25.7925
23.5488
24.647
33.6903
31.7414
29.9758
28.4103
43.8297
41.8047
39.5377
37.1496
50.9904
50.7844
50.0269
48.7297
52.8251
54.0379
54.7408
48.7859
52.079
55.2591
57.4602
54.9527
45.3165
40.7135
45.2763
49.4122
40.093
34.0849
34.2785
35.3549
39.146
38.0121
35.0034
32.4748
32.5785
34.2585
34.0915
35.1072
5.59141
29.5191
33.4838
35.6148
5.01853
4.51213
3.31865
1.99681
1.56911
1.44629
1.3827
1.28195
1.15149
1.02352
0.926555
0.879898
0.870299
0.872867
0.897554
0.943594
1.13151
2.60313
8.34565
9.5414
10.5724
11.7745
11.9846
11.3562
9.25193
4.20949
2.56123
2.68998
2.59792
2.5671
2.74703
2.66085
2.98849
2.85489
3.34633
3.14844
3.83773
3.58276
4.42406
4.10221
5.22787
4.78049
6.68695
5.843
8.97394
7.54178
14.1414
12.931
12.2684
10.6505
18.3058
17.2751
15.4647
16.7321
22.4781
21.4209
21.6637
20.5068
27.7405
26.5925
24.6391
25.5826
34.8051
32.6362
30.7379
29.1193
46.9543
44.7987
42.367
39.7875
54.9238
54.8419
54.2254
53.0951
56.9722
58.3094
59.2706
53.111
56.4116
59.6591
62.0702
59.3609
49.7633
44.7414
49.518
53.8593
43.6026
35.1662
35.3152
36.8992
42.0112
40.3115
36.5911
33.9971
34.3627
35.3654
35.3411
39.0487
6.02704
37.6604
35.6068
37.7285
5.11355
4.53538
3.26591
1.98535
1.56624
1.42897
1.31825
1.18686
1.05736
0.954126
0.89279
0.87188
0.869921
0.881281
0.908365
0.999314
1.71349
5.86425
9.34806
10.0614
11.5429
12.1164
11.8966
10.614
6.69631
2.83161
2.53139
2.52873
2.57925
2.5331
2.74193
2.65147
2.98949
2.85242
3.36504
3.15585
3.85088
3.60738
4.41422
4.09914
5.23164
4.80479
6.53172
5.79255
9.4916
8.3301
7.4678
15.6728
13.9102
14.2915
12.2276
19.2885
18.0314
17.5591
19.465
23.7034
22.7215
25.813
24.5458
30.3348
29.4758
28.2088
28.8086
37.2673
34.9808
33.0548
31.488
51.4715
49.4144
47.0229
44.4169
59.7288
59.839
59.6221
58.8651
61.6115
63.2422
64.5678
57.5595
60.9642
64.5886
67.2508
64.1554
53.9003
48.4048
52.9474
57.8203
46.7862
36.3302
36.3091
39.5557
45.0849
44.4006
38.4242
35.5469
36.0918
36.4281
36.7199
44.1464
13.2763
55.2297
37.1386
38.8518
5.20545
4.56091
3.2427
1.989
1.56278
1.38425
1.23176
1.09444
0.982999
0.913935
0.879677
0.87098
0.875495
0.890112
0.933264
1.26617
3.65116
8.89331
9.61197
10.9994
12.0885
12.2224
11.4909
8.95923
3.64631
2.45052
2.4761
2.46427
2.57269
2.51224
2.74331
2.64937
3.01527
2.86444
3.40928
3.19342
3.89614
3.65264
4.43297
4.12724
5.36546
4.92159
6.52456
5.85999
10.3778
8.87299
7.3861
8.38806
19.2096
16.6545
17.6806
14.7754
23.0368
21.3463
21.9004
24.4923
27.5607
26.7879
31.9874
30.6774
35.2415
34.6165
33.8957
34.2218
41.8301
39.4906
37.6126
36.225
57.5992
55.8865
53.7644
51.3427
65.5451
66.0482
66.1699
65.9937
66.9394
69.0457
70.9111
61.4542
65.0636
70.2991
72.6982
68.8022
57.1652
51.7463
56.8279
61.4075
50.708
37.7499
37.6297
42.4498
50.7817
48.5958
40.9376
37.0511
37.5552
37.8767
38.193
45.4097
66.6431
65.5664
38.3776
39.0422
5.30268
4.60246
3.26333
2.0188
1.55208
1.31748
1.14724
1.01875
0.937965
0.897662
0.87726
0.87571
0.885111
0.902575
1.05546
2.37266
7.72148
9.32374
10.3373
11.9086
12.3746
12.0498
10.4978
5.73886
2.60957
2.37231
2.42933
2.35495
2.45575
2.57226
2.50642
2.76235
2.65561
3.05408
2.89595
3.46459
3.23924
3.96129
3.72023
4.5131
4.19385
5.59219
5.08981
6.80417
6.14498
12.233
10.038
7.92698
9.50119
23.9965
20.8164
21.6447
18.1978
28.9605
26.9202
27.11
29.9369
33.4837
32.8897
38.0554
36.6343
41.9101
41.1647
40.2584
40.6706
48.8325
46.443
44.4601
42.9856
65.2662
64.0593
62.4063
60.393
72.4261
73.5657
74.2227
74.4774
73.2697
76.1012
78.7231
66.0952
71.1399
76.7507
82.2624
76.5707
62.4463
56.9737
64.1064
69.0177
58.5024
40.1371
39.8776
46.8471
57.0149
56.3573
45.5329
38.7528
39.8664
40.0343
40.7332
43.7709
86.2308
92.9914
39.0176
38.9435
5.40841
4.66756
3.34232
2.08095
1.53262
1.25426
1.0799
0.97426
0.921491
0.894273
0.881099
0.886625
0.893638
0.962247
1.67282
5.65409
9.08947
9.83334
11.4764
12.3723
12.3915
11.466
8.27527
3.15376
2.32546
2.40125
2.33982
2.31229
2.44623
2.58042
2.50603
2.79401
2.67697
3.09993
2.93383
3.54187
3.29998
4.04865
3.80522
4.63679
4.29092
5.91471
5.3423
7.66573
7.00662
6.57358
14.8887
11.8921
8.97019
11.2202
28.134
24.9866
24.7417
21.4321
34.7347
32.5391
31.1715
33.9985
39.7913
39.1072
43.5278
41.7326
50.005
48.8098
46.9943
47.8641
58.1233
55.7113
53.4253
51.4997
74.5034
74.0465
73.0709
71.6943
80.9125
82.6625
83.9744
84.8703
80.8651
85.0585
89.0148
76.3288
84.1016
88.2149
102.419
92.687
72.4884
67.7674
79.1562
82.4201
67.8631
44.4907
44.0258
55.5838
70.4556
70.9066
54.2255
42.4682
41.5903
44.7148
46.3525
45.8933
68.5783
101.269
40.1677
39.7549
5.52245
4.75793
3.47266
2.18618
1.52802
1.21288
1.04528
0.962032
0.920223
0.897452
0.895653
0.894748
0.927905
1.31294
3.84278
8.59143
9.41703
10.8612
12.2555
12.5675
12.0762
10.0159
4.45653
2.40904
2.22176
2.3898
2.32643
2.27752
2.44403
2.59794
2.51137
2.82957
2.70461
3.16014
2.97977
3.63011
3.37509
4.1539
3.90816
4.82212
4.42061
6.44967
5.71789
8.46353
7.55165
6.90565
7.57591
17.8678
14.3024
10.2804
13.138
30.5613
27.6916
26.119
23.323
39.3519
36.81
33.6156
36.7685
46.0889
45.0346
49.4244
46.9515
60.5019
58.5221
55.2101
56.8064
69.9191
67.6835
65.223
62.7241
85.3297
85.546
85.5662
84.8679
92.2977
94.7206
96.6267
97.8031
94.0038
100.141
107.507
94.135
110.261
115.563
156.657
128.693
93.0031
81.6278
99.2926
112.073
87.4148
53.1587
52.9375
69.4944
88.6323
87.6319
67.4556
45.3605
45.1498
52.7182
50.809
53.0608
68.8567
91.5352
42.4274
42.8373
5.64239
4.86865
3.63322
2.35737
1.55719
1.20863
1.04389
0.966108
0.928453
0.919436
0.90511
0.922761
1.14103
2.77619
7.74774
9.13188
10.2418
11.936
12.5944
12.4495
11.18
6.80511
2.70248
2.19581
2.20168
2.26014
2.16659
2.38154
2.31357
2.44501
2.62008
2.52303
2.87122
2.73588
3.2279
3.03445
3.73464
3.45792
4.27869
4.02418
5.09095
4.59241
7.52937
7.55948
6.9146
6.36343
9.50669
8.26157
8.17108
20.2944
16.7309
11.9181
15.1374
31.7611
28.8039
26.4918
23.8913
43.6511
40.2945
35.3139
39.3221
53.4935
51.7966
56.6718
53.3404
74.4162
71.3546
65.7692
68.3219
83.8793
82.2146
80.1362
77.2884
98.7318
99.2959
99.6015
99.4459
111.872
115.496
117.238
118.273
130.732
154.36
183.872
147.979
189.37
187.61
217.229
192.135
124.764
109.434
150.564
159.863
113.374
65.2455
62.7596
85.2066
114.668
113.686
81.9685
51.7528
48.7077
59.6037
61.3807
54.2466
49.143
99.4119
45.8691
47.49
5.76404
4.99279
3.804
2.57954
1.63678
1.23826
1.0627
0.987871
0.961374
0.935699
0.930516
1.07409
2.17374
6.58706
8.92522
9.76719
11.4674
12.532
12.6529
11.9045
8.98887
3.40341
2.22471
2.09677
2.23679
2.16759
2.13799
2.37785
2.30201
2.44917
2.6435
2.53699
2.91597
2.76956
3.30188
3.09208
3.85513
3.55461
4.43423
4.15635
5.5132
4.84239
8.23583
8.14161
7.65958
7.60741
10.8624
9.06506
9.03336
21.2911
18.3764
13.6156
16.423
32.6049
29.1694
26.5222
23.9507
48.7408
44.1949
37.161
42.5794
62.7435
60.2938
65.6464
61.3767
90.9744
87.6635
79.301
82.8824
98.7643
97.4072
96.3268
94.0363
118.888
119.124
119.319
117.683
180.57
180.498
181.185
173.379
191.005
195.293
422.271
198.11
478.214
458.304
450.003
484.357
194.582
158.984
208.039
194.297
165.666
78.4272
74.3179
111.296
168.272
168.583
107.476
56.4537
53.9567
77.6414
68.53
58.0825
22.0632
109.953
51.7496
52.4325
5.88318
5.12584
3.99206
2.83987
1.77918
1.30741
1.11752
1.04063
0.992233
0.961675
1.06558
1.87098
5.49524
8.68835
9.40465
10.9667
12.3413
12.7232
12.3485
10.4147
4.82317
2.34004
2.05528
2.04076
2.22392
2.14554
2.10799
2.37395
2.2935
2.45414
2.66748
2.55121
2.96172
2.80366
3.38283
3.15305
3.98758
3.66085
4.64232
4.30369
6.23214
5.24635
9.16207
9.24805
8.46716
9.59975
9.92914
8.50465
12.5261
10.2452
10.2019
21.5451
19.034
15.0097
17.2154
33.8406
29.4269
26.6445
23.95
55.2145
49.2757
39.9916
47.1031
74.2058
70.9181
76.6604
71.3503
106.852
104.885
95.4656
99.1203
116.361
112.437
110.79
110.287
171.614
161.066
160.02
150.678
424.44
400.13
408.577
397.932
465.207
404.654
836.484
479.773
902.153
879.317
854.676
905.124
489.993
225.313
484.267
477.948
232.664
101.398
108.75
167.368
236.101
238.162
162.458
66.1873
62.0081
88.3778
85.3833
66.2346
203.947
147.173
56.4114
53.9455
5.99792
5.26374
4.18537
3.1169
1.99679
1.42908
1.20461
1.09527
1.03009
1.08382
1.76592
4.72498
8.36819
9.12996
10.4529
12.0276
12.7042
12.5991
11.3896
6.88156
2.66438
2.05364
1.97032
1.96264
2.07586
2.19743
2.11525
2.37201
2.27889
2.45742
2.68898
2.56373
3.00713
2.836
3.46627
3.21516
4.12646
3.77185
4.96396
4.47593
7.51776
5.94291
10.6613
10.7963
11.4359
11.6478
10.0761
14.1345
11.9002
11.9828
21.6565
19.3805
16.2068
17.9311
36.1974
30.1854
27.5371
24.3665
63.4859
56.1307
44.1042
53.4687
88.1454
83.9593
89.6568
83.3516
121.569
119.368
110.761
113.348
149.132
139.464
125.679
125.985
398.732
387.19
389.031
384.623
847.089
798.691
817.161
808.408
895.486
801.588
2486.22
890.634
2530.54
2511.76
2473.61
2532.41
923.826
490.477