/*--------------------------------*- C++ -*----------------------------------*\
  =========                 |
  \\      /  F ield         | OpenFOAM: The Open Source CFD Toolbox
   \\    /   O peration     | Website:  https://openfoam.org
    \\  /    A nd           | Version:  dev
     \\/     M anipulation  |
\*---------------------------------------------------------------------------*/
FoamFile
{
    version     2.0;
    format      ascii;
    class       volScalarField;
    location    "2500";
    object      p_rgh;
}
// * * * * * * * * * * * * * * * * * * * * * * * * * * * * * * * * * * * * * //

dimensions      [1 -1 -2 0 0 0 0];

internalField   nonuniform List<scalar> 
9842
(
0.00448441
0.00594818
0.00498009
0.00607018
0.00873347
0.00463362
0.00554535
0.0100412
0.00854521
0.00357705
0.00514029
0.0104292
0.0116323
0.00798339
0.00294298
0.00450447
0.00943409
0.0130331
0.0112096
0.00696446
0.00242825
0.00399594
0.00912591
0.0138137
0.0139584
0.0101144
0.00591656
0.00211821
0.00382556
0.00806869
0.0135492
0.0154544
0.0132996
0.0090976
0.00501355
0.00171138
0.00339349
0.0072063
0.0131305
0.0161288
0.0158319
0.012217
0.00801809
0.004346
0.00123478
0.00301702
0.00722535
0.0122541
0.0162048
0.0173729
0.0149912
0.0111089
0.00730015
0.00399786
0.000991867
0.00301413
0.00680223
0.0108095
0.0153836
0.018187
0.0175741
0.013635
0.0101365
0.00645174
0.00358521
0.000726202
0.0027745
0.00600537
0.00950439
0.0150596
0.0188514
0.0190629
0.016768
0.0128051
0.00911356
0.00604165
0.00315683
0.00043765
0.00249431
0.00550542
0.00947776
0.0146059
0.0187674
0.0202084
0.018938
0.0154331
0.0117904
0.00828525
0.00568148
0.00286612
0.00020028
0.00234007
0.0054259
0.00917999
0.0138559
0.0181306
0.0207074
0.0204857
0.0180184
0.0142575
0.010839
0.00784547
0.00534882
0.00271932
2.81507e-05
0.00211604
0.00519926
0.00835724
0.0126717
0.0170874
0.0207471
0.0218319
0.0201802
0.0168367
0.0132413
0.0103369
0.00758854
0.0048974
0.00240762
-0.000223121
0.00188234
0.00467433
0.0080979
0.0119174
0.0164559
0.0206614
0.0224348
0.0219825
0.0195729
0.0157172
0.01255
0.00979028
0.00732217
0.00483999
0.00228483
-0.000377009
0.00158537
0.00432803
0.00773009
0.011337
0.0155068
0.020001
0.0226969
0.0233248
0.0216641
0.0179567
0.0149262
0.0120807
0.00951913
0.00686341
0.00467219
0.00214434
-0.000389883
0.00136251
0.00409247
0.00716942
0.0107278
0.0143325
0.0195723
0.0226006
0.0241067
0.023381
0.0207493
0.017007
0.0142996
0.011672
0.00922656
0.00689381
0.00454905
0.00208992
-0.000474771
0.00123312
0.00395768
0.00686244
0.0100573
0.0138235
0.0191206
0.0223541
0.02447
0.0247044
0.0231972
0.0196224
0.016601
0.0139139
0.0114154
0.00886679
0.00679262
0.00442171
0.00199935
-0.00053615
0.000933084
0.00361976
0.00631125
0.00947995
0.0127
0.0180201
0.022024
0.0244463
0.0255407
0.0248482
0.021599
0.0187757
0.0160518
0.013546
0.0110733
0.00890527
0.0066575
0.00438071
0.00199425
-0.000566281
0.000700275
0.00329039
0.00613288
0.00929943
0.0121151
0.0171055
0.0212336
0.0244659
0.0263262
0.0260456
0.0240365
0.0207865
0.0181884
0.0155908
0.0132914
0.0109257
0.00882085
0.00658978
0.00428131
0.00198715
-0.00049365
0.000423929
0.00310275
0.00573651
0.00857134
0.0120225
0.0158924
0.0200105
0.0244607
0.0266624
0.0270781
0.0257338
0.0228414
0.020199
0.0177387
0.0154409
0.0130613
0.0109375
0.00872503
0.0064844
0.00430012
0.00197025
-0.000480882
0.000312921
0.00276591
0.00541023
0.0084145
0.0117925
0.0149569
0.0201378
0.0243009
0.0267029
0.0279335
0.027414
0.0248659
0.0220888
0.0198057
0.0174245
0.0151302
0.0130194
0.0108651
0.00864386
0.00651663
0.00427789
0.00202014
-0.0003813
6.88524e-05
0.0025071
0.00513917
0.00800718
0.0113877
0.0145606
0.0192134
0.02349
0.0266273
0.0283105
0.0285224
0.0269355
0.024319
0.0219486
0.0196091
0.0172707
0.0149732
0.0129741
0.0108328
0.00866595
0.00650493
0.00429384
0.00207045
-0.000310782
-0.000136235
0.00222984
0.00445186
0.00763001
0.0108673
0.0143351
0.0185016
0.0229661
0.0263875
0.0285012
0.0293031
0.0285818
0.0262831
0.0237193
0.0215346
0.0193545
0.0171909
0.0150558
0.0129561
0.0107921
0.00865353
0.00650915
0.0043231
0.00211513
-0.000209925
-0.000420174
0.0019877
0.0042542
0.00694257
0.0104136
0.0139675
0.017874
0.0221608
0.0258734
0.0285093
0.0298392
0.0297734
0.028283
0.0257997
0.023564
0.0212966
0.0192202
0.0171416
0.0150554
0.0128645
0.010779
0.00859514
0.00649322
0.00437927
0.00220564
-7.32236e-05
-0.000594219
0.00172205
0.00414201
0.0067198
0.00995646
0.0134559
0.0172351
0.0213745
0.0251591
0.0282724
0.030132
0.0306121
0.0296895
0.0278233
0.0254459
0.0234
0.0212415
0.0190708
0.0171347
0.0150272
0.0128672
0.010715
0.00862045
0.00650906
0.0043914
0.00228023
5.11917e-05
-0.000813876
0.00136887
0.00382756
0.00646354
0.00940432
0.0130915
0.0165789
0.0204828
0.024564
0.0280055
0.0302289
0.0312023
0.0308642
0.0294086
0.027098
0.0252785
0.0231683
0.0213141
0.0192036
0.01712
0.0150015
0.0128642
0.0106613
0.00858474
0.0064566
0.00441724
0.00236604
0.0002207
-0.00103886
0.0010856
0.00350832
0.00615891
0.00905278
0.0124679
0.0161151
0.0199809
0.023896
0.0274168
0.030041
0.0315717
0.0318239
0.0305657
0.0289956
0.0269671
0.0251385
0.0232712
0.0212474
0.0191864
0.0171619
0.0149636
0.0127885
0.0106388
0.00850276
0.00643821
0.00443339
0.00245414
0.000403505
-0.00127722
0.000811336
0.00316867
0.00577694
0.00864491
0.0119386
0.0155797
0.0192842
0.0231735
0.0267828
0.029716
0.0317295
0.0324638
0.0320615
0.030448
0.0285954
0.0270282
0.0252238
0.0233426
0.021285
0.0193006
0.0171368
0.0148949
0.0126945
0.0104913
0.00837441
0.00638132
0.00446703
0.00255793
0.000550273
-0.00147232
0.000542099
0.00282378
0.00536564
0.00820472
0.0114737
0.0149326
0.0187896
0.0225746
0.0261651
0.029382
0.0316421
0.0328323
0.0330681
0.0321208
0.0299925
0.0287866
0.0270697
0.0251249
0.0234462
0.0213684
0.0192815
0.0170968
0.0148089
0.0125365
0.0103247
0.00824432
0.00629139
0.0044696
0.00271788
0.00077779
-0.00166281
0.000316311
0.00245121
0.00498053
0.00784267
0.0110035
0.0142525
0.0181108
0.0217334
0.0254836
0.0287627
0.0313411
0.0330022
0.0336069
0.0331559
0.0317228
0.0303163
0.0288543
0.0271239
0.0255331
0.0235126
0.0214931
0.0192929
0.0169764
0.0146313
0.0122976
0.0100965
0.00806531
0.00622916
0.00454506
0.00287584
0.00102803
-0.0018067
2.30176e-05
0.00216745
0.00458802
0.00739551
0.0104705
0.0137522
0.0173513
0.0209002
0.0247747
0.0279267
0.0308874
0.0328731
0.0339163
0.034008
0.0334276
0.0317286
0.0305203
0.029015
0.0274919
0.0254988
0.0237309
0.0215384
0.0191976
0.0167989
0.014338
0.0119768
0.00980556
0.00787795
0.00620084
0.00468401
0.00311323
0.00129602
-0.00192754
-0.000210115
0.001814
0.00423525
0.00698338
0.00988521
0.0131669
0.0165442
0.0202815
0.023936
0.0272954
0.0304054
0.0325944
0.0340349
0.0345177
0.0343113
0.033121
0.0318617
0.0308589
0.0291433
0.0277375
0.025708
0.0238225
0.0215248
0.0190448
0.0164817
0.0139358
0.011559
0.00946745
0.00770037
0.00622152
0.00483503
0.00340165
0.000303881
0.00163431
-0.00202337
-0.000408475
0.00150672
0.00380891
0.00646574
0.00939296
0.0126145
0.0158482
0.0194004
0.0229989
0.0264972
0.0296283
0.0321402
0.0339355
0.034833
0.0349598
0.0342192
0.0333901
0.0322915
0.030849
0.0295973
0.0280194
0.0259551
0.0239058
0.0214424
0.0187359
0.0160178
0.0133906
0.0110489
0.00909646
0.00754445
0.00626971
0.00474516
0.00283617
0.00393026
0.000454118
0.00179355
-0.00207041
-0.000610491
0.00121139
0.00342067
0.00605613
0.00890073
0.0119352
0.0152043
0.0186306
0.0222411
0.0257047
0.0288948
0.0315106
0.0336034
0.0348963
0.0353693
0.0350336
0.0344172
0.0337711
0.0328798
0.0314045
0.0299921
0.0282523
0.0261988
0.0239306
0.021191
0.0182422
0.0153622
0.0126957
0.0104479
0.00870015
0.00741478
0.00614251
0.00665437
0.00489414
0.00556886
0.00574491
0.00303561
0.0041759
0.000636018
0.00203164
-0.00206188
-0.000731821
0.000961383
0.00303086
0.00558298
0.00838099
0.0113289
0.0144402
0.0178012
0.0212553
0.0246858
0.0279647
0.0308019
0.0331101
0.0347
0.035574
0.0357812
0.0351447
0.0347796
0.0344564
0.0336901
0.0320567
0.0304789
0.0286432
0.0263588
0.023787
0.0207422
0.0175239
0.0145056
0.0118522
0.00975819
0.0083103
0.00716373
0.00757915
0.00637375
0.00520285
0.00644966
0.00611147
0.00333201
0.00452981
0.00084123
0.00231461
-0.0021115
-0.000728496
0.000760028
0.00271259
0.00508499
0.00782608
0.0106984
0.0137252
0.0170152
0.0203086
0.0236265
0.0269752
0.0299503
0.0324231
0.034301
0.0354432
0.0360999
0.036095
0.0354795
0.0351112
0.0349643
0.0342852
0.0327529
0.0310974
0.0290169
0.0264049
0.0234767
0.0201249
0.0166437
0.0135542
0.0109254
0.00907707
0.00795612
0.00827433
0.00702814
0.00754911
0.00706764
0.00561254
0.00688367
0.0065678
0.00369173
0.00496374
0.00106952
0.00263834
-0.00208536
-0.000918606
0.000863179
0.00248079
0.00462286
0.0072186
0.00998867
0.0129297
0.0160379
0.0193983
0.0226561
0.0260328
0.0290483
0.0315833
0.0336979
0.0352691
0.0361028
0.0364176
0.0364271
0.0360672
0.0356236
0.0357604
0.0350918
0.0333658
0.0317496
0.0293718
0.0264332
0.023292
0.0199408
0.0165197
0.0133498
0.0104784
0.00862411
0.00915917
0.00797173
0.0083693
0.0075929
0.0080297
0.00752764
0.00611509
0.0073828
0.00713187
0.00411194
0.00547776
0.00133565
0.00301273
-0.00209638
-0.00106895
0.000563942
0.00255651
0.00425725
0.00663038
0.00935664
0.0122563
0.0151685
0.01842
0.0215187
0.024866
0.0279403
0.0306659
0.0329414
0.034678
0.0358879
0.0364259
0.0368125
0.0367867
0.0366982
0.0365814
0.0366361
0.0357866
0.0342848
0.0325077
0.0302323
0.0278424
0.0258865
0.0243064
0.0224449
0.0193314
0.0104745
0.0146759
0.00893259
0.0103152
0.00844067
0.00902775
0.00806406
0.00855162
0.00806752
0.00671793
0.00801161
0.00782334
0.00460321
0.00608497
0.0016432
0.0034448
-0.00205675
-0.00111733
0.000264715
0.00218087
0.00420684
0.00615648
0.00850757
0.0114142
0.0143263
0.0175006
0.0205288
0.023803
0.0268506
0.0296144
0.0320472
0.0340083
0.0353718
0.0362625
0.0368386
0.037212
0.0374111
0.0372881
0.0375868
0.0377334
0.0369481
0.0357287
0.0349509
0.0355826
0.0384973
0.0441514
0.0508828
0.0557627
0.0270146
0.0593401
0.0146315
0.0279751
0.0104719
0.0150394
0.00920942
0.010774
0.00868704
0.00946637
0.00880249
0.00744214
0.00883063
0.00869291
0.00517327
0.00679945
0.00198452
0.00392967
-0.00192323
-0.0012217
5.81967e-05
0.00174626
0.00380926
0.00590853
0.00799787
0.0106463
0.0134378
0.0164
0.0194478
0.0225245
0.0256612
0.0284825
0.031077
0.0331342
0.0347585
0.0359685
0.0366675
0.0372682
0.037624
0.0380007
0.0380791
0.0386296
0.0388524
0.0386856
0.0403872
0.0471257
0.0613013
0.0843252
0.109341
0.133012
0.100553
0.153236
0.0604857
0.10929
0.0292508
0.0638604
0.0157056
0.0309615
0.011202
0.0165843
0.00973308
0.0116481
0.00994321
0.00832166
0.0100153
0.00987131
0.00582394
0.00763859
0.00236028
0.00447248
-0.00175859
-0.00110403
-4.82255e-05
0.00138182
0.00325755
0.0054879
0.00753473
0.00982396
0.0125249
0.0152903
0.0182897
0.0212151
0.0244446
0.0273107
0.0299337
0.0321458
0.0339879
0.0352759
0.036254
0.0369735
0.0377484
0.0383037
0.0386973
0.0391858
0.0400642
0.0413772
0.0460813
0.0602473
0.0891131
0.128367
0.174613
0.21295
0.192786
0.240065
0.159661
0.207437
0.114827
0.167638
0.0678369
0.12164
0.0331571
0.0727811
0.0175046
0.0355349
0.0120154
0.0181837
0.0122138
0.00944226
0.0121596
0.0118126
0.00656667
0.00865371
0.0027731
0.00508377
-0.00160159
-0.00108124
-0.000158716
0.00120353
0.00282093
0.00485036
0.00692271
0.00909499
0.011545
0.0142579
0.0171017
0.019937
0.0232209
0.0260121
0.0286785
0.0310374
0.0329515
0.0345062
0.0356365
0.0364875
0.0373607
0.0382427
0.0389663
0.0395579
0.0404404
0.0426199
0.0501549
0.0724708
0.114773
0.166781
0.221414
0.272749
0.271052
0.302495
0.252268
0.290254
0.219012
0.266789
0.177379
0.231993
0.130339
0.189804
0.0785657
0.140883
0.0375783
0.0841478
0.0184732
0.0385303
0.018185
0.0111157
0.0173858
0.0161363
0.00742717
0.0100179
0.00322327
0.00576907
-0.00142899
-0.00105605
-0.000307816
0.000891537
0.00238924
0.00421315
0.00627344
0.00842497
0.0106571
0.0131285
0.0158413
0.0187885
0.0218774
0.0246684
0.0274212
0.0297681
0.031875
0.033599
0.0348301
0.0359728
0.0368721
0.0377603
0.038785
0.0397131
0.0405613
0.0428226
0.0514255
0.0798982
0.134349
0.196877
0.245154
0.292682
0.317008
0.324693
0.320395
0.339739
0.308395
0.341508
0.28313
0.328182
0.24794
0.302635
0.20548
0.268085
0.152775
0.223635
0.0884734
0.164699
0.0379311
0.0896138
0.0356155
0.0144252
0.0321944
0.0278266
0.00848051
0.0123552
0.00371268
0.00655644
-0.00120566
-0.00104303
-0.000408952
0.000645044
0.00199705
0.00362127
0.00552051
0.0076101
0.00978131
0.0121208
0.0146756
0.0175048
0.0203313
0.0232773
0.02603
0.028472
0.0306118
0.0324834
0.0339273
0.0351873
0.036051
0.037119
0.0382473
0.0394012
0.0404375
0.0424226
0.0510432
0.0807069
0.141861
0.192697
0.24008
0.28755
0.335374
0.34836
0.353664
0.364321
0.376569
0.364658
0.391013
0.351092
0.390887
0.326482
0.378485
0.292247
0.355349
0.243424
0.319306
0.17503
0.263072
0.0862169
0.181243
0.080246
0.022778
0.0715747
0.0588033
0.0100259
0.0176726
0.00424398
0.00754253
-0.000964785
-0.000930133
-0.000401703
0.000449896
0.00160912
0.00306638
0.00480303
0.00675393
0.00887849
0.0111204
0.0135377
0.0162061
0.0190178
0.021902
0.0245908
0.0270776
0.0292987
0.0312277
0.0328569
0.0341288
0.0353113
0.0362283
0.0373993
0.0386946
0.0399302
0.041683
0.0492966
0.0784723
0.137199
0.17565
0.210897
0.260538
0.319365
0.372847
0.365024
0.379423
0.377398
0.406731
0.412553
0.420458
0.43957
0.421416
0.453944
0.411046
0.456592
0.388331
0.44789
0.347508
0.423798
0.28044
0.374696
0.180409
0.292526
0.172058
0.0447693
0.153841
0.12524
0.0130749
0.0316114
0.00482679
0.00912951
-0.000694303
-0.000778036
-0.000390077
0.000305735
0.00128805
0.00255414
0.0041016
0.00590479
0.00791514
0.0100849
0.0124058
0.014923
0.0176465
0.0203908
0.0231139
0.0255904
0.0278626
0.0298556
0.0315588
0.0329622
0.0342055
0.035244
0.0363874
0.0376548
0.039004
0.0406191
0.0463426
0.0730732
0.129198
0.157825
0.171733
0.187656
0.265761
0.358221
0.343796
0.400584
0.394769
0.411512
0.407506
0.448674
0.449454
0.475299
0.486684
0.491278
0.513412
0.49671
0.530246
0.487914
0.537302
0.458861
0.528276
0.398663
0.491224
0.29773
0.416996
0.293733
0.0970936
0.277991
0.245645
0.0207627
0.0665957
0.00552905
0.012438
-0.000403823
-0.000586065
-0.000353883
0.0001553
0.000987298
0.00207966
0.00344052
0.00507117
0.00694556
0.00901817
0.0112525
0.0136534
0.0162507
0.0189414
0.0216199
0.0241273
0.0264148
0.0284201
0.0302411
0.031667
0.0330094
0.0340822
0.0351922
0.0364414
0.0377517
0.0392599
0.0431872
0.0646131
0.119327
0.144858
0.144316
0.120323
0.141422
0.315332
0.237129
0.386947
0.369047
0.433525
0.426267
0.446174
0.43981
0.489372
0.486195
0.522621
0.522583
0.544543
0.546971
0.562082
0.568001
0.574283
0.588768
0.565407
0.604412
0.519112
0.597614
0.427381
0.540538
0.427333
0.196485
0.41442
0.385667
0.0400832
0.138408
0.00660543
0.0209918
-0.00014261
-0.000380197
-0.000316393
3.27361e-05
0.000696657
0.00162673
0.00281319
0.00426841
0.00598721
0.00793737
0.0100766
0.01238
0.0148608
0.0174765
0.0200974
0.0226052
0.0249256
0.0269597
0.028761
0.0302687
0.03161
0.032819
0.0339021
0.0350813
0.0363315
0.0376737
0.0403006
0.055441
0.106337
0.135208
0.128782
0.0866931
0.0754255
0.12405
0.32294
0.236819
0.411749
0.380897
0.459809
0.444501
0.480037
0.470778
0.516905
0.507792
0.541551
0.533949
0.562501
0.554181
0.585792
0.576132
0.612597
0.603048
0.631564
0.634003
0.623973
0.656373
0.55377
0.644523
0.556081
0.335278
0.547663
0.521888
0.0854915
0.260479
0.00855724
0.0411114
-0.000219636
-0.000274749
-5.17829e-05
0.000441781
0.00120129
0.00221534
0.00349726
0.00505133
0.00686002
0.00888631
0.0110928
0.0134676
0.0159943
0.0185646
0.0210534
0.0233934
0.0254652
0.0272642
0.0288667
0.0301723
0.0314831
0.0325318
0.0336312
0.0347942
0.0360014
0.0377615
0.0470215
0.0897454
0.126914
0.121008
0.0762179
0.0537673
0.0597678
0.144412
0.0804045
0.315161
0.218477
0.420329
0.373015
0.467074
0.446721
0.495476
0.482052
0.523028
0.509966
0.542771
0.527956
0.562044
0.541406
0.587809
0.563607
0.621629
0.599238
0.655408
0.640619
0.679203
0.677367
0.657559
0.699393
0.661475
0.474889
0.657081
0.637584
0.168034
0.401569
0.0130783
0.0853627
-0.000199118
-9.41688e-05
0.000239438
0.00082308
0.0016589
0.00276036
0.00414217
0.00579584
0.00769235
0.00979203
0.012066
0.0145014
0.0170129
0.0194709
0.0218068
0.0239197
0.0257268
0.0273705
0.0287127
0.0299452
0.0310924
0.0321231
0.0331953
0.0342653
0.0354688
0.0404242
0.0714517
0.11812
0.11569
0.0723301
0.0474544
0.0433099
0.0583714
0.0456654
0.106458
0.0681192
0.284282
0.185034
0.409114
0.334369
0.457869
0.42363
0.495408
0.47902
0.511165
0.49303
0.518527
0.494903
0.532111
0.499167
0.563049
0.52364
0.61136
0.573561
0.660696
0.630454
0.699881
0.683442
0.715852
0.720851
0.727055
0.598214
0.731597
0.72334
0.671692
0.292728
0.529057
0.0227777
0.160265
-8.61564e-05
8.9757e-05
0.000508377
0.00116133
0.00207102
0.0032649
0.004749
0.00650101
0.00848126
0.0106522
0.0129956
0.0154417
0.0178621
0.0201817
0.0223234
0.0241449
0.0258086
0.0272177
0.0283754
0.0295926
0.0305765
0.0315634
0.0325304
0.0334798
0.0358662
0.0546954
0.106412
0.113299
0.0746011
0.0455918
0.0375015
0.0392679
0.0511788
0.0443739
0.0811199
0.0566951
0.231666
0.137811
0.361116
0.266106
0.414755
0.359778
0.473086
0.44877
0.470773
0.445727
0.466873
0.435015
0.485195
0.447953
0.538578
0.503485
0.598645
0.569125
0.655581
0.631053
0.7072
0.685545
0.741301
0.723157
0.731331
0.747383
0.75472
0.711898
0.630312
0.701282
0.751764
0.767639
0.761224
0.750985
0.423202
0.67776
0.652843
0.558742
0.0405362
0.267796
-2.596e-06
0.000249741
0.000737259
0.00144642
0.00243121
0.00372349
0.00531348
0.00716196
0.00922431
0.0114752
0.0138479
0.0162275
0.0185237
0.0206746
0.0225488
0.0241986
0.025674
0.026876
0.0279441
0.0290091
0.0299139
0.0307883
0.0315697
0.0327657
0.0421602
0.0871122
0.109937
0.0823134
0.0507691
0.0361321
0.0328252
0.0395678
0.0363262
0.047615
0.0430521
0.0619299
0.0505615
0.164261
0.0928806
0.277575
0.177649
0.331986
0.260103
0.417558
0.381797
0.402841
0.369124
0.410695
0.372059
0.467959
0.431334
0.54238
0.517216
0.617393
0.614646
0.669076
0.665607
0.667296
0.674821
0.715212
0.709503
0.692098
0.716986
0.708951
0.735209
0.75316
0.746536
0.727812
0.762118
0.745901
0.735367
0.771018
0.77753
0.770393
0.772353
0.612185
0.445217
0.56576
0.718954
0.694398
0.0721129
0.502786
0.437381
0.289755
5.50959e-05
0.000376254
0.000902763
0.00165626
0.0027247
0.00412761
0.00582914
0.0077773
0.00993529
0.0122295
0.0145645
0.0168347
0.0189832
0.0209063
0.0225602
0.0240752
0.0253219
0.0263267
0.0274224
0.0282626
0.0290643
0.029732
0.0302793
0.0343926
0.0651791
0.104284
0.0901479
0.0577692
0.0406447
0.0301962
0.0305346
0.038596
0.035178
0.0454965
0.041959
0.0528391
0.0473653
0.101334
0.0660112
0.172277
0.104023
0.221437
0.154854
0.330694
0.282881
0.331687
0.289736
0.392874
0.351496
0.489581
0.456767
0.614304
0.60636
0.684987
0.698537
0.70945
0.71923
0.698866
0.713285
0.732337
0.724495
0.727925
0.731468
0.762732
0.740464
0.740738
0.757752
0.752904
0.739193
0.767494
0.7702
0.763614
0.782974
0.776398
0.784185
0.786521
0.660053
0.614565
0.751199
0.730829
0.364684
0.0816753
0.292634
0.558374
0.502108
8.66512e-05
0.000442773
0.000964602
0.00176573
0.00294089
0.00447348
0.00629854
0.00836161
0.0105808
0.0128682
0.0151137
0.0172522
0.0192153
0.0208936
0.0224242
0.0237257
0.0247853
0.0256645
0.0266249
0.0273648
0.0279537
0.0283268
0.0298659
0.0466663
0.0949929
0.0953057
0.065655
0.0465943
0.0334808
0.0239344
0.030554
0.0272765
0.0375753
0.0341253
0.0439586
0.0407778
0.0486764
0.0452181
0.0688322
0.0545954
0.102736
0.0724159
0.14984
0.110613
0.245139
0.197575
0.307663
0.262585
0.418503
0.375124
0.587066
0.553661
0.722502
0.721295
0.713628
0.700468
0.752631
0.77081
0.783667
0.789366
0.753564
0.780407
0.807527
0.746051
0.763483
0.792803
0.829152
0.791939
0.752869
0.763831
0.764923
0.762433
0.773585
0.787421
0.784579
0.790749
0.782287
0.790031
0.795794
0.700936
0.660047
0.776567
0.761136
0.456311
0.0857376
0.345736
0.610279
0.561527
7.58982e-05
0.000410599
0.000890805
0.0017601
0.00308446
0.00477389
0.00673778
0.00888528
0.011126
0.0133532
0.0154836
0.0174704
0.0191896
0.020736
0.0220899
0.0231997
0.0240531
0.0249983
0.0256775
0.0262437
0.0265332
0.0270202
0.0343384
0.0753779
0.0944695
0.0743994
0.0534968
0.0394132
0.022559
0.0209505
0.029625
0.0259766
0.0363386
0.0330769
0.0424251
0.039496
0.0461346
0.0432956
0.0576636
0.0501917
0.0828306
0.0656727
0.136205
0.10891
0.217105
0.173419
0.3296
0.284412
0.511968
0.463441
0.682409
0.655565
0.632276
0.596961
0.786947
0.776994
0.758365
0.732274
0.830459
0.845677
0.850924
0.845995
0.826961
0.860097
0.886781
0.784073
0.81809
0.870286
0.909032
0.861692
0.776562
0.775184
0.787992
0.801513
0.783885
0.798935
0.799357
0.796846
0.791222
0.797582
0.802639
0.736166
0.70089
0.795452
0.785299
0.490868
0.0903702
0.362878
0.656148
0.596552
5.62405e-06
0.000245175
0.000672574
0.00165958
0.00317957
0.00504888
0.00713202
0.00932492
0.0115362
0.01367
0.0156726
0.0174524
0.019011
0.0204164
0.0215736
0.0225004
0.02323
0.0240571
0.0245592
0.0248361
0.0248143
0.0274609
0.0517889
0.0898609
0.0820812
0.0609908
0.0462307
0.0294508
0.0146042
0.0210031
0.0175893
0.0284043
0.0247172
0.035042
0.0318634
0.0407058
0.0379627
0.0439088
0.0413747
0.0546746
0.0478262
0.0896497
0.0713948
0.177486
0.15011
0.242278
0.206269
0.413242
0.363477
0.555547
0.496196
0.702068
0.669842
0.637233
0.602728
0.830281
0.803745
0.770899
0.735627
0.903037
0.906624
0.898015
0.876251
0.908679
0.938509
0.955391
0.840178
0.889418
0.952528
0.990805
0.942535
0.815121
0.796776
0.824762
0.85756
0.803168
0.807031
0.809615
0.8034
0.80749
0.81042
0.808658
0.766193
0.735924
0.809206
0.803746
0.508317
0.0311792
0.238316
0.691308
0.623945
-0.000143043
-1.99865e-05
0.000379828
0.00152299
0.00325846
0.00529983
0.00746445
0.00965457
0.0117953
0.0138221
0.0156634
0.0172552
0.0186991
0.0199133
0.0209053
0.0216273
0.0224068
0.0229384
0.0232017
0.0231211
0.0238156
0.0356254
0.079061
0.0849409
0.0687764
0.0534825
0.0383332
0.0159542
0.0113004
0.0201054
0.0163558
0.0271382
0.0236182
0.0336209
0.030528
0.0390357
0.0364539
0.0418577
0.0395437
0.0547001
0.0460308
0.115513
0.0771699
0.227989
0.177392
0.317241
0.273087
0.440385
0.385126
0.541976
0.50437
0.441744
0.473785
0.697772
0.658159
0.61839
0.579261
0.843432
0.805248
0.762512
0.714944
0.956798
0.945366
0.91893
0.881925
0.985077
1.00272
1.00253
0.911622
0.970043
1.02658
1.0624
1.02313
0.869389
0.830777
0.876053
0.92771
0.833227
0.813673
0.817246
0.813192
0.83285
0.830762
0.816067
0.790608
0.764527
0.819342
0.817854
0.48049
0.029059
0.189408
0.717504
0.629936
-0.000370322
-0.000411032
3.21092e-05
0.00140295
0.00334803
0.00551683
0.00771595
0.00985926
0.0119103
0.0138121
0.0154651
0.0169486
0.0182284
0.0192777
0.0200828
0.0206624
0.0213326
0.0216186
0.0215801
0.021544
0.0261691
0.057455
0.0826732
0.075728
0.0608777
0.0470417
0.0265011
0.00616702
0.0114815
0.00827773
0.0189392
0.0152648
0.0258434
0.0224338
0.0321388
0.0291108
0.0373387
0.0349227
0.040002
0.0377315
0.0534864
0.0436562
0.122353
0.0744129
0.231154
0.171136
0.334811
0.284847
0.415449
0.387984
0.334619
0.489336
0.452752
0.390101
0.420066
0.666674
0.61892
0.572934
0.529565
0.837604
0.785927
0.729647
0.671817
0.989368
0.960879
0.920771
0.871126
1.04506
1.04456
1.03113
0.991187
1.04919
1.08289
1.1159
1.09253
0.937
0.877753
0.939921
1.0054
0.87489
0.820156
0.824051
0.828375
0.868406
0.859583
0.827072
0.809369
0.786853
0.827393
0.828884
0.436948
0.0217837
0.143492
0.7343
0.624438
-0.000654369
-0.000869643
-0.000299947
0.00132476
0.00344362
0.0056855
0.00787396
0.00994719
0.011892
0.0136313
0.0151648
0.0165122
0.0176258
0.0185064
0.0190959
0.0197132
0.0200711
0.0200989
0.0197294
0.0210775
0.0379706
0.0766976
0.0790025
0.0681501
0.0552978
0.0374338
0.0106735
0.00268757
0.0108272
0.0072516
0.0177511
0.0142072
0.0244969
0.021164
0.0305308
0.0276236
0.0355493
0.0332057
0.0379778
0.0360197
0.0488826
0.0407084
0.107002
0.0599777
0.182835
0.122339
0.286706
0.238274
0.36357
0.342312
0.251674
0.231449
0.420034
0.383066
0.321076
0.350331
0.614567
0.559624
0.508405
0.461847
0.813485
0.750068
0.683428
0.616461
1.00253
0.962222
0.910684
0.850319
1.08308
1.0708
1.04395
1.0689
1.11678
1.11798
1.14863
1.14412
1.012
0.93664
1.01143
1.08133
0.927431
0.828028
0.831028
0.850459
0.91357
0.896855
0.842793
0.823962
0.803308
0.834754
0.837715
0.396346
0.0123044
0.0941368
0.746255
0.615162
-0.000925649
-0.00126044
-0.000548085
0.00129358
0.00353218
0.00579448
0.00794338
0.00992792
0.0117384
0.013334
0.0147595
0.0159463
0.016901
0.0175846
0.0180232
0.0185612
0.0186462
0.0183509
0.0184824
0.0255494
0.0612232
0.077983
0.0741064
0.0630445
0.0476773
0.0228155
-0.000964349
0.00305627
0.000367722
0.00987473
0.00648579
0.0165328
0.0132175
0.0230784
0.0198447
0.0289298
0.0261185
0.0338924
0.0315479
0.0361421
0.0342657
0.0423314
0.0379842
0.066817
0.0434052
0.0960214
0.0570492
0.21337
0.191484
0.14
0.295336
0.272594
0.18396
0.168862
0.342258
0.304562
0.244042
0.272052
0.551457
0.490339
0.434907
0.385693
0.783015
0.710551
0.635544
0.56081
1.00566
0.957703
0.901145
0.835881
1.1076
1.08405
1.04955
1.13517
1.16702
1.14048
1.16933
1.17499
1.08623
1.00335
1.08342
1.14677
0.988167
0.838544
0.838562
0.879349
0.966771
0.941113
0.863654
0.835481
0.81623
0.842068
0.845689
0.345314
0.0066224
0.0587643
0.756513
0.60626
-0.00111924
-0.0015338
-0.000674589
0.00131103
0.00359834
0.0058399
0.00792527
0.0098014
0.0114642
0.0129561
0.014235
0.01527
0.0160435
0.016518
0.0169847
0.0172338
0.0170628
0.0167699
0.019164
0.0396881
0.0739674
0.0768808
0.0700815
0.0571706
0.0352327
0.0038424
-0.00414363
0.00276485
-0.000332793
0.00892876
0.00569798
0.0152868
0.0121018
0.0216186
0.0184757
0.0272327
0.0245712
0.0321427
0.0297526
0.0341457
0.0324556
0.0373196
0.0355244
0.040035
0.0350628
0.0535504
0.0414985
0.03273
0.156102
0.145555
0.0627766
0.0752905
0.220401
0.200773
0.119808
0.10762
0.266067
0.228226
0.171368
0.196949
0.489059
0.422465
0.362934
0.310905
0.763013
0.684622
0.603194
0.521916
1.00621
0.954857
0.895609
0.828268
1.1217
1.09233
1.0554
1.18465
1.19644
1.15458
1.18259
1.19308
1.15152
1.07217
1.14873
1.19649
1.05266
0.852365
0.847538
0.914047
1.02412
0.98962
0.888656
0.845424
0.828279
0.849254
0.853055
0.294837
-0.00161921
0.0408589
0.767944
0.606067
-0.00124382
-0.0016931
-0.000710573
0.00134187
0.00362918
0.00581313
0.00781046
0.00956262
0.0111166
0.0124809
0.0136066
0.0144703
0.0150509
0.0153753
0.0158122
0.0157735
0.0153724
0.0159381
0.0263299
0.0636597
0.0767773
0.0755896
0.0656874
0.0472332
0.0171299
-0.00666528
-0.00355751
-0.00551882
0.00213993
-0.000726119
0.00797273
0.00503802
0.0140052
0.0109677
0.0201319
0.0170736
0.0254664
0.0229367
0.0302994
0.0278868
0.0321049
0.0305
0.0338708
0.0331586
0.030486
0.0307003
0.0386144
0.0336978
0.0287247
0.0271228
0.0970977
0.0863563
0.0449393
0.0523503
0.150592
0.133903
0.0896724
0.0793529
0.213695
0.179032
0.131343
0.152151
0.444129
0.372748
0.310357
0.257425
0.753528
0.672932
0.589033
0.505001
1.01201
0.962022
0.90455
0.83955
1.13092
1.10093
1.06602
1.21327
1.21255
1.16348
1.19054
1.20368
1.20263
1.13709
1.20206
1.22549
1.11419
0.868983
0.857693
0.951852
1.08026
1.03701
0.916282
0.854506
0.840264
0.856154
0.860081
0.290038
-0.0232719
0.0301965
0.782211
0.624809
-0.00131641
-0.00175762
-0.000663371
0.00139224
0.00360878
0.00570188
0.00759279
0.00923565
0.0106846
0.0118989
0.0128611
0.0135482
0.0139364
0.0142855
0.0144754
0.0142319
0.0142238
0.0182028
0.0429238
0.0740351
0.0781703
0.072936
0.0581512
0.0312394
-0.00357621
-0.00866048
-0.00342249
-0.00573501
0.00150237
-0.00115995
0.00694001
0.00418345
0.0126887
0.00977369
0.0182427
0.0156374
0.0236451
0.0207923
0.0285291
0.0262193
0.0299876
0.0287055
0.0310674
0.0308936
0.0266291
0.026994
0.0272088
0.0361801
0.031619
0.0315024
0.0276265
0.0698188
0.0607434
0.0423989
0.050133
0.114942
0.101411
0.0896891
0.07924
0.196284
0.165548
0.125609
0.142746
0.424719
0.351795
0.289143
0.237289
0.766928
0.687253
0.602823
0.516784
1.02673
0.98253
0.93144
0.87254
1.13945
1.11184
1.08175
1.228
1.22096
1.16976
1.19378
1.20972
1.23308
1.19097
1.23379
1.23934
1.16624
0.886685
0.868362
0.990035
1.12819
1.08003
0.942771
0.863138
0.852393
0.863118
0.867208
0.334286
-0.0480172
0.0561597
0.799901
0.675991
-0.00136619
-0.00170594
-0.000588482
0.0013973
0.00352465
0.00550479
0.00728308
0.00882721
0.0101458
0.0112152
0.0120136
0.0125273
0.0127693
0.0131433
0.0130624
0.0128569
0.0142464
0.0276362
0.0653286
0.0780133
0.0783327
0.0677002
0.0450601
0.00926668
-0.0106928
-0.00823882
-0.00365588
-0.00569722
0.000833648
-0.00148034
0.00583174
0.00327696
0.0113143
0.00851715
0.0163171
0.0138077
0.0217433
0.0190373
0.0267598
0.024438
0.0279553
0.0265169
0.028178
0.0284975
0.0256259
0.0252755
0.0250376
0.0244039
0.0460684
0.0374991
0.0418189
0.0326554
0.0689612
0.0591708
0.0573417
0.070938
0.112079
0.100425
0.127692
0.115081
0.208787
0.18355
0.155633
0.166863
0.433624
0.358074
0.294987
0.245466
0.805808
0.73193
0.652378
0.569677
1.04868
1.01047
0.966439
0.915835
1.14741
1.12399
1.0987
1.23394
1.22385
1.1745
1.19315
1.21074
1.24544
1.22637
1.24599
1.24199
1.20344
0.903467
0.878329
1.02211
1.16518
1.10933
0.964892
0.871784
0.864144
0.870467
0.875149
0.480167
0.0575745
0.309915
0.822112
0.744143
-0.00143763
-0.00163265
-0.000541034
0.00136783
0.00338551
0.00524015
0.00689131
0.00833195
0.00952833
0.0104445
0.0110901
0.011408
0.0117147
0.0118769
0.0116808
0.0121565
0.0189086
0.0481559
0.0757128
0.0813335
0.0755928
0.0574917
0.0254572
-0.00856533
-0.0111308
-0.00751892
-0.00582926
-0.00860695
-0.00398615
5.46155e-05
-0.00202964
0.00464633
0.00227668
0.00951968
0.00720208
0.0145707
0.0119113
0.0198287
0.0172524
0.0246234
0.0222389
0.0255924
0.0243451
0.0254299
0.0259853
0.0271352
0.0246695
0.023729
0.0237326
0.0723846
0.0549402
0.0601645
0.0430859
0.100962
0.0860352
0.0935879
0.117309
0.146473
0.137676
0.200097
0.184694
0.263936
0.241971
0.22241
0.229352
0.488231
0.412832
0.348974
0.299337
0.858189
0.793707
0.723104
0.648294
1.07085
1.03959
1.00417
0.96381
1.15354
1.13212
1.10923
1.2324
1.21897
1.1725
1.18409
1.20262
1.24632
1.2382
1.24478
1.23806
1.2201
0.917661
0.888375
1.04507
1.18435
1.12977
0.981856
0.881016
0.877097
0.878848
0.884156
0.690692
0.278824
0.694132