/*--------------------------------*- C++ -*----------------------------------*\
  =========                 |
  \\      /  F ield         | OpenFOAM: The Open Source CFD Toolbox
   \\    /   O peration     | Website:  https://openfoam.org
    \\  /    A nd           | Version:  dev
     \\/     M anipulation  |
\*---------------------------------------------------------------------------*/
FoamFile
{
    version     2.0;
    format      ascii;
    class       surfaceScalarField;
    location    "2500";
    object      phi;
}
// * * * * * * * * * * * * * * * * * * * * * * * * * * * * * * * * * * * * * //

dimensions      [1 0 -1 0 0 0 0];

internalField   nonuniform List<scalar> 
19515
(
1.53091e-07
1.05695e-07
1.31971e-07
2.61416e-07
4.22915e-07
9.67381e-08
1.06784e-07
3.58447e-07
4.14935e-07
2.69428e-07
6.14307e-07
8.27789e-08
8.62774e-08
4.30354e-07
3.78468e-07
3.94927e-07
6.3172e-07
2.52089e-07
7.68613e-07
7.09569e-08
7.07068e-08
4.89196e-07
3.23712e-07
4.85142e-07
6.29715e-07
3.96942e-07
7.9825e-07
2.22519e-07
9.06046e-07
6.26709e-08
5.87154e-08
5.43702e-07
2.65434e-07
5.47568e-07
6.01447e-07
5.13435e-07
8.25341e-07
3.69836e-07
9.33082e-07
1.95535e-07
1.03187e-06
5.64909e-08
5.09295e-08
5.96676e-07
2.15975e-07
5.93342e-07
5.5024e-07
5.98794e-07
8.34072e-07
5.04758e-07
9.71081e-07
3.31828e-07
1.0536e-06
1.7385e-07
1.14882e-06
5.10957e-08
4.5777e-08
6.50899e-07
1.80847e-07
6.32039e-07
4.85776e-07
6.57834e-07
8.15951e-07
6.16945e-07
1.00853e-06
4.67371e-07
1.09021e-06
2.95259e-07
1.16672e-06
1.55998e-07
1.25551e-06
4.63145e-08
4.1847e-08
7.0464e-07
1.62315e-07
6.69588e-07
4.1918e-07
6.98611e-07
7.71364e-07
7.02448e-07
1.03011e-06
5.95437e-07
1.1374e-06
4.20129e-07
1.19791e-06
2.64028e-07
1.27141e-06
1.40143e-07
1.35301e-06
4.17336e-08
3.96029e-08
7.56675e-07
1.55002e-07
7.11954e-07
3.57309e-07
7.31416e-07
7.06518e-07
7.63493e-07
1.02618e-06
7.06385e-07
1.18583e-06
5.47101e-07
1.24186e-06
3.76269e-07
1.29945e-06
2.36026e-07
1.3675e-06
1.25652e-07
1.44226e-06
3.73893e-08
3.81346e-08
8.08438e-07
1.48443e-07
7.63292e-07
3.07139e-07
7.623e-07
6.32698e-07
8.05275e-07
9.95896e-07
7.93813e-07
1.22215e-06
6.70097e-07
1.29752e-06
4.91464e-07
1.33967e-06
3.36092e-07
1.39219e-06
2.11453e-07
1.45555e-06
1.12399e-07
1.52283e-06
3.31872e-08
3.69591e-08
8.6041e-07
1.40587e-07
8.16303e-07
2.76809e-07
7.93719e-07
5.61003e-07
8.33913e-07
9.42263e-07
8.58913e-07
1.23566e-06
7.80275e-07
1.3575e-06
6.10139e-07
1.39131e-06
4.3976e-07
1.42774e-06
3.0057e-07
1.47812e-06
1.88932e-07
1.53578e-06
9.94856e-08
1.59516e-06
2.91824e-08
3.64834e-08
9.12262e-07
1.35013e-07
8.66032e-07
2.60572e-07
8.32676e-07
4.96808e-07
8.57924e-07
8.73217e-07
9.02987e-07
1.22183e-06
8.72785e-07
1.40813e-06
7.29658e-07
1.45456e-06
5.47056e-07
1.47487e-06
3.92664e-07
1.51083e-06
2.67885e-07
1.55771e-06
1.67056e-07
1.60793e-06
8.67552e-08
1.66003e-06
2.52029e-08
3.66274e-08
9.63553e-07
1.30023e-07
9.17307e-07
2.47093e-07
8.79574e-07
4.45967e-07
8.83499e-07
7.98078e-07
9.33096e-07
1.18316e-06
9.41686e-07
1.44027e-06
8.40642e-07
1.52443e-06
6.59813e-07
1.5341e-06
4.87917e-07
1.55443e-06
3.49141e-07
1.58885e-06
2.36795e-07
1.62956e-06
1.45475e-07
1.67195e-06
7.48581e-08
1.71684e-06
2.13476e-08
3.6494e-08
1.01572e-06
1.25359e-07
9.68271e-07
2.3682e-07
9.27678e-07
4.11675e-07
9.13924e-07
7.24858e-07
9.56863e-07
1.12668e-06
9.89597e-07
1.44806e-06
9.33902e-07
1.58989e-06
7.75229e-07
1.60643e-06
5.87447e-07
1.6087e-06
4.33685e-07
1.62944e-06
3.08605e-07
1.65947e-06
2.06893e-07
1.69269e-06
1.24786e-07
1.72881e-06
6.2928e-08
1.76601e-06
1.74476e-08
3.55537e-08
1.06922e-06
1.22843e-07
1.01829e-06
2.28568e-07
9.76576e-07
3.88408e-07
9.50965e-07
6.59163e-07
9.79625e-07
1.05953e-06
1.02391e-06
1.43054e-06
1.00714e-06
1.64161e-06
8.82089e-07
1.68708e-06
6.94567e-07
1.67439e-06
5.21768e-07
1.68031e-06
3.82872e-07
1.69868e-06
2.69495e-07
1.72275e-06
1.76896e-07
1.74869e-06
1.04958e-07
1.77782e-06
5.11546e-08
1.80741e-06
1.37882e-08
3.44329e-08
1.12289e-06
1.21949e-07
1.07017e-06
2.20998e-07
1.02592e-06
3.71913e-07
9.93098e-07
6.05788e-07
1.00418e-06
9.89109e-07
1.05006e-06
1.39213e-06
1.06234e-06
1.67276e-06
9.75975e-07
1.76706e-06
8.02101e-07
1.75374e-06
6.15249e-07
1.74195e-06
4.60155e-07
1.74776e-06
3.33827e-07
1.76113e-06
2.31167e-07
1.77751e-06
1.48141e-07
1.79795e-06
8.48645e-08
1.8191e-06
3.95118e-08
1.84209e-06
1.01074e-08
3.39097e-08
1.17605e-06
1.21229e-07
1.12372e-06
2.1545e-07
1.07579e-06
3.58691e-07
1.03917e-06
5.65805e-07
1.033e-06
9.21122e-07
1.07228e-06
1.33952e-06
1.10263e-06
1.68024e-06
1.0549e-06
1.83875e-06
9.04292e-07
1.84536e-06
7.1051e-07
1.81521e-06
5.41972e-07
1.80648e-06
4.01485e-07
1.8085e-06
2.865e-07
1.81569e-06
1.93015e-07
1.82584e-06
1.20332e-07
1.83904e-06
6.4963e-08
1.85308e-06
2.85656e-08
1.86893e-06
6.54447e-09
3.36681e-08
1.22937e-06
1.18871e-07
1.17847e-06
2.11316e-07
1.12782e-06
3.46813e-07
1.0877e-06
5.36776e-07
1.06825e-06
8.59954e-07
1.09421e-06
1.27928e-06
1.13253e-06
1.66506e-06
1.11785e-06
1.89432e-06
9.99317e-07
1.94046e-06
8.0917e-07
1.90117e-06
6.24549e-07
1.87538e-06
4.73066e-07
1.86548e-06
3.44545e-07
1.86225e-06
2.40023e-07
1.86253e-06
1.56417e-07
1.86749e-06
9.19605e-08
1.87281e-06
4.53001e-08
1.87964e-06
1.79025e-08
1.88855e-06
2.70899e-09
3.30911e-08
1.28321e-06
1.16073e-07
1.23223e-06
2.10225e-07
1.17959e-06
3.35827e-07
1.13892e-06
5.16703e-07
1.1078e-06
8.09796e-07
1.11833e-06
1.21637e-06
1.15714e-06
1.63242e-06
1.16517e-06
1.92916e-06
1.08302e-06
2.03073e-06
9.09037e-07
1.99935e-06
7.10983e-07
1.95525e-06
5.44698e-07
1.93212e-06
4.06473e-07
1.91802e-06
2.88822e-07
1.90881e-06
1.93792e-07
1.90365e-06
1.20324e-07
1.90058e-06
6.42465e-08
1.89898e-06
2.60153e-08
1.89954e-06
6.96688e-09
1.9014e-06
-6.34051e-10
3.2324e-08
1.33657e-06
1.14184e-07
1.28517e-06
2.08129e-07
1.23434e-06
3.22274e-07
1.19316e-06
5.03438e-07
1.15206e-06
7.68124e-07
1.14939e-06
1.15419e-06
1.18058e-06
1.58888e-06
1.20062e-06
1.94179e-06
1.15246e-06
2.10966e-06
1.00411e-06
2.10593e-06
8.02548e-07
2.04749e-06
6.18812e-07
2.00903e-06
4.67806e-07
1.98351e-06
3.41008e-07
1.964e-06
2.33691e-07
1.94843e-06
1.49097e-07
1.93688e-06
8.4078e-08
1.92601e-06
3.72905e-08
1.91689e-06
8.7233e-09
1.91176e-06
-3.35418e-09
1.9082e-06
-4.3945e-09
3.14282e-08
1.38927e-06
1.1222e-07
1.33858e-06
2.03817e-07
1.28955e-06
3.12034e-07
1.24467e-06
4.93286e-07
1.20314e-06
7.3471e-07
1.18544e-06
1.09913e-06
1.20435e-06
1.54006e-06
1.22925e-06
1.93461e-06
1.20777e-06
2.17126e-06
1.09079e-06
2.21297e-06
8.96975e-07
2.15203e-06
6.98003e-07
2.09624e-06
5.31641e-07
2.05897e-06
3.92351e-07
2.02891e-06
2.76115e-07
2.00298e-06
1.79201e-07
1.98172e-06
1.04338e-07
1.96139e-06
4.87623e-08
1.94316e-06
1.11111e-08
1.92853e-06
-7.97436e-09
1.91836e-06
-1.34548e-08
1.90816e-06
-7.50093e-09
3.0455e-08
1.44102e-06
1.11117e-07
1.39041e-06
2.00174e-07
1.34227e-06
3.0609e-07
1.29547e-06
4.80132e-07
1.25772e-06
7.13677e-07
1.22429e-06
1.05346e-06
1.23104e-06
1.48855e-06
1.25578e-06
1.91193e-06
1.2519e-06
2.21313e-06
1.16588e-06
2.31411e-06
9.89619e-07
2.26728e-06
7.81652e-07
2.19557e-06
5.98638e-07
2.14481e-06
4.45791e-07
2.1038e-06
3.17472e-07
2.06714e-06
2.1201e-07
2.0354e-06
1.25581e-07
2.00581e-06
5.99966e-08
1.97808e-06
1.3903e-08
1.95359e-06
-1.38703e-08
1.93401e-06
-2.35647e-08
1.91778e-06
-2.30176e-08
1.90304e-06
-1.01271e-08
2.92919e-08
1.49161e-06
1.08811e-07
1.44336e-06
1.94984e-07
1.39565e-06
2.99204e-07
1.34914e-06
4.65068e-07
1.31047e-06
7.02175e-07
1.26914e-06
1.01557e-06
1.26214e-06
1.43775e-06
1.28172e-06
1.87962e-06
1.28807e-06
2.23483e-06
1.23017e-06
2.40237e-06
1.0776e-06
2.38782e-06
8.68985e-07
2.30716e-06
6.70024e-07
2.24042e-06
5.03047e-07
2.18851e-06
3.61104e-07
2.14172e-06
2.42913e-07
2.09917e-06
1.48301e-07
2.05958e-06
7.1876e-08
2.02184e-06
1.63158e-08
1.98731e-06
-1.9732e-08
1.95728e-06
-3.70576e-08
1.93308e-06
-3.87927e-08
1.9114e-06
-3.13333e-08
1.8927e-06
-1.23282e-08
2.80069e-08
1.54023e-06
1.04838e-07
1.49561e-06
1.90056e-07
1.44831e-06
2.91893e-07
1.40294e-06
4.52386e-07
1.36177e-06
6.92596e-07
1.31998e-06
9.88466e-07
1.29616e-06
1.39145e-06
1.30825e-06
1.84198e-06
1.31935e-06
2.23882e-06
1.28401e-06
2.47383e-06
1.15869e-06
2.50759e-06
9.57791e-07
2.42965e-06
7.46393e-07
2.34734e-06
5.63084e-07
2.28339e-06
4.082e-07
2.22619e-06
2.76651e-07
2.17354e-06
1.68583e-07
2.12335e-06
8.45984e-08
2.07476e-06
1.90326e-08
2.02933e-06
-2.56296e-08
1.98892e-06
-5.12852e-08
1.95427e-06
-5.81631e-08
1.92557e-06
-5.28804e-08
1.89995e-06
-3.85377e-08
1.885e-06
-1.41433e-08
2.68966e-08
1.58617e-06
1.01177e-07
1.54391e-06
1.85645e-07
1.50008e-06
2.8512e-07
1.45507e-06
4.41902e-07
1.41336e-06
6.81585e-07
1.37266e-06
9.72245e-07
1.33605e-06
1.35079e-06
1.3367e-06
1.80194e-06
1.34815e-06
2.22889e-06
1.32925e-06
2.52668e-06
1.23113e-06
2.62006e-06
1.04616e-06
2.56029e-06
8.27037e-07
2.4664e-06
6.27163e-07
2.38827e-06
4.58168e-07
2.32111e-06
3.13241e-07
2.25796e-06
1.92265e-07
2.19715e-06
9.48219e-08
2.13776e-06
2.16638e-08
2.08095e-06
-3.24911e-08
2.02913e-06
-6.57497e-08
1.98299e-06
-7.99182e-08
1.94507e-06
-7.75696e-08
1.91253e-06
-6.53927e-08
1.89081e-06
-4.4296e-08
1.86737e-06
-1.49733e-08
2.57859e-08
1.62985e-06
9.67692e-08
1.59057e-06
1.79274e-07
1.55027e-06
2.78833e-07
1.50615e-06
4.32586e-07
1.46429e-06
6.69989e-07
1.42483e-06
9.6214e-07
1.38263e-06
1.31796e-06
1.36876e-06
1.76219e-06
1.37635e-06
2.20929e-06
1.36777e-06
2.56093e-06
1.29495e-06
2.72007e-06
1.13114e-06
2.69478e-06
9.11657e-07
2.59634e-06
6.97185e-07
2.50342e-06
5.11999e-07
2.42593e-06
3.53368e-07
2.35217e-06
2.19041e-07
2.28169e-06
1.07785e-07
2.21179e-06
2.0851e-08
2.14296e-06
-4.02997e-08
2.07867e-06
-8.19371e-08
2.02058e-06
-1.03242e-07
1.97111e-06
-1.05867e-07
1.92996e-06
-9.49035e-08
1.90074e-06
-7.52345e-08
1.87204e-06
-4.89181e-08
1.84742e-06
-1.52308e-08
2.41728e-08
1.67128e-06
9.13399e-08
1.63531e-06
1.72252e-07
1.59759e-06
2.72334e-07
1.55672e-06
4.24955e-07
1.51385e-06
6.58932e-07
1.47519e-06
9.54993e-07
1.43179e-06
1.29551e-06
1.40493e-06
1.72503e-06
1.40581e-06
2.1836e-06
1.40196e-06
2.57805e-06
1.35054e-06
2.80386e-06
1.21111e-06
2.82712e-06
9.98795e-07
2.73548e-06
7.72484e-07
2.63028e-06
5.70387e-07
2.54061e-06
3.97294e-07
2.45757e-06
2.47921e-07
2.37737e-06
1.23343e-07
2.2965e-06
2.31232e-08
2.21609e-06
-5.21886e-08
2.1391e-06
-1.00647e-07
2.06728e-06
-1.28538e-07
2.00476e-06
-1.36791e-07
1.95295e-06
-1.28758e-07
1.91512e-06
-1.09185e-07
1.88055e-06
-8.36555e-08
1.8509e-06
-5.23396e-08
1.82492e-06
-1.55592e-08
2.20604e-08
1.70959e-06
8.56379e-08
1.67699e-06
1.65056e-07
1.64246e-06
2.63883e-07
1.60596e-06
4.17789e-07
1.56378e-06
6.49207e-07
1.52334e-06
9.48475e-07
1.48154e-06
1.28165e-06
1.44547e-06
1.69218e-06
1.43769e-06
2.15487e-06
1.43445e-06
2.58101e-06
1.39892e-06
2.86963e-06
1.28477e-06
2.9518e-06
1.08647e-06
2.88058e-06
8.53507e-07
2.76784e-06
6.34825e-07
2.66552e-06
4.45484e-07
2.57411e-06
2.80699e-07
2.48438e-06
1.40932e-07
2.39319e-06
2.66908e-08
2.30109e-06
-6.1802e-08
2.21105e-06
-1.24066e-07
2.12456e-06
-1.57827e-07
2.04772e-06
-1.71384e-07
1.98265e-06
-1.66387e-07
1.93392e-06
-1.47457e-07
1.89245e-06
-1.20986e-07
1.85733e-06
-9.00145e-08
1.82816e-06
-5.55352e-08
1.80202e-06
-1.70018e-08
2.02965e-08
1.74537e-06
7.92563e-08
1.71597e-06
1.56235e-07
1.68577e-06
2.53257e-07
1.65301e-06
4.10018e-07
1.61362e-06
6.42121e-07
1.57068e-06
9.41187e-07
1.5304e-06
1.27409e-06
1.48884e-06
1.66571e-06
1.4718e-06
2.12565e-06
1.46673e-06
2.57316e-06
1.44222e-06
2.91684e-06
1.35165e-06
3.06409e-06
1.17242e-06
3.0279e-06
9.39012e-07
2.91493e-06
7.06206e-07
2.80078e-06
4.99453e-07
2.70115e-06
3.18499e-07
2.60299e-06
1.62068e-07
2.50175e-06
3.23678e-08
2.39876e-06
-7.09311e-08
2.29518e-06
-1.45878e-07
2.19447e-06
-1.93887e-07
2.10111e-06
-2.11128e-07
2.02014e-06
-2.08759e-07
1.95773e-06
-1.90091e-07
1.90736e-06
-1.62256e-07
1.86627e-06
-1.29826e-07
1.83341e-06
-9.51898e-08
1.80489e-06
-5.8361e-08
1.77884e-06
-1.89633e-08
1.77726e-08
1.77725e-06
7.25586e-08
1.75205e-06
1.47111e-07
1.72505e-06
2.42409e-07
1.69648e-06
4.02885e-07
1.65995e-06
6.37513e-07
1.618e-06
9.34393e-07
1.57721e-06
1.27011e-06
1.53415e-06
1.64541e-06
1.50896e-06
2.09707e-06
1.50022e-06
2.55813e-06
1.48167e-06
2.94663e-06
1.41229e-06
3.16022e-06
1.25548e-06
3.17239e-06
1.02803e-06
3.06921e-06
7.84685e-07
2.94697e-06
5.59912e-07
2.83807e-06
3.62457e-07
2.73269e-06
1.88784e-07
2.62294e-06
4.08693e-08
2.51046e-06
-7.93326e-08
2.39288e-06
-1.68563e-07
2.27717e-06
-2.28519e-07
2.16637e-06
-2.59058e-07
2.06747e-06
-2.58349e-07
1.98783e-06
-2.38747e-07
1.92615e-06
-2.08771e-07
1.87694e-06
-1.7281e-07
1.83986e-06
-1.36169e-07
1.80996e-06
-1.00167e-07
1.7829e-06
-6.23656e-08
1.75312e-06
-2.2172e-08
1.51102e-08
1.80384e-06
6.4836e-08
1.78496e-06
1.3713e-07
1.76196e-06
2.31294e-07
1.73605e-06
3.96477e-07
1.70275e-06
6.35338e-07
1.66193e-06
9.30748e-07
1.62136e-06
1.2678e-06
1.57927e-06
1.6312e-06
1.54815e-06
2.07007e-06
1.53578e-06
2.53765e-06
1.52058e-06
2.96059e-06
1.46763e-06
3.23777e-06
1.33469e-06
3.30831e-06
1.11952e-06
3.22772e-06
8.69333e-07
3.10272e-06
6.28754e-07
2.98443e-06
4.13491e-07
2.87323e-06
2.21875e-07
2.75739e-06
5.42649e-08
2.63572e-06
-8.44544e-08
2.50584e-06
-1.92275e-07
2.37459e-06
-2.65926e-07
2.24533e-06
-3.07386e-07
2.12651e-06
-3.17984e-07
2.02658e-06
-2.96972e-07
1.94945e-06
-2.61915e-07
1.88937e-06
-2.21072e-07
1.84638e-06
-1.79214e-07
1.81512e-06
-1.4123e-07
1.78898e-06
-1.06169e-07
1.76123e-06
-7.04255e-08
1.7259e-06
-2.65531e-08
1.22808e-08
1.8244e-06
5.64239e-08
1.81225e-06
1.26622e-07
1.7954e-06
2.20225e-07
1.77293e-06
3.89991e-07
1.74233e-06
6.34067e-07
1.70377e-06
9.30687e-07
1.66171e-06
1.2674e-06
1.62151e-06
1.62528e-06
1.58494e-06
2.04679e-06
1.57125e-06
2.51468e-06
1.55857e-06
2.962e-06
1.51909e-06
3.29538e-06
1.40993e-06
3.43116e-06
1.21181e-06
3.38676e-06
9.60568e-07
3.26569e-06
7.0637e-07
3.14007e-06
4.73071e-07
3.02345e-06
2.632e-07
2.90375e-06
7.55879e-08
2.77432e-06
-8.43321e-08
2.63549e-06
-2.14071e-07
2.48892e-06
-3.06559e-07
2.34064e-06
-3.61143e-07
2.19954e-06
-3.80311e-07
2.07594e-06
-3.67218e-07
1.979e-06
-3.26391e-07
1.90307e-06
-2.75476e-07
1.85201e-06
-2.26568e-07
1.8187e-06
-1.82681e-07
1.79499e-06
-1.47132e-07
1.77177e-06
-1.16631e-07
1.73904e-06
-8.35192e-08
1.69389e-06
-8.79686e-09
-2.30686e-08
7.79766e-09
1.83826e-06
4.69045e-08
1.8339e-06
1.15278e-07
1.82344e-06
2.10331e-07
1.80512e-06
3.84089e-07
1.77849e-06
6.33622e-07
1.74249e-06
9.3313e-07
1.70104e-06
1.26722e-06
1.66158e-06
1.62282e-06
1.6237e-06
2.02735e-06
1.60424e-06
2.49329e-06
1.59246e-06
2.95514e-06
1.56535e-06
3.3345e-06
1.47988e-06
3.53709e-06
1.30393e-06
3.54085e-06
1.05768e-06
3.43344e-06
7.92752e-07
3.30383e-06
5.4227e-07
3.18268e-06
3.13566e-07
3.06073e-06
1.06096e-07
2.9273e-06
-7.74015e-08
2.7815e-06
-2.30402e-07
2.62205e-06
-3.47125e-07
2.45483e-06
-4.20679e-07
2.28984e-06
-4.51346e-07
2.13875e-06
-4.43002e-07
2.01704e-06
-4.05116e-07
1.92026e-06
-3.43446e-07
1.85549e-06
-2.78818e-07
1.81822e-06
-2.25949e-07
1.79801e-06
-1.85582e-07
1.78133e-06
-1.56592e-07
1.7591e-06
-1.36623e-07
1.7125e-06
-4.49026e-08
-5.71909e-08
8.26989e-07
-7.50111e-09
8.31434e-07
-2.75138e-08
-3.49361e-10
1.84471e-06
3.38637e-08
1.85127e-06
1.00934e-07
1.84808e-06
2.00351e-07
1.83326e-06
3.7957e-07
1.80935e-06
6.36181e-07
1.77574e-06
9.37497e-07
1.7378e-06
1.26875e-06
1.69912e-06
1.62199e-06
1.66212e-06
2.01195e-06
1.63876e-06
2.46985e-06
1.62736e-06
2.94144e-06
1.60606e-06
3.35901e-06
1.54075e-06
3.62461e-06
1.39228e-06
3.68512e-06
1.1595e-06
3.60281e-06
8.8823e-07
3.47435e-06
6.22414e-07
3.35021e-06
3.74817e-07
3.22719e-06
1.47082e-07
3.09343e-06
-6.01897e-08
2.94339e-06
-2.39282e-07
2.77477e-06
-3.83162e-07
2.5906e-06
-4.82798e-07
2.40132e-06
-5.32058e-07
2.22122e-06
-5.33696e-07
2.06786e-06
-4.93675e-07
1.94149e-06
-4.26192e-07
1.85794e-06
-3.45739e-07
1.81209e-06
-2.72541e-07
1.79338e-06
-2.21192e-07
1.7869e-06
-1.91033e-07
1.77361e-06
-8.14014e-08
-8.96078e-08
8.68187e-07
-7.33814e-08
8.63681e-07
-8.25511e-08
8.33326e-07
-4.67908e-08
8.40815e-07
-6.46736e-08
8.16391e-07
-6.79353e-09
8.18929e-07
-3.00535e-08
-7.57744e-09
1.82915e-06
1.74589e-08
1.86109e-06
8.30785e-08
1.86902e-06
1.89579e-07
1.85871e-06
3.76587e-07
1.83599e-06
6.40511e-07
1.80474e-06
9.43733e-07
1.76918e-06
1.27259e-06
1.73362e-06
1.62288e-06
1.69799e-06
2.00102e-06
1.6728e-06
2.44621e-06
1.66229e-06
2.9225e-06
1.64622e-06
3.36728e-06
1.59766e-06
3.69145e-06
1.4738e-06
3.81777e-06
1.25961e-06
3.77122e-06
9.91024e-07
3.64957e-06
7.12948e-07
3.52465e-06
4.47912e-07
3.40277e-06
1.99076e-07
3.2713e-06
-3.10043e-08
3.12066e-06
-2.37664e-07
2.94737e-06
-4.11876e-07
2.75084e-06
-5.43363e-07
2.53848e-06
-6.19851e-07
2.32662e-06
-6.37345e-07
2.13509e-06
-6.00797e-07
1.97319e-06
-5.25216e-07
1.85818e-06
-4.26269e-07
1.79744e-06
-3.30933e-07
1.77856e-06
-2.57563e-07
1.78403e-06
-2.18187e-07
1.78704e-06
-9.79047e-08
-1.06437e-07
8.75163e-07
-8.83568e-08
8.84002e-07
-9.84222e-08
8.48117e-07
-8.06726e-08
8.73896e-07
-9.85559e-08
8.59119e-07
-9.35388e-08
8.23959e-07
-5.18191e-08
8.31526e-07
-7.22354e-08
8.04777e-07
-5.54259e-09
8.06795e-07
-3.20729e-08
-1.82858e-09
1.77616e-06
4.31995e-09
1.84232e-06
6.3356e-08
1.88066e-06
1.76673e-07
1.8816e-06
3.75625e-07
1.85925e-06
6.46507e-07
1.82963e-06
9.50752e-07
1.79735e-06
1.27621e-06
1.76516e-06
1.62378e-06
1.73242e-06
1.9924e-06
1.70635e-06
2.42276e-06
1.6961e-06
2.90056e-06
1.68409e-06
3.36417e-06
1.64919e-06
3.73792e-06
1.5511e-06
3.93065e-06
1.36085e-06
3.93225e-06
1.09848e-06
3.82773e-06
8.12633e-07
3.70391e-06
5.33581e-07
3.58437e-06
2.66157e-07
3.45852e-06
1.19098e-08
3.31227e-06
-2.22799e-07
3.13908e-06
-4.29523e-07
2.93615e-06
-5.97196e-07
2.70528e-06
-7.10096e-07
2.46135e-06
-7.54442e-07
2.22607e-06
-7.28179e-07
2.01995e-06
-6.47399e-07
1.86372e-06
-5.30571e-07
1.77246e-06
-4.01114e-07
1.74235e-06
-2.94564e-07
1.76268e-06
-2.36062e-07
1.79383e-06
-1.10289e-07
-1.14554e-07
8.91425e-07
-1.053e-07
8.98175e-07
-1.13158e-07
8.83869e-07
-1.08375e-07
8.41142e-07
-9.02801e-08
8.69757e-07
-1.09177e-07
8.53496e-07
-1.05881e-07
8.12725e-07
-5.77486e-08
8.21596e-07
-8.11032e-08
7.90731e-07
-5.55551e-09
7.93264e-07
-3.46076e-08
-2.68183e-09
1.76956e-06
1.22907e-08
1.76807e-06
4.67033e-08
1.85874e-06
1.62668e-07
1.89442e-06
3.78382e-07
1.87851e-06
6.5522e-07
1.85026e-06
9.58029e-07
1.82197e-06
1.27971e-06
1.7935e-06
1.62298e-06
1.76564e-06
1.98486e-06
1.73967e-06
2.39945e-06
1.72951e-06
2.87411e-06
1.7222e-06
3.35032e-06
1.69779e-06
3.76551e-06
1.62149e-06
4.02433e-06
1.45732e-06
4.08241e-06
1.21057e-06
4.00383e-06
9.22251e-07
3.8848e-06
6.31521e-07
3.76963e-06
3.48098e-07
3.65142e-06
7.32934e-08
3.51466e-06
-1.90338e-07
3.34841e-06
-4.3232e-07
3.14658e-06
-6.40107e-07
2.90435e-06
-7.96206e-07
2.63212e-06
-8.80788e-07
2.35146e-06
-8.79659e-07
2.09305e-06
-8.01088e-07
1.88312e-06
-6.66607e-07
1.75225e-06
-5.10158e-07
1.7016e-06
-3.60183e-07
1.71783e-06
-2.4956e-07
1.7855e-06
-1.13292e-07
-1.14302e-07
9.04553e-07
-1.16634e-07
9.07532e-07
-1.175e-07
8.9406e-07
-1.15466e-07
9.03468e-07
-1.22539e-07
8.81962e-07
-1.2056e-07
8.33204e-07
-1.01883e-07
8.66717e-07
-1.22382e-07
8.47529e-07
-1.20195e-07
8.00001e-07
-6.4487e-08
8.10144e-07
-9.12452e-08
7.76075e-07
-7.64499e-09
7.78374e-07
-3.69095e-08
-8.86139e-09
1.75585e-06
1.23295e-08
1.76944e-06
5.27131e-08
1.76176e-06
1.51229e-07
1.8698e-06
3.84428e-07
1.88789e-06
6.68235e-07
1.8652e-06
9.66674e-07
1.84118e-06
1.28325e-06
1.81802e-06
1.62045e-06
1.79562e-06
1.97749e-06
1.77268e-06
2.37612e-06
1.76272e-06
2.84318e-06
1.76011e-06
3.3274e-06
1.74507e-06
3.77358e-06
1.68958e-06
4.09288e-06
1.55284e-06
4.21648e-06
1.32313e-06
4.17711e-06
1.03717e-06
4.06674e-06
7.4021e-07
3.95588e-06
4.45177e-07
3.84526e-06
1.5392e-07
3.72259e-06
-1.34626e-07
3.56916e-06
-4.11085e-07
3.3777e-06
-6.63503e-07
3.13577e-06
-8.71609e-07
2.84684e-06
-1.01086e-06
2.52592e-06
-1.0551e-06
2.21482e-06
-1.00115e-06
1.94124e-06
-8.58883e-07
1.77212e-06
-6.86175e-07
1.69827e-06
-5.06594e-07
1.70437e-06
-3.46606e-07
1.79042e-06
-1.17761e-07
-1.36649e-07
9.1103e-07
-1.16761e-07
9.13736e-07
-1.16993e-07
9.11903e-07
-1.25041e-07
9.19314e-07
-1.24887e-07
8.9468e-07
-1.2816e-07
9.07363e-07
-1.35197e-07
8.81545e-07
-1.35368e-07
8.23828e-07
-1.15563e-07
8.63512e-07
-1.38351e-07
8.40952e-07
-1.3731e-07
7.8543e-07
-7.15456e-08
7.96971e-07
-1.02788e-07
7.55455e-07
-9.60041e-09
7.59989e-07
-4.14463e-08
-1.74739e-08
1.7274e-06
4.42624e-09
1.76368e-06
5.65953e-08
1.76531e-06
1.47974e-07
1.76462e-06
3.88468e-07
1.86551e-06
6.84748e-07
1.87111e-06
9.76572e-07
1.85487e-06
1.28603e-06
1.83801e-06
1.61579e-06
1.82224e-06
1.96822e-06
1.80466e-06
2.35315e-06
1.79537e-06
2.80953e-06
1.7962e-06
3.29781e-06
1.78952e-06
3.76573e-06
1.75274e-06
4.13707e-06
1.64526e-06
4.32749e-06
1.44174e-06
4.33636e-06
1.16376e-06
4.24659e-06
8.57271e-07
4.14455e-06
5.51456e-07
4.04117e-06
2.49053e-07
3.93141e-06
-5.52467e-08
3.79369e-06
-3.58954e-07
3.62e-06
-6.53416e-07
3.39231e-06
-9.20188e-07
3.10603e-06
-1.13077e-06
2.76298e-06
-1.24771e-06
2.41371e-06
-1.25353e-06
2.09463e-06
-1.15379e-06
1.88999e-06
-9.75895e-07
1.82197e-06
-8.0927e-07
1.85257e-06
-6.54744e-07
1.96151e-06
-1.86192e-07
-3.32126e-07
9.25999e-07
-1.30056e-07
9.63921e-07
-1.74777e-07
9.28077e-07
-1.25514e-07
9.47429e-07
-1.36393e-07
9.19973e-07
-1.37629e-07
9.35179e-07
-1.40086e-07
8.97789e-07
-1.44382e-07
9.14386e-07
-1.51774e-07
8.81522e-07
-1.5336e-07
8.12375e-07
-1.30964e-07
8.59251e-07
-1.56638e-07
8.31307e-07
-1.56236e-07
7.68537e-07
-8.00976e-08
7.81685e-07
-1.15939e-07
7.33548e-07
-1.18076e-08
7.39933e-07
-4.78353e-08
-2.62818e-08
1.68355e-06
-6.8464e-09
1.73863e-06
4.89139e-08
1.77113e-06
1.5617e-07
1.75673e-06
3.7557e-07
1.7771e-06
6.93866e-07
1.856e-06
9.87129e-07
1.86008e-06
1.28677e-06
1.85354e-06
1.60883e-06
1.84459e-06
1.9564e-06
1.83378e-06
2.33049e-06
1.82701e-06
2.7729e-06
1.83178e-06
3.26225e-06
1.83153e-06
3.74524e-06
1.80986e-06
4.15958e-06
1.7301e-06
4.41509e-06
1.55756e-06
4.47995e-06
1.29807e-06
4.41688e-06
9.93117e-07
4.32361e-06
6.78095e-07
4.23368e-06
3.58747e-07
4.14357e-06
3.66884e-08
4.0217e-06
-2.83568e-07
3.86903e-06
-6.0794e-07
3.66372e-06
-9.24772e-07
3.39482e-06
-1.20902e-06
3.06117e-06
-1.42858e-06
2.70613e-06
-1.53903e-06
2.39657e-06
-1.55349e-06
2.23445e-06
-1.49545e-06
2.24335e-06
-1.39478e-06
2.35998e-06
-1.31588e-06
2.58896e-06
-5.24262e-07
-7.59891e-07
1.08141e-06
-3.04302e-07
1.28257e-06
-5.34656e-07
9.98882e-07
-1.81756e-07
1.13464e-06
-3.11338e-07
9.62531e-07
-1.52919e-07
1.02695e-06
-2.01073e-07
9.34512e-07
-1.57747e-07
9.68706e-07
-1.74331e-07
9.0128e-07
-1.64121e-07
9.24458e-07
-1.74944e-07
8.80338e-07
-1.74432e-07
7.99123e-07
-1.48402e-07
8.52696e-07
-1.78019e-07
8.19977e-07
-1.77087e-07
7.49328e-07
-8.94968e-08
7.64001e-07
-1.30616e-07
7.09711e-07
-1.44904e-08
7.17433e-07
-5.55612e-08
-3.40226e-08
1.6239e-06
-1.73534e-08
1.69396e-06
3.52881e-08
1.752e-06
1.57358e-07
1.76958e-06
3.802e-07
1.75159e-06
6.73711e-07
1.7968e-06
9.89342e-07
1.85331e-06
1.28499e-06
1.86152e-06
1.59902e-06
1.8632e-06
1.94072e-06
1.85995e-06
2.30644e-06
1.85757e-06
2.73364e-06
1.86611e-06
3.22148e-06
1.87237e-06
3.71417e-06
1.86229e-06
4.16244e-06
1.80685e-06
4.47857e-06
1.66651e-06
4.60559e-06
1.43175e-06
4.57874e-06
1.13619e-06
4.49614e-06
8.2042e-07
4.4155e-06
4.96107e-07
4.34128e-06
1.60844e-07
4.24925e-06
-1.91125e-07
4.12381e-06
-5.38465e-07
3.95025e-06
-8.94334e-07
3.70785e-06
-1.23765e-06
3.40361e-06
-1.5508e-06
3.08289e-06
-1.80308e-06
2.85568e-06
-1.99316e-06
2.81903e-06
-2.1309e-06
3.01897e-06
-2.26357e-06
3.2504e-06
-2.2814e-06
3.52266e-06
-1.0261e-06
-1.22555e-06
1.53824e-06
-7.81586e-07
1.80587e-06
-1.0293e-06
1.36899e-06
-5.40445e-07
1.63902e-06
-8.06999e-07
1.18107e-06
-3.36751e-07
1.43573e-06
-5.68015e-07
1.04461e-06
-2.29086e-07
1.21693e-06
-3.74267e-07
9.63834e-07
-1.9717e-07
1.04909e-06
-2.59831e-07
9.06033e-07
-1.8981e-07
9.47527e-07
-2.16478e-07
8.77964e-07
-1.99694e-07
7.82989e-07
-1.67392e-07
8.44309e-07
-2.02349e-07
8.05431e-07
-1.99531e-07
7.27407e-07
-9.94758e-08
7.43204e-07
-1.46419e-07
6.81391e-07
-1.67631e-08
6.89185e-07
-6.33572e-08
-4.079e-08
1.54903e-06
-2.68063e-08
1.6332e-06
2.4273e-08
1.70471e-06
1.52174e-07
1.75674e-06
3.89312e-07
1.75992e-06
6.59925e-07
1.765e-06
9.65825e-07
1.81992e-06
1.27491e-06
1.86297e-06
1.58462e-06
1.87554e-06
1.92051e-06
1.88318e-06
2.27989e-06
1.88623e-06
2.69252e-06
1.89862e-06
3.17524e-06
1.91191e-06
3.67411e-06
1.91221e-06
4.14763e-06
1.87709e-06
4.51708e-06
1.76811e-06
4.70983e-06
1.56211e-06
4.72937e-06
1.28097e-06
4.66384e-06
9.68356e-07
4.59067e-06
6.45112e-07
4.52816e-06
3.08998e-07
4.46073e-06
-5.08953e-08
4.36856e-06
-4.36187e-07
4.24234e-06
-8.30616e-07
4.04021e-06
-1.2264e-06
3.78139e-06
-1.61444e-06
3.519e-06
-1.98317e-06
3.41953e-06
-2.35832e-06
3.5633e-06
-2.72533e-06
3.88375e-06
-2.98302e-06
4.10838e-06
-3.113e-06
4.33173e-06
-1.47766e-06
-1.61147e-06
2.02567e-06
-1.24751e-06
2.24409e-06
-1.44512e-06
1.90606e-06
-1.05114e-06
2.14044e-06
-1.26605e-06
1.72663e-06
-8.34005e-07
2.00333e-06
-1.08664e-06
1.48958e-06
-6.11496e-07
1.79738e-06
-8.78566e-07
1.23715e-06
-4.17993e-07
1.52731e-06
-6.66454e-07
1.03877e-06
-2.88636e-07
1.23832e-06
-4.60163e-07
9.20233e-07
-2.3211e-07
1.01324e-06
-3.09673e-07
8.83747e-07
-2.39156e-07
7.62697e-07
-1.8689e-07
8.40843e-07
-2.37779e-07
7.92316e-07
-2.29165e-07
7.019e-07
-1.12197e-07
7.17745e-07
-1.62271e-07
6.50309e-07
-1.87295e-08
6.59115e-07
-7.21639e-08
-4.69032e-08
1.46058e-06
-3.59958e-08
1.55809e-06
1.58344e-08
1.64131e-06
1.47721e-07
1.7087e-06
3.95234e-07
1.75026e-06
6.53632e-07
1.76583e-06
9.36813e-07
1.7936e-06
1.24737e-06
1.84713e-06
1.5628e-06
1.88447e-06
1.8943e-06
1.90144e-06
2.2498e-06
1.913e-06
2.64984e-06
1.92867e-06
3.12397e-06
1.94946e-06
3.62667e-06
1.95926e-06
4.11778e-06
1.94192e-06
4.53256e-06
1.86154e-06
4.78957e-06
1.68819e-06
4.86389e-06
1.42736e-06
4.82352e-06
1.12113e-06
4.7594e-06
7.99405e-07
4.70771e-06
4.65361e-07
4.65966e-06
1.09857e-07
4.59806e-06
-2.80691e-07
4.50991e-06
-7.04045e-07
4.36526e-06
-1.15547e-06
4.17661e-06
-1.6203e-06
3.99019e-06
-2.08032e-06
4.03571e-06
-2.58692e-06
4.35668e-06
-3.13477e-06
4.6479e-06
-3.47579e-06
4.67461e-06
-3.53739e-06
4.77453e-06
-1.76884e-06
-1.78014e-06
2.37494e-06
-1.60882e-06
2.496e-06
-1.73141e-06
2.34214e-06
-1.45109e-06
2.49235e-06
-1.59619e-06
2.25141e-06
-1.30213e-06
2.45921e-06
-1.47629e-06
2.09158e-06
-1.1313e-06
2.35664e-06
-1.35482e-06
1.85067e-06
-9.37515e-07
2.16046e-06
-1.19132e-06
1.54141e-06
-7.22951e-07
1.87875e-06
-1.00623e-06
1.21868e-06
-4.9478e-07
1.52996e-06
-7.7311e-07
9.72805e-07
-3.21321e-07
1.17663e-06
-5.14102e-07
9.20795e-07
-3.19221e-07
7.40553e-07
-2.09713e-07
8.59972e-07
-3.05506e-07
7.92802e-07
-2.8146e-07
6.72657e-07
-1.25745e-07
6.88175e-07
-1.778e-07
6.16041e-07
-2.0491e-08
6.25016e-07
-8.11388e-08
-5.2493e-08
1.35752e-06
-4.40887e-08
1.46855e-06
9.28451e-09
1.56439e-06
1.48668e-07
1.63995e-06
3.96139e-07
1.70739e-06
6.48842e-07
1.75469e-06
9.13665e-07
1.78862e-06
1.20857e-06
1.83209e-06
1.52759e-06
1.88199e-06
1.86143e-06
1.91702e-06
2.2143e-06
1.9368e-06
2.60486e-06
1.95766e-06
3.06766e-06
1.98476e-06
3.57248e-06
2.00336e-06
4.07567e-06
2.00127e-06
4.52662e-06
1.94771e-06
4.84368e-06
1.80734e-06
4.97899e-06
1.57305e-06
4.97257e-06
1.27814e-06
4.91971e-06
9.60632e-07
4.87666e-06
6.3023e-07
4.84604e-06
2.78778e-07
4.8125e-06
-1.04842e-07
4.75858e-06
-5.29697e-07
4.66372e-06
-1.00255e-06
4.53794e-06
-1.51552e-06
4.45647e-06
-2.08047e-06
4.64959e-06
-2.67836e-06
5.14266e-06
-3.35218e-06
5.30793e-06
-3.7791e-06
5.0657e-06
-3.85099e-06
4.92608e-06
-3.67337e-06
2.52857e-06
-1.79899e-06
2.55138e-06
-1.79925e-06
2.5919e-06
-1.70771e-06
2.64733e-06
-1.78433e-06
2.61629e-06
-1.60961e-06
2.71796e-06
-1.69777e-06
2.58001e-06
-1.52824e-06
2.75234e-06
-1.65042e-06
2.44281e-06
-1.41665e-06
2.68643e-06
-1.6011e-06
2.20236e-06
-1.26379e-06
2.50033e-06
-1.49189e-06
1.87377e-06
-1.0689e-06
2.20955e-06
-1.34425e-06
1.4912e-06
-8.10831e-07
1.83831e-06
-1.12203e-06
1.11131e-06
-5.1233e-07
1.42243e-06
-8.26527e-07
1.02797e-06
-4.87562e-07
7.24973e-07
-2.4654e-07
9.30161e-07
-4.43063e-07
8.28316e-07
-3.84909e-07
6.36325e-07
-1.37059e-07
6.59727e-07
-2.01219e-07
5.79306e-07
-2.30483e-08
5.87109e-07
-8.89384e-08
-5.73672e-08
1.23807e-06
-4.96045e-08
1.36294e-06
5.76786e-09
1.47171e-06
1.5428e-07
1.5583e-06
3.94635e-07
1.64103e-06
6.382e-07
1.71756e-06
8.91165e-07
1.77685e-06
1.17035e-06
1.82651e-06
1.48158e-06
1.87777e-06
1.81786e-06
1.92526e-06
2.17267e-06
1.95834e-06
2.55647e-06
1.98471e-06
3.00738e-06
2.01769e-06
3.51184e-06
2.04518e-06
4.02301e-06
2.056e-06
4.50199e-06
2.02577e-06
4.87209e-06
1.9191e-06
5.07089e-06
1.71526e-06
5.10738e-06
1.43782e-06
5.07053e-06
1.12724e-06
5.03468e-06
8.02349e-07
5.01748e-06
4.5855e-07
5.00779e-06
8.32456e-08
4.98864e-06
-3.35212e-07
4.94113e-06
-8.07325e-07
4.86788e-06
-1.33153e-06
4.86658e-06
-1.91957e-06
5.19553e-06
-2.60795e-06
5.87901e-06
-3.39261e-06
5.93744e-06
-3.96482e-06
5.48649e-06
-4.17953e-06
5.01824e-06
-3.92338e-06
-2.60911e-06
5.02276e-06
-1.74848e-06
-1.76524e-06
2.64196e-06
-1.78959e-06
-1.76092e-06
2.76568e-06
-1.75332e-06
2.77439e-06
-1.7888e-06
2.86764e-06
-1.72523e-06
2.92183e-06
-1.75034e-06
2.88063e-06
-1.72424e-06
3.01497e-06
-1.78523e-06
2.76233e-06
-1.68089e-06
2.97064e-06
-1.81089e-06
2.51741e-06
-1.57372e-06
2.78617e-06
-1.76229e-06
2.17362e-06
-1.40602e-06
2.48515e-06
-1.65726e-06
1.76938e-06
-1.15931e-06
2.09987e-06
-1.45394e-06
1.3239e-06
-8.09355e-07
1.66626e-06
-1.17017e-06
1.20423e-06
-7.6223e-07
7.30749e-07
-3.1761e-07
1.06768e-06
-6.82799e-07
9.23679e-07
-5.78034e-07
6.00011e-07
-1.49965e-07
6.42194e-07
-2.43413e-07
5.39526e-07
-2.55883e-08
5.43851e-07
-9.32548e-08
-6.18054e-08
1.09772e-06
-5.1408e-08
1.23973e-06
6.84665e-09
1.36151e-06
1.64728e-07
1.46083e-06
3.90773e-07
1.56173e-06
6.19546e-07
1.6593e-06
8.62583e-07
1.74579e-06
1.13077e-06
1.81611e-06
1.43198e-06
1.87582e-06
1.76468e-06
1.93065e-06
2.12203e-06
1.97558e-06
2.50393e-06
2.0106e-06
2.94326e-06
2.04865e-06
3.44468e-06
2.08469e-06
3.96144e-06
2.10662e-06
4.46083e-06
2.097e-06
4.87652e-06
2.02124e-06
5.13794e-06
1.85189e-06
5.22617e-06
1.5964e-06
5.2114e-06
1.29677e-06