/*--------------------------------*- C++ -*----------------------------------*\
  =========                 |
  \\      /  F ield         | OpenFOAM: The Open Source CFD Toolbox
   \\    /   O peration     | Website:  https://openfoam.org
    \\  /    A nd           | Version:  dev
     \\/     M anipulation  |
\*---------------------------------------------------------------------------*/
FoamFile
{
    version     2.0;
    format      ascii;
    class       volScalarField;
    location    "2500";
    object      qr;
}
// * * * * * * * * * * * * * * * * * * * * * * * * * * * * * * * * * * * * * //

dimensions      [1 0 -3 0 0 0 0];

internalField   uniform 0;

boundaryField
{
    lowerOutlet
    {
        type            calculated;
        value           nonuniform List<scalar> 
144
(
1087.23
1090.85
1094.85
1099.24
1104.01
1109.19
1114.78
1120.8
1127.25
1134.16
1141.55
1149.44
1157.87
1166.86
1176.45
1186.68
1197.6
1209.27
1221.76
1235.12
1249.46
1264.87
1281.47
1299.38
1318.81
1339.95
1363
1388.22
1415.92
1446.51
1480.48
1518.39
1560.99
1597.65
1651.12
1712.89
1784.88
1869.85
1971.77
2096.45
2253.05
2456.69
2732.88
3124.45
3670.16
4361.07
4974.76
6388.08
-10350.9
3553.93
2897.97
2531.49
2283.56
2081.07
1946.79
1840.41
1754.25
1682.94
1622.79
1571.19
1526.37
1486.92
1451.95
1412.9
1385.46
1360.49
1337.66
1316.69
1297.33
1279.4
1262.73
1247.2
1232.7
1219.14
1206.4
1194.42
1183.13
1172.48
1162.43
1152.93
1143.95
1135.46
1127.43
1119.83
1112.65
1105.87
1099.46
1093.42
1087.73
1082.38
1077.36
1072.67
1068.29
1064.22
1060.46
1057.01
2030.79
2170.02
2347.64
2583.62
2910.28
3531.24
4210.43
4809.93
6083.51
5540.08
3829.8
3021.21
2608.73
2337.93
2162.86
2009.74
1890.69
1795.19
1717
1651.66
1825.51
1918.38
3897.21
4508.63
5083.72
6640.95
4486.44
3338.72
2790.25
2461.26
2233.37
1596.05
1548.03
3307.53
4055.11
4657.05
5523.24
6849.92
4151.1
3165.41
2694.47
2396.97
1623.45
1680.86
1747.48
1506.03
1468.92
1435.92
)
;
    }
    top
    {
        type            calculated;
        value           nonuniform List<scalar> 
100
(
994.812
997.719
993.936
995.384
997.237
999.21
1001.06
1002.35
1002.22
1000.15
997.254
994.827
993.327
992.754
992.91
993.539
994.397
995.304
996.171
996.999
997.882
998.976
1000.41
1002.25
1004.47
1007.03
1009.78
1012.46
1014.45
1014.72
1011.6
1002.85
986.379
965.835
945.864
933.986
930.751
938.034
961.022
994.908
1031.28
1054.94
1064.06
1067
1068.41
1069.44
1070.23
1070.82
1071.27
1071.58
1071.79
1071.88
1071.86
1071.74
1071.48
1071.12
1070.66
1070.12
1069.46
1068.81
1067.92
1066.97
1065.92
1064.77
1063.44
1061.97
1060.41
1058.68
1056.86
1055.02
1053.1
1051.16
1049.31
1047.61
1046.3
1046.21
1054.36
1051.74
1049.06
1046.34
1043.58
1040.78
1037.95
1035.08
1032.18
1029.27
1026.33
1023.38
1020.42
1017.45
1011.93
1007.9
1003.81
999.698
995.964
992.606
989.808
987.604
986.332
985.568
)
;
    }
    sides
    {
        type            calculated;
        value           nonuniform List<scalar> 
100
(
1087.23
1090.12
1092.65
1094.81
1096.61
1098.05
1099.16
1099.92
1100.36
1100.48
1100.3
1099.84
1099.1
1098.1
1096.85
1095.38
1093.7
1091.82
1089.75
1087.52
1085.14
1082.63
1079.98
1077.23
1074.38
1071.44
1068.43
1065.35
1062.22
1059.04
1055.81
1052.56
1049.29
1045.99
1042.69
1039.39
1036.09
1032.79
1029.5
1026.23
1022.97
1019.73
1016.51
1013.32
1010.16
1007.02
1003.92
1000.84
997.802
994.831
1057.01
1059.89
1062.47
1064.77
1066.78
1068.5
1069.94
1071.11
1072.01
1072.66
1073.04
1073.19
1073.1
1072.78
1072.25
1071.51
1070.58
1069.46
1068.17
1066.71
1065.1
1063.35
1061.47
1059.46
1057.34
1055.11
1052.79
1050.38
1047.9
1045.34
1042.71
1040.03
1037.29
1034.52
1031.7
1028.85
1025.97
1023.07
1020.16
1017.22
1014.28
1011.32
1008.36
1005.4
1002.43
999.467
996.504
993.544
990.586
987.671
)
;
    }
    front
    {
        type            empty;
    }
    back
    {
        type            empty;
    }
    roller
    {
        type            calculated;
        value           nonuniform List<scalar> 
142
(
7186.44
5750.81
4296.63
3251.74
1665.65
1371.03
1282.68
1247.79
1209.39
1225.23
8454.24
8557.69
6731.51
6372.34
2933.53
2144.56
1702.22
1439.45
1295.91
1255.03
1294.66
1225.34
1236.61
5591.82
5966.96
5317.44
2671.27
2028.59
2594.99
2472.21
1641
1404.08
1394.86
1337.68
1271.83
1228.09
8088.79
9122.59
7087.56
4633.13
5237.37
6403.6
4309.16
4762.61
3257.95
3477.73
2758.84
2390.97
1821.87
1772.96
1741.42
2035.31
1460.62
1373.84
1354.54
1359.22
1348.9
1339.2
1220.53
8772.49
8129.59
2288.43
2188.1
1559.35
1481.28
1420.64
1419.28
1202.29
1203.53
1212.02
9438.69
9424.48
3901.35
1952.66
1581.08
1891.87
1727.61
1499.32
1679.75
1560.89
1434.07
1529.17
1380.62
1304.88
1266.78
1258.5
1212.86
1221.54
1203.17
1202.45
1209.47
7701.3
7626.82
3997.35
3041.21
1892.52
2119.98
1538.36
1464.34
1491.39
1321.48
1330.19
1284.88
1275.58
1242.37
1247.55
1206.39
1201.9
1205.15
1214.76
9353.62
9305.94
9012.03
4929.35
3565.74
3725.12
2457.39
2284.61
2891.13
1954.72
1610.38
1833.73
1779.04
1518.38
1635.91
1596.3
1448.61
1390.45
1321.92
1308.4
1313.16
1262.83
1237.35
1230.63
1215.85
1232.29
1241.16
1252.69
1204.54
1201.93
1207.18
1217.64
)
;
    }
    burner
    {
        type            calculated;
        value           nonuniform List<scalar> 
16
(
-124790
-119001
-116272
-117286
-120203
-116654
-116557
-123396
-123209
-118017
-116107
-118494
-121645
-117236
-116187
-120388
)
;
    }
}


// ************************************************************************* //
