/*--------------------------------*- C++ -*----------------------------------*\
  =========                 |
  \\      /  F ield         | OpenFOAM: The Open Source CFD Toolbox
   \\    /   O peration     | Website:  https://openfoam.org
    \\  /    A nd           | Version:  dev
     \\/     M anipulation  |
\*---------------------------------------------------------------------------*/
FoamFile
{
    version     2.0;
    format      ascii;
    class       volScalarField;
    location    "2500";
    object      rAU;
}
// * * * * * * * * * * * * * * * * * * * * * * * * * * * * * * * * * * * * * //

dimensions      [-1 3 1 0 0 0 0];

internalField   nonuniform List<scalar> 
9842
(
0.0082214
0.00828767
0.00824553
0.0082783
0.00839365
0.00818613
0.00825377
0.00838683
0.00839674
0.00813535
0.00823261
0.00838785
0.00837885
0.00840986
0.00808714
0.00821598
0.00839532
0.00837085
0.00838828
0.00842052
0.00804249
0.00820114
0.00840781
0.00837284
0.0083718
0.00840413
0.00842585
0.00800147
0.00818156
0.00842067
0.00838106
0.00836252
0.00838524
0.00841645
0.00842862
0.00796409
0.00816177
0.00842664
0.00839461
0.00835997
0.0083692
0.00840252
0.0084231
0.00843043
0.00793005
0.00814003
0.00843067
0.0084078
0.00836425
0.00835837
0.00838585
0.00841489
0.00842706
0.00843181
0.00789909
0.00812153
0.00843051
0.00841727
0.00837445
0.00835223
0.00836956
0.00840336
0.00842196
0.00842948
0.00843274
0.00787113
0.00810422
0.00843167
0.00842397
0.00838946
0.00835239
0.00835664
0.00838908
0.00841531
0.00842607
0.00843139
0.00843337
0.00784607
0.00808574
0.00843381
0.00842876
0.00840417
0.00835771
0.00834913
0.00837273
0.00840607
0.00842196
0.00842882
0.00843288
0.00843381
0.00782371
0.00806732
0.00843471
0.00843171
0.00841482
0.00836892
0.00834435
0.0083584
0.00839341
0.00841659
0.00842596
0.00843098
0.00843404
0.00843413
0.00780418
0.00804891
0.00843494
0.00843291
0.00842233
0.0083842
0.00834486
0.00834755
0.00837807
0.00840922
0.00842253
0.00842897
0.00843278
0.00843474
0.00843424
0.00778726
0.00803029
0.0084348
0.00843399
0.00842688
0.00839995
0.00835073
0.00834083
0.0083624
0.0083989
0.00841842
0.00842645
0.00843116
0.0084342
0.00843543
0.0084345
0.00777285
0.00801144
0.00843484
0.0084346
0.00842992
0.00841068
0.00836258
0.00833663
0.00834935
0.00838514
0.00841261
0.00842377
0.00842939
0.00843306
0.00843511
0.00843585
0.00843472
0.00776087
0.00799261
0.00843505
0.00843481
0.00843178
0.0084182
0.00837873
0.00833783
0.00833923
0.00836895
0.00840461
0.00842073
0.00842738
0.00843165
0.00843455
0.00843605
0.00843625
0.00843493
0.0077514
0.00797398
0.00843539
0.00843516
0.00843286
0.0084235
0.00839462
0.00834395
0.00833376
0.00835337
0.00839217
0.00841684
0.00842582
0.00843021
0.00843352
0.00843563
0.00843663
0.00843666
0.00841548
0.00774447
0.0079553
0.00843548
0.00843515
0.00843358
0.00842629
0.00840559
0.00835533
0.00833028
0.0083417
0.00837705
0.00840895
0.00842374
0.00842914
0.00843234
0.00843493
0.00843669
0.00843709
0.00841754
0.0083954
0.00760323
0.00793698
0.00843561
0.00843556
0.00843451
0.00842859
0.0084133
0.00836989
0.00833143
0.00833331
0.00836134
0.00839863
0.00841956
0.00842797
0.0084316
0.00843405
0.00843616
0.00843737
0.00843756
0.00839764
0.00819951
0.00773703
0.00791892
0.00843591
0.0084357
0.00843468
0.00843061
0.00841862
0.00838446
0.00833667
0.00832853
0.00834726
0.00838526
0.00841314
0.00842551
0.00843098
0.00843368
0.00843543
0.00843723
0.00843789
0.00843794
0.00834726
0.00840313
0.00773637
0.00790147
0.008436
0.00843593
0.00843548
0.00843187
0.00842185
0.00839803
0.00834652
0.00832488
0.00833666
0.00837127
0.00840439
0.00842164
0.00842923
0.00843328
0.00843518
0.00843666
0.00843796
0.00843832
0.00842681
0.00840564
0.00841907
0.00773757
0.00788442
0.00843616
0.00843622
0.0084359
0.00843277
0.00842432
0.0084063
0.00835986
0.00832491
0.0083283
0.00835655
0.00839393
0.00841689
0.00842675
0.00843196
0.00843516
0.00843648
0.00843762
0.00843852
0.00843874
0.0084385
0.00842165
0.00843483
0.00774057
0.00786813
0.00843629
0.00843601
0.00843631
0.00843349
0.00842608
0.00841249
0.00837495
0.00832877
0.00832303
0.00834311
0.00838116
0.0084102
0.0084237
0.0084298
0.00843395
0.0084367
0.00843772
0.00843836
0.00843893
0.00843903
0.00843857
0.00843746
0.00843476
0.00774541
0.00785263
0.00843646
0.00843646
0.00843624
0.00843422
0.00842728
0.00841661
0.00838864
0.00833675
0.00831949
0.00833217
0.00836751
0.00840162
0.0084201
0.00842785
0.00843205
0.00843556
0.00843796
0.00843863
0.00843882
0.00843923
0.00843917
0.00843851
0.00843743
0.00843495
0.00775094
0.00783818
0.00843658
0.00843703
0.00843678
0.00843483
0.00842815
0.00841907
0.00839838
0.00834878
0.0083185
0.0083241
0.00835332
0.00839075
0.00841512
0.00842559
0.0084305
0.0084338
0.00843678
0.00843898
0.00843931
0.00843919
0.00843936
0.00843922
0.00843843
0.00843753
0.00843491
0.00775635
0.00782467
0.00843657
0.00843728
0.0084372
0.00843516
0.00842921
0.00842071
0.00840484
0.00836307
0.0083213
0.00831839
0.00834029
0.00837833
0.00840803
0.00842247
0.00842886
0.00843226
0.00843524
0.00843795
0.00843975
0.0084398
0.0084394
0.00843937
0.00843911
0.0084384
0.00843741
0.00843475
0.00776228
0.00781226
0.00843668
0.00843752
0.00843758
0.00843578
0.00842989
0.00842209
0.0084102
0.00837725
0.0083274
0.0083151
0.00832893
0.00836517
0.00839899
0.00841864
0.00842678
0.0084309
0.00843374
0.00843617
0.00843868
0.00844037
0.00844008
0.00843941
0.0084393
0.008439
0.00843809
0.00843732
0.00843449
0.0077688
0.00780042
0.00843683
0.00843773
0.00843788
0.00843626
0.00843062
0.00842313
0.00841359
0.00838913
0.00833779
0.00831318
0.00832102
0.00835186
0.00838874
0.00841322
0.00842425
0.00842936
0.0084324
0.00843473
0.00843687
0.00843927
0.00844067
0.00844015
0.00843929
0.00843911
0.00843852
0.00843762
0.0084372
0.00843426
0.00777403
0.00778934
0.00843698
0.00843793
0.00843813
0.00843668
0.00843144
0.00842395
0.00841639
0.00839765
0.00835092
0.00831479
0.00831496
0.00833898
0.00837722
0.00840642
0.00842087
0.00842758
0.0084309
0.00843314
0.00843534
0.00843726
0.00843946
0.00844074
0.00844003
0.00843909
0.0084386
0.00843786
0.00843706
0.00843706
0.00843393
0.0077795
0.00777936
0.00843713
0.00843811
0.00843836
0.00843713
0.0084321
0.00842479
0.00841842
0.00840415
0.00836552
0.00831905
0.00831164
0.00832743
0.0083644
0.00839787
0.00841698
0.00842535
0.0084293
0.00843171
0.00843387
0.00843555
0.00843736
0.00843941
0.00844049
0.00843974
0.00843852
0.00843782
0.00843697
0.00843637
0.00843698
0.00843341
0.00778669
0.00777132
0.00843706
0.00843851
0.00843861
0.00843734
0.00843245
0.00842574
0.00841992
0.00840914
0.00837954
0.00832758
0.0083093
0.00831904
0.00835147
0.00838763
0.00841206
0.00842266
0.00842754
0.0084301
0.00843216
0.00843368
0.00843545
0.00843704
0.00843893
0.00844001
0.00843898
0.00843748
0.0084367
0.00843584
0.0084356
0.00843664
0.0084329
0.00778846
0.00776566
0.00843699
0.00843868
0.00843895
0.00843763
0.00843262
0.00842656
0.00842109
0.00841295
0.00839022
0.00833956
0.00831018
0.00831329
0.00833906
0.0083765
0.00840501
0.00841943
0.00842531
0.00842853
0.00843012
0.00843192
0.00843321
0.00843477
0.00843625
0.00843809
0.00843898
0.0084376
0.008436
0.00843524
0.00843461
0.00843501
0.00843605
0.00842128
0.00700313
0.00816592
0.00773694
0.00843682
0.00843876
0.00843642
0.00843759
0.00843291
0.00842765
0.00842251
0.0084159
0.00839782
0.00835304
0.0083129
0.00830967
0.0083287
0.00836517
0.00839693
0.00841521
0.00842307
0.00842635
0.00842806
0.00842966
0.00843105
0.00843217
0.00843351
0.00843489
0.00843666
0.00843715
0.00843572
0.00843422
0.00841324
0.00843392
0.00842143
0.00846538
0.00817743
0.00817387
0.00699447
0.00813838
0.00762914
0.0083852
0.00843876
0.0084336
0.00843494
0.00843313
0.00842845
0.00842421
0.00841871
0.00840473
0.00836747
0.00831848
0.00830708
0.00831941
0.00835381
0.00838855
0.00841062
0.00842054
0.00842446
0.00842627
0.00842722
0.0084283
0.00842928
0.00843034
0.00843149
0.00843286
0.00843428
0.00843488
0.00843385
0.00841792
0.0084127
0.00842001
0.00829329
0.00816169
0.00816973
0.00827034
0.0081696
0.00815196
0.00814903
0.00700447
0.00813875
0.00764506
0.00823062
0.00841601
0.0084312
0.00843179
0.00843329
0.00842924
0.00842561
0.00842097
0.00840989
0.00838053
0.00832835
0.00830592
0.00831263
0.00834179
0.00837846
0.00840555
0.00841826
0.00842297
0.00842461
0.00842542
0.00842544
0.0084259
0.00842663
0.00842757
0.00842889
0.00843016
0.00843203
0.00842486
0.00840596
0.00841825
0.00841898
0.00816092
0.00815853
0.00814062
0.0081472
0.00814554
0.00814868
0.00815231
0.00814898
0.00701524
0.0081413
0.00764864
0.00822631
0.0083575
0.0084106
0.00842904
0.00843351
0.00843012
0.00842709
0.00842298
0.00841368
0.00839039
0.00834006
0.00830784
0.00830834
0.00833075
0.0083674
0.00839788
0.00841533
0.00842157
0.00842324
0.00842369
0.00842338
0.00842257
0.00842312
0.00842457
0.00842563
0.00842653
0.00838099
0.00838454
0.00839256
0.00838888
0.00835306
0.00804343
0.00776152
0.00814247
0.00814219
0.0081438
0.00814778
0.00814819
0.00815007
0.00815624
0.00815321
0.00703639
0.00816063
0.00765445
0.00823267
0.00834832
0.00835772
0.00838858
0.00843384
0.00843099
0.00842856
0.00842471
0.00841705
0.00839785
0.00835291
0.00831087
0.00830569
0.00832165
0.00835719
0.00838986
0.00841046
0.00841946
0.00842201
0.00842199
0.00842189
0.00842113
0.00842079
0.00842396
0.00842474
0.00842291
0.00834705
0.0083807
0.00838617
0.00830921
0.00820939
0.00760136
0.00775189
0.00814138
0.00814584
0.00814679
0.00814835
0.00814738
0.00815245
0.00815098
0.00815506
0.00818262
0.00818328
0.00708396
0.00819955
0.00766516
0.00822192
0.00835902
0.00836569
0.0083426
0.00838439
0.00843212
0.00843034
0.00842683
0.00842008
0.00840406
0.00836602
0.00831638
0.00830278
0.00831357
0.00834651
0.00838184
0.00840598
0.00841728
0.00842023
0.00842021
0.00841945
0.00841978
0.0084221
0.00842473
0.00842229
0.00841686
0.00841774
0.00833028
0.00836889
0.00824863
0.00814158
0.00777234
0.00779705
0.00813624
0.00799171
0.00815159
0.00816579
0.00815203
0.00815794
0.00815201
0.00818333
0.00815719
0.00818371
0.0082236
0.00822487
0.00713908
0.00823606
0.00768163
0.0081997
0.00834389
0.00837895
0.00838035
0.00833085
0.00835637
0.00843178
0.00842899
0.00842295
0.00840975
0.00837861
0.00832559
0.0083013
0.00830696
0.00833425
0.00837181
0.00840051
0.00841553
0.00841995
0.00841931
0.00841677
0.00841702
0.00842315
0.00842483
0.00841624
0.00840376
0.00840338
0.00839009
0.00832423
0.00824555
0.00820234
0.00792737
0.00789781
0.00787913
0.00792549
0.00813138
0.00804676
0.00817082
0.00816237
0.00816037
0.00817643
0.00816039
0.00822427
0.00818179
0.0082202
0.00826075
0.0082615
0.00719382
0.00826567
0.00770464
0.00817431
0.00830993
0.00837871
0.00838215
0.00838048
0.00827744
0.00832063
0.00843109
0.00842523
0.00841418
0.00838908
0.00833701
0.00830283
0.00830204
0.00832301
0.00836034
0.00839248
0.008412
0.00841936
0.00841959
0.00841706
0.00841458
0.00842183
0.00842261
0.0084055
0.0083888
0.00837672
0.00837635
0.00835196
0.00832182
0.00826147
0.00778451
0.00760815
0.00791835
0.0077758
0.0079881
0.00791797
0.00809295
0.00801266
0.00817747
0.00811546
0.00817657
0.0081883
0.0081815
0.00825741
0.00821443
0.00824906
0.00829072
0.00829019
0.0072485
0.00828978
0.00773412
0.00815739
0.00827446
0.00837369
0.00835144
0.00843457
0.00835356
0.0082607
0.00843326
0.0084274
0.00841764
0.00839705
0.00835014
0.00830656
0.00829947
0.00831331
0.00834903
0.0083835
0.00840661
0.00841696
0.00841906
0.00841791
0.00841546
0.0084216
0.00842096
0.00839527
0.0083722
0.00835242
0.00834166
0.00829276
0.00836499
0.00826968
0.00748853
0.00744873
0.00760943
0.00750753
0.00776426
0.00760171
0.00791716
0.00775197
0.00802645
0.00791482
0.00813243
0.00803536
0.00819316
0.00814642
0.00820834
0.00828244
0.00823597
0.00826264
0.0083126
0.00831138
0.00730544
0.00830974
0.00776953
0.00816968
0.0082428
0.00838474
0.00835971
0.00837685
0.00843516
0.00836151
0.00843567
0.00842962
0.00842045
0.00840337
0.00836394
0.00831324
0.00829737
0.00830624
0.00833807
0.00837418
0.00840092
0.00841421
0.00841752
0.00841702
0.00841592
0.00842179
0.00842146
0.00839158
0.00835696
0.0083307
0.00825569
0.00817858
0.00825257
0.00828385
0.00741335
0.00741329
0.00747545
0.0074687
0.00751292
0.00747874
0.00759188
0.0075092
0.00773834
0.00758048
0.00790879
0.00773091
0.00804504
0.00790769
0.00815622
0.00805479
0.00817128
0.00829544
0.00819041
0.00822543
0.00832802
0.0083238
0.00736428
0.0083247
0.00781136
0.00818407
0.00824322
0.00838436
0.00840257
0.00835277
0.00843506
0.00842478
0.00843694
0.00843138
0.00842248
0.00840881
0.00837661
0.00832309
0.00829716
0.00830076
0.00832649
0.00836483
0.0083945
0.00841171
0.00841688
0.00841603
0.00841454
0.00841959
0.00842113
0.0083927
0.0083517
0.00831225
0.00819839
0.00810806
0.00790854
0.00835568
0.00740048
0.00725869
0.00747824
0.00749103
0.00747658
0.00748865
0.0074822
0.00748147
0.00749927
0.00747987
0.00757283
0.00749048
0.00772265
0.00757459
0.00791646
0.00772847
0.0080628
0.00793244
0.00808516
0.00827795
0.00811504
0.00816314
0.00833896
0.00831496
0.00742731
0.00833658
0.00786076
0.00820071
0.00824817
0.00837832
0.00843973
0.00841244
0.00843671
0.00843584
0.00843668
0.00843287
0.0084245
0.00841292
0.008387
0.0083349
0.0082992
0.00829681
0.00831594
0.00835399
0.00838744
0.00840845
0.0084163
0.00841601
0.00841366
0.00841598
0.00841907
0.00839362
0.00835257
0.00830396
0.00816618
0.00814692
0.0081298
0.00777992
0.00813026
0.00682822
0.0066999
0.00750469
0.00682862
0.00749696
0.00751838
0.00748819
0.0073767
0.0074732
0.00736898
0.00749305
0.00741435
0.00757409
0.0075059
0.00775143
0.007591
0.00795434
0.00778646
0.00800093
0.00821401
0.00804941
0.00808956
0.00833897
0.00824476
0.00749349
0.0083443
0.00791986
0.00822062
0.00826199
0.00837567
0.00843956
0.00843985
0.00843914
0.00843706
0.00843613
0.00843358
0.00842617
0.00841588
0.00839557
0.00834782
0.00830345
0.00829449
0.00830693
0.00834274
0.00837906
0.00840406
0.00841569
0.00841639
0.0084137
0.00841303
0.00841798
0.00839682
0.00835455
0.00830295
0.00814017
0.00816732
0.00826834
0.00821157
0.00798032
0.00746508
0.00749369
0.00655222
0.0071873
0.00680518
0.00654131
0.00725816
0.0063954
0.0072548
0.00694232
0.00732295
0.0069637
0.00737559
0.0071993
0.00749154
0.00736449
0.00762403
0.00748759
0.00782946
0.00766273
0.00788744
0.00812273
0.0079285
0.00798844
0.00831609
0.00819601
0.00755623
0.00833595
0.00799295
0.00824419
0.0082926
0.0083804
0.0084391
0.00844011
0.00844045
0.008439
0.00843643
0.00843353
0.00842714
0.00841811
0.00840175
0.00836037
0.00831073
0.00829255
0.00830033
0.00833071
0.00836955
0.00839868
0.00841417
0.00841727
0.00841477
0.00841138
0.00841594
0.00840405
0.00836137
0.0083043
0.00811954
0.00812843
0.00829567
0.00825173
0.00820419
0.00753062
0.00757846
0.007589
0.00763082
0.00720871
0.00756689
0.00642319
0.0073068
0.00666776
0.00653345
0.00681886
0.00693343
0.00736029
0.00710134
0.00726181
0.00728239
0.00743432
0.00738797
0.00751984
0.00748885
0.0077046
0.00758644
0.00775405
0.00807141
0.00780102
0.00788191
0.0082314
0.00811911
0.00761328
0.00830615
0.00808796
0.00827311
0.00831984
0.00840062
0.0084382
0.00843974
0.00844078
0.00843989
0.0084369
0.00843323
0.00842745
0.00841949
0.00840614
0.00837201
0.00832032
0.00829301
0.00829488
0.00831897
0.00835901
0.00839174
0.00841195
0.00841808
0.00841618
0.00841166
0.00841256
0.00840903
0.0083725
0.00831343
0.00811593
0.00809321
0.00826001
0.00808289
0.00833022
0.00763651
0.0075393
0.00767396
0.00772609
0.0076476
0.00768287
0.00760549
0.00761859
0.00736879
0.00757117
0.00711158
0.00713676
0.00698604
0.00725622
0.00753771
0.00708532
0.00737845
0.00681057
0.00746901
0.00689018
0.00751175
0.00753903
0.00764303
0.0075592
0.00767729
0.00795133
0.00770779
0.00777324
0.00819377
0.00802927
0.0076463
0.00823832
0.00815367
0.0083115
0.00835362
0.00841519
0.00843681
0.0084385
0.00843997
0.00843955
0.00843667
0.00843273
0.00842742
0.0084201
0.00840904
0.00838161
0.00833134
0.00829531
0.00829154
0.00830819
0.00834726
0.00838346
0.00840813
0.00841813
0.00841783
0.00841358
0.0084093
0.00841006
0.00838359
0.0083289
0.00815202
0.00807172
0.00822071
0.0081344
0.0083131
0.00817281
0.00778081
0.00769533
0.00771488
0.00774597
0.00767909
0.00769517
0.00764445
0.00765964
0.00762138
0.00764217
0.00750669
0.00756855
0.00697382
0.00738853
0.00654702
0.00715436
0.00633157
0.00667908
0.00694613
0.00675584
0.00754433
0.00727707
0.00760471
0.007541
0.00762197
0.00784696
0.00765272
0.00769967
0.00812834
0.00793649
0.00759982
0.00816678
0.0082851
0.0083728
0.00843309
0.00843457
0.00843608
0.00843759
0.00843762
0.00843534
0.00843177
0.008427
0.00842022
0.00841047
0.00838859
0.00834279
0.00829969
0.00828925
0.00829986
0.00833514
0.00837405
0.00840267
0.00841751
0.00841965
0.00841588
0.00840953
0.0084079
0.00839238
0.00834679
0.00816485
0.0080863
0.00817434
0.00822353
0.00805351
0.00827311
0.00778891
0.00779781
0.00778648
0.00786128
0.00771277
0.00773412
0.00765848
0.0076665
0.00764947
0.00765135
0.00758303
0.00759695
0.00748634
0.00749392
0.00742194
0.00741082
0.00722797
0.00737966
0.00721184
0.00736037
0.00720393
0.00736254
0.00741457
0.00733835
0.00746441
0.00737606
0.00753425
0.00775922
0.00754756
0.00741516
0.00805083
0.00784507
0.00761396
0.00814007
0.00842229
0.00842838
0.00843068
0.00843182
0.00843319
0.00843383
0.00843258
0.00842987
0.00842574
0.00841994
0.0084107
0.0083928
0.00835331
0.00830665
0.00828754
0.00829378
0.00832224
0.0083638
0.00839582
0.00841565
0.00842132
0.00841852
0.00841231
0.00840578
0.00839758
0.00836505
0.00826742
0.00807819
0.00813022
0.00814381
0.00792572
0.0083921
0.00781816
0.00768674
0.0079067
0.0079599
0.00777831
0.00785272
0.00768209
0.00771141
0.00760686
0.00762226
0.00759885
0.00759877
0.00751319
0.00752471
0.00741597
0.00743818
0.00737362
0.00737436
0.00736253
0.00737335
0.00735425
0.00737242
0.00735126
0.00736379
0.00738646
0.00736177
0.00745003
0.00714955
0.00722755
0.00740941
0.00720638
0.00501057
0.00534572
0.007958
0.00751722
0.00749432
0.00798968
0.00843102
0.00842422
0.00842548
0.00842641
0.00842769
0.00842793
0.00842647
0.00842324
0.00841841
0.00841038
0.00839456
0.00836183
0.00831514
0.00828823
0.00828878
0.00831028
0.00835192
0.00838774
0.00841236
0.00842194
0.00842119
0.00841572
0.00840745
0.0083999
0.00838013
0.00831484
0.00812055
0.00810167
0.00806872
0.0080943
0.00820283
0.00816212
0.00800175
0.00789728
0.00793025
0.00799091
0.0077814
0.00786067
0.00765394
0.00772209
0.00756255
0.00759914
0.00753035
0.00754175
0.007461
0.00747246
0.00739146
0.00742539
0.00737447
0.00733995
0.00741622
0.00740198
0.00740658
0.00747618
0.00713871
0.00721162
0.00714004
0.00708517
0.0071084
0.00471282
0.00495282
0.00506243
0.00478676
0.00516305
0.00549345
0.00513409
0.00491858
0.0048528
0.00492551
0.00485814
0.00766411
0.00528435
0.00531057
0.00570884
0.00725922
0.00779215
0.00841686
0.00841612
0.00841685
0.00841833
0.00842029
0.00842034
0.0084188
0.00841477
0.00840881
0.00839461
0.00836738
0.00832426
0.0082904
0.00828588
0.00830001
0.00833892
0.00837847
0.00840679
0.00842113
0.00842362
0.00841939
0.00841108
0.0084024
0.00838998
0.00834409
0.00822447
0.00804958
0.00801832
0.00805044
0.00801563
0.00839084
0.00785858
0.00773659
0.00803425
0.00805481
0.00798863
0.00804211
0.00781928
0.00791018
0.00767809
0.00779123
0.00757364
0.00763855
0.00748658
0.00751653
0.00743829
0.00744056
0.00737207
0.0074118
0.00741007
0.00738712
0.00754975
0.0075455
0.00730555
0.00735272
0.00507117
0.00494263
0.00505414
0.00515577
0.00476386
0.00484398
0.00508061
0.00504196
0.0049391
0.00489244
0.00479572
0.00483831
0.00467847
0.00468516
0.00488913
0.00493502
0.00476436
0.00471684
0.0047053
0.0048038
0.0054654
0.00603088
0.00556473
0.00499549
0.00506876
0.00682394
0.00574699
0.005991
0.00677804
0.00840229
0.00838268
0.00840429
0.00840779
0.0084104
0.008411
0.00840876
0.00840444
0.00839353
0.0083695
0.00833219
0.00829432
0.0082833
0.00829222
0.00832507
0.00836745
0.00839931
0.00841916
0.00842521
0.00842265
0.00841591
0.00840586
0.00839557
0.00836732
0.00827118
0.00812187
0.00800306
0.00795644
0.00800781
0.00812012
0.00817496
0.00807009
0.00796536
0.00806886
0.00807574
0.00806365
0.0080884
0.0079074
0.00800392
0.00777429
0.00788057
0.00758673
0.00771418
0.00747215
0.00752152
0.00740584
0.00739631
0.00748908
0.00751058
0.00757157
0.00761068
0.00743751
0.00755423
0.00524991
0.00533643
0.00541275
0.00545631
0.00500622
0.005135
0.00524544
0.00473704
0.00484753
0.00505202
0.0051017
0.00497251
0.00472651
0.00471255
0.00476073
0.00475675
0.00474173
0.00482916
0.0048683
0.00475641
0.0047637
0.00478441
0.00477426
0.00516523
0.00528446
0.0049236
0.00499134
0.00661092
0.00440001
0.00609457
0.00542946
0.00563315
0.00835745
0.00835223
0.0083888
0.0083953
0.0083988
0.00839996
0.00839719
0.00839077
0.00836965
0.00833715
0.00829968
0.00828184
0.00828605
0.00831118
0.00835476
0.00839052
0.00841512
0.00842466
0.00842537
0.00842041
0.00841053
0.00839981
0.00838253
0.00831176
0.00816491
0.00801549
0.0078965
0.00795128
0.0079116
0.00838126
0.00784528
0.00775705
0.00808767
0.008076
0.0080956
0.00809466
0.00811607
0.00811692
0.0079841
0.00809445
0.00774463
0.00788783
0.00749127
0.00756471
0.00744012
0.00752758
0.00744005
0.00740388
0.0077226
0.00774611
0.00759293
0.00762309
0.00549497
0.00550692
0.00552473
0.00552407
0.00532604
0.00539886
0.00544383
0.00546476
0.00516878
0.00528864
0.00537343
0.00485293
0.00499094
0.00522135
0.00526375
0.00513216
0.00479958
0.00481872
0.00486016
0.0048788
0.00486476
0.00479036
0.00482235
0.00481323
0.00489248
0.00491721
0.00480258
0.00508044
0.00519088
0.00487286
0.00493525
0.0061367
0.00434012
0.00651343
0.00531831
0.00529597
0.00833023
0.00834419
0.00837058
0.00838195
0.00838721
0.00838779
0.00838498
0.00836966
0.0083399
0.00830523
0.00828255
0.00828234
0.00829976
0.00834118
0.00838129
0.00840973
0.00842353
0.00842696
0.00842377
0.00841572
0.00840452
0.00839156
0.00834591
0.00821659
0.00801754
0.00788367
0.0078436
0.00792794
0.00812312
0.00818332
0.00808121
0.00800843
0.00810174
0.00809172
0.00811335
0.00810862
0.00814128
0.00813279
0.00812353
0.00814477
0.00790153
0.00813472
0.00755832
0.00766433
0.00743729
0.0075509
0.00769681
0.00748064
0.00785233
0.00786303
0.00552961
0.00553325
0.00555048
0.00573689
0.00546894
0.00546528
0.00545417
0.00543686
0.00541954
0.00545428
0.00544202
0.00543278
0.00532501
0.00541297
0.00545767
0.0050027
0.00515815
0.00537702
0.00542032
0.00530258
0.00492522
0.00491794
0.0049431
0.00503459
0.00497505
0.00479634
0.0048085
0.0049316
0.00500862
0.00504847
0.00489902
0.0050166
0.00512048
0.00483913
0.00489681
0.00592031
0.0046266
0.00667455
0.00513928
0.00536038
0.00832682
0.00831114
0.00834621
0.00836991
0.00837525
0.00837494
0.00836654
0.00834211
0.00831027
0.00828504
0.00828106
0.00829248
0.00832878
0.00837146
0.00840423
0.00842381
0.00842806
0.00842701
0.00842126
0.008411
0.00839862
0.00836977
0.00827484
0.00799881
0.00788168
0.00777701
0.00784394
0.00793892
0.00821776
0.00782523
0.00776786
0.00810227
0.00808513
0.00811969
0.00811307
0.00812767
0.0081243
0.00815261
0.00814273
0.00816728
0.00816695
0.00810072
0.00817643
0.00774114
0.00785106
0.00753146
0.00754452
0.00787479
0.00768277
0.0075359
0.00764011
0.00541765
0.00541491
0.0054153
0.00562105
0.00543898
0.00541775
0.00539463
0.00536955
0.00546439
0.00527075
0.0050784
0.0052338
0.00544898
0.00549512
0.00549972
0.00517494
0.0053337
0.00550255
0.00555485
0.00546634
0.00506394
0.0049886
0.0050627
0.0052152
0.00503315
0.00486305
0.0048217
0.00504503
0.00507206
0.00511914
0.00501063
0.00497343
0.00506791
0.0048322
0.00487387
0.00609381
0.00446707
0.00674754
0.00517395
0.00536602
0.00824789
0.00824957
0.00831617
0.00835816
0.00836199
0.00835747
0.00834039
0.00831326
0.00828837
0.00828085
0.0082876
0.00831633
0.00836053
0.0083966
0.00842245
0.00843102
0.00843093
0.00842733
0.0084192
0.0084075
0.00839055
0.00832502
0.00758859
0.0078399
0.00776147
0.00772517
0.00789054
0.00799218
0.00818909
0.00808127
0.00804179
0.00811668
0.00809853
0.00813733
0.00812982
0.00813993
0.00813971
0.00815959
0.00815096
0.00819429
0.00817987
0.00815185
0.00819516
0.00788981
0.00801926
0.00773796
0.00772132
0.00766206
0.00785065
0.00546576
0.00548599
0.00557153
0.00553035
0.00534748
0.00534339
0.00534422
0.00536583
0.0053935
0.00536492
0.00533985
0.00531345
0.00547496
0.00545369
0.00542469
0.00539077
0.00553292
0.00554198
0.00551759
0.00535945
0.00550159
0.00559537
0.00565986
0.00560604
0.00523022
0.0050771
0.00522116
0.00540533
0.00508108
0.004956
0.00488011
0.00511232
0.00512572
0.00514525
0.00509909
0.00494358
0.0050257
0.0048412
0.00486502
0.00628221
0.00547569
0.0067809
0.00508601
0.00536146
0.00816289
0.00818355
0.00828443
0.0083383
0.00834697
0.00833405
0.00831206
0.00828954
0.00828025
0.00828394
0.00830399
0.00834646
0.00838612
0.00841536
0.00843176
0.00843426
0.0084325
0.00842693
0.00841642
0.00840376
0.00835562
0.00764688
0.00789092
0.00776792
0.00765413
0.00773249
0.00792917
0.00825926
0.00780698
0.00777284
0.00810654
0.00808786
0.00813325
0.00812066
0.00815464
0.00814606
0.00815216
0.00815575
0.00816177
0.00815875
0.0082022
0.00817996
0.00814867
0.00819523
0.00800833
0.00808005
0.00788989
0.00794558
0.00562052
0.00592834
0.00765987
0.00535043
0.00538484
0.00548793
0.00543715
0.00529338
0.00529376
0.00530223
0.005331
0.00535881
0.00532965
0.00530289
0.00527921
0.00547423
0.00544414
0.0054123
0.00537726
0.00558926
0.00557374
0.00553546
0.00553926
0.00564757
0.0056665
0.00574829
0.00572105
0.00541619
0.00521291
0.00540379
0.00559614
0.00520383
0.00504278
0.00495722
0.00515423
0.00520502
0.00519076
0.00515077
0.00492086
0.00498338
0.0048695
0.00487249
0.0061766
0.00579954
0.00677247
0.00505194
0.00551829
0.00811535
0.00812666
0.00824666
0.0083014
0.00832967
0.00830927
0.00828785
0.0082779
0.00828061
0.00829409
0.00833133
0.00837367
0.00840595
0.00842774
0.00843486
0.0084352
0.00843176
0.00842301
0.00841212
0.00837723
0.00829137
0.00792164
0.00771019
0.00763732
0.00761053
0.00781327
0.00800781
0.0081908
0.00807107
0.00805226
0.00812396
0.0081
0.00814892
0.00813876
0.0081668
0.00815876
0.00816413
0.0081687
0.00816362
0.00816753
0.00819398
0.00817292
0.00815153
0.00818877
0.00781762
0.00810555
0.00766483
0.007678
0.00553673
0.00588598
0.005984
0.00602085
0.00540593
0.00550853
0.00572018
0.00562673
0.00526923
0.00527702
0.00529133
0.00534436
0.00534512
0.00531626
0.00529098
0.00527382
0.00548549
0.00545703
0.00542552
0.00538999
0.00563792
0.0056152
0.00557446
0.00570665
0.00577726
0.00573538
0.00583912
0.00582576
0.00560654
0.00539337
0.00560079
0.00577311
0.00537131
0.00511175
0.00503259
0.00519245
0.00534636
0.00529487
0.00518648
0.0049028
0.0049609
0.00494546
0.00491161
0.0062244
0.00573244
0.00715112
0.00520235
0.00569205
0.008052
0.00808315
0.00819619
0.0082726
0.00831153
0.0082877
0.0082741
0.00827616
0.0082865
0.0083177
0.00836054
0.00839695
0.0084221
0.00843371
0.00843567
0.00843437
0.00842799
0.00841848
0.00840332
0.00832975
0.00779586
0.00759787
0.00766072
0.00754203
0.00764014
0.00783515
0.00825995
0.0077816
0.00777826
0.008091
0.0080672
0.00813764
0.00811591
0.00816561
0.00815491
0.00817595
0.00817194
0.00817417
0.00817726
0.00817212
0.00817734
0.00818039
0.00816902
0.00816647
0.00818409
0.0079632
0.00815481
0.00562879
0.00602953
0.00798062
0.00579505
0.0058599
0.00616386
0.00618612
0.00561783
0.00576005
0.0059964
0.00589539
0.00527713
0.00529422
0.00534124
0.00547748
0.00535876
0.00533139
0.00530911
0.00530031
0.00552482
0.00550132
0.00547005
0.00543508
0.00570481
0.00568569
0.00564799
0.00586321
0.00590682
0.00582862
0.00595734
0.00594039
0.00579165
0.00559352
0.00580854
0.00593391
0.00557174
0.00516244
0.00511895
0.0052514
0.00552103
0.00544538
0.0052282
0.00493285
0.00508112
0.00506193
0.00503257
0.00641494
0.00506314
0.00735645
0.00538498
0.00589236
0.00798316
0.00805347
0.00815937
0.00825279
0.00829455
0.00827389
0.00827135
0.00827885
0.0083038
0.00834609
0.00838661
0.00841568
0.00843221
0.00843611
0.00843597
0.00843254
0.00842493
0.00841407
0.00835854
0.00785146
0.00782814
0.00758131
0.007527
0.00751755
0.00775933
0.00793121
0.00819534
0.00805716
0.00799686
0.00810785
0.00808422
0.00814587
0.00812765
0.00817737
0.00816302
0.00818593
0.0081854
0.00818077
0.00818322
0.00819121
0.00819002
0.00817707
0.00818132
0.00818787
0.00819066
0.00702939
0.00747334
0.00819636
0.0062304
0.00673081
0.00688668
0.0067821
0.00607127
0.006135
0.00637717
0.0064093
0.00526884
0.00562065
0.00617831
0.00607462
0.00531552
0.00535018
0.00543397
0.00538604
0.00540342
0.00537633
0.00535706
0.00535266
0.00560197
0.0055809
0.00554763
0.00550879
0.00581292
0.00580106
0.00576879
0.00601674
0.00605373
0.00596569
0.00612064
0.00608834
0.00597653
0.00580789
0.00601693
0.00609967
0.00578836
0.00521287
0.00521448
0.00536521
0.0057163
0.00561738
0.00527911
0.00508762
0.00524313
0.00518952
0.00518637
0.00665728
0.00415846
0.0074947
0.00555117
0.00607827
0.00792365
0.00803608
0.00813611
0.00823776
0.00828185
0.00827064
0.00827303
0.0082897
0.00832831
0.0083721
0.00840659
0.00842821
0.00843616
0.00843658
0.0084357
0.00843085
0.00842294
0.00837878
0.00830004
0.00795681
0.00759435
0.00755548
0.00744617
0.00757742
0.00780672
0.00818167
0.00775403
0.0077662
0.00807888
0.00798413
0.00812715
0.0081072
0.00815575
0.00814308
0.00818173
0.00816778
0.00819629
0.00819354
0.00818774
0.00819128
0.00822456
0.00821488
0.00820729
0.00822262
0.00805926
0.00822007
0.00710195
0.00759004
0.00716245
0.00722095
0.00649006
0.0066238
0.00698479
0.00685847
0.00625718
0.00633088
0.00641752
0.00649282
0.00483956
0.00594165
0.00618036
0.00607033
0.00537172
0.00540886
0.00504299
0.00439878
0.00547256
0.00544122
0.00541938
0.00541053
0.00572843
0.00570589
0.00566797
0.00548424
0.00597056
0.00596534
0.00594098
0.00618806
0.00624194
0.00615005
0.00634975
0.00629116
0.00616966
0.00603167
0.00623266
0.00628915
0.00600968
0.00528312
0.00527886
0.0054891
0.00591057
0.00577622
0.00538006
0.00522347
0.00534952
0.0052745
0.00527187
0.00685752
0.00325814
0.00690506
0.00563773
0.00607866
0.00787185
0.00802579
0.00812071
0.00822371
0.00827725
0.00827246
0.00828095
0.00831042
0.00835303
0.00839289
0.00841994
0.00843374
0.00843664
0.0084365
0.00843441
0.00842965
0.00840311
0.00831043
0.00782967
0.0077409
0.00758261