/*--------------------------------*- C++ -*----------------------------------*\
  =========                 |
  \\      /  F ield         | OpenFOAM: The Open Source CFD Toolbox
   \\    /   O peration     | Website:  https://openfoam.org
    \\  /    A nd           | Version:  dev
     \\/     M anipulation  |
\*---------------------------------------------------------------------------*/
FoamFile
{
    version     2.0;
    format      ascii;
    class       volScalarField;
    location    "2500";
    object      rho;
}
// * * * * * * * * * * * * * * * * * * * * * * * * * * * * * * * * * * * * * //

dimensions      [1 -3 0 0 0 0 0];

internalField   nonuniform List<scalar> 
9842
(
1.17173
1.17157
1.17167
1.17154
1.17127
1.17169
1.17158
1.17112
1.17128
1.17177
1.17161
1.17106
1.17095
1.17133
1.17182
1.17167
1.17116
1.17078
1.17099
1.17142
1.17185
1.17171
1.17117
1.17068
1.17068
1.1711
1.17151
1.17186
1.17172
1.17128
1.17069
1.17051
1.17076
1.1712
1.17159
1.17187
1.17176
1.17137
1.17072
1.17042
1.17047
1.17087
1.1713
1.17164
1.1719
1.17179
1.17135
1.17081
1.17039
1.17029
1.17057
1.17099
1.17136
1.17166
1.1719
1.17177
1.17138
1.17096
1.17047
1.17018
1.17028
1.17072
1.17109
1.17144
1.17169
1.17191
1.17178
1.17147
1.17111
1.17049
1.17009
1.1701
1.17038
1.17082
1.17119
1.17148
1.17172
1.17192
1.1718
1.17151
1.17109
1.17053
1.17008
1.16995
1.17013
1.17054
1.17093
1.17128
1.1715
1.17173
1.17192
1.1718
1.17151
1.17111
1.1706
1.17014
1.16988
1.16995
1.17026
1.17068
1.17104
1.17132
1.17153
1.17173
1.17193
1.17181
1.17152
1.1712
1.17074
1.17025
1.16986
1.16978
1.17001
1.17041
1.17081
1.1711
1.17135
1.17157
1.17175
1.17194
1.17182
1.17157
1.17122
1.17082
1.17031
1.16985
1.16969
1.16979
1.17011
1.17056
1.17089
1.17116
1.17137
1.17157
1.17176
1.17194
1.17184
1.17159
1.17125
1.17087
1.17042
1.16991
1.16964
1.16962
1.16986
1.17032
1.17066
1.17096
1.17119
1.17142
1.17158
1.17176
1.17193
1.17185
1.1716
1.1713
1.17093
1.17055
1.16995
1.16963
1.16951
1.16966
1.17001
1.17046
1.17075
1.17101
1.17123
1.17141
1.17159
1.17176
1.17194
1.17184
1.1716
1.17132
1.171
1.1706
1.16998
1.16964
1.16945
1.16949
1.16972
1.17018
1.17053
1.17081
1.17105
1.17127
1.17142
1.1716
1.17177
1.17194
1.17186
1.17162
1.17138
1.17106
1.17074
1.17011
1.16966
1.16943
1.16937
1.16952
1.16996
1.17031
1.17062
1.17087
1.17109
1.17127
1.17144
1.1716
1.17176
1.17194
1.17186
1.17164
1.17137
1.17106
1.1708
1.17021
1.16974
1.1694
1.16925
1.16936
1.16967
1.1701
1.17041
1.17069
1.17091
1.17112
1.17128
1.17144
1.17161
1.17176
1.17193
1.17187
1.17163
1.1714
1.17114
1.17077
1.17035
1.16989
1.16937
1.16918
1.16922
1.16946
1.16988
1.17022
1.1705
1.17073
1.17095
1.17113
1.17129
1.17145
1.1716
1.17176
1.17193
1.17186
1.17165
1.17141
1.17112
1.17077
1.17046
1.16983
1.16936
1.16914
1.16908
1.16924
1.16964
1.17002
1.1703
1.17057
1.17079
1.17097
1.17114
1.1713
1.17145
1.1716
1.17176
1.17193
1.17186
1.17166
1.17142
1.17114
1.17079
1.17048
1.16993
1.16944
1.16912
1.16901
1.16909
1.16938
1.16977
1.17009
1.17037
1.17061
1.17083
1.17099
1.17115
1.1713
1.17145
1.1716
1.17175
1.17193
1.17186
1.17166
1.17149
1.17116
1.17083
1.17046
1.16999
1.16947
1.16911
1.16894
1.16896
1.16916
1.16954
1.16991
1.17019
1.17044
1.17065
1.17084
1.171
1.17116
1.1713
1.17144
1.17159
1.17175
1.17192
1.17187
1.17166
1.17148
1.17123
1.17085
1.17047
1.17003
1.16954
1.16913
1.1689
1.16885
1.16899
1.16929
1.16968
1.16999
1.17027
1.17049
1.17068
1.17085
1.17102
1.17115
1.1713
1.17143
1.17158
1.17174
1.17192
1.17186
1.17166
1.17144
1.17121
1.17087
1.17049
1.17007
1.1696
1.16919
1.16888
1.16877
1.16885
1.1691
1.16944
1.1698
1.17007
1.17032
1.17054
1.17071
1.17087
1.17102
1.17116
1.17129
1.17142
1.17157
1.17173
1.17191
1.17186
1.17167
1.17144
1.17119
1.1709
1.17048
1.17011
1.16968
1.16922
1.16886
1.16871
1.16873
1.16892
1.16924
1.16962
1.16989
1.17016
1.17036
1.17056
1.17073
1.17087
1.17101
1.17115
1.17127
1.17141
1.17155
1.17171
1.17191
1.17186
1.17168
1.17144
1.17118
1.17089
1.17051
1.17011
1.16968
1.16925
1.16888
1.16867
1.16863
1.16876
1.16908
1.16939
1.16973
1.16998
1.17021
1.17041
1.17059
1.17073
1.17088
1.17101
1.17113
1.17126
1.17139
1.17154
1.1717
1.1719
1.17187
1.17168
1.17144
1.17118
1.17088
1.17052
1.17011
1.16971
1.16928
1.1689
1.16865
1.16854
1.16863
1.16885
1.16921
1.16955
1.1698
1.17004
1.17025
1.17045
1.17059
1.17074
1.17087
1.17099
1.17112
1.17124
1.17137
1.17152
1.17169
1.17189
1.17187
1.17167
1.17144
1.17118
1.17088
1.17051
1.17013
1.16969
1.16928
1.16891
1.16861
1.16848
1.16851
1.16867
1.16897
1.16939
1.16962
1.16988
1.17013
1.17029
1.17047
1.17061
1.17074
1.17086
1.17098
1.17109
1.17121
1.17135
1.17149
1.17166
1.17188
1.17187
1.17166
1.17145
1.17117
1.17085
1.1705
1.17015
1.1697
1.16931
1.16891
1.16861
1.16843
1.16841
1.16854
1.1688
1.16915
1.16946
1.16972
1.16996
1.17014
1.17033
1.17048
1.17061
1.17073
1.17084
1.17095
1.17107
1.17118
1.17132
1.17147
1.17165
1.17187
1.17186
1.17167
1.17143
1.17116
1.17084
1.17049
1.17012
1.16971
1.16934
1.16891
1.16863
1.16839
1.16833
1.16842
1.16863
1.16889
1.16928
1.16955
1.1698
1.17
1.17021
1.17034
1.17048
1.17061
1.17071
1.17082
1.17092
1.17103
1.17115
1.17128
1.17143
1.17162
1.17186
1.17185
1.17167
1.17143
1.17114
1.17081
1.17048
1.1701
1.16973
1.16931
1.16892
1.1686
1.16835
1.16826
1.16831
1.16848
1.16873
1.16909
1.1694
1.16962
1.16988
1.17005
1.17024
1.17036
1.17048
1.17059
1.17069
1.17079
1.17089
1.17099
1.1711
1.17124
1.1714
1.1716
1.17199
1.17183
1.17185
1.17165
1.17142
1.17113
1.1708
1.17045
1.17007
1.16972
1.16932
1.16894
1.1686
1.16834
1.16821
1.1682
1.16834
1.16858
1.16891
1.1692
1.16947
1.16974
1.16993
1.17009
1.17026
1.17036
1.17047
1.17057
1.17066
1.17075
1.17084
1.17094
1.17105
1.1712
1.17141
1.17169
1.17155
1.17199
1.17183
1.17184
1.17165
1.17141
1.17111
1.17076
1.17041
1.17005
1.16968
1.1693
1.16891
1.16857
1.1683
1.16816
1.16812
1.16822
1.16843
1.16874
1.16904
1.16929
1.16953
1.16979
1.16998
1.17013
1.17026
1.17035
1.17044
1.17053
1.17061
1.1707
1.17078
1.17089
1.17101
1.17121
1.17112
1.17141
1.17127
1.17129
1.17168
1.17153
1.17199
1.17182
1.17184
1.17163
1.17138
1.17109
1.17074
1.17037
1.17001
1.16966
1.16928
1.16892
1.16858
1.16829
1.16811
1.16804
1.16811
1.16828
1.16854
1.16889
1.16915
1.16935
1.16956
1.16983
1.17001
1.17015
1.17026
1.17033
1.17041
1.17049
1.17056
1.17063
1.17072
1.17083
1.17102
1.17093
1.17114
1.17139
1.17117
1.17126
1.17166
1.17151
1.17198
1.17181
1.17184
1.17157
1.17134
1.17105
1.17071
1.17033
1.16997
1.16962
1.16925
1.16891
1.16859
1.16828
1.16807
1.16798
1.16801
1.16816
1.16838
1.16867
1.16902
1.16928
1.16944
1.16963
1.16986
1.17002
1.17014
1.17024
1.17029
1.17035
1.17041
1.17047
1.17055
1.17066
1.17083
1.17074
1.17102
1.17091
1.17106
1.17136
1.17113
1.17122
1.17165
1.17148
1.17198
1.1718
1.17182
1.17159
1.1712
1.17097
1.17067
1.1703
1.16994
1.16959
1.16925
1.16888
1.16857
1.16824
1.16803
1.16793
1.16792
1.16802
1.16823
1.16851
1.1688
1.16911
1.16938
1.1695
1.16967
1.16991
1.17002
1.17012
1.17018
1.17018
1.17017
1.17018
1.17024
1.17039
1.17064
1.1705
1.1708
1.17068
1.17094
1.17083
1.171
1.17133
1.17108
1.17118
1.17163
1.17146
1.17198
1.17179
1.17183
1.1716
1.17122
1.17079
1.17058
1.17025
1.16988
1.16952
1.16921
1.16885
1.16857
1.16825
1.16801
1.16787
1.16784
1.16792
1.1681
1.16837
1.16864
1.16894
1.16921
1.16943
1.16955
1.16974
1.16991
1.16998
1.16998
1.16987
1.16962
1.16933
1.16913
1.16921
1.17028
1.16969
1.17054
1.1703
1.17072
1.17057
1.17089
1.17076
1.17095
1.17129
1.17103
1.17113
1.1716
1.17142
1.17197
1.17177
1.17184
1.17158
1.17123
1.17078
1.17039
1.17016
1.16988
1.16949
1.16916
1.1688
1.16853
1.16821
1.16798
1.16783
1.16777
1.16781
1.16798
1.16822
1.16849
1.16877
1.16904
1.16932
1.16947
1.16958
1.16974
1.16982
1.16967
1.16916
1.16822
1.16692
1.16558
1.16461
1.1681
1.16404
1.16969
1.16798
1.17031
1.16968
1.17061
1.17034
1.17082
1.17066
1.17089
1.17125
1.17097
1.17107
1.17158
1.17138
1.17196
1.17175
1.17181
1.17159
1.17122
1.1708
1.17034
1.16999
1.16977
1.16943
1.16911
1.1688
1.1685
1.16822
1.16795
1.16778
1.16769
1.16772
1.16785
1.16805
1.16834
1.16861
1.1689
1.16915
1.16941
1.16953
1.16962
1.16964
1.16923
1.16791
1.16541
1.16175
1.15804
1.1547
1.15882
1.1521
1.16391
1.15777
1.16788
1.16358
1.16967
1.16775
1.17037
1.16966
1.17072
1.17042
1.17079
1.17119
1.17087
1.17098
1.17155
1.17134
1.17195
1.17173
1.17178
1.1715
1.17115
1.17078
1.17035
1.16989
1.16963
1.16938
1.16907
1.16879
1.16848
1.16823
1.16793
1.16774
1.16763
1.16763
1.16773
1.16793
1.16819
1.16847
1.16872
1.16899
1.16926
1.16946
1.16953
1.16943
1.16868
1.16634
1.16179
1.15589
1.14936
1.14417
1.14694
1.14074
1.15136
1.14518
1.15721
1.15052
1.16322
1.15657
1.16761
1.1628
1.16966
1.16747
1.17048
1.1697
1.17057
1.17112
1.17068
1.17083
1.17151
1.17128
1.17194
1.17171
1.17178
1.17147
1.17109
1.17066
1.17029
1.16988
1.16956
1.1693
1.16903
1.16875
1.16846
1.16823
1.16789
1.16771
1.16759
1.16755
1.16763
1.16779
1.16804
1.16832
1.16859
1.16884
1.16909
1.16934
1.16949
1.16935
1.16826
1.16477
1.15826
1.15058
1.1429
1.13606
1.13655
1.13229
1.1393
1.13423
1.1439
1.13766
1.14955
1.14256
1.15576
1.14834
1.16232
1.15478
1.16739
1.16189
1.1698
1.16744
1.16996
1.17099
1.17017
1.17042
1.17147
1.17119
1.17193
1.17168
1.17178
1.17145
1.17107
1.17062
1.17022
1.16984
1.16949
1.1692
1.16897
1.16874
1.16847
1.16817
1.16787
1.16768
1.16753
1.16749
1.16753
1.16766
1.1679
1.16814
1.16843
1.16871
1.16894
1.16919
1.16941
1.16934
1.16816
1.16373
1.15536
1.14615
1.13939
1.13314
1.13022
1.12906
1.13012
1.1274
1.13212
1.12762
1.13589
1.12991
1.14094
1.13384
1.14682
1.13892
1.1537
1.14507
1.16163
1.15266
1.16768
1.16174
1.1681
1.1707
1.16862
1.16923
1.17141
1.171
1.17191
1.17164
1.17176
1.17147
1.17103
1.17055
1.17014
1.16979
1.16945
1.16915
1.16891
1.16868
1.16844
1.16816
1.16792
1.16766
1.16749
1.16742
1.16745
1.16754
1.16774
1.16798
1.16829
1.16856
1.1688
1.16904
1.16928
1.16932
1.16819
1.16356
1.15399
1.14648
1.13986
1.13358
1.12745
1.12609
1.12524
1.12442
1.12259
1.12495
1.12126
1.12741
1.12199
1.13138
1.12449
1.13651
1.12842
1.1432
1.13385
1.15183
1.1414
1.16237
1.15151
1.16326
1.16988
1.16442
1.16598
1.1713
1.1705
1.17189
1.17158
1.17174
1.17143
1.17091
1.17045
1.17006
1.16972
1.1694
1.16911
1.16885
1.16862
1.1684
1.16814
1.16788
1.16763
1.16746
1.16737
1.16736
1.16744
1.1676
1.16784
1.1681
1.16841
1.16866
1.1689
1.16914
1.16926
1.16834
1.16373
1.1543
1.14861
1.14378
1.13714
1.12933
1.12253
1.12339
1.12201
1.1221
1.11893
1.11789
1.11784
1.11501
1.11864
1.11404
1.12107
1.11485
1.1251
1.11729
1.13115
1.1216
1.13993
1.12865
1.15197
1.1391
1.15326
1.16762
1.15557
1.15893
1.17103
1.1691
1.17187
1.17146
1.17169
1.17134
1.17079
1.1703
1.16994
1.16963
1.16933
1.16906
1.1688
1.16857
1.16835
1.16812
1.16786
1.16763
1.16743
1.16733
1.1673
1.16735
1.16749
1.1677
1.16795
1.16824
1.16852
1.16876
1.169
1.16918
1.1686
1.16433
1.15503
1.15074
1.14914
1.14753
1.13671
1.12411
1.12594
1.11879
1.11934
1.11778
1.11809
1.11348
1.11305
1.11084
1.10892
1.1099
1.1065
1.11065
1.10577
1.11328
1.10656
1.11828
1.1094
1.12661
1.11539
1.13905
1.12526
1.14001
1.16214
1.1422
1.1461
1.17028
1.16549
1.17183
1.17115
1.17161
1.17117
1.17061
1.17017
1.16981
1.16952
1.16926
1.169
1.16876
1.16853
1.16831
1.16809
1.16784
1.16761
1.1674
1.16727
1.16722
1.16727
1.16737
1.16757
1.1678
1.16809
1.16837
1.16862
1.16887
1.16908
1.16883
1.16541
1.15602
1.15201
1.15262
1.15719
1.15483
1.12981
1.14113
1.12019
1.12248
1.11433
1.11506
1.11318
1.11375
1.10813
1.10815
1.10475
1.10421
1.10324
1.10223
1.10271
1.10114
1.10308
1.10043
1.10603
1.10058
1.11309
1.10335
1.12482
1.11159
1.12551
1.15166
1.12755
1.13121
1.16832
1.158
1.17174
1.1703
1.17155
1.1709
1.17041
1.17002
1.16969
1.16942
1.16917
1.16894
1.16871
1.16849
1.16827
1.16805
1.16782
1.16759
1.16738
1.16722
1.16715
1.16718
1.16727
1.16745
1.16767
1.16793
1.16821
1.16848
1.16873
1.16897
1.16895
1.1666
1.15757
1.15269
1.15414
1.16168
1.16429
1.15773
1.12891
1.14135
1.11683
1.12097
1.11077
1.11263
1.10863
1.10956
1.10446
1.10525
1.10227
1.10266
1.10099
1.10126
1.09985
1.10011
1.09863
1.09877
1.09852
1.09724
1.10142
1.09684
1.11102
1.10019
1.11163
1.13702
1.11333
1.11679
1.16363
1.14523
1.17156
1.16823
1.17071
1.17013
1.16984
1.16957
1.16932
1.16909
1.16887
1.16866
1.16844
1.16823
1.16802
1.1678
1.16757
1.16735
1.16718
1.16709
1.16708
1.16717
1.16731
1.16754
1.16776
1.16805
1.16832
1.16858
1.16884
1.16898
1.16765
1.1599
1.15313
1.15432
1.16238
1.16689
1.16684
1.155
1.16435
1.13025
1.14424
1.11577
1.12229
1.10983
1.11241
1.10654
1.10805
1.10358
1.10489
1.10202
1.10333
1.10099
1.10281
1.09963
1.10167
1.09769
1.09934
1.09598
1.09668
1.09546
1.09474
1.09981
1.09439
1.10039
1.12234
1.10177
1.10463
1.15506
1.13047
1.17109
1.16366
1.16984
1.16961
1.16941
1.16921
1.169
1.1688
1.1686
1.1684
1.16819
1.16798
1.16777
1.16754
1.16732
1.16714
1.16703
1.167
1.16707
1.16719
1.1674
1.16764
1.16789
1.16817
1.16843
1.1687
1.16893
1.16837
1.16268
1.15367
1.15405
1.16189
1.16687
1.16846
1.16733
1.16886
1.16082
1.16627
1.13495
1.14935
1.11749
1.12801
1.11111
1.11569
1.10649
1.10843
1.10503
1.10704
1.10505
1.10755
1.10474
1.10815
1.10273
1.10667
1.0991
1.10259
1.09566
1.09816
1.0935
1.09442
1.09373
1.09241
1.09359
1.10944
1.09406
1.09557
1.10127
1.14208
1.11716
1.17005
1.15588
1.16937
1.16923
1.16908
1.1689
1.16871
1.16853
1.16834
1.16815
1.16795
1.16774
1.16752
1.1673
1.16711
1.16698
1.16693
1.16698
1.16708
1.16726
1.16751
1.16773
1.16801
1.16828
1.16854
1.1688
1.16871
1.16526
1.1549
1.1533
1.16026
1.1659
1.16826
1.16903
1.16845
1.16902
1.16465
1.168
1.14277
1.15643
1.12439
1.13792
1.11705
1.12465
1.10942
1.11251
1.11027
1.11327
1.11167
1.11532
1.11066
1.11469
1.10583
1.10921
1.10083
1.10327
1.0966
1.0984
1.09313
1.09466
1.0914
1.09236
1.09178
1.09183
1.09078
1.09716
1.10623
1.09858
1.09231
1.09038
1.09064
1.09279
1.12849
1.10133
1.10416
1.11414
1.16804
1.14466
1.16904
1.16892
1.16878
1.16861
1.16845
1.16827
1.16809
1.1679
1.16771
1.16749
1.16727
1.16708
1.16694
1.16686
1.16689
1.16698
1.16713
1.16735
1.16761
1.16785
1.16812
1.16838
1.16865
1.16878
1.16712
1.15789
1.15282
1.15761
1.16361
1.16715
1.16881
1.16918
1.16915
1.16896
1.16917
1.16746
1.16884
1.15267
1.16307
1.13628
1.15067
1.12848
1.13861
1.11685
1.12162
1.1192
1.12348
1.11893
1.12355
1.11282
1.11679
1.10543
1.10752
1.09885
1.09792
1.09556
1.09548
1.0947
1.09321
1.09284
1.09308
1.09332
1.09122
1.09263
1.09176
1.09067
1.0911
1.09215
1.09025
1.09367
1.09508
1.09044
1.08954
1.08986
1.09067
1.10859
1.12618
1.11356
1.09706
1.09984
1.16405
1.12017
1.12693
1.14215
1.16876
1.16863
1.16848
1.16834
1.16819
1.16803
1.16785
1.16766
1.16745
1.16724
1.16704
1.16689
1.1668
1.1668
1.16689
1.16701
1.16721
1.16747
1.16769
1.16796
1.16822
1.16849
1.16874
1.16812
1.16163
1.15293
1.15492
1.16093
1.16479
1.16782
1.16905
1.16925
1.16921
1.16919
1.16926
1.16868
1.16918
1.16179
1.16692
1.15121
1.16116
1.14378
1.15333
1.12858
1.13514
1.12862
1.13411
1.12121
1.12623
1.11008
1.1135
1.09668
1.09641
1.09133
1.089
1.08696
1.08498
1.09188
1.08953
1.08659
1.0921
1.09127
1.08897
1.08621
1.08933
1.09139
1.09045
1.09068
1.09117
1.08993
1.09122
1.09219
1.08936
1.08945
1.08905
1.08933
1.10359
1.10844
1.09373
1.09605
1.13417
1.15447
1.13958
1.1143
1.12004
1.16846
1.16829
1.16817
1.16806
1.16794
1.16778
1.16761
1.16741
1.16721
1.16701
1.16685
1.16675
1.16672
1.16679
1.1669
1.16707
1.16731
1.16758
1.1678
1.16806
1.16833
1.16859
1.1685
1.1649
1.15398
1.15286
1.1581
1.16206
1.16559
1.16863
1.16922
1.16911
1.16929
1.16926
1.16929
1.16931
1.16909
1.16932
1.16636
1.1684
1.16097
1.16553
1.15365
1.15943
1.14016
1.1468
1.13179
1.13773
1.11782
1.12304
1.09771
1.101
1.08383
1.08316
1.08338
1.08425
1.08343
1.08046
1.07807
1.0765
1.08573
1.08187
1.07788
1.08997
1.08752
1.08209
1.07883
1.08373
1.09032
1.09006
1.08962
1.08885
1.08953
1.08953
1.09008
1.08873
1.08906
1.08864
1.08851
1.09931
1.10364
1.09112
1.0929
1.12427
1.1615
1.13505
1.10879
1.1136
1.168
1.16782
1.16781
1.16778
1.16768
1.16753
1.16736
1.16716
1.16697
1.16681
1.1667
1.16665
1.1667
1.1668
1.16694
1.16715
1.16743
1.16765
1.16791
1.16816
1.16843
1.16856
1.16698
1.1575
1.15221
1.1552
1.15918
1.16269
1.16719
1.16897
1.16925
1.16918
1.16934
1.1693
1.16936
1.16936
1.16925
1.1694
1.16776
1.16882
1.16363
1.16628
1.15543
1.15951
1.14393
1.15005
1.12878
1.1347
1.10556
1.1113
1.08586
1.08858
1.09101
1.09501
1.07591
1.07625
1.0777
1.08014
1.07432
1.0716
1.07001
1.06963
1.0774
1.07272
1.06869
1.08597
1.08159
1.07336
1.06989
1.07602
1.08795
1.08907
1.08731
1.08474
1.08864
1.08844
1.08861
1.08826
1.0883
1.08801
1.08793
1.09561
1.09932
1.08919
1.09037
1.12059
1.15445
1.13255
1.10388
1.10991
1.16712
1.16707
1.16734
1.16746
1.16741
1.16728
1.1671
1.16692
1.16676
1.16665
1.16659
1.1666
1.1667
1.16682
1.16701
1.16726
1.16753
1.16775
1.16801
1.16827
1.16852
1.16798
1.16206
1.15257
1.15268
1.15632
1.15959
1.16404
1.1684
1.16917
1.16905
1.16929
1.16924
1.16938
1.16934
1.16943
1.16942
1.16936
1.16949
1.16796
1.16893
1.16247
1.16526
1.14954
1.15355
1.1404
1.14541
1.11751
1.12391
1.09953
1.10668
1.08319
1.08657
1.09009
1.09388
1.07056
1.07286
1.076
1.07954
1.06582
1.06439
1.06438
1.06595
1.0681
1.06372
1.06077
1.0799
1.07375
1.06408
1.06074
1.06704
1.08391
1.08691
1.08346
1.0787
1.08672
1.0877
1.0876
1.08771
1.0867
1.08676
1.08742
1.09244
1.0956
1.08778
1.08844
1.11894
1.1678
1.14697
1.10021
1.10722
1.16567
1.16591
1.16672
1.16711
1.16714
1.16702
1.16686
1.16671
1.16659
1.16653
1.16652
1.1666
1.16671
1.16688
1.1671
1.16738
1.1676
1.16784
1.1681
1.16837
1.16831
1.16533
1.1542
1.15145
1.15362
1.15657
1.16045
1.16631
1.16888
1.16921
1.16913
1.16934
1.16929
1.16943
1.16938
1.1695
1.16947
1.16947
1.16956
1.16776
1.16899
1.15863
1.16427
1.14236
1.14957
1.13004
1.13605
1.11362
1.12071
1.10113
1.10567
1.11339
1.1094
1.08351
1.08782
1.09226
1.09673
1.06889
1.07256
1.07688
1.08192
1.05957
1.05985
1.0619
1.06524
1.05943
1.05641
1.05539
1.07208
1.06484
1.05576
1.05276
1.05807
1.07808
1.08336
1.07798
1.07106
1.08359
1.08709
1.08686
1.08677
1.08406
1.08466
1.08671
1.08987
1.09263
1.08674
1.08697
1.1224
1.16927
1.15283
1.09761
1.10699
1.16401
1.16469
1.16613
1.16678
1.16687
1.16678
1.16665
1.16654
1.16646
1.16644
1.16651
1.16661
1.16675
1.16695
1.1672
1.16749
1.16769
1.16794
1.1682
1.16834
1.16715
1.15881
1.15152
1.15137
1.15377
1.15698
1.16239
1.1681
1.16913
1.16898
1.16926
1.16919
1.16938
1.16933
1.16948
1.16943
1.16956
1.16952
1.16955
1.16964
1.16777
1.16917
1.15753
1.16454
1.14172
1.15029
1.12738
1.1342
1.11672
1.12028
1.12717
1.10768
1.11215
1.11998
1.1162
1.08718
1.09253
1.0978
1.10287
1.06952
1.0748
1.08076
1.08707
1.05585
1.0581
1.06172
1.06653
1.05268
1.05172
1.0522
1.06333
1.05609
1.0495
1.04685
1.05038
1.07074
1.07835
1.07106
1.06254
1.07915
1.08646
1.08618
1.08521
1.08028
1.08158
1.08558
1.08793
1.09039
1.08592
1.08584
1.1274
1.17032
1.1579
1.09609
1.10789
1.1625
1.1637
1.16565
1.16648
1.16663
1.16657
1.16647
1.1664
1.16637
1.16641
1.16651
1.16664
1.16682
1.16704
1.16733
1.16755
1.16778
1.16804
1.16829
1.16792
1.16336
1.15257
1.15022
1.1513
1.15382
1.1584
1.16543
1.16878
1.16917
1.16908
1.16932
1.16926
1.16943
1.16938
1.16954
1.16948
1.16964
1.16959
1.16967
1.16971
1.1683
1.16943
1.15958
1.16648
1.14823
1.15697
1.13364
1.14036
1.12335
1.12605
1.13807
1.14087
1.1164
1.12099
1.1289
1.12513
1.09348
1.09977
1.10575
1.1113
1.07238
1.07906
1.08629
1.09374
1.05443
1.05802
1.06296
1.069
1.04848
1.04885
1.05085
1.05476
1.04862
1.04566
1.0433
1.04471
1.06254
1.07198
1.06325
1.0542
1.07347
1.08565
1.08546
1.08285
1.0754
1.07755
1.0839
1.08647
1.08881
1.08516
1.08495
1.13185
1.17135
1.16313
1.09505
1.10903
1.16128
1.163
1.16531
1.16623
1.16642
1.16639
1.16633
1.1663
1.16632
1.16641
1.16653
1.16669
1.1669
1.16715
1.16744
1.16762
1.16787
1.16814
1.16813
1.16607
1.15589
1.15023
1.14941
1.15108
1.15471
1.16122
1.16785
1.16908
1.16891
1.16923
1.16915
1.16937
1.1693
1.16947
1.16942
1.16959
1.16953
1.1697
1.16965
1.16975
1.16977
1.16908
1.16965
1.16512
1.16865
1.16007
1.1659
1.1434
1.1465
1.15365
1.13225
1.13525
1.14704
1.14919
1.12623
1.13101
1.13889
1.13521
1.10115
1.10826
1.11485
1.12083
1.07599
1.08374
1.09199
1.10042
1.05416
1.05861
1.06409
1.07067
1.04583
1.04745
1.0503
1.04746
1.0431
1.04324
1.04105
1.04135
1.05439
1.06471
1.05534
1.04698
1.06685
1.08453
1.08465
1.07971
1.06959
1.0727
1.08162
1.08533
1.08756
1.08439
1.08414
1.13724
1.1718
1.16677
1.09409
1.11002
1.16035
1.16259
1.16508
1.16603
1.16624
1.16625
1.16623
1.16624
1.16632
1.16642
1.16657
1.16675
1.16699
1.16727
1.16749
1.16771
1.16797
1.16813
1.16736
1.16114
1.15104
1.14851
1.14881
1.15144
1.15702
1.1653
1.16868
1.16912
1.16903
1.16929
1.16922
1.16942
1.16936
1.16952
1.16947
1.16965
1.16958
1.16976
1.16972
1.16983
1.16983
1.16959
1.16979
1.16863
1.16955
1.16563
1.1675
1.16892
1.15104
1.15261
1.16418
1.16227
1.14204
1.14471
1.15555
1.15736
1.13586
1.14074
1.1483
1.14486
1.1087
1.11656
1.12375
1.13019
1.07827
1.08672
1.09574
1.10497
1.05415
1.05893
1.06467
1.07143
1.04432
1.04656
1.04962
1.04201
1.03988
1.04169
1.03954
1.03936
1.04718
1.05714
1.04812
1.04148
1.05976
1.08301
1.08366
1.07591
1.06326
1.06735
1.07886
1.08432
1.08633
1.08361
1.08334
1.14244
1.17194
1.16818
1.09289
1.10997
1.15966
1.16241
1.16496
1.16588
1.1661
1.16614
1.16616
1.16622
1.16632
1.16645
1.16662
1.16684
1.1671
1.16738
1.16755
1.1678
1.16804
1.16785
1.16472
1.15352
1.14855
1.1472
1.14868
1.15314
1.16102
1.16782
1.16903
1.16883
1.16918
1.1691
1.16934
1.16926
1.16946
1.16941
1.16956
1.16951
1.16972
1.16963
1.16982
1.16979
1.16989
1.16989
1.16981
1.16988
1.16957
1.1698
1.16751
1.16838
1.16895
1.16937
1.15896
1.16059
1.16647
1.16529
1.15115
1.15351
1.1595
1.16108
1.14239
1.14692
1.1534
1.15053
1.11403
1.12253
1.13016
1.1368
1.07921
1.08787
1.09717
1.10673
1.0534
1.05794
1.0634
1.0698
1.04327
1.0455
1.04823
1.03885
1.03807
1.04061
1.03847
1.03808
1.04149
1.04994
1.04215
1.03822
1.05291
1.08115
1.08251
1.07171
1.05702
1.06206
1.07577
1.08334
1.08501
1.0828
1.08251
1.14264
1.17196
1.16779
1.09128
1.10776
1.15914
1.16239
1.16488
1.16575
1.16599
1.16606
1.16612
1.16622
1.16634
1.16649
1.16669
1.16693
1.16722
1.16744
1.16764
1.16788
1.16793
1.16661
1.15876
1.14923
1.14646
1.1465
1.14972
1.15661
1.16592
1.16862
1.16906
1.16897
1.16925
1.16918
1.16939
1.16932
1.16951
1.16946
1.16965
1.16955
1.16978
1.16975
1.16986
1.16983
1.16994
1.16991
1.16989
1.16992
1.16961
1.16975
1.16986
1.1676
1.16839
1.16822
1.16896
1.16256
1.16398
1.16659
1.16539
1.15574
1.15773
1.15935
1.16096
1.14432
1.14839
1.15394
1.15151
1.1161
1.12482
1.13252
1.13904
1.07724
1.08573
1.09505
1.10483
1.05143
1.05519
1.05979
1.06537
1.04215
1.04398
1.04602
1.03711
1.03695
1.03964
1.03771
1.03712
1.03801
1.04387
1.03846
1.03651
1.04705
1.07914
1.08125
1.06744
1.05159
1.0572
1.07276
1.08232
1.08358
1.08192
1.08159
1.13736
1.1713
1.16248
1.08913
1.10192
1.15871
1.16243
1.1648
1.16565
1.16591
1.16601
1.16611
1.16623
1.16637
1.16655
1.16678
1.16705
1.16734
1.16749
1.16772
1.16789
1.16742
1.16303
1.1513
1.14651
1.145
1.14686
1.15248
1.16194
1.16802
1.1689
1.16914
1.16905
1.1693
1.16922
1.16945
1.16938
1.16955
1.1695
1.16975
1.16965
1.16985
1.1698
1.16989
1.16987
1.16998
1.16999
1.16995
1.16998
1.16945
1.16971
1.1699
1.16978
1.16588
1.16721
1.16637
1.16789
1.16253
1.16402
1.16421
1.16224
1.15594
1.1577
1.15403
1.1559
1.14228
1.14566
1.14968
1.148
1.11454
1.12357
1.13129
1.13753
1.072
1.0797
1.08834
1.09761
1.04837
1.0513
1.05493
1.05939
1.04084
1.04205
1.04339
1.03618
1.03624
1.03857
1.03712
1.0365
1.03639
1.03978
1.03687
1.03587
1.04271
1.07717
1.07999
1.06376
1.04733
1.05375
1.07016
1.0812
1.08203
1.08092
1.08051
1.12112
1.14707
1.13276
1.08631
1.09399
1.15834
1.16247
1.16473
1.16557
1.16585
1.16599
1.16612
1.16625
1.16642
1.16663
1.16688
1.16718
1.16739
1.16757
1.16778
1.16767
1.1655
1.15582
1.14708
1.14423
1.14463
1.14885
1.15723
1.16664
1.16865
1.16909
1.16912
1.16898
1.1692
1.16936
1.16928
1.16949
1.16943
1.16965
1.16954
1.1698
1.16974
1.1699
1.16985
1.16997
1.16996
1.17006
1.17006
1.16998
1.17005
1.16891
1.16951
1.16986
1.16963
1.16179
1.16435
1.16333
1.166
1.15794
1.16008
1.15878
1.15547
1.15111
1.1525
1.14397
1.14616
1.13458
1.13752
1.14044
1.13933
1.10704
1.11602
1.12381
1.13002
1.06481
1.07125
1.07866
1.08688
1.04496
1.0469
1.04935
1.05242
1.03945
1.04023
1.04107
1.0359
1.03619
1.03792
1.03707
1.0366
1.03596
1.03816
1.03659
1.03584
1.04059
1.07539
1.07863
1.06099
1.04492
1.05121
1.06801
1.0799
1.08025
1.07972
1.07917
1.09819
1.1208
1.09401
1.08281
1.08561
1.15799
1.16242
1.16463
1.16549
1.16582
1.16599
1.16613
1.16629
1.16649
1.16672
1.16701
1.16729
1.16743
1.16761
1.16768
1.16669
1.16051
1.14877
1.1442
1.14307
1.14583
1.15291
1.16365
1.16823
1.16887
1.16917
1.16914
1.16905
1.16925
1.16941
1.16934
1.16954
1.16948
1.16974
1.16963
1.16984
1.16979
1.16996
1.1699
1.17005
1.17
1.17012
1.17012
1.16994
1.17002
1.17009
1.16792
1.1691
1.16976
1.16934
1.15591
1.15997
1.15962
1.16346
1.14891
1.15206
1.15138
1.14662
1.14133
1.14243
1.13165
1.13415
1.12241
1.12539
1.12823
1.12719
1.0955
1.10398
1.1116
1.1178
1.05625
1.06094
1.06659
1.07321
1.04196
1.04295
1.04412
1.04562
1.03857
1.03916
1.03979
1.03609
1.03672
1.03807
1.03869
1.03761
1.03622
1.03805
1.03731
1.03643
1.04042
1.07358
1.07701
1.05869
1.04408
1.04899
1.0657
1.07828
1.07805
1.07805
1.0774
1.08429
1.1572
1.09748
1.07878
1.07939
1.15766
1.16228
1.16449
1.16542
1.16579
1.16599
1.16616
1.16634
1.16657
1.16684
1.16713
1.16733
1.1675
1.16762
1.1672
1.16355
1.15219
1.14457
1.14209
1.14342
1.14909
1.15917
1.16734
1.16867
1.16899
1.16924
1.16919
1.16911
1.16931
1.16946
1.16939
1.16961
1.16953
1.16978
1.16972
1.1699
1.16984
1.17002
1.16996
1.17009
1.17006
1.17017
1.17017
1.1699
1.17003
1.17014
1.1701
1.16643
1.16843
1.16961
1.16898
1.14976
1.15505
1.15633
1.16091
1.13764
1.14191
1.14392
1.13775
1.12901
1.13006
1.11877
1.12196
1.10679
1.11016
1.11386
1.11237
1.08061
1.0883
1.09561
1.10188
1.04753
1.05002
1.05327
1.05755
1.04033
1.04088
1.0414
1.0419
1.03875
1.03939
1.04009
1.03748
1.03947
1.04026
1.04522
1.04196
1.03769
1.03901
1.03919
1.03947
1.0417
1.07127
1.0745
1.05573
1.04504
1.0491
1.06239
1.07621
1.07553
1.07561
1.07505
1.08014
1.16542
1.10785
1.07519
1.07517
1.15734
1.16205
1.16432
1.16534
1.16577
1.166
1.1662
1.16641
1.16667
1.16695
1.16724
1.16737
1.16749
1.16734
1.16527
1.15623
1.14569
1.14172
1.14164
1.14583
1.15467
1.16556
1.16839
1.16884
1.16913
1.16917
1.16904
1.16928
1.16925
1.16936
1.16951
1.16944
1.1697
1.16958
1.16983
1.16977
1.16996
1.16989
1.17007
1.17002
1.17015
1.17012
1.17014
1.17016
1.17019
1.1702
1.16982
1.17001
1.17009
1.16471
1.16757
1.16943
1.16859
1.14489
1.15106
1.15493
1.15966
1.12624
1.1317
1.13784
1.13008
1.11506
1.11662
1.10521
1.10966
1.08767
1.09194
1.09751
1.09506
1.06302
1.06951
1.07604
1.08222
1.04247
1.04313
1.04398
1.0452
1.04042
1.04067
1.04082
1.04091
1.04198
1.04416
1.04667
1.04433
1.04925
1.04851
1.05116
1.04922
1.04142
1.04187
1.0451
1.04584
1.04442
1.06776
1.07122
1.05367
1.04728
1.05006
1.05922
1.07403
1.07298
1.07261
1.07272
1.0811
1.17114
1.14078
1.07233
1.07309
1.15708
1.16174
1.16408
1.16524
1.16574
1.16602
1.16625
1.1665
1.16677
1.1671
1.16725
1.16737
1.16733
1.16613
1.15993
1.14804
1.14183
1.1404
1.14313
1.15068
1.16228
1.1679
1.16866
1.16894
1.16921
1.16919
1.16909
1.16933
1.16929
1.16941
1.16955
1.16949
1.16974
1.16968
1.16988
1.16981
1.17
1.16994
1.17013
1.17007
1.1702
1.17017
1.17013
1.17015
1.17018
1.17017
1.16974
1.16998
1.17006
1.16354
1.16664
1.16928
1.1683
1.14201
1.14916
1.15498
1.15967
1.11535
1.12238
1.1334
1.12345
1.09954
1.10201
1.09077
1.09683
1.0649
1.07025
1.07886
1.07486
1.04711
1.05016
1.0547
1.05954
1.04098
1.04098
1.04098
1.04088
1.04622
1.04598
1.0456
1.04435
1.04851
1.04857
1.07354
1.05014
1.07621
1.07456
1.07273
1.07422
1.04989
1.04636
1.05
1.05026
1.04785
1.06444
1.068
1.05417
1.05003
1.05323
1.05861
1.07173
1.07076
1.07025
1.07033
1.08743
1.17123
1.15152
1.07016
1.07301
1.15692
1.16144
1.16373
1.16513
1.16571
1.16605
1.16632
1.1666
1.16693
1.16717
1.16729
1.16727
1.16647
1.16228
1.15072
1.14232
1.13958
1.14105
1.14719
1.1581
1.16697
1.16847
1.16878
1.16903
1.16926
1.16922
1.16914
1.16937
1.16934
1.16946
1.16964
1.16953
1.16978
1.16971
1.16992
1.16985
1.17006
1.16999
1.17018
1.17013
1.17022
1.17022
1.17007
1.17002
1.17013
1.16997
1.16987
1.17007
1.16964
1.16991
1.16996
1.16339
1.16632
1.16916
1.16819
1.14048
1.14887
1.15602
1.16065
1.10432
1.11348
1.12953
1.11691
1.08246
1.0862
1.07532
1.08326
1.04486
1.04783
1.05771
1.05255
1.04087
1.04091
1.04163
1.04292
1.04383
1.04224
1.04177
1.04043
1.07171
1.06966
1.06971
1.06729
1.07358
1.07074
1.09718
1.0759
1.10066
1.09921
1.09806
1.10008
1.07542
1.05028
1.07508
1.07353
1.05134
1.06244
1.06619
1.05666
1.05325
1.05609
1.05996
1.06974
1.06892
1.06796
1.06874
1.08892
0.910294
1.13538
1.06871
1.0728
1.15688
1.16122
1.16335
1.16502
1.16569
1.16609
1.16641
1.16673
1.16705
1.16722
1.16718
1.16653
1.16353
1.15361
1.1434
1.13911
1.13951
1.14425
1.15392
1.16533
1.16823
1.16863
1.16887
1.16911
1.16918
1.1693
1.16926
1.16942
1.16938
1.1695
1.16967
1.16959
1.16982
1.16974
1.16996
1.16989
1.17011
1.17004
1.17024
1.17019
1.17015
1.17023
1.16985
1.16968
1.16946
1.16924
1.16977
1.16945
1.16975
1.16964
1.16388
1.16639
1.169
1.16808
1.13897
1.14927
1.15671
1.16175
1.0927
1.10429
1.12555
1.10994
1.06348
1.06902
1.05864
1.06879
1.03743
1.03803
1.04129
1.03887
1.04016
1.03913
1.03788
1.03778
1.06729
1.0647
1.06473
1.06234
1.09618
1.09388
1.09432
1.09219
1.09922
1.09469
1.12669
1.10048
1.12887
1.128
1.12763
1.12862
1.10056
1.07503
1.10026
1.10015
1.07473
1.06348
1.06557
1.05943
1.07489
1.07582
1.06254
1.06822
1.06748
1.06785
1.06776
1.0835
0.50701
1.06174
1.06789
1.07178
1.15697
1.16112
1.16305
1.16491
1.16571
1.16616
1.16651
1.1669
1.1671
1.16712
1.16648
1.16393
1.15596
1.14491
1.13908
1.13831
1.14182
1.1504
1.16273
1.16783
1.16849
1.16872
1.16894
1.16917
1.16922
1.16925
1.16934
1.16931
1.16945
1.16942
1.16954
1.16971
1.16964
1.16987
1.16979
1.17002
1.16994
1.17017
1.1701
1.17025
1.17024
1.1697
1.17002
1.17014
1.16928
1.16882
1.16837
1.16799
1.16905
1.16898
1.16933
1.16885
1.16481
1.16669
1.16854
1.16776
1.13712
1.14918
1.15674
1.16191
1.08032
1.09446
1.12098
1.10189
1.04466
1.05098
1.04402
1.05321
1.03602
1.03602
1.03596
1.03514
1.06181
1.0423
1.03725
1.03762