/*--------------------------------*- C++ -*----------------------------------*\
  =========                 |
  \\      /  F ield         | OpenFOAM: The Open Source CFD Toolbox
   \\    /   O peration     | Website:  https://openfoam.org
    \\  /    A nd           | Version:  dev
     \\/     M anipulation  |
\*---------------------------------------------------------------------------*/
FoamFile
{
    version     2.0;
    format      ascii;
    class       volScalarField;
    location    "2500";
    object      T;
}
// * * * * * * * * * * * * * * * * * * * * * * * * * * * * * * * * * * * * * //

dimensions      [0 0 0 1 0 0 0];

internalField   nonuniform List<scalar> 
9842
(
300.096
300.137
300.112
300.143
300.213
300.107
300.131
300.251
300.21
300.084
300.123
300.265
300.295
300.198
300.073
300.108
300.24
300.336
300.285
300.174
300.065
300.095
300.234
300.362
300.362
300.256
300.15
300.063
300.093
300.207
300.358
300.406
300.343
300.231
300.131
300.058
300.083
300.184
300.349
300.429
300.415
300.313
300.204
300.117
300.052
300.075
300.188
300.327
300.434
300.461
300.39
300.284
300.188
300.112
300.051
300.078
300.178
300.286
300.413
300.488
300.464
300.35
300.258
300.167
300.106
300.05
300.074
300.156
300.248
300.407
300.512
300.509
300.438
300.326
300.231
300.159
300.098
300.047
300.069
300.143
300.251
300.397
300.513
300.546
300.501
300.396
300.297
300.209
300.152
300.094
300.046
300.068
300.145
300.246
300.377
300.497
300.564
300.548
300.469
300.36
300.269
300.198
300.145
300.094
300.045
300.065
300.141
300.222
300.343
300.468
300.57
300.591
300.532
300.429
300.328
300.255
300.192
300.135
300.089
300.042
300.061
300.127
300.217
300.322
300.451
300.571
300.613
300.587
300.507
300.392
300.306
300.239
300.185
300.136
300.088
300.041
300.056
300.12
300.209
300.306
300.424
300.554
300.625
300.63
300.568
300.452
300.365
300.29
300.231
300.173
300.133
300.086
300.043
300.053
300.117
300.194
300.29
300.388
300.545
300.626
300.658
300.621
300.532
300.417
300.342
300.276
300.222
300.175
300.131
300.087
300.043
300.055
300.118
300.189
300.271
300.375
300.535
300.623
300.673
300.664
300.605
300.488
300.399
300.327
300.267
300.211
300.172
300.128
300.085
300.042
300.05
300.112
300.174
300.256
300.34
300.502
300.617
300.677
300.694
300.656
300.543
300.454
300.376
300.312
300.255
300.211
300.169
300.128
300.086
300.042
300.048
300.106
300.175
300.257
300.324
300.476
300.596
300.684
300.725
300.695
300.616
300.507
300.428
300.356
300.301
300.248
300.208
300.167
300.126
300.086
300.043
300.044
300.106
300.167
300.235
300.329
300.438
300.558
300.691
300.742
300.732
300.669
300.564
300.478
300.406
300.346
300.29
300.247
300.205
300.164
300.127
300.086
300.043
300.048
300.101
300.163
300.239
300.329
300.41
300.572
300.694
300.75
300.766
300.725
300.624
300.527
300.455
300.388
300.331
300.286
300.243
300.202
300.166
300.127
300.088
300.044
300.046
300.1
300.161
300.232
300.323
300.404
300.546
300.673
300.756
300.785
300.765
300.69
300.59
300.509
300.439
300.376
300.321
300.281
300.241
300.203
300.166
300.128
300.089
300.045
300.047
300.098
300.141
300.227
300.313
300.407
300.53
300.665
300.757
300.8
300.797
300.746
300.649
300.554
300.483
300.421
300.367
300.319
300.278
300.239
300.203
300.167
300.13
300.09
300.046
300.043
300.098
300.145
300.209
300.307
300.405
300.518
300.646
300.75
300.811
300.823
300.789
300.713
300.614
300.534
300.463
300.407
300.358
300.316
300.274
300.239
300.203
300.169
300.133
300.093
300.047
300.045
300.097
300.153
300.213
300.301
300.399
300.507
300.629
300.736
300.814
300.844
300.824
300.761
300.675
300.583
300.513
300.449
300.393
300.352
300.312
300.274
300.239
300.207
300.172
300.135
300.095
300.048
300.044
300.092
300.153
300.217
300.292
300.401
300.496
300.608
300.728
300.819
300.86
300.855
300.805
300.726
300.627
300.559
300.49
300.44
300.39
300.347
300.31
300.275
300.241
300.21
300.175
300.139
300.099
300.05
300.043
300.091
300.152
300.22
300.295
300.392
300.496
300.607
300.719
300.814
300.869
300.88
300.847
300.766
300.685
300.601
300.535
300.479
300.427
300.382
300.346
300.309
300.276
300.246
300.214
300.18
300.143
300.102
300.053
300.04
300.09
300.151
300.22
300.296
300.389
300.494
300.599
300.71
300.808
300.874
300.902
300.881
300.824
300.733
300.645
300.581
300.52
300.467
300.418
300.38
300.344
300.31
300.28
300.249
300.218
300.186
300.149
300.106
300.054
300.04
300.09
300.151
300.219
300.296
300.391
300.489
300.603
300.71
300.806
300.883
300.918
300.91
300.87
300.794
300.686
300.626
300.56
300.498
300.457
300.412
300.376
300.344
300.314
300.284
300.255
300.225
300.192
300.154
300.111
300.057
300.039
300.092
300.148
300.22
300.302
300.394
300.484
300.6
300.7
300.804
300.883
300.929
300.936
300.903
300.837
300.746
300.669
300.603
300.54
300.495
300.447
300.41
300.377
300.346
300.318
300.29
300.262
300.232
300.199
300.162
300.116
300.059
300.04
300.089
300.152
300.222
300.305
300.396
300.491
300.596
300.693
300.803
300.876
300.938
300.954
300.933
300.88
300.812
300.712
300.646
300.582
300.531
300.477
300.444
300.408
300.378
300.351
300.324
300.298
300.271
300.242
300.209
300.17
300.122
300.062
300.041
300.09
300.151
300.227
300.312
300.396
300.495
300.591
300.7
300.8
300.882
300.949
300.971
300.961
300.916
300.853
300.762
300.682
300.627
300.559
300.518
300.469
300.44
300.409
300.382
300.357
300.332
300.308
300.282
300.253
300.22
300.178
300.128
300.029
300.068
300.042
300.093
300.153
300.228
300.313
300.404
300.503
300.594
300.696
300.794
300.884
300.951
300.986
300.987
300.952
300.892
300.808
300.734
300.663
300.594
300.548
300.507
300.465
300.439
300.413
300.388
300.365
300.343
300.32
300.294
300.266
300.23
300.177
300.106
300.141
300.029
300.069
300.043
300.093
300.156
300.232
300.322
300.414
300.506
300.603
300.7
300.801
300.889
300.96
300.997
301.008
300.983
300.929
300.851
300.774
300.709
300.649
300.582
300.536
300.496
300.464
300.442
300.418
300.396
300.376
300.356
300.334
300.308
300.278
300.227
300.25
300.175
300.212
300.207
300.108
300.145
300.03
300.071
300.044
300.097
300.162
300.236
300.328
300.424
300.515
300.607
300.704
300.798
300.886
300.961
301.009
301.027
301.011
300.966
300.902
300.81
300.745
300.695
300.642
300.573
300.527
300.493
300.465
300.447
300.427
300.408
300.391
300.372
300.349
300.322
300.275
300.299
300.245
300.181
300.237
300.215
300.112
300.151
300.03
300.074
300.042
300.111
300.171
300.247
300.334
300.433
300.526
300.616
300.713
300.801
300.883
300.964
301.018
301.042
301.036
300.997
300.942
300.868
300.778
300.713
300.671
300.624
300.564
300.524
300.493
300.47
300.457
300.443
300.428
300.413
300.392
300.367
300.322
300.346
300.276
300.304
300.266
300.189
300.248
300.225
300.116
300.157
300.031
300.077
300.045
300.105
300.206
300.266
300.344
300.44
300.532
300.622
300.712
300.808
300.889
300.972
301.029
301.055
301.058
301.033
300.978
300.908
300.834
300.755
300.686
300.657
300.613
300.552
300.524
300.5
300.485
300.486
300.489
300.485
300.471
300.434
300.371
300.405
300.331
300.36
300.294
300.322
300.279
300.197
300.259
300.235
300.121
300.165
300.033
300.08
300.042
300.102
300.202
300.312
300.365
300.45
300.547
300.64
300.72
300.813
300.887
300.971
301.033
301.069
301.078
301.057
301.013
300.943
300.875
300.799
300.73
300.674
300.643
300.596
300.553
300.534
300.534
300.563
300.626
300.7
300.751
300.73
300.463
300.611
300.395
300.457
300.352
300.389
300.309
300.34
300.292
300.207
300.272
300.248
300.127
300.173
300.034
300.084
300.041
300.108
300.196
300.313
300.415
300.474
300.546
300.647
300.733
300.825
300.897
300.979
301.041
301.08
301.096
301.084
301.042
300.982
300.912
300.842
300.773
300.701
300.662
300.635
300.596
300.575
300.613
300.741
300.978
301.308
301.648
301.894
301.011
302.041
300.61
301.041
300.453
300.614
300.379
300.447
300.326
300.367
300.309
300.218
300.288
300.263
300.134
300.184
300.036
300.089
300.047
300.104
300.201
300.307
300.427
300.518
300.575
300.662
300.744
300.827
300.904
300.976
301.046
301.09
301.116
301.107
301.075
301.024
300.952
300.882
300.808
300.744
300.678
300.647
300.626
300.619
300.724
301.058
301.69
302.622
303.573
304.435
303.373
305.107
302.073
303.643
301.069
302.159
300.617
301.099
300.439
300.62
300.353
300.427
300.335
300.232
300.312
300.285
300.142
300.195
300.039
300.094
300.054
300.127
300.216
300.311
300.423
300.541
300.609
300.675
300.756
300.828
300.908
300.972
301.052
301.102
301.13
301.13
301.106
301.054
300.989
300.917
300.852
300.784
300.717
300.665
300.647
300.672
300.863
301.453
302.611
304.127
305.82
307.179
306.452
308.084
305.3
306.914
303.788
305.52
302.249
303.954
301.136
302.357
300.619
301.172
300.411
300.608
300.39
300.251
300.361
300.325
300.151
300.211
300.042
300.101
300.054
300.134
300.231
300.341
300.438
300.545
300.628
300.694
300.763
300.838
300.911
300.973
301.062
301.108
301.141
301.15
301.13
301.089
301.027
300.954
300.886
300.823
300.758
300.694
300.656
300.692
300.968
301.853
303.515
305.501
307.513
309.329
309.198
310.336
308.466
309.817
307.25
308.902
305.771
307.605
304.163
306.087
302.48
304.414
301.193
302.59
300.584
301.179
300.544
300.283
300.491
300.428
300.163
300.234
300.045
300.108
300.052
300.137
300.237
300.351
300.455
300.553
300.645
300.719
300.779
300.84
300.909
300.986
301.064
301.114
301.155
301.165
301.156
301.123
301.063
301
300.927
300.856
300.795
300.734
300.677
300.696
300.993
302.115
304.263
306.66
308.441
310.108
310.893
311.205
310.92
311.653
310.381
311.594
309.373
310.976
308.03
309.919
306.486
308.566
304.694
306.944
302.657
304.965
301.12
302.627
301.014
300.356
300.881
300.727
300.178
300.281
300.049
300.118
300.057
300.131
300.246
300.369
300.475
300.567
300.653
300.732
300.795
300.854
300.916
300.99
301.053
301.119
301.164
301.182
301.177
301.152
301.102
301.042
300.961
300.894
300.832
300.772
300.71
300.701
300.984
302.159
304.616
306.572
308.317
309.992
311.642
312.009
312.241
312.462
312.959
312.316
313.324
311.649
313.122
310.58
312.442
309.207
311.376
307.436
309.917
305.178
307.909
302.468
305.263
302.241
300.563
301.946
301.55
300.206
300.406
300.054
300.133
300.062
300.143
300.275
300.395
300.495
300.584
300.667
300.742
300.81
300.869
300.927
300.993
301.061
301.127
301.172
301.196
301.198
301.178
301.138
301.076
301.011
300.931
300.866
300.807
300.746
300.715
300.947
302.115
304.534
306.016
307.283
309.039
311.133
312.977
312.743
313.119
313.094
313.961
314.247
314.261
315.039
314.04
315.307
313.372
315.084
312.275
314.41
310.641
313.227
308.299
311.313
305.142
308.519
304.81
301.134
304.211
303.347
300.272
300.76
300.06
300.164
300.072
300.164
300.306
300.431
300.525
300.606
300.682
300.754
300.82
300.881
300.938
300.999
301.066
301.126
301.178
301.206
301.214
301.2
301.165
301.111
301.048
300.973
300.904
300.841
300.78
300.735
300.881
301.962
304.347
305.46
305.878
306.298
309.155
312.545
312.049
313.998
313.847
314.277
314.192
315.462
315.583
316.194
316.73
316.457
317.407
316.248
317.612
315.515
317.39
314.135
316.595
311.866
314.933
308.531
312.231
308.278
302.526
307.698
306.673
300.461
301.674
300.07
300.241
300.092
300.206
300.35
300.465
300.558
300.633
300.701
300.767
300.831
300.891
300.948
301.006
301.069
301.131
301.185
301.219
301.232
301.222
301.197
301.144
301.087
301.013
300.941
300.876
300.813
300.759
300.824
301.687
304.09
305.129
304.971
303.793
304.403
311.003
307.981
313.616
312.989
315.227
315.026
315.547
315.387
316.952
316.945
317.899
318.05
318.323
318.608
318.472
318.917
318.367
319.116
317.538
319.075
315.568
318.291
312.351
315.985
312.161
305.221
311.608
310.624
300.958
303.585
300.092
300.457
300.108
300.276
300.403
300.503
300.587
300.659
300.722
300.783
300.842
300.901
300.958
301.014
301.074
301.136
301.191
301.23
301.25
301.245
301.22
301.175
301.119
301.054
300.981
300.913
300.848
300.786
300.791
301.386
303.689
304.953
304.577
302.642
301.977
303.655
311.245
307.923
314.538
313.402
316.213
315.699
316.811
316.55
317.978
317.758
318.598
318.487
318.959
318.882
319.282
319.206
319.626
319.588
319.658
320.023
318.834
320.135
316.143
319.181
315.972
309.068
315.5
314.544
302.146
306.9
300.138
300.977
300.325
300.473
300.549
300.619
300.684
300.744
300.8
300.856
300.911
300.967
301.022
301.08
301.14
301.197
301.241
301.266
301.267
301.246
301.209
301.152
301.096
301.022
300.952
300.885
300.82
300.785
301.12
303.092
304.838
304.53
302.463
301.318
301.33
304.356
301.961
310.883
307.161
314.829
313.04
316.476
315.759
317.396
316.973
318.226
317.859
318.667
318.296
318.958
318.445
319.343
318.766
319.896
319.427
320.382
320.181
320.529
320.735
319.29
320.833
319.125
313.021
318.734
317.926
304.342
310.819
300.255
302.138
300.547
300.607
300.658
300.711
300.766
300.819
300.871
300.923
300.976
301.03
301.086
301.145
301.203
301.25
301.28
301.288
301.27
301.24
301.187
301.127
301.063
300.992
300.924
300.856
300.798
300.938
302.38
304.697
304.599
302.587
301.322
300.92
301.206
300.819
302.861
301.473
309.621
305.822
314.354
311.486
316.119
314.85
317.408
316.865
317.817
317.253
317.812
317.112
317.901
316.944
318.466
317.36
319.495
318.508
320.472
319.762
321.09
320.825
321.022
321.4
321.062
316.58
320.925
320.493
318.874
307.727
314.439
300.518
304.129
300.668
300.704
300.744
300.791
300.839
300.888
300.937
300.987
301.039
301.093
301.151
301.209
301.258
301.292
301.307
301.293
301.267
301.222
301.159
301.103
301.032
300.963
300.896
300.831
300.852
301.724
304.377
304.792
303.004
301.568
300.97
300.775
300.921
300.779
301.886
301.037
307.546
303.988
312.467
308.829
314.475
312.396
316.588
315.729
316.352
315.518
315.964
314.953
316.245
315.127
317.597
316.65
319.003
318.315
320.204
319.691
321.195
320.756
321.691
321.417
321.583
321.568
321.869
320.041
317.476
319.636
321.427
321.983
321.91
321.291
311.353
318.856
318.057
315.272
301.025
307.046
300.753
300.784
300.822
300.864
300.908
300.953
301.001
301.05
301.101
301.158
301.215
301.266
301.303
301.323
301.317
301.293
301.256
301.199
301.134
301.073
301.003
300.936
300.869
300.835
301.252
303.608
304.917
303.684
302.15
301.252
300.831
300.737
300.745
300.794
300.74
301.172
300.823
304.96
302.287
309.267
305.479
311.358
308.646
314.529
313.223
313.884
312.715
313.961
312.696
315.645
314.549
317.707
317.122
319.564
319.826
320.499
320.522
320.744
321.172
321.278
321.21
321.14
321.742
321.337
321.588
321.901
321.776
321.475
322.021
321.038
320.634
321.966
322.225
322.133
321.899
316.815
311.976
315.434
320.068
319.277
302.037
313.611
311.772
307.708
300.824
300.859
300.897
300.935
300.974
301.017
301.063
301.111
301.166
301.222
301.273
301.313
301.337
301.339
301.317
301.286
301.236
301.169
301.113
301.043
300.976
300.909
300.845
301
302.649
304.888
304.374
302.832
301.849
301.082
300.77
300.719
300.729
300.734
300.718
300.866
300.738
302.612
301.309
305.338
302.774
307.281
304.79
311.333
309.57
311.323
309.848
313.335
311.969
316.406
315.457
320.181
320.257
321.71
322.382
322.972
323.548
321.552
322.227
323.078
321.489
321.727
322.391
323.188
322.286
321.693
321.964
321.898
321.758
322.114
321.74
321.46
322.278
322.25
322.367
322.285
318.216
316.856
321.018
320.354
309.824
304.49
308.387
315.226
313.647
300.902
300.945
300.976
301.006
301.039
301.079
301.125
301.177
301.231
301.282
301.323
301.35
301.359
301.341
301.314
301.27
301.21
301.141
301.083
301.017
300.95
300.882
300.905
301.816
304.613
304.906
303.557
302.543
301.646
300.875
300.728
300.754
300.71
300.717
300.709
300.703
300.759
300.703
301.45
300.934
302.824
301.663
304.707
303.219
308.239
306.489
310.469
308.882
314.264
312.836
319.889
318.955
323.883
324.08
324.016
323.765
323.997
324.866
325.568
326.033
323.327
324.453
325.622
322.102
322.808
324.386
325.342
323.909
322
322.076
322.202
322.424
322.229
322.227
322.069
322.46
322.364
322.486
322.522
319.426
318.201
321.767
321.257
312.493
302.683
309.588
316.758
315.419
301.021
301.066
301.07
301.079
301.105
301.144
301.19
301.242
301.291
301.333
301.363
301.377
301.365
301.34
301.303
301.249
301.179
301.123
301.056
300.991
300.922
300.889
301.287
303.706
305.074
304.304
303.281
302.384
301.24
300.789
300.72
300.737
300.696
300.707
300.692
300.692
300.72
300.681
301.097
300.83
302.147
301.471
304.247
303.198
307.244
305.641
311.279
309.689
317.67
316.069
323.295
322.51
321.808
320.662
326.208
326.109
325.681
324.966
326.676
327.484
327.957
328.073
325.763
327.148
328.348
323.258
324.531
326.955
327.986
326.168
322.683
322.362
322.867
323.614
322.486
322.542
322.493
322.594
322.583
322.667
322.688
320.479
319.424
322.325
321.982
313.495
304.494
310.256
318.134
316.443
301.245
301.259
301.19
301.16
301.174
301.21
301.256
301.303
301.344
301.375
301.392
301.388
301.365
301.333
301.285
301.222
301.151
301.097
301.031
300.964
300.9
301.036
302.537
304.979
304.953
304.015
303.175
302.038
300.933
300.739
300.769
300.708
300.721
300.686
300.697
300.673
300.676
300.691
300.66
301.045
300.8
302.44
301.731
305.773
304.731
308.175
306.854
314.35
312.6
319.374
317.359
324.075
323.092
322.074
320.985
327.796
327.114
326.183
325.141
329.21
329.643
329.648
329.177
328.525
329.841
330.735
325.026
326.837
329.729
330.739
328.84
323.855
322.983
323.984
325.376
323.038
322.756
322.782
322.752
323.045
323.026
322.837
321.386
320.481
322.731
322.538
313.946
301.084
306.438
319.168
317.194
301.613
301.554
301.349
301.25
301.245
301.276
301.317
301.357
301.388
301.407
301.409
301.389
301.361
301.318
301.262
301.191
301.135
301.072
301.006
300.937
300.952
301.705
304.556
305.27
304.71
303.95
302.956
301.462
300.812
300.729
300.749
300.695
300.71
300.673
300.685
300.657
300.663
300.664
300.64
301.097
300.784
303.422
301.981
307.656
305.765
310.941
309.328
315.424
313.472
318.92
317.641
315.487
316.598
323.979
322.73
321.45
320.17
328.295
327.203
325.924
324.444
331.1
331.016
330.395
329.388
331.141
332.062
332.374
327.332
329.497
332.258
333.177
331.548
325.557
324.013
325.589
327.635
323.946
322.932
322.998
323.022
323.808
323.636
323.039
322.126
321.332
323.031
322.964
312.999
300.713
304.911
319.908
317.258
302.039
301.866
301.5
301.337
301.313
301.338
301.372
301.403
301.422
301.428
301.412
301.387
301.35
301.299
301.235
301.162
301.112
301.047
300.98
300.944
301.245
303.368
305.253
305.292
304.674
303.846
302.46
301.01
300.748
300.786
300.715
300.732
300.685
300.698
300.661
300.673
300.64
300.65
300.642
300.619
301.093
300.74
303.705
301.912
307.824
305.578
311.657
309.822
314.569
313.589
311.716
317.076
315.833
313.673
314.711
322.911
321.37
319.865
318.428
328.104
326.536
324.779
322.941
332.234
331.549
330.448
328.999
333.204
333.5
333.352
329.952
332.154
334.184
335.002
333.907
327.729
325.478
327.634
330.188
325.243
323.112
323.194
323.475
324.912
324.53
323.367
322.686
321.976
323.269
323.291
311.639
300.448
303.606
320.34
317.003
302.425
302.12
301.623
301.414
301.376
301.393
301.419
301.438
301.446
301.436
301.412
301.379
301.333
301.276
301.203
301.148
301.087
301.022
300.957
301.049
302.207
304.979
305.592
305.312
304.66
303.48
301.686
300.838
300.739
300.76
300.701
300.716
300.673
300.685
300.645
300.66
300.62
300.632
300.612
300.602
300.96
300.673
303.178
301.419
306.115
303.848
309.972
308.184
312.751
312.018
308.791
308.05
314.656
313.394
311.248
312.266
321.095
319.303
317.616
316.066
327.25
325.277
323.166
321.018
332.668
331.569
330.071
328.253
334.498
334.386
333.765
332.558
334.451
335.371
336.106
335.667
330.188
327.359
329.972
332.729
326.915
323.346
323.402
324.159
326.346
325.711
323.855
323.11
322.431
323.488
323.549
310.442
300.189
302.268
320.635
316.683
302.738
302.298
301.711
301.477
301.431
301.439
301.455
301.463
301.458
301.436
301.407
301.366
301.313
301.248
301.175
301.128
301.064
300.997
300.997
301.518
304.118
305.586
305.802
305.371
304.43
302.759
301.073
300.761
300.805
300.724
300.743
300.688
300.705
300.661
300.674
300.632
300.647
300.606
300.618
300.593
300.587
300.761
300.619
301.765
300.869
303.053
301.568
307.381
306.566
304.705
310.345
309.543
306.425
305.863
311.969
310.678
308.575
309.554
318.91
316.911
315.081
313.439
326.179
323.904
321.517
319.114
332.745
331.387
329.727
327.755
335.32
334.814
333.932
334.809
336.167
336.125
336.806
336.712
332.669
329.534
332.375
334.954
328.888
323.672
323.636
325.075
328.069
327.141
324.517
323.438
322.789
323.711
323.786
309.001
300.077
301.345
320.909
316.407
302.976
302.403
301.768
301.529
301.476
301.476
301.482
301.479
301.46
301.434
301.397
301.349
301.289
301.216
301.161
301.106
301.04
300.998
301.19
302.77
305.375
306.036
305.961
305.276
303.833
301.718
300.862
300.751
300.773
300.708
300.724
300.675
300.691
300.65
300.662
300.616
300.635
300.59
300.599
300.573
300.573
300.634
300.583
300.876
300.643
301.635
301.161
300.804
305.382
304.976
302.003
302.49
307.739
307.037
304.215
303.748
309.38
308.082
306.097
306.998
316.786
314.607
312.64
310.899
325.503
323.037
320.444
317.829
332.747
331.285
329.548
327.523
335.786
335.086
334.137
336.504
337.171
336.604
337.276
337.334
334.892
331.824
334.599
336.668
331.027
324.114
323.923
326.194
329.965
328.734
325.325
323.73
323.145
323.94
324.018
307.624
300.04
300.988
321.25
316.419
303.153
302.45
301.802
301.567
301.513
301.504
301.5
301.485
301.459
301.427
301.383
301.328
301.261
301.188
301.145
301.082
301.02
301.069
301.859
304.73
306.024
306.381
305.994
304.837
302.809
301.079
300.774
300.823
300.734
300.755
300.694
300.714
300.663
300.678
300.64
300.651
300.599
300.622
300.573
300.58
300.557
300.557
300.578
300.56
300.638
300.579
301.158
300.94
300.794
300.689
303.338
302.92
301.421
301.722
305.353
304.743
303.2
302.794
307.646
306.457
304.77
305.516
315.306
312.97
310.905
309.129
325.226
322.7
320.034
317.335
332.973
331.58
329.927
328.006
336.106
335.41
334.563
337.494
337.739
336.936
337.607
337.733
336.664
334.032
336.455
337.69
333.117
324.654
324.258
327.434
331.856
330.325
326.231
324.017
323.526
324.173
324.258
307.571
300.037
301.085
321.712
317.033
303.287
302.456
301.822
301.602
301.541
301.524
301.509
301.485
301.455
301.415
301.365
301.303
301.229
301.173
301.123
301.061
301.049
301.38
303.379
305.846
306.573
306.563
305.725
303.94
301.561
300.876
300.764
300.788
300.717
300.734
300.681
300.698
300.652
300.665
300.615
300.641
300.583
300.59
300.562
300.572
300.543
300.551
300.557
300.549
300.627
300.591
300.564
301.136
300.937
300.978
300.791
302.416
302.056
301.391
301.696
304.166
303.654
303.236
302.825
307.139
306.073
304.63
305.26
314.733
312.347
310.27
308.532
325.801
323.317
320.634
317.865
333.574
332.416
331.013
329.329
336.453
335.878
335.241
338.037
338.087
337.236
337.838
338.031
337.753
335.914
337.607
338.222
334.922
325.242
324.624
328.706
333.516
331.794
327.119
324.313
323.943
324.428
324.524
308.966
300.201
302.432
322.329
318.673
303.396
302.445
301.842
301.626
301.562
301.536
301.512
301.482
301.446
301.4
301.342
301.273
301.198
301.16
301.101
301.057
301.177
302.288
305.307
306.558
306.955
306.469
305.007
302.573
301.029
300.805
300.745
300.768
300.703
300.724
300.667
300.684
300.641
300.653
300.591
300.616
300.566
300.577
300.555
300.562
300.534
300.531
300.541
300.535
300.667
300.602
300.554
300.584
301.571
301.233
301.446
301.063
302.424
302.045
301.996
302.497
304.115
303.66
304.605
304.124
307.676
306.787
305.735
306.173
315.163
312.686
310.599
308.933
327.346
325.073
322.56
319.902
334.511
333.605
332.491
331.13
336.854
336.475
336.055
338.321
338.299
337.564
338.013
338.214
338.255
337.188
338.099
338.414
336.266
325.818
324.991
329.806
334.824
332.84
327.889
324.636
324.392
324.718
324.84
313.34
306.403
310.189
323.141
320.924
303.491
302.437
301.86
301.649
301.577
301.542
301.51
301.477
301.434
301.38
301.315
301.239
301.186
301.14
301.086
301.114
301.662
304.135
306.407
307.158
307.053
305.949
303.778
301.376
300.867
300.756
300.749
300.784
300.729
300.689
300.708
300.655
300.671
300.617
300.643
300.578
300.592
300.552
300.566
300.535
300.538
300.512
300.513
300.532
300.516
300.803
300.652
300.563
300.622
302.611
301.958
302.218
301.54
303.597
303.049
303.383
304.234
305.363
305.003
307.229
306.654
309.719
308.934
308.161
308.454
317.244
314.753
312.621
310.941
329.492
327.568
325.376
322.982
335.563
334.958
334.202
333.254
337.285
337.038
336.771
338.399
338.301
337.753
338.015
338.168
338.377
337.687
338.171
338.411
336.914
326.339
325.387
330.633
335.555
333.605
328.523
325.016
324.908
325.069
325.228
319.726
313.422
320.916
324.157
323.339
303.582
302.448
301.887
301.669
301.586
301.544
301.507
301.467
301.416
301.356
301.283
301.21
301.176
301.128
301.11
301.36
302.931
305.965
307.164
307.464
306.739
304.895
302.137
300.974
300.813
300.737
300.744
300.766
300.715
300.675
300.694
300.644
300.657
300.593
300.62
300.566
300.579
300.537
300.551
300.515
300.527
300.498
300.498
300.542
300.522
300.505
301.054
300.756
300.59
300.695
304.118
303.077
303.166
302.184
305.936
305.115
305.292
306.533
307.925
307.634
310.504
309.834
313.002
312.193
311.424
311.705
320.503
318.103
315.976
314.264
332.083
330.659
328.956
326.982
336.492
336.182
335.817
335.351
337.547
337.36
337.161
338.327
338.115
337.689
337.474
337.826
338.283
337.701
337.93
338.207
336.944
326.869
325.858
331.317
335.789
334.265
329.203
325.486
325.55
325.554
325.742
323.718
303.779
319.924
325.332
325.149
303.667
302.485
301.921
301.688
301.593
301.542
301.5
301.452
301.395
301.327
301.25
301.201
301.158
301.125
301.232
302.157
305.074
307.065
307.722
307.371
305.888
303.281
301.199
300.862
300.782
300.719
300.73
300.751
300.7
300.662
300.68
300.625
300.645
300.581
300.596
300.552
300.568
300.522
300.536
300.504
300.511
300.485
300.484
300.553
300.52
300.493
300.504
301.43
300.925
300.626
300.785
305.714
304.342
304.012
302.836
308.903
307.771
307.243
308.873
311.213
310.931
314
313.127
317.316
316.376
315.351
315.764
324.807
322.571
320.474
318.696
334.757
333.99
332.99
331.685
336.99
336.815
336.654
336.498
337.472
337.263
337.037
337.859
337.206
336.96
335.342
336.398
337.794
337.38
337.31
337.202
336.519
327.543
326.587
332.193
335.464
334.193
330.179
326.09
326.286
326.259
326.424
324.928
301.684
316.997
326.382
326.385
303.747
302.544
301.965
301.708
301.599
301.54
301.49
301.434
301.369
301.297
301.222
301.189
301.158
301.196
301.72
304.029
306.77
307.818
307.841
306.738
304.439
301.65
300.935
300.82
300.747
300.737
300.768
300.708
300.716
300.687
300.65
300.667
300.601
300.633
300.57
300.585
300.538
300.554
300.508
300.522
300.489
300.497
300.492
300.486
300.479
300.477
300.574
300.526
300.504
301.867
301.142
300.671
300.884
306.988
305.375
304.373
303.157
311.964
310.49
308.85
310.927
315.022
314.592
317.768
316.521
322.757
321.528
319.938
320.635
330.031
328.086
326.151
324.338
336.321
336.118
335.853
335.478
336.935
336.858
336.813
336.787
336.404
335.695
334.885
335.62
334.038
334.284
333.431
334.051
336.564
336.447
335.376
335.129
335.64
328.569
327.542
332.791
334.741
333.876
331.107
326.721
327.03
327.131
327.093
324.644
300.242
308.052
327.222
326.994
303.815
302.621
302.027
301.731
301.605
301.535
301.475
301.411
301.342
301.257
301.221
301.19
301.198
301.503
303.081
306.155
307.787
308.168
307.448
305.471
302.484
301.057
300.865
300.793
300.725
300.729
300.755
300.696
300.705
300.675
300.639
300.655
300.591
300.608
300.557
300.575
300.525
300.541
300.494
300.508
300.475
300.483
300.494
300.49
300.48
300.482
300.592
300.533
300.512
302.164
301.376
300.709
300.956
307.746
305.87
304.359
303.153
314.943
313.014
310.035
312.724
319.365
318.666
321.875
320.141
329.475
327.876
325.331
326.507
334.89
333.954
332.563
331.092
336.769
336.773
336.776
336.812
335.029
335.108
335.234
335.638
334.284
334.268
326.446
333.752
325.629
326.133
326.691
326.236
333.832
334.985
333.801
333.715
334.527
329.533
328.466
332.602
333.856
332.865
331.235
327.389
327.676
327.799
327.783
322.798
300.22
305.245
327.855
327.014
303.856
302.699
302.115
301.759
301.612
301.526
301.457
301.387
301.302
301.239
301.21
301.214
301.416
302.478
305.454
307.658
308.384
307.996
306.382
303.555
301.292
300.912
300.834
300.771
300.713
300.722
300.743
300.684
300.693
300.663
300.617
300.645
300.582
300.599
300.546
300.564
300.512
300.529
300.48
300.494
300.471
300.47
300.508
300.521
300.493
300.534
300.558
300.508
300.619
300.55
300.538
302.202
301.459
300.738
300.985
308.149
305.946
304.091
302.903
318.02
315.461
311.075
314.515
324.281
323.193
326.385
324.053
335.606
334.69
331.661
333.24
336.818
336.821
336.604
336.204
335.81
336.327
336.483
336.924
327.006
327.636
327.621
328.368
326.433
327.305
319.385
325.725
318.373
318.792
319.129
318.541
325.873
333.725
325.978
326.447
333.42
330.075
328.963
331.812
332.835
331.964
330.806
327.961
328.211
328.451
328.229
322.365
384.45
309.487
328.281
327.07
303.865
302.753
302.211
301.788
301.618
301.516
301.435
301.353
301.27
301.228
301.238
301.402
302.16
304.705
307.371
308.507
308.403
307.152
304.632
301.708
300.975
300.871
300.812
300.751
300.733
300.702
300.711
300.673
300.683
300.652
300.608
300.63
300.572
300.591
300.535
300.553
300.497
300.516
300.466
300.479
300.488
300.468
300.564
300.608
300.662
300.716
300.583
300.665
300.59
300.618
302.079
301.441
300.78
301.012
308.549
305.839
303.913
302.619
321.324
318.028
312.153
316.447
329.916
328.254
331.388
328.327
337.919
337.742
336.733
337.489
337.013
337.351
337.764
337.806
328.369
329.172
329.163
329.905
319.675
320.35
320.222
320.849
318.789
320.112
311.001
318.427
310.4
310.64
310.744
310.47
318.405
325.999
318.494
318.524
326.101
329.736
329.121
330.947
326.063
325.796
330.004
328.398
328.632
328.465
328.506
323.935
678.32
330.499
328.518
327.37
303.842
302.779
302.287
301.815
301.613
301.499
301.408
301.308
301.258
301.251
301.414
302.061
304.097
306.974
308.515
308.721
307.793
305.545
302.369
301.075
300.907
300.848
300.793
300.735
300.722
300.714
300.692
300.701
300.664
300.672
300.641
300.6
300.617
300.559
300.579
300.52
300.54
300.482
300.5
300.462
300.464
300.602
300.521
300.491
300.707
300.823
300.937
301.033
300.766
300.785
300.695
300.817
301.841
301.364
300.895
301.092
309.042
305.863
303.905
302.58
324.918
320.819
313.4
318.708
335.688
333.728
335.891
333.046
338.354
338.353
338.398
338.651
330.07
336.295
337.953
337.83
320.841