/*--------------------------------*- C++ -*----------------------------------*\
  =========                 |
  \\      /  F ield         | OpenFOAM: The Open Source CFD Toolbox
   \\    /   O peration     | Website:  https://openfoam.org
    \\  /    A nd           | Version:  dev
     \\/     M anipulation  |
\*---------------------------------------------------------------------------*/
FoamFile
{
    version     2.0;
    format      ascii;
    class       volVectorField;
    location    "2500";
    object      U;
}
// * * * * * * * * * * * * * * * * * * * * * * * * * * * * * * * * * * * * * //

dimensions      [0 1 -1 0 0 0 0];

internalField   nonuniform List<vector> 
9842
(
(0.00433013 0.00677153 0)
(0.0102724 0.00607874 -6.38828e-28)
(0.00435879 0.0177513 -3.23361e-29)
(0.0142347 0.00502024 -1.45117e-27)
(0.011507 0.0179476 -5.16456e-28)
(0.00379961 0.025734 -5.99241e-29)
(0.0174973 0.00406854 -1.43307e-27)
(0.016181 0.0171638 0)
(0.0112682 0.0265951 0)
(0.00320357 0.0324315 -6.90376e-29)
(0.0202169 0.00331598 -1.39558e-27)
(0.0193456 0.0151255 0)
(0.0171706 0.0271765 0)
(0.0100674 0.0333295 0)
(0.00281577 0.0384642 -7.37878e-29)
(0.0226962 0.00271423 -6.88735e-28)
(0.0217223 0.0125156 0)
(0.0215667 0.0265769 1.49319e-29)
(0.0165498 0.0347722 -8.66131e-29)
(0.00873409 0.0391577 -8.40946e-28)
(0.00252709 0.0439408 -7.60282e-29)
(0.0251319 0.0022795 0)
(0.0238753 0.0101276 0)
(0.0245849 0.0247959 -8.11032e-28)
(0.0220708 0.0357305 -7.46329e-28)
(0.0149211 0.0406427 -2.92271e-29)
(0.00774481 0.0444625 -5.79012e-29)
(0.00228506 0.0489825 0)
(0.0275543 0.00206038 0)
(0.0259526 0.00832478 0)
(0.0266088 0.0222229 -8.73733e-28)
(0.026345 0.0355989 -5.99032e-28)
(0.0209362 0.0424435 4.81481e-29)
(0.0132249 0.0457589 0)
(0.00694966 0.0493973 -1.76052e-27)
(0.00207046 0.0535756 0)
(0.0298985 0.00186415 0)
(0.0280122 0.00719231 2.94201e-28)
(0.0281152 0.0193282 9.80092e-29)
(0.0293466 0.0342111 0)
(0.0262349 0.0438666 0)
(0.018887 0.0476273 0)
(0.0118103 0.0505162 -1.40443e-27)
(0.0062523 0.0539241 -2.08309e-27)
(0.0018727 0.057763 0)
(0.0321908 0.00175654 0)
(0.0301443 0.00674614 3.85631e-28)
(0.0295613 0.0164891 2.53909e-28)
(0.0313132 0.0318069 7.81152e-29)
(0.0304994 0.0443353 -4.11066e-29)
(0.0245348 0.0498075 -1.98932e-28)
(0.0168548 0.052163 0)
(0.0105871 0.0549479 3.937e-29)
(0.00561872 0.0580576 0)
(0.00168126 0.0615927 3.27414e-27)
(0.0344324 0.00168353 0)
(0.0323576 0.00649314 -2.34183e-31)
(0.0312159 0.0140845 0)
(0.032633 0.0287646 5.13938e-29)
(0.0336392 0.0435922 0)
(0.0297247 0.051771 1.03369e-28)
(0.0220963 0.0543351 7.14426e-28)
(0.0150883 0.0564422 2.9603e-27)
(0.0094861 0.0590009 7.73831e-29)
(0.00502913 0.0618489 2.77887e-27)
(0.00149695 0.0650539 1.12719e-34)
(0.0366632 0.00161775 -2.42067e-28)
(0.0345605 0.00621248 8.67219e-32)
(0.0331053 0.0123847 0)
(0.0337205 0.0255404 2.25104e-28)
(0.0357561 0.0417189 4.93843e-29)
(0.0340284 0.0529382 5.10435e-29)
(0.0274321 0.0569004 4.01764e-28)
(0.0197439 0.0584189 2.40109e-27)
(0.0135064 0.0603458 1.91694e-27)
(0.0084866 0.062738 2.51417e-27)
(0.00446831 0.0652731 0)
(0.00132293 0.0681572 -2.4135e-28)
(0.0389052 0.00158734 3.91493e-28)
(0.0367107 0.00593732 1.52526e-28)
(0.0351658 0.0114518 2.0451e-28)
(0.0349228 0.0225298 4.6001e-28)
(0.0371328 0.0390302 -1.76239e-28)
(0.0373513 0.0529737 -2.41921e-28)
(0.0325056 0.0594136 2.05632e-28)
(0.024602 0.0609162 8.88305e-28)
(0.0176631 0.0621165 3.32799e-27)
(0.0120699 0.0639787 2.35071e-27)
(0.00754538 0.0661506 0)
(0.00393066 0.0683433 0)
(0.00115047 0.0709375 3.83251e-27)
(0.0411211 0.00159006 8.13802e-28)
(0.0388781 0.00568382 2.5768e-28)
(0.0372823 0.0108822 4.18817e-28)
(0.0364175 0.0200397 1.89329e-28)
(0.0381047 0.0358891 -4.40692e-28)
(0.0397291 0.0518224 4.38409e-29)
(0.0369218 0.0613174 -2.99162e-28)
(0.0296591 0.0638448 -4.64106e-28)
(0.0219673 0.0643913 1.42671e-27)
(0.0157664 0.0656024 -2.10027e-27)
(0.0107219 0.0673637 -2.62967e-27)
(0.00662336 0.0692213 0)
(0.00340621 0.0710979 3.84179e-27)
(0.000978551 0.0733769 4.06753e-27)
(0.0433355 0.00159786 8.53165e-28)
(0.041048 0.00546608 0)
(0.0394203 0.0103919 6.79244e-28)
(0.0381716 0.0182352 0)
(0.0389928 0.0326324 -4.5267e-28)
(0.0413227 0.0497025 0)
(0.0404564 0.0622305 -1.75066e-28)
(0.0346193 0.0668736 -9.75256e-28)
(0.0264865 0.0672334 3.5802e-28)
(0.0195821 0.0676916 -1.81295e-27)
(0.0139884 0.0688983 2.5508e-30)
(0.00941584 0.0704255 -2.98862e-27)
(0.00572562 0.0719521 0)
(0.00289314 0.0735102 3.92133e-27)
(0.00081 0.0754818 0)
(0.0455844 0.00157368 8.94878e-28)
(0.0432517 0.00533395 0)
(0.0415276 0.00997452 7.18166e-28)
(0.0400831 0.0170785 4.70823e-28)
(0.0401069 0.0295839 4.70286e-28)
(0.042407 0.0469833 0)
(0.0431086 0.0620181 3.11334e-28)
(0.0390956 0.0695126 -3.7109e-28)
(0.0312338 0.0705804 -2.10884e-28)
(0.0235324 0.0702939 1.71712e-28)
(0.0173604 0.0708461 2.27311e-27)
(0.0122896 0.0719079 -2.83982e-27)
(0.00814263 0.0731397 3.29407e-27)
(0.00485979 0.0743545 -3.69338e-27)
(0.0023892 0.0755918 -1.24847e-28)
(0.000645746 0.0772658 4.44954e-27)
(0.0478677 0.00152101 7.91515e-28)
(0.0455321 0.00527278 0)
(0.043634 0.00962641 7.64541e-28)
(0.0420827 0.0162933 1.48949e-27)
(0.041493 0.026987 4.84821e-28)
(0.0432468 0.0439871 0)
(0.0449859 0.0607678 3.92085e-28)
(0.0428424 0.0713719 4.69035e-28)
(0.0360147 0.0741467 3.34456e-28)
(0.0277161 0.0734302 0)
(0.0208406 0.0732743 1.1915e-27)
(0.015243 0.0737764 0)
(0.0106381 0.0745984 3.1705e-27)
(0.00690237 0.0755264 -3.58111e-27)
(0.00400634 0.0764397 7.58334e-29)
(0.00189053 0.0773475 4.32738e-27)
(0.000486354 0.0787505 0)
(0.0501614 0.00148417 4.82185e-28)
(0.047825 0.00523674 1.15392e-27)
(0.0458221 0.0093453 0)
(0.0441288 0.0156838 1.57025e-27)
(0.0430997 0.0249959 4.921e-28)
(0.0440813 0.0409535 7.31622e-28)
(0.0462767 0.0587345 4.59519e-28)
(0.0457621 0.0722212 -2.75136e-28)
(0.0404916 0.0775273 4.11278e-28)
(0.032141 0.0771378 3.49119e-28)
(0.0244748 0.076184 1.18183e-27)
(0.0182921 0.0761021 -3.40272e-28)
(0.0131923 0.0764179 0)
(0.00901514 0.0769541 3.48314e-27)
(0.00569129 0.0776167 3.82683e-27)
(0.00315461 0.0781947 -4.05211e-27)
(0.00139891 0.0788033 -1.50672e-28)
(0.000330693 0.0798999 -4.67172e-27)
(0.052449 0.00147696 5.02192e-28)
(0.0500939 0.00516558 1.06986e-27)
(0.0480741 0.00914831 8.5472e-28)
(0.0462142 0.0151592 8.31674e-28)
(0.0449161 0.0235577 7.89531e-28)
(0.0451217 0.0381365 1.60485e-27)
(0.0472284 0.0562598 3.24447e-28)
(0.0479414 0.0720285 -3.62251e-35)
(0.0443874 0.080326 -1.70854e-28)
(0.0366529 0.0812262 -1.62093e-28)
(0.0282987 0.0796317 -1.28309e-27)
(0.021466 0.0788683 5.09593e-28)
(0.0158308 0.0786735 -6.88175e-28)
(0.0111923 0.0787365 3.35662e-27)
(0.00743103 0.0790109 3.77104e-27)
(0.0044894 0.0793858 -4.03859e-27)
(0.00231732 0.0796311 0)
(0.000946179 0.0799655 -9.25275e-27)
(0.000160777 0.0807256 0)
(0.0547347 0.00146215 3.6227e-28)
(0.0523519 0.00504747 1.48383e-27)
(0.0503524 0.00905852 1.80009e-27)
(0.0483995 0.0146532 5.74159e-28)
(0.0468431 0.022556 1.38383e-27)
(0.0464471 0.0356981 1.73018e-27)
(0.0480452 0.053584 1.54033e-27)
(0.0495206 0.0709527 4.72102e-28)
(0.0475868 0.0823099 0)
(0.0410355 0.0853154 -5.53743e-29)
(0.0323519 0.0836156 -5.83897e-28)
(0.0247798 0.0820905 -3.40665e-28)
(0.0185872 0.0813545 -1.66253e-28)
(0.0134318 0.080948 1.26506e-27)
(0.00922525 0.080747 0)
(0.00587461 0.080781 4.04979e-27)
(0.00330082 0.0808228 4.23165e-27)
(0.00147769 0.0807194 -4.40662e-27)
(0.000508945 0.0808747 0)
(1.23003e-05 0.081301 -4.61017e-27)
(0.0570032 0.00143379 5.37687e-28)
(0.0546226 0.0049463 1.92116e-27)
(0.0526671 0.00900226 1.29564e-27)
(0.0506343 0.0141111 1.27532e-27)
(0.0489192 0.0218969 1.19427e-27)
(0.0480305 0.0337221 1.57711e-27)
(0.0489162 0.0508782 1.07192e-27)
(0.0506774 0.0692473 7.64715e-28)
(0.0500782 0.0833363 7.63059e-28)
(0.045036 0.0890507 2.57688e-28)
(0.0365702 0.0880673 3.94782e-28)
(0.0282719 0.08579 4.32458e-28)
(0.0214693 0.0844622 -8.2888e-28)
(0.0157795 0.0835844 1.84192e-27)
(0.0110701 0.0829266 3.38514e-28)
(0.00728958 0.0824885 3.96914e-27)
(0.00432559 0.0822119 8.5285e-27)
(0.00213042 0.0819317 -4.3527e-27)
(0.000691265 0.0814788 2.61657e-29)
(3.6669e-05 0.0814474 -9.01498e-27)
(-0.00014946 0.0815654 0)
(0.0592469 0.00139828 9.31652e-28)
(0.0568979 0.00487492 6.30629e-28)
(0.0549731 0.00885841 3.54574e-28)
(0.0529076 0.0136044 1.3501e-27)
(0.0511824 0.0214041 6.68059e-28)
(0.049803 0.0321378 6.84072e-28)
(0.050014 0.0483197 4.26063e-28)
(0.051652 0.067215 1.55109e-27)
(0.0519714 0.0834244 1.02836e-27)
(0.0484846 0.0921174 1.85027e-28)
(0.0407821 0.0927368 5.48624e-28)
(0.0319571 0.0900299 -1.32082e-28)
(0.024479 0.0879998 4.2758e-28)
(0.0182467 0.0866368 -1.8087e-28)
(0.0130101 0.0855383 4.91538e-28)
(0.0087452 0.0846169 9.72735e-32)
(0.00537404 0.0839052 4.2233e-27)
(0.00280252 0.0832966 -4.3952e-27)
(0.000989357 0.0826812 0)
(-2.22722e-05 0.0819846 -4.40799e-27)
(-0.000409478 0.0816987 0)
(-0.000302664 0.0815969 -4.4247e-27)
(0.0614514 0.00135435 0)
(0.059148 0.00481659 1.41844e-27)
(0.0572362 0.00866232 1.05991e-27)
(0.0552009 0.0132464 7.20844e-28)
(0.05344 0.020878 -3.3691e-28)
(0.051803 0.0310309 1.36411e-27)
(0.0513861 0.0460775 -3.28347e-28)
(0.0525836 0.0650183 -2.18963e-28)
(0.0534566 0.0827365 2.61876e-27)
(0.0513215 0.0943707 0)
(0.0447959 0.0972957 5.53637e-28)
(0.0358295 0.0947817 3.37435e-28)
(0.0276152 0.0920091 -1.31945e-28)
(0.0208143 0.0901072 -1.34632e-27)
(0.0150609 0.0885647 -3.39645e-28)
(0.0102776 0.0871879 0)
(0.00644458 0.0860188 1.80341e-27)
(0.00347746 0.0849504 -4.45455e-27)
(0.00130673 0.084031 0)
(-0.00010253 0.0831451 -4.49616e-27)
(-0.000696056 0.0822302 -6.14418e-29)
(-0.000824459 0.0816113 -4.4009e-27)
(-0.000430377 0.0813944 0)
(0.0636026 0.00130963 -5.80136e-28)
(0.0613681 0.00474029 3.82245e-28)
(0.0594715 0.00848762 1.10619e-27)
(0.0574898 0.0129764 1.865e-27)
(0.0556252 0.0202752 2.21315e-27)
(0.0539843 0.0303713 9.75215e-28)
(0.0529422 0.0442557 1.46168e-27)
(0.0535848 0.0628097 6.48237e-28)
(0.0546909 0.0814915 2.6878e-28)
(0.0536152 0.0957217 1.00906e-27)
(0.0484426 0.10144 4.11003e-28)
(0.039792 0.0999139 3.68078e-28)
(0.0309299 0.0965377 -4.70729e-28)
(0.0234856 0.0940145 -1.21704e-27)
(0.0171961 0.0920013 -1.99773e-27)
(0.0118941 0.0901916 6.39166e-28)
(0.00756678 0.0885786 1.82274e-27)
(0.00415417 0.0870438 -4.46789e-27)
(0.00160549 0.0856553 0)
(-0.000154174 0.0844671 -4.63268e-27)
(-0.00112387 0.0833219 0)
(-0.00136297 0.0822124 8.93987e-29)
(-0.0012037 0.0813195 0)
(-0.000538771 0.0809645 0)
(0.0656729 0.00125846 -8.55424e-42)
(0.063539 0.00460235 -3.34796e-28)
(0.0617246 0.00830429 1.14909e-27)
(0.0597758 0.0126811 1.67048e-27)
(0.0578381 0.0196777 8.89057e-28)
(0.0562203 0.0299259 9.09308e-28)
(0.054688 0.0428921 9.64568e-28)
(0.054717 0.0606913 7.73687e-28)
(0.0557973 0.0799426 0)
(0.0554871 0.0962451 4.22491e-28)
(0.0516439 0.10491 8.07578e-28)
(0.0437329 0.105152 -8.18803e-29)
(0.0344564 0.101589 -1.12046e-27)
(0.0262908 0.0983719 3.13954e-28)
(0.0194357 0.0958657 0)
(0.0135968 0.0936224 0)
(0.00874558 0.0915671 -8.62392e-28)
(0.00486237 0.0896021 -2.80585e-28)
(0.00188554 0.087712 2.17874e-27)
(-0.000223007 0.0860203 0)
(-0.00154563 0.0845843 4.73414e-27)
(-0.00206272 0.0832267 -1.60972e-28)
(-0.00199717 0.0819138 1.33998e-28)
(-0.00153874 0.0808428 1.25061e-29)
(-0.000637909 0.0803516 -3.88103e-28)
(0.0676401 0.00120609 3.82331e-28)
(0.065618 0.00443371 -1.1227e-27)
(0.0639436 0.00809049 3.75967e-28)
(0.062037 0.0123822 8.94302e-28)
(0.060088 0.0191566 0)
(0.0584445 0.0294769 1.71569e-27)
(0.0566936 0.0420008 -2.61449e-28)
(0.0560356 0.0587868 1.05645e-27)
(0.0568561 0.0782545 -2.21086e-27)
(0.0570546 0.0960727 1.73661e-27)
(0.0543762 0.107597 1.95468e-28)
(0.0475121 0.110215 -7.48459e-28)
(0.0381629 0.107072 -6.4473e-28)
(0.0292831 0.103225 8.54443e-28)
(0.0217925 0.100169 0)
(0.0153976 0.097481 1.19752e-27)
(0.0100044 0.0949796 0)
(0.0056104 0.092592 -8.28191e-28)
(0.0021767 0.0902353 2.39883e-27)
(-0.000336043 0.0880045 -8.3245e-29)
(-0.00197878 0.0860593 4.89149e-27)
(-0.00282836 0.0843951 4.64076e-27)
(-0.00292251 0.0828673 3.97749e-27)
(-0.00256844 0.0813746 -3.79085e-27)
(-0.00181743 0.080203 3.54623e-29)
(-0.000727957 0.0795917 -4.22152e-28)
(0.0695045 0.00116248 -1.99114e-28)
(0.0675857 0.00426543 -1.12045e-27)
(0.0660392 0.00783978 -2.84269e-27)
(0.0642549 0.0121256 -1.70506e-27)
(0.0622957 0.0187244 -1.03408e-27)
(0.060641 0.0289858 -3.17198e-28)
(0.0588701 0.0414685 2.51583e-27)
(0.0576168 0.0571837 1.26295e-27)
(0.0579427 0.0765284 1.12031e-27)
(0.0584091 0.0953942 9.47205e-28)
(0.0566851 0.109454 8.13155e-28)
(0.0510194 0.114833 4.39353e-28)
(0.0419715 0.112831 -2.03483e-27)
(0.0325053 0.108591 -2.30665e-28)
(0.0243056 0.104913 0)
(0.0173221 0.101779 2.85727e-27)
(0.0113651 0.0988228 -5.01354e-28)
(0.00641583 0.0960059 1.51133e-27)
(0.00248252 0.0932128 0)
(-0.00046873 0.0904756 7.06986e-29)
(-0.00248639 0.0879497 -4.83556e-29)
(-0.00363134 0.0857567 4.91975e-27)
(-0.00398587 0.0839445 4.6868e-27)
(-0.00371139 0.0822583 -3.95454e-27)
(-0.00305343 0.0806469 -5.26826e-28)
(-0.00205094 0.0794285 -5.85708e-28)
(-0.000807671 0.07872 0)
(0.071251 0.0011096 0)
(0.0694641 0.00406728 -1.90243e-27)
(0.0680302 0.00755379 -8.94537e-28)
(0.0663939 0.0118592 -4.27093e-27)
(0.0644725 0.0183792 -3.36001e-27)
(0.0627718 0.0284856 -1.2131e-27)
(0.0610823 0.041119 -2.66384e-27)
(0.0594436 0.0559876 -2.61361e-27)
(0.0591617 0.0748468 3.68768e-27)
(0.0596488 0.0943766 1.20183e-27)
(0.0586357 0.110545 0)
(0.0541866 0.118827 2.50254e-27)
(0.0458007 0.118625 2.14296e-28)
(0.0359695 0.114402 -9.47402e-28)
(0.0270358 0.110109 -2.61038e-27)
(0.0194161 0.10651 -4.07861e-35)
(0.0128488 0.103126 -3.06971e-28)
(0.0073184 0.0998678 4.8864e-27)
(0.0028225 0.0966278 -2.46906e-27)
(-0.00062243 0.0934148 -2.95492e-27)
(-0.00305541 0.0903385 -2.49123e-28)
(-0.00453064 0.0875181 -4.42277e-28)
(-0.00513999 0.0851772 0)
(-0.00502592 0.083234 2.53583e-28)
(-0.00440468 0.0814308 0)
(-0.00344711 0.0797883 -1.58547e-27)
(-0.00224854 0.0785544 -9.19327e-28)
(-0.000882192 0.0777713 -3.0906e-27)
(0.0728644 0.001041 1.1046e-27)
(0.0712377 0.003848 -3.81392e-27)
(0.0699339 0.00726227 -1.85266e-27)
(0.068434 0.0115214 -1.06267e-27)
(0.0666549 0.0180915 2.96826e-32)
(0.0648274 0.0280313 -2.76835e-27)
(0.0632411 0.0408315 -2.77233e-27)
(0.0614174 0.0552128 -1.43831e-27)
(0.0605692 0.0733019 -2.52166e-27)
(0.0608638 0.0931848 3.77848e-27)
(0.0603414 0.110939 1.22028e-27)
(0.0569756 0.122053 -1.44067e-27)
(0.0495294 0.124216 1.13236e-27)
(0.0396416 0.12055 0)
(0.0300263 0.11579 -1.25823e-27)
(0.021701 0.111667 -3.26738e-27)
(0.0144994 0.107896 -1.69895e-27)
(0.00833012 0.104222 2.11993e-27)
(0.00322547 0.100515 -4.04433e-27)
(-0.000776564 0.096818 -2.16149e-27)
(-0.00368452 0.0932167 -3.49882e-28)
(-0.00554031 0.0897811 -3.46494e-28)
(-0.00642697 0.0867706 -8.80255e-28)
(-0.00648315 0.084317 0)
(-0.0059317 0.0822772 -1.38966e-27)
(-0.00496579 0.0804638 -1.91284e-28)
(-0.00376246 0.0788328 -1.11475e-27)
(-0.00242076 0.0776214 -2.96321e-27)
(-0.000957132 0.0767694 2.04089e-27)
(0.0743317 0.000958545 1.14143e-26)
(0.0728809 0.00360999 -1.53287e-27)
(0.0717267 0.00695106 -2.62861e-27)
(0.0703612 0.0111322 2.2244e-27)
(0.06877 0.0178095 -5.0341e-27)
(0.066882 0.0276928 -4.12158e-27)
(0.0652884 0.040541 1.35824e-27)
(0.0634465 0.0548012 2.76198e-27)
(0.06217 0.0720071 -3.17181e-27)
(0.0621219 0.0919126 -9.57198e-28)
(0.0618866 0.110793 2.66932e-27)
(0.0594193 0.124479 3.69074e-27)
(0.0530755 0.129353 -1.64022e-27)
(0.043462 0.126885 0)
(0.0333012 0.121922 -6.71835e-28)
(0.0242309 0.117258 -9.46864e-28)
(0.0163469 0.113135 -2.98609e-27)
(0.00949388 0.109076 -1.98699e-27)
(0.00373162 0.104927 -2.41405e-27)
(-0.000911494 0.100729 2.73249e-27)
(-0.00436715 0.0965786 2.92443e-27)
(-0.00667562 0.0925485 -4.13239e-28)
(-0.00787103 0.0888545 8.31148e-28)
(-0.00812443 0.0857057 -1.87845e-27)
(-0.00763622 0.0831838 2.20973e-27)
(-0.00666157 0.0811664 -3.45355e-31)
(-0.00539915 0.0794044 1.5379e-27)
(-0.00402022 0.0778302 0)
(-0.0025875 0.0766556 -6.73685e-28)
(-0.00103615 0.0757208 2.27877e-27)
(0.0756208 0.000867071 8.4383e-31)
(0.0743757 0.00334222 8.37135e-27)
(0.073398 0.00659874 -6.71778e-27)
(0.0721814 0.0107055 5.21445e-27)
(0.0707365 0.0175182 4.71165e-30)
(0.0689344 0.0274944 -5.94638e-27)
(0.0672247 0.0402557 2.86855e-27)
(0.0654595 0.0546155 9.66112e-27)
(0.063905 0.0710147 -8.26521e-28)
(0.0634532 0.0906695 0)
(0.0633337 0.110263 1.99381e-27)
(0.0615793 0.126117 -1.13228e-27)
(0.0563706 0.133878 3.68175e-27)
(0.0473406 0.133211 6.06187e-28)
(0.0368619 0.128424 -2.53223e-30)
(0.0270533 0.1233 0)
(0.0184476 0.118812 -2.46261e-27)
(0.0108772 0.114422 -3.59649e-27)
(0.00439056 0.109879 0)
(-0.000969869 0.10522 -2.93604e-35)
(-0.00507065 0.10048 5.71741e-27)
(-0.00791843 0.0958325 -3.28965e-27)
(-0.0095198 0.0914411 -3.31469e-28)
(-0.0099879 0.0875456 -1.75335e-27)
(-0.00957875 0.0843235 9.13881e-27)
(-0.00855886 0.0818685 0)
(-0.00719473 0.0799629 2.25173e-27)
(-0.00572836 0.0783333 1.61524e-31)
(-0.00425021 0.0768351 1.36891e-27)
(-0.00278416 0.0756718 0)
(-0.0011325 0.0746202 0)
(0.0767055 0.000768517 9.10503e-28)
(0.0756874 0.00303903 -1.40217e-26)
(0.0749245 0.00620911 -3.89043e-27)
(0.0738861 0.0102568 -7.60826e-27)
(0.072559 0.0172298 8.44752e-27)
(0.0709032 0.0273878 -5.77178e-27)
(0.0690993 0.0400523 0)
(0.0674026 0.0545366 4.58176e-27)
(0.0656869 0.0703388 9.84408e-27)
(0.0648762 0.0894884 0)
(0.0647462 0.109498 3.66564e-27)
(0.063528 0.12704 0)
(0.0593843 0.137626 -2.82595e-27)
(0.0512038 0.139297 -1.65217e-27)
(0.0406605 0.13519 -2.12033e-27)
(0.0302024 0.12979 0)
(0.020841 0.124907 -4.05479e-27)
(0.0125434 0.120231 -3.08203e-27)
(0.00525461 0.115369 0)
(-0.000869423 0.110321 -2.63898e-27)
(-0.00575072 0.104998 6.10455e-27)
(-0.00923336 0.0996909 -6.61191e-27)
(-0.0113525 0.0945485 3.01003e-34)
(-0.0121349 0.0898757 3.00223e-28)
(-0.0118182 0.0858615 2.84141e-27)
(-0.0107322 0.0827146 2.83491e-27)
(-0.00921061 0.0804456 3.39373e-27)
(-0.00755227 0.078748 0)
(-0.0059765 0.0773176 -2.16046e-27)
(-0.00450661 0.0758991 2.0939e-27)
(-0.0030493 0.0746597 0)
(-0.00125226 0.0734363 -3.89309e-27)
(0.0775509 0.00064922 -1.01909e-26)
(0.0768 0.00269951 -2.87725e-27)
(0.0762808 0.00578212 -1.06833e-26)
(0.0754339 0.0097994 -7.64951e-27)
(0.0742464 0.0169634 5.6415e-27)
(0.0727317 0.0273235 -5.66932e-27)
(0.0709236 0.0399876 -1.29223e-26)
(0.0692362 0.0544905 5.58388e-27)
(0.0674855 0.0699471 -5.45851e-27)
(0.0663966 0.088418 -5.24888e-27)
(0.0661458 0.108603 -1.10741e-26)
(0.0653264 0.127369 0)
(0.062114 0.140565 -8.85763e-27)
(0.0549813 0.144916 2.73301e-27)
(0.0446653 0.142064 7.79383e-32)
(0.0336979 0.136663 -5.1235e-27)
(0.0235762 0.131399 -5.43924e-28)
(0.014532 0.126484 -3.4959e-27)
(0.00643123 0.121403 0)
(-0.000556107 0.116005 -7.54809e-28)
(-0.00630448 0.1102 1.79153e-42)
(-0.0105906 0.10423 -3.77245e-27)
(-0.0133432 0.0982805 -4.59667e-29)
(-0.0145719 0.0927219 1.77584e-31)
(-0.0144395 0.0878339 1.1662e-27)
(-0.0132782 0.0838591 -6.4514e-27)
(-0.0115038 0.0809575 1.01217e-27)
(-0.00958523 0.0790119 2.47143e-31)
(-0.00775461 0.0776229 0)
(-0.00619875 0.0764456 4.22228e-27)
(-0.00489624 0.0750421 0)
(-0.00347437 0.0735729 -7.29757e-27)
(-0.00138864 0.0720499 3.1281e-27)
(0.0780946 0.000492998 3.31492e-28)
(0.077691 0.00230812 -2.73581e-27)
(0.0774568 0.00530147 3.88196e-27)
(0.0768183 0.00936007 -1.33037e-27)
(0.0757756 0.0167221 -8.22407e-27)
(0.074385 0.0273037 5.53431e-27)
(0.0726585 0.0400561 -1.3229e-26)
(0.0709611 0.0544851 1.66747e-26)
(0.0692526 0.0697782 -1.21711e-26)
(0.0679746 0.087491 0)
(0.0675564 0.107648 -1.78143e-26)
(0.0669997 0.127239 5.32316e-27)
(0.0645902 0.142679 5.49451e-27)
(0.0585829 0.149894 -5.59453e-27)
(0.0488062 0.148865 -4.84505e-27)
(0.0375375 0.143811 2.70967e-27)
(0.0267171 0.138262 -2.63374e-27)
(0.0168869 0.13314 -4.15458e-27)
(0.0079907 0.12793 -2.3458e-27)
(6.75556e-05 0.122262 -4.46235e-27)
(-0.00662587 0.116122 -1.20875e-27)
(-0.0118948 0.109539 0)
(-0.0154738 0.102763 -2.22703e-28)
(-0.0172914 0.0962085 3.21764e-28)
(-0.0174793 0.0903098 4.81749e-27)
(-0.0163073 0.0853594 -1.87803e-28)
(-0.0142524 0.0816353 6.22783e-28)
(-0.0118471 0.0791412 0)
(-0.00968734 0.0777142 -3.86941e-27)
(-0.00788674 0.0767408 -3.16241e-27)
(-0.00654854 0.075795 3.84026e-27)
(-0.00548546 0.0742291 0)
(-0.00409407 0.072382 0)
(-0.000742913 0.0706251 6.27663e-28)
(-0.00241396 0.0707151 4.97825e-28)
(0.0782428 0.000235099 9.26117e-27)
(0.0783466 0.00177411 0)
(0.0784557 0.00476839 1.54615e-26)
(0.0780457 0.00892488 5.01515e-27)
(0.0771412 0.0164952 -6.59903e-28)
(0.0758671 0.0273542 -5.36928e-27)
(0.0742532 0.0402216 2.69647e-26)
(0.0725909 0.0545351 6.656e-27)
(0.0709385 0.0697339 -1.08197e-26)
(0.0695753 0.086738 1.93717e-26)
(0.068986 0.106661 -1.03543e-26)
(0.0685965 0.126762 1.05744e-26)
(0.0668359 0.144034 -1.81264e-26)
(0.0619618 0.15409 1.69848e-26)
(0.0530196 0.155376 -6.44658e-27)
(0.0416978 0.151104 -8.50138e-27)
(0.03028 0.145462 0)
(0.0196835 0.140164 4.74421e-27)
(0.00997195 0.134883 -2.61758e-27)
(0.00111542 0.1291 -1.87531e-27)
(-0.00662661 0.122741 0)
(-0.0129859 0.115675 0)
(-0.017637 0.108126 -3.89196e-27)
(-0.0202844 0.100522 0)
(-0.0209793 0.0934389 4.21096e-27)
(-0.0199311 0.0872883 -5.67634e-28)
(-0.0175508 0.0825111 3.03952e-28)
(-0.0146574 0.0793328 1.11684e-26)
(-0.0117822 0.0774752 7.45717e-28)
(-0.00956347 0.0767813 -4.67641e-27)
(-0.00807335 0.0762284 -8.75799e-27)
(-0.00714016 0.0752719 2.44211e-26)
(-0.00644785 0.0731776 3.05533e-27)
(-0.00382364 0.070966 -4.66223e-28)
(-0.00548095 0.0714371 1.45036e-28)
(-0.000891121 0.0695627 0)
(-0.00261041 0.069753 0)
(0.0776407 -0.000226344 0)
(0.0786782 0.00113055 8.70285e-27)
(0.0792801 0.00403251 6.8557e-31)
(0.0791498 0.00847936 5.06211e-27)
(0.0783418 0.0162919 6.27624e-27)
(0.0771709 0.0274713 1.93956e-27)
(0.0756784 0.0404451 2.20188e-26)
(0.0741106 0.0546383 1.06416e-26)
(0.0725429 0.0697452 -1.06654e-26)
(0.0711597 0.0861933 -1.05666e-26)
(0.0704322 0.105634 0)
(0.0701417 0.126043 -1.0424e-26)
(0.0689132 0.14468 1.08674e-26)
(0.0650825 0.157411 0)
(0.0571921 0.161381 -4.48674e-27)
(0.0461285 0.158406 -2.43324e-26)
(0.0342774 0.152927 1.15957e-26)
(0.0229724 0.147507 0)
(0.0124285 0.142217 -4.59847e-27)
(0.00265736 0.136487 0)
(-0.00618032 0.130018 -2.48042e-27)
(-0.0137465 0.122653 0)
(-0.0196578 0.114461 -5.26858e-27)
(-0.0234488 0.105842 0)
(-0.0249178 0.0974542 0)
(-0.0242429 0.0898482 -3.5077e-27)
(-0.0216928 0.0836884 3.23522e-28)
(-0.0179946 0.0794275 -7.0112e-28)
(-0.0144021 0.0772295 3.76481e-28)
(-0.0112817 0.0762093 1.97149e-28)
(-0.00935793 0.0763156 -3.90427e-27)
(-0.00854802 0.0760684 2.27815e-26)
(-0.00723536 0.0743036 3.4359e-27)
(-0.00830961 0.0751276 8.76346e-27)
(-0.00662141 0.0720671 -9.50717e-29)
(-0.00807587 0.0741214 0)
(-0.00791522 0.0729289 -1.87374e-27)
(-0.00433098 0.0700715 0)
(-0.00596916 0.070634 6.83136e-28)
(-0.000935305 0.0684655 0)
(-0.00286581 0.0686938 -1.8094e-27)
(0.0759183 -0.000213371 -2.75773e-29)
(0.0780379 0.000355997 0)
(0.079736 0.00310689 -1.79791e-27)
(0.080148 0.00796127 -6.53179e-27)
(0.079397 0.016153 1.92494e-30)
(0.0782736 0.0276629 4.95478e-27)
(0.0769193 0.0407072 6.47102e-35)
(0.0754732 0.0547684 5.18091e-27)
(0.0740667 0.0697727 -1.53583e-26)
(0.072704 0.085771 -1.35388e-29)
(0.0719079 0.104613 2.21587e-26)
(0.0716552 0.125152 -2.23169e-26)
(0.070854 0.144743 7.4321e-28)
(0.0679388 0.159829 -9.94777e-27)
(0.0612451 0.166659 -1.90235e-26)
(0.0507569 0.165525 -4.02151e-27)
(0.0386791 0.160538 0)
(0.0267598 0.1551 -7.31199e-31)
(0.0154677 0.149879 -1.57271e-28)
(0.00477192 0.144323 -5.99297e-27)
(-0.00516713 0.137911 -1.37988e-26)
(-0.0140122 0.130453 -1.57889e-26)
(-0.0213507 0.121861 3.98668e-27)
(-0.0266414 0.112337 -2.31425e-27)
(-0.0292603 0.10258 0)
(-0.0291884 0.0932972 3.84091e-27)
(-0.0266944 0.0853829 -6.21418e-27)
(-0.022409 0.0796487 -9.23157e-28)
(-0.0174473 0.0763214 -2.63368e-27)
(-0.0132533 0.0755717 3.25077e-28)
(-0.0105378 0.0758372 8.48638e-28)
(-0.00952126 0.0765261 0)
(-0.00871753 0.0758428 1.06504e-26)
(-0.00960478 0.0765201 7.12059e-27)
(-0.0089707 0.0750216 -5.05857e-27)
(-0.00746097 0.0714144 1.22631e-27)
(-0.00907014 0.0738511 1.08276e-27)
(-0.00881566 0.0723889 -1.991e-27)
(-0.00480242 0.0690774 0)
(-0.00665288 0.0697268 -1.30127e-27)
(-0.00102257 0.0672203 0)
(-0.00317848 0.0674885 -2.12102e-27)
(0.0753733 -5.23246e-06 6.31646e-27)
(0.075621 0.000421619 3.91318e-28)
(0.078841 0.00210515 0)
(0.0807246 0.00726792 2.54576e-27)
(0.0803247 0.0162078 -1.55877e-26)
(0.0791811 0.0279334 -3.11335e-27)
(0.0779537 0.0410054 -6.67326e-31)
(0.0766656 0.0549087 -4.91372e-35)
(0.075461 0.0697611 -1.19639e-26)
(0.0741893 0.0854235 1.64589e-26)
(0.0733912 0.103582 2.33808e-26)
(0.07315 0.1241 -4.75135e-26)
(0.0726836 0.144343 0)
(0.0705655 0.161384 -4.64091e-26)
(0.0650931 0.171082 5.57332e-26)
(0.055482 0.172249 0)
(0.0434386 0.168146 -3.39261e-30)
(0.0310501 0.162842 1.21605e-26)
(0.0190994 0.157742 -7.51702e-27)
(0.00759444 0.152464 -1.268e-26)
(-0.00341326 0.146324 -3.84288e-27)
(-0.0135973 0.139016 -8.42246e-27)
(-0.022511 0.130295 1.02832e-26)
(-0.0295236 0.120148 7.4132e-27)
(-0.0337734 0.109091 -2.221e-27)
(-0.0348272 0.0979529 6.33381e-27)
(-0.0326028 0.0878924 -3.67319e-27)
(-0.0278972 0.0801248 -7.4233e-27)
(-0.0220157 0.0753925 -5.56069e-27)
(-0.0157615 0.073275 -2.58195e-27)
(-0.0113141 0.0744304 1.95273e-26)
(-0.0099475 0.0765603 6.84192e-27)
(-0.00966561 0.0770798 -1.25096e-27)
(-0.0100797 0.0775152 -1.32059e-27)
(-0.00964361 0.0759726 -8.97298e-27)
(-0.0101686 0.0768555 1.02766e-27)
(-0.00998727 0.0748458 1.22328e-27)
(-0.00836624 0.070641 -2.2099e-27)
(-0.0100539 0.0734967 -7.44471e-28)
(-0.0099166 0.0717799 2.16129e-27)
(-0.00537434 0.0679427 2.23793e-27)
(-0.00747811 0.0686851 -3.63247e-28)
(-0.00112159 0.0658199 0)
(-0.00352825 0.0661235 2.09667e-27)
(0.0745742 -0.000199737 0)
(0.0754195 0.000634731 6.63291e-27)
(0.0751235 0.00232385 -1.48502e-27)
(0.0796441 0.00629579 2.42016e-27)
(0.080839 0.0163287 0)
(0.0798956 0.0283721 -7.98802e-27)
(0.0787688 0.0413209 4.67651e-27)
(0.0776832 0.0550503 -4.83454e-27)
(0.0766832 0.0696773 1.16401e-26)
(0.0756051 0.0851092 -1.30147e-26)
(0.0748443 0.102569 -2.48172e-27)
(0.0746203 0.12287 -2.5019e-26)
(0.0744294 0.14354 0)
(0.072988 0.162133 -5.02435e-26)
(0.0686977 0.174551 4.62318e-26)
(0.060194 0.178371 -8.82442e-30)
(0.0484938 0.175622 0)
(0.0358158 0.170627 -1.20942e-26)
(0.0233081 0.165693 2.2554e-26)
(0.0111177 0.160763 0)
(-0.000821445 0.155099 6.04312e-27)
(-0.0122859 0.148183 -1.68085e-30)
(-0.0228198 0.139681 1.23723e-26)
(-0.0317533 0.129298 -3.04564e-26)
(-0.0381113 0.117228 -3.39708e-26)
(-0.0410478 0.104341 -1.98232e-28)
(-0.0399519 0.0919039 3.32764e-27)
(-0.0350363 0.0815212 0)
(-0.0280159 0.0750551 -1.02561e-26)
(-0.0207987 0.0724928 -4.8245e-27)
(-0.0140543 0.0725131 -3.01926e-27)
(-0.0108268 0.0755217 1.94419e-26)
(-0.00984042 0.0777848 1.41872e-27)
(-0.00992781 0.0779288 1.41987e-26)
(-0.0103825 0.0776452 0)
(-0.0104124 0.0783111 0)
(-0.0106883 0.0759353 -3.85609e-27)
(-0.0111613 0.077059 -1.5586e-27)
(-0.0110817 0.0747065 -1.05186e-27)
(-0.00943363 0.0697401 -1.37698e-27)
(-0.0113136 0.0730854 1.11373e-27)
(-0.011216 0.0710612 0)
(-0.00602227 0.0666535 4.56881e-27)
(-0.00841813 0.0674959 -7.79418e-28)
(-0.0012385 0.064228 0)
(-0.00392689 0.0645629 -1.21881e-26)
(0.0732655 -0.000547438 -5.30883e-27)
(0.0748973 0.000399908 -5.60209e-27)
(0.0754333 0.00253485 -3.08748e-31)
(0.0749621 0.00677044 2.26003e-27)
(0.0798499 0.0162658 -7.59589e-27)
(0.0802138 0.0289836 0)
(0.0793304 0.0416972 9.33368e-27)
(0.0784947 0.0551629 -4.65822e-27)
(0.0777334 0.0695165 2.39438e-27)
(0.0769182 0.0847628 -6.08398e-28)
(0.0762395 0.10158 -1.26863e-26)
(0.0760758 0.121482 -2.38139e-27)
(0.076101 0.142408 0)
(0.0752393 0.16213 -4.51938e-26)
(0.0720255 0.177012 0)
(0.064802 0.183694 0)
(0.0537682 0.182788 -4.5468e-26)
(0.0409901 0.178366 0)
(0.0280847 0.17366 2.99333e-26)
(0.0153246 0.169095 -2.62219e-26)
(0.00262947 0.164032 0)
(-0.00997445 0.157776 1.41607e-26)
(-0.0220392 0.149811 2.80388e-26)
(-0.0329785 0.139649 -4.91754e-26)
(-0.041803 0.127214 2.65037e-26)
(-0.047425 0.113071 -2.1132e-27)
(-0.0487166 0.0985336 3.40516e-27)
(-0.0447232 0.085674 -1.36052e-26)
(-0.0372768 0.0772967 5.08766e-27)
(-0.030507 0.0738623 -4.52902e-27)
(-0.0230937 0.0742716 -5.65511e-27)
(-0.0167258 0.0777992 6.79502e-27)
(-0.0102452 0.0785583 7.25997e-27)
(-0.0123139 0.0797553 -8.93284e-28)
(-0.0102731 0.0789485 -2.49115e-27)
(-0.0106377 0.0799498 1.1981e-26)
(-0.0113273 0.0781628 2.27133e-28)
(-0.0112962 0.0792592 1.54752e-27)
(-0.0118713 0.0760595 -7.69577e-28)
(-0.0123893 0.0774999 -6.81632e-28)
(-0.0124879 0.0745635 2.91507e-27)
(-0.0106556 0.0686995 0)
(-0.0128184 0.0725906 -5.29619e-27)
(-0.0127105 0.0702128 -2.30157e-27)
(-0.00675465 0.065178 -1.44303e-27)
(-0.00948285 0.0661238 -3.71703e-28)
(-0.00137747 0.0623988 0)
(-0.00438497 0.0627566 -1.27822e-26)
(0.0713943 -0.00094157 -8.23973e-29)
(0.0737588 -3.42697e-05 -4.57866e-27)
(0.0754381 0.00227759 -9.75312e-27)
(0.0750898 0.00672164 2.16335e-27)
(0.075571 0.0169486 -3.06422e-27)
(0.0794228 0.0294916 -1.56437e-26)
(0.079526 0.042132 1.46104e-26)
(0.0790907 0.0552386 0)
(0.0786002 0.0692526 -1.61818e-26)
(0.0780896 0.0843191 3.54708e-27)
(0.077568 0.100601 -1.30938e-26)
(0.0775133 0.119961 0)
(0.0777129 0.141005 0)
(0.0773398 0.161505 -1.17577e-26)
(0.075074 0.178469 -1.90792e-26)
(0.0692079 0.188037 -1.3803e-26)
(0.0591325 0.189428 0)
(0.0465339 0.185943 -4.60591e-26)
(0.0333608 0.181547 3.95446e-26)
(0.0201743 0.177367 0)
(0.00690833 0.172956 -2.73531e-26)
(-0.00656912 0.167523 -2.90608e-26)
(-0.0200192 0.160411 -1.50306e-26)
(-0.0328565 0.151009 1.26077e-26)
(-0.0443267 0.138895 4.59025e-26)
(-0.0531568 0.1244 0)
(-0.058136 0.108882 -8.43912e-28)
(-0.0573875 0.0949935 -7.33143e-26)
(-0.0528323 0.0864475 0)
(-0.0474069 0.0836978 -3.23913e-27)
(-0.0418518 0.0865668 0)
(-0.0361487 0.0928072 -2.8841e-27)
(-0.0178296 0.0855506 -2.61511e-27)
(-0.0347455 0.10032 -1.10952e-27)
(-0.0123594 0.0823368 7.05325e-27)
(-0.0184102 0.0891405 -3.70858e-27)