/*--------------------------------*- C++ -*----------------------------------*\
  =========                 |
  \\      /  F ield         | OpenFOAM: The Open Source CFD Toolbox
   \\    /   O peration     | Website:  https://openfoam.org
    \\  /    A nd           | Version:  dev
     \\/     M anipulation  |
\*---------------------------------------------------------------------------*/
FoamFile
{
    version     2.0;
    format      ascii;
    class       volScalarField;
    location    "2500";
    object      a;
}
// * * * * * * * * * * * * * * * * * * * * * * * * * * * * * * * * * * * * * //

dimensions      [0 -1 0 0 0 0 0];

internalField   nonuniform List<scalar> 
9836
(
0.100011
0.100011
0.100011
0.100011
0.100011
0.100011
0.100011
0.100011
0.100011
0.100011
0.10001
0.100011
0.100011
0.100011
0.100011
0.10001
0.10001
0.100011
0.100011
0.100011
0.100011
0.10001
0.10001
0.10001
0.100011
0.100011
0.100011
0.100011
0.10001
0.10001
0.10001
0.10001
0.100011
0.100011
0.100011
0.100011
0.100009
0.10001
0.10001
0.10001
0.10001
0.100011
0.100011
0.100011
0.100011
0.100009
0.100009
0.10001
0.10001
0.10001
0.10001
0.100011
0.100011
0.100011
0.100011
0.100009
0.100009
0.100009
0.10001
0.10001
0.10001
0.10001
0.100011
0.100011
0.100011
0.100011
0.100009
0.100009
0.100009
0.100009
0.10001
0.10001
0.10001
0.10001
0.100011
0.100011
0.100011
0.100011
0.100009
0.100009
0.100009
0.100009
0.100009
0.10001
0.10001
0.10001
0.10001
0.100011
0.100011
0.100011
0.100011
0.100008
0.100009
0.100009
0.100009
0.100009
0.100009
0.10001
0.10001
0.10001
0.10001
0.100011
0.100011
0.100011
0.100011
0.100008
0.100008
0.100009
0.100009
0.100009
0.100009
0.100009
0.10001
0.10001
0.10001
0.10001
0.100011
0.100011
0.100011
0.100011
0.100008
0.100008
0.100008
0.100009
0.100009
0.100009
0.100009
0.100009
0.10001
0.10001
0.10001
0.10001
0.100011
0.100011
0.100011
0.100011
0.100008
0.100008
0.100008
0.100008
0.100009
0.100009
0.100009
0.100009
0.100009
0.10001
0.10001
0.10001
0.10001
0.100011
0.100011
0.100011
0.100011
0.100007
0.100008
0.100008
0.100008
0.100008
0.100009
0.100009
0.100009
0.100009
0.100009
0.10001
0.10001
0.10001
0.10001
0.100011
0.100011
0.100011
0.100011
0.100007
0.100007
0.100008
0.100008
0.100008
0.100008
0.100009
0.100009
0.100009
0.100009
0.100009
0.10001
0.10001
0.10001
0.10001
0.100011
0.100011
0.100011
0.100011
0.100007
0.100007
0.100007
0.100008
0.100008
0.100008
0.100008
0.100009
0.100009
0.100009
0.100009
0.100009
0.10001
0.10001
0.10001
0.10001
0.100011
0.100011
0.100011
0.100011
0.100007
0.100007
0.100007
0.100007
0.100008
0.100008
0.100008
0.100008
0.100009
0.100009
0.100009
0.100009
0.100009
0.10001
0.10001
0.10001
0.10001
0.100011
0.100011
0.100011
0.100011
0.100006
0.100007
0.100007
0.100007
0.100007
0.100008
0.100008
0.100008
0.100008
0.100009
0.100009
0.100009
0.100009
0.100009
0.10001
0.10001
0.10001
0.10001
0.100011
0.100011
0.100011
0.100011
0.100006
0.100006
0.100007
0.100007
0.100007
0.100007
0.100008
0.100008
0.100008
0.100008
0.100009
0.100009
0.100009
0.100009
0.100009
0.10001
0.10001
0.10001
0.10001
0.100011
0.100011
0.100011
0.100011
0.100006
0.100006
0.100006
0.100007
0.100007
0.100007
0.100007
0.100008
0.100008
0.100008
0.100008
0.100009
0.100009
0.100009
0.100009
0.100009
0.10001
0.10001
0.10001
0.10001
0.100011
0.100011
0.100011
0.100011
0.100006
0.100006
0.100006
0.100006
0.100007
0.100007
0.100007
0.100007
0.100008
0.100008
0.100008
0.100008
0.100009
0.100009
0.100009
0.100009
0.100009
0.10001
0.10001
0.10001
0.10001
0.100011
0.100011
0.100011
0.100011
0.100006
0.100006
0.100006
0.100006
0.100006
0.100007
0.100007
0.100007
0.100007
0.100008
0.100008
0.100008
0.100008
0.100009
0.100009
0.100009
0.100009
0.100009
0.10001
0.10001
0.10001
0.10001
0.100011
0.100011
0.100011
0.100011
0.100005
0.100006
0.100006
0.100006
0.100006
0.100006
0.100007
0.100007
0.100007
0.100007
0.100008
0.100008
0.100008
0.100008
0.100009
0.100009
0.100009
0.100009
0.100009
0.10001
0.10001
0.10001
0.10001
0.100011
0.100011
0.100011
0.100011
0.100005
0.100005
0.100006
0.100006
0.100006
0.100006
0.100006
0.100007
0.100007
0.100007
0.100007
0.100008
0.100008
0.100008
0.100008
0.100009
0.100009
0.100009
0.100009
0.100009
0.10001
0.10001
0.10001
0.10001
0.100011
0.100011
0.100011
0.100011
0.100005
0.100005
0.100005
0.100006
0.100006
0.100006
0.100006
0.100006
0.100007
0.100007
0.100007
0.100007
0.100008
0.100008
0.100008
0.100008
0.100009
0.100009
0.100009
0.100009
0.100009
0.10001
0.10001
0.10001
0.10001
0.100011
0.100011
0.100011
0.100011
0.100005
0.100005
0.100005
0.100005
0.100006
0.100006
0.100006
0.100006
0.100006
0.100007
0.100007
0.100007
0.100007
0.100008
0.100008
0.100008
0.100008
0.100009
0.100009
0.100009
0.100009
0.100009
0.10001
0.10001
0.10001
0.10001
0.100011
0.100011
0.100011
0.100011
0.100004
0.100005
0.100005
0.100005
0.100005
0.100006
0.100006
0.100006
0.100006
0.100006
0.100007
0.100007
0.100007
0.100007
0.100008
0.100008
0.100008
0.100008
0.100009
0.100009
0.100009
0.100009
0.100009
0.10001
0.10001
0.10001
0.10001
0.100011
0.100011
0.100011
0.100011
0.100004
0.100004
0.100005
0.100005
0.100005
0.100005
0.100006
0.100006
0.100006
0.100006
0.100006
0.100007
0.100007
0.100007
0.100007
0.100008
0.100008
0.100008
0.100008
0.100009
0.100009
0.100009
0.100009
0.100009
0.10001
0.10001
0.10001
0.10001
0.100011
0.100011
0.100011
0.100011
0.100004
0.100004
0.100004
0.100005
0.100005
0.100005
0.100005
0.100006
0.100006
0.100006
0.100006
0.100006
0.100007
0.100007
0.100007
0.100007
0.100008
0.100008
0.100008
0.100008
0.100009
0.100009
0.100009
0.100009
0.100009
0.10001
0.10001
0.10001
0.10001
0.100011
0.100011
0.100011
0.100011
0.100004
0.100004
0.100004
0.100004
0.100005
0.100005
0.100005
0.100005
0.100006
0.100006
0.100006
0.100006
0.100006
0.100007
0.100007
0.100007
0.100007
0.100008
0.100008
0.100008
0.100008
0.100009
0.100009
0.100009
0.100009
0.100009
0.10001
0.10001
0.10001
0.10001
0.100011
0.100011
0.100011
0.100011
0.100011
0.100004
0.100004
0.100004
0.100004
0.100004
0.100005
0.100005
0.100005
0.100005
0.100006
0.100006
0.100006
0.100006
0.100006
0.100007
0.100007
0.100007
0.100007
0.100008
0.100008
0.100008
0.100008
0.100009
0.100009
0.100009
0.100009
0.100009
0.10001
0.10001
0.10001
0.10001
0.100011
0.100011
0.100011
0.100011
0.100011
0.100011
0.100003
0.100004
0.100004
0.100004
0.100004
0.100004
0.100005
0.100005
0.100005
0.100005
0.100006
0.100006
0.100006
0.100006
0.100006
0.100007
0.100007
0.100007
0.100007
0.100008
0.100008
0.100008
0.100008
0.100009
0.100009
0.100009
0.100009
0.100009
0.10001
0.10001
0.10001
0.10001
0.100011
0.100011
0.100011
0.100011
0.100011
0.100011
0.100011
0.100011
0.100011
0.100003
0.100003
0.100004
0.100004
0.100004
0.100004
0.100004
0.100005
0.100005
0.100005
0.100005
0.100006
0.100006
0.100006
0.100006
0.100006
0.100007
0.100007
0.100007
0.100007
0.100008
0.100008
0.100008
0.100008
0.100009
0.100009
0.100009
0.100009
0.10001
0.100011
0.100012
0.100013
0.100011
0.100012
0.100011
0.100011
0.100011
0.100011
0.100011
0.100011
0.100011
0.100011
0.100003
0.100003
0.100003
0.100004
0.100004
0.100004
0.100004
0.100004
0.100005
0.100005
0.100005
0.100005
0.100006
0.100006
0.100006
0.100006
0.100006
0.100007
0.100007
0.100007
0.100007
0.100008
0.100008
0.100008
0.100008
0.100009
0.100009
0.100009
0.100012
0.100021
0.100036
0.100049
0.100019
0.100053
0.100012
0.100023
0.100013
0.100011
0.100013
0.100012
0.100011
0.100011
0.100011
0.100011
0.100003
0.100003
0.100003
0.100003
0.100004
0.100004
0.100004
0.100004
0.100004
0.100005
0.100005
0.100005
0.100005
0.100006
0.100006
0.100006
0.100006
0.100006
0.100007
0.100007
0.100007
0.100007
0.100008
0.100008
0.100008
0.100008
0.100009
0.100012
0.100018
0.100057
0.100183
0.100376
0.100179
0.100592
0.100078
0.100306
0.100026
0.100102
0.100026
0.100012
0.100025
0.100021
0.100011
0.100011
0.100011
0.100011
0.100002
0.100003
0.100003
0.100003
0.100003
0.100004
0.100004
0.100004
0.100004
0.100004
0.100005
0.100005
0.100005
0.100005
0.100006
0.100006
0.100006
0.100006
0.100006
0.100007
0.100007
0.100007
0.100007
0.100008
0.100008
0.100008
0.100008
0.100011
0.100039
0.100153
0.100679
0.102064
0.101663
0.104228
0.101064
0.103135
0.100451
0.101676
0.100118
0.100581
0.100119
0.100017
0.100104
0.100079
0.100011
0.100014
0.100011
0.100011
0.100002
0.100002
0.100003
0.100003
0.100003
0.100003
0.100004
0.100004
0.100004
0.100004
0.100004
0.100005
0.100005
0.100005
0.100005
0.100006
0.100006
0.100006
0.100006
0.100006
0.100007
0.100007
0.100007
0.100007
0.100008
0.100008
0.100008
0.100011
0.100051
0.100412
0.101803
0.106715
0.109002
0.11775
0.10795
0.117547
0.105136
0.113308
0.102338
0.10756
0.100655
0.102888
0.100647
0.100053
0.100551
0.100405
0.100013
0.100032
0.100011
0.100012
0.100002
0.100002
0.100002
0.100003
0.100003
0.100003
0.100003
0.100004
0.100004
0.100004
0.100004
0.100004
0.100005
0.100005
0.100005
0.100005
0.100006
0.100006
0.100006
0.100006
0.100006
0.100007
0.100007
0.100007
0.100007
0.100008
0.100008
0.100011
0.100069
0.100566
0.104169
0.115233
0.127546
0.140893
0.132131
0.149746
0.129079
0.150778
0.12008
0.142907
0.110011
0.127362
0.103152
0.111836
0.103043
0.100252
0.102575
0.101896
0.100021
0.100134
0.100011
0.100015
0.100002
0.100002
0.100002
0.100002
0.100003
0.100003
0.100003
0.100003
0.100004
0.100004
0.100004
0.100004
0.100004
0.100005
0.100005
0.100005
0.100005
0.100006
0.100006
0.100006
0.100006
0.100006
0.100007
0.100007
0.100007
0.100007
0.100008
0.100011
0.100076
0.100841
0.105426
0.126684
0.152144
0.16509
0.167823
0.184707
0.173915
0.196154
0.170908
0.198187
0.157279
0.189559
0.133742
0.169786
0.112533
0.13772
0.111899
0.101179
0.110046
0.107434
0.100064
0.10061
0.100012
0.100031
0.100001
0.100002
0.100002
0.100002
0.100002
0.100003
0.100003
0.100003
0.100003
0.100004
0.100004
0.100004
0.100004
0.100004
0.100005
0.100005
0.100005
0.100005
0.100006
0.100006
0.100006
0.100006
0.100006
0.100007
0.100007
0.100007
0.100007
0.10001
0.100071
0.10097
0.107601
0.133272
0.174622
0.184412
0.198789
0.209172
0.213035
0.223162
0.219561
0.230955
0.218024
0.234594
0.205431
0.232319
0.178932
0.216805
0.13862
0.183898
0.136235
0.104727
0.131106
0.123748
0.100271
0.10251
0.100017
0.100105
0.100001
0.100001
0.100002
0.100002
0.100002
0.100002
0.100003
0.100003
0.100003
0.100003
0.100004
0.100004
0.100004
0.100004
0.100004
0.100005
0.100005
0.100005
0.100005
0.100006
0.100006
0.100006
0.100006
0.100006
0.100007
0.100007
0.100007
0.100009
0.100056
0.100915
0.108612
0.142673
0.191627
0.194055
0.215566
0.219441
0.227938
0.229878
0.235564
0.236055
0.241145
0.241521
0.24428
0.247249
0.241621
0.251215
0.224005
0.248137
0.184456
0.227228
0.180159
0.115647
0.170843
0.156889
0.10108
0.108582
0.100036
0.100387
0.100001
0.100001
0.100001
0.100002
0.100002
0.100002
0.100002
0.100003
0.100003
0.100003
0.100003
0.100004
0.100004
0.100004
0.100004
0.100004
0.100005
0.100005
0.100005
0.100005
0.100006
0.100006
0.100006
0.100006
0.100006
0.100007
0.100007
0.100008
0.100036
0.100782
0.1082
0.145569
0.213159
0.22101
0.224513
0.22994
0.22943
0.235098
0.23295
0.239894
0.235885
0.245689
0.240848
0.251551
0.248216
0.256462
0.255671
0.252695
0.261051
0.226807
0.255334
0.222867
0.140173
0.214686
0.200889
0.103793
0.124116
0.100101
0.101293
0.100001
0.100001
0.100001
0.100001
0.100002
0.100002
0.100002
0.100002
0.100003
0.100003
0.100003
0.100003
0.100004
0.100004
0.100004
0.100004
0.100004
0.100005
0.100005
0.100005
0.100005
0.100006
0.100006
0.100006
0.100006
0.100006
0.100007
0.100007
0.100019
0.100535
0.107458
0.14428
0.212915
0.226945
0.225772
0.228632
0.228102
0.229947
0.226508
0.229146
0.221371
0.231158
0.218859
0.239053
0.223947
0.250293
0.237067
0.259766
0.2526
0.265205
0.26435
0.255846
0.269191
0.253557
0.179421
0.24733
0.23614
0.111309
0.152533
0.100264
0.103822
0.100001
0.100001
0.100001
0.100001
0.100001
0.100002
0.100002
0.100002
0.100002
0.100003
0.100003
0.100003
0.100003
0.100004
0.100004
0.100004
0.100004
0.100004
0.100005
0.100005
0.100005
0.100005
0.100006
0.100006
0.100006
0.100006
0.100006
0.100007
0.100011
0.100255
0.105906
0.141306
0.211503
0.225101
0.22479
0.21855
0.217597
0.22312
0.220401
0.213731
0.206971
0.206082
0.194331
0.206814
0.189778
0.218392
0.198498
0.237463
0.21967
0.257146
0.243491
0.269905
0.264399
0.271989
0.276061
0.272616
0.218222
0.27009
0.262629
0.127878
0.190473
0.100621
0.10979
0.1
0.100001
0.100001
0.100001
0.100001
0.100001
0.100002
0.100002
0.100002
0.100002
0.100003
0.100003
0.100003
0.100003
0.100004
0.100004
0.100004
0.100004
0.100004
0.100005
0.100005
0.100005
0.100005
0.100006
0.100006
0.100006
0.100006
0.100006
0.100008
0.100106
0.103421
0.134975
0.208086
0.224749
0.224541
0.217533
0.217927
0.196909
0.196847
0.20183
0.198515
0.184658
0.177457
0.174322
0.161784
0.178544
0.159935
0.201771
0.182817
0.229153
0.213867
0.253602
0.241928
0.272958
0.265718
0.281792
0.282479
0.285991
0.248246
0.287162
0.283652
0.155335
0.225318
0.101332
0.121651
0.1
0.1
0.100001
0.100001
0.100001
0.100001
0.100001
0.100002
0.100002
0.100002
0.100002
0.100003
0.100003
0.100003
0.100003
0.100004
0.100004
0.100004
0.100004
0.100004
0.100005
0.100005
0.100005
0.100005
0.100006
0.100006
0.100006
0.100006
0.100007
0.100048
0.101606
0.125413
0.201046
0.225297
0.218952
0.220155
0.197584
0.199388
0.170951
0.172003
0.172975
0.17095
0.152927
0.147595
0.143882
0.132369
0.161932
0.139991
0.197637
0.179095
0.23108
0.220972
0.259372
0.257017
0.280749
0.281948
0.292221
0.296993
0.300426
0.273552
0.305409
0.305286
0.189802
0.255
0.10289
0.143049
0.1
0.1
0.100001
0.100001
0.100001
0.100001
0.100001
0.100002
0.100002
0.100002
0.100002
0.100003
0.100003
0.100003
0.100003
0.100004
0.100004
0.100004
0.100004
0.100004
0.100005
0.100005
0.100005
0.100005
0.100006
0.100006
0.100006
0.100007
0.100028
0.100729
0.116086
0.188587
0.228023
0.208817
0.212854
0.202142
0.205572
0.174459
0.178056
0.146803
0.149693
0.145337
0.145459
0.125891
0.1233
0.122582
0.113661
0.156935
0.131536
0.208714
0.189108
0.257748
0.255975
0.289453
0.301835
0.306846
0.325167
0.312471
0.331448
0.325098
0.298686
0.333189
0.334976
0.225351
0.284923
0.117624
0.190763
0.1
0.1
0.100001
0.100001
0.100001
0.100001
0.100001
0.100002
0.100002
0.100002
0.100002
0.100003
0.100003
0.100003
0.100003
0.100004
0.100004
0.100004
0.100004
0.100004
0.100005
0.100005
0.100005
0.100005
0.100006
0.100006
0.100006
0.100019
0.100443
0.109453
0.172481
0.228428
0.216556
0.22164
0.192644
0.198255
0.182385
0.187339
0.153687
0.158475
0.128073
0.131993
0.123458
0.125106
0.110186
0.109223
0.113666
0.10685
0.160777
0.129529
0.245279
0.217199
0.31162
0.304571
0.347226
0.362856
0.359777
0.390871
0.353151
0.390791
0.369082
0.330599
0.378713
0.383044
0.356156
0.266131
0.321152
0.165456
0.250509
0.1
0.1
0.100001
0.100001
0.100001
0.100001
0.100001
0.100002
0.100002
0.100002
0.100002
0.100003
0.100003
0.100003
0.100003
0.100004
0.100004
0.100004
0.100004
0.100004
0.100005
0.100005
0.100005
0.100005
0.100006
0.100006
0.100014
0.100264
0.105443
0.154574
0.227241
0.222948
0.204026
0.208718
0.176321
0.183018
0.163918
0.16992
0.136667
0.142018
0.114263
0.118245
0.109556
0.111193
0.104839
0.104262
0.111546
0.105606
0.173268
0.131078
0.274363
0.228438
0.352018
0.321202
0.402899
0.388949
0.425718
0.434766
0.416125
0.448522
0.431633
0.40364
0.431311
0.38216
0.350516
0.379896
0.410947
0.442526
0.43777
0.412165
0.308641
0.375932
0.370404
0.340057
0.206031
0.295375
0.1
0.100001
0.100001
0.100001
0.100001
0.100001
0.100001
0.100002
0.100002
0.100002
0.100002
0.100003
0.100003
0.100003
0.100003
0.100004
0.100004
0.100004
0.100004
0.100004
0.100005
0.100005
0.100005
0.100005
0.100006
0.100011
0.100153
0.103215
0.139318
0.222598
0.231807
0.203133
0.21104
0.18988
0.1966
0.161356
0.168574
0.147981
0.15446
0.122793
0.128068
0.105463
0.1076
0.104042
0.104354
0.10403
0.103413
0.112175
0.107233
0.175477
0.133212
0.277481
0.223004
0.357066
0.310249
0.422491
0.409662
0.393828
0.371199
0.455683
0.453917
0.42145
0.43044
0.446208
0.460715
0.453737
0.472124
0.468627
0.462995
0.411015
0.408183
0.444048
0.474193
0.469583
0.444638
0.364381
0.324056
0.355502
0.403493
0.39707
0.210179
0.344114
0.32582
0.29363
0.100001
0.100001
0.100001
0.100001
0.100001
0.100001
0.100001
0.100002
0.100002
0.100002
0.100002
0.100003
0.100003
0.100003
0.100003
0.100004
0.100004
0.100004
0.100004
0.100004
0.100005
0.100005
0.100005
0.100006
0.10001
0.100104
0.101896
0.127821
0.211202
0.237341
0.21507
0.190953
0.197628
0.176008
0.183517
0.147367
0.154696
0.133969
0.140424
0.111077
0.115629
0.102052
0.102572
0.10272
0.102096
0.106057
0.104973
0.118086
0.115339
0.168297
0.139761
0.253944
0.199764
0.34733
0.318214
0.29147
0.26221
0.40347
0.380474
0.353611
0.466298
0.456507
0.41106
0.41778
0.440089
0.479551
0.4814
0.489475
0.476703
0.489808
0.443251
0.439841
0.476951
0.496833
0.502498
0.477879
0.388515
0.376702
0.434227
0.425992
0.292937
0.161
0.22322
0.35922
0.33211
0.100001
0.100001
0.100001
0.100001
0.100001
0.100001
0.100001
0.100002
0.100002
0.100002
0.100002
0.100003
0.100003
0.100003
0.100003
0.100004
0.100004
0.100004
0.100004
0.100004
0.100005
0.100005
0.100005
0.100008
0.100073
0.101157
0.118747
0.194987
0.237992
0.227354
0.193499
0.202289
0.178005
0.185737
0.16232
0.170131
0.133509
0.140608
0.120951
0.126897
0.103692
0.105656
0.101144
0.100967
0.102993
0.101666
0.114564
0.111578
0.135381
0.136466
0.170105
0.168689
0.239275
0.217699
0.205174
0.20043
0.32493
0.295767
0.268806
0.246706
0.386664
0.358739
0.328903
0.465948
0.447743
0.391502
0.395368
0.423819
0.486581
0.498597
0.496089
0.474768
0.507158
0.476703
0.472946
0.506643
0.515128
0.522464
0.508891
0.414355
0.397209
0.466213
0.455705
0.282141
0.146957
0.197596
0.37262
0.334418
0.100001
0.1
0.100001
0.100001
0.100001
0.100001
0.100001
0.100002
0.100002
0.100002
0.100002
0.100003
0.100003
0.100003
0.100003
0.100004
0.100004
0.100004
0.100004
0.100004
0.100005
0.100005
0.100007
0.100051
0.100783
0.111644
0.174081
0.236554
0.237402
0.207208
0.180113
0.187615
0.163998
0.172084
0.14813
0.155969
0.11943
0.12591
0.108946
0.113612
0.101111
0.101625
0.101026
0.100603
0.105972
0.102201
0.134717
0.126369
0.179713
0.182098
0.203009
0.211173
0.222547
0.233464
0.231591
0.223943
0.225645
0.235214
0.29977
0.274497
0.256574
0.246681
0.362008
0.331092
0.302001
0.455062
0.429249
0.363703
0.364726
0.398488
0.483659
0.50557
0.493077
0.462641
0.515016
0.508665
0.505122
0.528892
0.524566
0.533944
0.533914
0.439975
0.416658
0.49755
0.484512
0.269614
0.130467
0.180433
0.383316
0.332737
0.100001
0.1
0.100001
0.100001
0.100001
0.100001
0.100001
0.100002
0.100002
0.100002
0.100002
0.100003
0.100003
0.100003
0.100003
0.100004
0.100004
0.100004
0.100004
0.100004
0.100005
0.100006
0.100036
0.100459
0.106743
0.152325
0.231539
0.245033
0.221498
0.181179
0.190492
0.164808
0.172953
0.148479
0.156604
0.132973
0.140571
0.106987
0.111319
0.102632
0.104304
0.100441
0.100444
0.101314
0.100571
0.113315
0.10434
0.173556
0.153192
0.264632
0.258309
0.249932
0.265658
0.278962
0.284336
0.246786
0.255968
0.273157
0.293883
0.279928
0.266829
0.264363
0.272496
0.331643
0.303902
0.285425
0.434939
0.40179
0.332004
0.333332
0.366143
0.471213
0.503075
0.480944
0.441747
0.51395
0.53635
0.534493
0.542631
0.525699
0.538195
0.550448
0.464107
0.433979
0.526562
0.511308
0.256077
0.118804
0.162373
0.390928
0.328194
0.100001
0.1
0.100001
0.100001
0.100001
0.100001
0.100001
0.100002
0.100002
0.100002
0.100002
0.100003
0.100003
0.100003
0.100003
0.100004
0.100004
0.100004
0.100004
0.100004
0.100006
0.100024
0.100226
0.103787
0.135661
0.219613
0.24871
0.234304
0.194239
0.163893
0.171878
0.147395
0.155614
0.131463
0.139272
0.117135
0.124086
0.10186
0.103191
0.100642
0.101078
0.100318
0.100193
0.102426
0.100811
0.126764
0.108443
0.232741
0.192193
0.34791
0.342388
0.313155
0.330769
0.314168
0.331016
0.342887
0.348297
0.290801
0.315069
0.34093
0.364404
0.279871
0.28397
0.30161
0.32814
0.30597
0.293605
0.293623
0.406408
0.369196
0.310209
0.318222
0.336343
0.450519
0.492056
0.461416
0.413561
0.504864
0.556526
0.558643
0.550565
0.519503
0.535872
0.561705
0.486242
0.448997
0.55269
0.53553
0.240326
0.110953
0.145793
0.395814
0.321156
0.1
0.1
0.100001
0.100001
0.100001
0.100001
0.100001
0.100002
0.100002
0.100002
0.100002
0.100003
0.100003
0.100003
0.100003
0.100004
0.100004
0.100004
0.100004
0.100005
0.100016
0.100155
0.102132
0.123974
0.202477
0.24852
0.244307
0.209724
0.160951
0.170356
0.144382
0.152612
0.128419
0.136269
0.114058
0.120762
0.10535
0.108751
0.100398
0.100706
0.100164
0.100234
0.100349
0.10016
0.103896
0.101061
0.146486
0.114598
0.292712
0.264621
0.229926
0.392185
0.379737
0.339845
0.36204
0.38284
0.395017
0.40018
0.399163
0.358755
0.388661
0.414249
0.433133
0.306505
0.332574
0.366148
0.401725
0.304446
0.309063
0.330549
0.374971
0.342286
0.31588
0.327772
0.327884
0.42393
0.47462
0.437444
0.384565
0.49035
0.570673
0.576633
0.55298
0.508808
0.529829
0.569297
0.506395
0.461859
0.574863
0.557901
0.222632
0.104664
0.128408
0.398638
0.311336
0.1
0.1
0.100001
0.100001
0.100001
0.100001
0.100001
0.100002
0.100002
0.100002
0.100002
0.100003
0.100003
0.100003
0.100003
0.100004
0.100004
0.100004
0.100005
0.100012
0.100126
0.101189
0.115888
0.182339
0.245996
0.251581
0.224052
0.173071
0.139411
0.147722
0.123486
0.131376
0.110434
0.116365
0.103867
0.106468
0.101259
0.102232
0.100082
0.100135
0.100086
0.100066
0.100502
0.100254
0.10521
0.101449
0.165556
0.120219
0.313564
0.283964
0.256684
0.218614
0.421411
0.40092
0.349471
0.376722
0.444669
0.44836
0.445911
0.436695
0.434467
0.46112
0.479878
0.489851
0.363712
0.402872
0.441911
0.476428
0.326665
0.354215
0.393426
0.351703
0.339084
0.342986
0.357673
0.339777
0.397967
0.454162
0.41511
0.364608
0.473961
0.582107
0.591201
0.552096
0.496891
0.522837
0.574079
0.524611
0.472868
0.593265
0.578283
0.200058
0.10101
0.112548
0.399193
0.296512
0.1
0.1
0.100001
0.100001
0.100001
0.100001
0.100002
0.100002
0.100002
0.100003
0.100003
0.100003
0.100003
0.100003
0.100003
0.100004
0.100004
0.100004
0.10001
0.100107
0.1009
0.110382
0.161188
0.239411
0.256825
0.23674
0.189915
0.133831
0.143481
0.117584
0.125144
0.10725
0.111423
0.102587
0.104437
0.100801
0.101454
0.100242
0.10044
0.100033
0.100031
0.100098
0.100048
0.100647
0.100488
0.105456
0.102114
0.188107
0.150937
0.120768
0.320005
0.288692
0.247612
0.213335
0.43029
0.404814
0.346952
0.376968
0.49122
0.486599
0.473123
0.453654
0.5035
0.521702
0.529888
0.529523
0.436824
0.478314
0.513731
0.54087
0.375718
0.420165
0.467149
0.351453
0.351813
0.394979
0.411362
0.371375
0.38097
0.436046
0.401334
0.365822
0.460144
0.592134
0.604219
0.550708
0.487581
0.518511
0.578191
0.540953
0.482191
0.609502
0.596769
0.170875
0.100188
0.104263
0.396068
0.274985
0.1
0.1
0.100001
0.100001
0.100001
0.100002
0.100002
0.100003
0.100004
0.100005
0.100006
0.100005
0.100004
0.100004
0.100004
0.100004
0.100004
0.100008
0.10007
0.100701
0.106753
0.144152
0.227502
0.258584
0.247052
0.205131
0.14583
0.112666
0.120323
0.104695
0.107796
0.101548
0.102732
0.100479
0.100866
0.100141
0.100261
0.100045
0.100078
0.100037
0.100019
0.100249
0.100107
0.10127
0.100873
0.106457
0.104585
0.104962
0.181002
0.150546
0.110729
0.123954
0.315004
0.2819
0.23083
0.198503
0.42525
0.394606
0.330804
0.363071
0.520803
0.503313
0.480128
0.453916
0.558463
0.565182
0.563544
0.552287
0.510396
0.546433
0.573439
0.590719
0.443565
0.493359
0.538252
0.364582
0.382957
0.46309
0.478645
0.424875
0.382195
0.425546
0.401458
0.378496
0.452977
0.601975
0.617671
0.551474
0.484331
0.519325
0.583812
0.555771
0.48992
0.624934
0.613566
0.143704
0.100036
0.101029
0.388601
0.24821
0.1
0.1
0.100001
0.100001
0.100002
0.100004
0.100007
0.100011
0.100013
0.100015
0.100014
0.100011
0.100008
0.100006
0.100005
0.100005
0.100008
0.100051
0.100548
0.104235
0.132007
0.211653
0.257968
0.254368
0.218762
0.162161
0.109547
0.117116
0.103055
0.105613
0.100886
0.101638
0.100261
0.100481
0.100078
0.100142
0.100026
0.100044
0.100015
0.100017
0.100113
0.100031
0.100518
0.100287
0.104171
0.10323
0.108643
0.107246
0.115172
0.114762
0.169273
0.144069
0.111723
0.119453
0.297883
0.264479
0.207087
0.178183
0.402695
0.368662
0.303215
0.335687
0.531418
0.504084
0.472117
0.437697
0.596699
0.594906
0.583117
0.561194
0.574749
0.601771
0.618951
0.62514
0.515625
0.561992
0.599263
0.394214
0.434028
0.533578
0.546106
0.489098
0.394308
0.425549
0.413828
0.404562
0.45432
0.612881
0.631749
0.556036
0.487809
0.526714
0.594171
0.570043
0.494962
0.640063
0.628816
0.120344
0.100017
0.100405
0.377371
0.213971
0.1
0.100001
0.100002
0.100005
0.100013
0.100026
0.10004
0.10005
0.100051
0.100049
0.100039
0.100026
0.100016
0.100011
0.100007
0.100008
0.100041
0.100405
0.102606
0.122919
0.194055
0.255188
0.259753
0.231006
0.177939
0.119443
0.102541
0.105695
0.100555
0.101166
0.100143
0.100276
0.100042
0.100076
0.100016
0.100025
0.10001
0.100012
0.100012
0.10001
0.100284
0.100093
0.1016
0.100604
0.113411
0.111969
0.1119
0.114985
0.115231
0.131947
0.131708
0.153319
0.133335
0.115593
0.118936
0.270777
0.238529
0.180118
0.157249
0.367523
0.331139
0.266605
0.297979
0.530581
0.492081
0.45063
0.408011
0.624118
0.614004
0.593813
0.56476
0.626315
0.643707
0.650517
0.650852
0.582008
0.620178
0.647622
0.437996
0.489109
0.597111
0.600663
0.546884
0.416841
0.436853
0.434998
0.442688
0.466294
0.62722
0.646987
0.569175
0.504674
0.551149
0.612185
0.583723
0.497803
0.654542
0.64337
0.111659
0.100012
0.100108
0.360554
0.189759
0.100001
0.100003
0.100012
0.10004
0.10009
0.100155
0.100199
0.100203
0.100177
0.10015
0.100106
0.100056
0.100035
0.100018
0.100012
0.100038
0.10032
0.101927
0.116279
0.176208
0.248461
0.263659
0.241697
0.192243
0.131231
0.102733
0.100554
0.101505
0.100094
0.100217
0.100025
0.100046
0.100011
0.100016
0.100008
0.100009
0.100008
0.100008
0.100022
0.100009
0.100587
0.100227
0.106291
0.102196
0.128977
0.123849
0.128563
0.138372
0.129151
0.131232
0.159147
0.158979
0.139069
0.12651
0.126588
0.125805
0.236293
0.207111
0.155949
0.141429
0.324991
0.286673
0.225459
0.254147
0.526446
0.47918
0.424592
0.371572
0.643934
0.628971
0.605106
0.571961
0.665039
0.672527
0.673773
0.671503
0.637298
0.665552
0.683251
0.487376
0.541658
0.644545
0.644119
0.596494
0.450722
0.460209
0.467207
0.484748
0.497018
0.645703
0.662294
0.599596
0.545869
0.596338
0.639211
0.595435
0.496833
0.668871
0.655288
0.104644
0.100012
0.100054
0.345311
0.16002
0.100007
0.100032
0.100111
0.100297
0.10055
0.100761
0.100796
0.10068
0.100515
0.100358
0.1002
0.100125
0.100057
0.10003
0.100041
0.100276
0.101682
0.111844
0.159383
0.238837
0.264903
0.250356
0.205414
0.145036
0.10662
0.100147
0.100386
0.100529
0.100114
0.100019
0.100042
0.100009
0.100012
0.100007
0.100008
0.100007
0.100007
0.100008
0.100007
0.100059
0.100013
0.102
0.100422
0.121938
0.107859
0.155461
0.148297
0.152571
0.170578
0.154229
0.157935
0.199467
0.199285
0.132589
0.12708
0.148544
0.143305
0.199534
0.175917
0.143842
0.138062
0.285468
0.241813
0.186579
0.210265
0.528016
0.473332
0.410069
0.343632
0.660504
0.643208
0.617413
0.582182
0.690873
0.692857
0.692143
0.68574
0.676112
0.696225
0.704746
0.532392
0.586655
0.681087
0.687888
0.640452
0.491718
0.500809
0.520744
0.533677
0.548671
0.665054
0.678273
0.638116
0.598734
0.642384
0.666397
0.603264
0.49538
0.680494
0.665136
0.102737
0.100012
0.100041
0.325856
0.145594
0.100085
0.100297
0.100837
0.101786
0.102654
0.102972
0.102626
0.101921
0.101244
0.100701
0.100444
0.100203
0.100099
0.100062
0.100265
0.10135
0.109127
0.146385
0.227788
0.264558
0.256648
0.217223
0.15929
0.111551
0.100765
0.100059
0.100035
0.100115
0.100023
0.100008
0.100011
0.100007
0.100007
0.100007
0.100007
0.100007
0.100007
0.100009
0.100007
0.100154
0.100024
0.106274
0.1012
0.166737
0.142037
0.125481
0.194586
0.184408
0.192379
0.214396
0.192046
0.197597
0.251229
0.251206
0.136788
0.138651
0.183552
0.173523
0.167906
0.153037
0.146721
0.148568
0.265129
0.212181
0.161808
0.179477
0.535767
0.47686
0.407465
0.333899
0.673828
0.656518
0.631196
0.596869
0.707288
0.707175
0.703079
0.695383
0.705224
0.716637
0.721174
0.591112
0.654054
0.718223
0.733452
0.705761
0.561701
0.568284
0.604547
0.62016
0.6141
0.686282
0.691184
0.67092
0.650985
0.68049
0.691454
0.612064
0.493007
0.69125
0.675447
0.101824
0.100045
0.100107
0.310481
0.138158
0.100793
0.102215
0.104933
0.108298
0.109847
0.109451
0.107234
0.104705
0.102703
0.101455
0.100707
0.100328
0.100142
0.10028
0.10104
0.107506
0.137462
0.214936
0.263096
0.26106
0.22752
0.173152
0.118276
0.101615
0.100064
0.100014
0.100011
0.100028
0.100009
0.100007
0.100007
0.100007
0.100006
0.100007
0.100007
0.100007
0.100007
0.100012
0.100008
0.100303
0.100052
0.117406
0.103098
0.206851
0.171531
0.138271
0.173781
0.245663
0.232599
0.238471
0.266363
0.239726
0.24812
0.309629
0.31009
0.155192
0.164096
0.227875
0.214859
0.152212
0.147202
0.164217
0.174887
0.263209
0.204465
0.158508
0.171777
0.551093
0.491951
0.419719
0.340036
0.684612
0.669991
0.649275
0.618421
0.721688
0.718782
0.712861
0.705525
0.732332
0.736409
0.73717
0.683075
0.725331
0.74249
0.747501
0.739875
0.652077
0.642241
0.677947
0.698338
0.67287
0.704414
0.704368
0.6995
0.693856
0.703866
0.710445
0.618563
0.494024
0.701501
0.683567
0.101825
0.100562
0.10092
0.30719
0.138373
0.105644
0.112225
0.120516
0.127372
0.128675
0.124686
0.116965
0.109786
0.105001
0.102335
0.101007
0.100391
0.10036
0.100981
0.106418
0.131544
0.201826
0.259548
0.26431
0.236483
0.185341
0.127019
0.103052
0.100153
0.100008
0.10001
0.100007
0.100007
0.100006
0.100006
0.100006
0.100006
0.100006
0.100007
0.100007
0.100007
0.100007
0.100018
0.100008
0.100477
0.100122
0.161467
0.148632
0.119317
0.106906
0.25238
0.213852
0.206747
0.304023
0.288739
0.289314
0.321494
0.293656
0.304434
0.369389
0.370091
0.186729
0.200861
0.279907
0.264762
0.155175
0.156808
0.19871
0.214344
0.287365
0.216922
0.176308
0.185439
0.577249
0.522126
0.452169
0.371506
0.695063
0.682957
0.66836
0.649016
0.737424
0.734709
0.729732
0.722958
0.746991
0.758401
0.763852
0.729934
0.738761
0.761738
0.755456
0.749072
0.706221
0.696167
0.71141
0.723354
0.702284
0.715442
0.715009
0.713635
0.707198
0.719583
0.717256
0.627382
0.499612
0.709008
0.691513
0.103807
0.108807
0.106212
0.31293
0.15597
0.124505