/*--------------------------------*- C++ -*----------------------------------*\
  =========                 |
  \\      /  F ield         | OpenFOAM: The Open Source CFD Toolbox
   \\    /   O peration     | Website:  https://openfoam.org
    \\  /    A nd           | Version:  dev
     \\/     M anipulation  |
\*---------------------------------------------------------------------------*/
FoamFile
{
    version     2.0;
    format      ascii;
    class       volScalarField;
    location    "2500";
    object      alphat;
}
// * * * * * * * * * * * * * * * * * * * * * * * * * * * * * * * * * * * * * //

dimensions      [1 -1 -1 0 0 0 0];

internalField   nonuniform List<scalar> 
9836
(
0.000153934
0.000157273
0.000150271
0.000141893
0.000190669
0.000133041
0.000131058
0.000200252
0.000180211
0.00012562
0.000125985
0.000191751
0.000205438
0.000153896
0.000123405
0.00012248
0.000171174
0.000220248
0.000189576
0.000139245
0.000121706
0.000120592
0.00015205
0.000219424
0.000215074
0.000161196
0.000132907
0.000120527
0.000119742
0.000140873
0.000209419
0.000229175
0.000191624
0.00014524
0.000129008
0.000119767
0.00011952
0.000132573
0.00018735
0.000236554
0.000218409
0.000163904
0.000137884
0.000126201
0.000119161
0.000119386
0.000127858
0.000162699
0.000233096
0.00023437
0.000189228
0.000148012
0.000133404
0.00012421
0.000118654
0.000119231
0.000124961
0.000149719
0.000220784
0.000244964
0.000217382
0.000163806
0.000140049
0.000130073
0.000122806
0.000118314
0.000118871
0.000123188
0.000139595
0.00019523
0.000248221
0.000237696
0.000185468
0.000148958
0.000135321
0.000127552
0.000121657
0.000118124
0.000118316
0.000122265
0.000133375
0.0001689
0.000242758
0.000248325
0.000212951
0.000161899
0.000141166
0.000132029
0.000125654
0.000120707
0.000117983
0.000117893
0.000121754
0.000129614
0.000155262
0.0002268
0.000257459
0.00023656
0.000182101
0.000148163
0.000136401
0.00012949
0.000124054
0.00011993
0.000117878
0.000117667
0.000121299
0.000127324
0.000144906
0.000199088
0.000257281
0.000252941
0.000206133
0.000160442
0.000140883
0.000133033
0.000127403
0.000122698
0.000119316
0.000117754
0.000117553
0.000120675
0.000125706
0.000138435
0.000173427
0.000249725
0.000260327
0.000233518
0.000177502
0.000147732
0.000136433
0.000130313
0.000125577
0.000121531
0.000118931
0.000117549
0.0001175
0.000120038
0.000124544
0.000134106
0.00015997
0.000230662
0.000267072
0.000252218
0.000200307
0.000158341
0.000140673
0.000133358
0.000128091
0.00012401
0.000120508
0.000118656
0.000117355
0.000117486
0.000119553
0.000123835
0.000131312
0.0001496
0.000202273
0.000265082
0.000264656
0.000225866
0.000173749
0.000147005
0.000136341
0.000130817
0.000126283
0.000122723
0.000119752
0.00011831
0.000117228
0.000117528
0.000119229
0.000123212
0.000129461
0.000142861
0.000177404
0.000255423
0.000271668
0.000250524
0.000194257
0.00015652
0.000140518
0.000133601
0.000128689
0.000124755
0.000121568
0.000119261
0.000117885
0.000117169
0.000117514
0.000118811
0.000122306
0.000127739
0.000138069
0.000164099
0.000233816
0.000275993
0.000265754
0.000217624
0.000170213
0.000146283
0.000136495
0.000131072
0.000126837
0.000123451
0.00012053
0.000118817
0.00011748
0.00011714
0.000117452
0.000118454
0.000121425
0.000126276
0.000134619
0.000153522
0.000205122
0.000272503
0.00027517
0.000243124
0.00018789
0.000154934
0.000140205
0.000133836
0.000128915
0.00012529
0.000122301
0.000119759
0.000118335
0.000117206
0.000117107
0.000117372
0.00011815
0.000120679
0.000125289
0.000132526
0.000146271
0.00018069
0.000261191
0.000282163
0.000264146
0.000209821
0.000166529
0.000145778
0.000136266
0.000131366
0.000127163
0.000124017
0.000121239
0.000119172
0.000117835
0.000117044
0.000117097
0.000117297
0.000117941
0.000120179
0.000124497
0.000130845
0.000141281
0.000167397
0.000237303
0.000284708
0.000277615
0.000233484
0.000182089
0.00015328
0.00014005
0.00013366
0.000129255
0.000125729
0.000122934
0.000120308
0.00011866
0.000117418
0.000116936
0.000117114
0.000117244
0.000117864
0.00011979
0.00012364
0.00012925
0.00013784
0.000156823
0.000208016
0.000280077
0.00028506
0.00025815
0.000201626
0.00016324
0.000145069
0.000136252
0.000131411
0.000127556
0.000124537
0.000121929
0.000119623
0.000118237
0.000117136
0.000116903
0.000117161
0.00011722
0.000117768
0.000119281
0.000122636
0.000127714
0.000135422
0.000149449
0.00018387
0.000267536
0.000292256
0.000276035
0.000223899
0.0001768
0.000151748
0.000139673
0.000133732
0.000129502
0.00012616
0.000123478
0.000121063
0.000119115
0.000117872
0.000117012
0.000116979
0.000117252
0.000117208
0.000117587
0.000118818
0.000121746
0.000126522
0.000133546
0.000144064
0.000170798
0.000242193
0.000293685
0.000288577
0.00024774
0.000193603
0.000160524
0.000144475
0.000136142
0.000131697
0.000127851
0.000124969
0.000122613
0.000120344
0.000118724
0.000117601
0.000117031
0.000117175
0.000117401
0.000117201
0.000117371
0.000118417
0.000121065
0.00012559
0.00013187
0.000140229
0.00016006
0.000212513
0.000288493
0.000294875
0.0002714
0.000214351
0.000171504
0.000150497
0.000139628
0.000133784
0.000129847
0.000126501
0.000124027
0.000121849
0.000119774
0.000118442
0.000117511
0.000117234
0.000117526
0.000117621
0.000117187
0.00011717
0.000118116
0.000120584
0.000124695
0.000130245
0.000137326
0.000152323
0.000187736
0.000275185
0.000302168
0.000287223
0.000236498
0.000186759
0.000157739
0.000144026
0.000136347
0.00013193
0.00012826
0.000125439
0.000123265
0.000121147
0.000119392
0.000118337
0.000117664
0.000117677
0.000118084
0.000117882
0.000117174
0.000116999
0.000117905
0.000120089
0.000123783
0.000128857
0.000135087
0.000146719
0.000174712
0.00024969
0.000302946
0.000299108
0.000260309
0.000204328
0.000167698
0.000149325
0.000139634
0.000134029
0.000130206
0.000127008
0.00012466
0.000122611
0.000120637
0.00011924
0.000118463
0.000118109
0.000118454
0.000118922
0.000118397
0.000117159
0.000116871
0.000117707
0.000119432
0.000122806
0.000127667
0.000133175
0.000142571
0.000164014
0.000219316
0.000297606
0.000304612
0.000283243
0.000225828
0.000179735
0.000155893
0.000143742
0.000136618
0.000132323
0.000128851
0.000126166
0.000124095
0.000122168
0.000120429
0.000119353
0.000118915
0.000118925
0.000119725
0.00012002
0.000119077
0.000117142
0.000116787
0.000117483
0.000118842
0.000121937
0.000126568
0.000131415
0.000139559
0.000156128
0.00019326
0.000283873
0.00031163
0.000297841
0.000247594
0.00019617
0.000163875
0.000148477
0.000139882
0.000134494
0.000131043
0.000127933
0.000125676
0.000123784
0.000121993
0.000120559
0.000119827
0.000119808
0.00012029
0.000121353
0.000121738
0.000119941
0.000117125
0.00011672
0.000117234
0.000118358
0.000121187
0.000125553
0.000129965
0.000137374
0.000150454
0.000179415
0.00025963
0.000312031
0.000308903
0.00027157
0.000214121
0.000174581
0.000154207
0.000143546
0.000137167
0.000133046
0.000130084
0.000127411
0.000125499
0.000123754
0.000122155
0.000121112
0.000120815
0.000121302
0.000122437
0.000123427
0.000123737
0.000106335
0.000117118
0.000116667
0.000116995
0.000118013
0.000120572
0.000124622
0.000128748
0.000135149
0.000146318
0.000169566
0.000229682
0.000307016
0.000313943
0.000293688
0.000236065
0.000187659
0.000160929
0.000147938
0.000140212
0.000135427
0.000132166
0.000129505
0.000127318
0.000125638
0.000124072
0.000122864
0.000122165
0.00012247
0.000123686
0.000125122
0.000117235
0.000105091
8.9261e-05
0.000117117
0.000116631
0.000116802
0.000117755
0.000119976
0.000123775
0.000127631
0.000133087
0.00014345
0.00016155
0.00020352
0.000294122
0.00032043
0.000307622
0.000257348
0.000204456
0.0001697
0.000152654
0.000143792
0.000138104
0.00013435
0.000131706
0.000129377
0.00012765
0.000126219
0.000125024
0.000124376
0.000124212
0.000125011
0.000117904
0.000107196
9.89306e-05
9.12933e-05
7.58838e-05
7.99619e-05
0.000117121
0.000116604
0.000116654
0.000117522
0.000119383
0.000122947
0.000126552
0.000131475
0.000140861
0.000155601
0.000186376
0.000271378
0.000321383
0.000317689
0.000281457
0.000222836
0.000180657
0.000158676
0.000147566
0.000141112
0.000136772
0.000133842
0.00013165
0.000129812
0.000128569
0.000127567
0.000126922
0.000126888
0.000117558
0.000106913
9.78019e-05
8.91714e-05
8.54542e-05
8.31702e-05
8.50932e-05
7.10569e-05
7.87909e-05
0.000117134
0.000116593
0.000116531
0.000117312
0.000118874
0.000122215
0.000125676
0.000130174
0.000138252
0.000151336
0.000176501
0.000243524
0.000317136
0.000323124
0.000302225
0.000244598
0.000194632
0.000165586
0.000151956
0.000144307
0.000139362
0.000136132
0.000133888
0.000132181
0.000131011
0.000130302
0.000129838
0.000120287
0.000108249
9.77185e-05
8.92812e-05
8.29413e-05
8.72072e-05
8.38927e-05
8.03035e-05
8.31102e-05
7.66418e-05
8.13655e-05
8.01183e-05
6.9846e-05
7.61952e-05
0.000117144
0.000116597
0.000116449
0.000117127
0.000118432
0.000121581
0.000124949
0.000128945
0.000135983
0.000148259
0.000168403
0.000216563
0.000306242
0.000328611
0.000316519
0.000265345
0.000211372
0.000174824
0.000156792
0.00014775
0.000142203
0.000138427
0.000136181
0.000134548
0.000133602
0.000133072
0.000127935
0.000113792
0.000101281
9.17376e-05
8.35806e-05
7.72173e-05
7.87697e-05
7.62561e-05
7.31386e-05
7.85758e-05
6.91479e-05
7.53622e-05
7.74532e-05
7.68792e-05
6.80898e-05
7.41165e-05
0.000117163
0.000116613
0.000116388
0.000116958
0.000118075
0.000121031
0.00012431
0.000127795
0.000134185
0.000145347
0.000162199
0.00019556
0.000285208
0.000330701
0.000325613
0.000288885
0.000230097
0.000186026
0.000162585
0.000151503
0.000145141
0.00014099
0.000138448
0.000136891
0.000136157
0.00013592
0.000123892
0.000109183
9.74887e-05
8.70433e-05
8.07779e-05
7.53895e-05
7.28192e-05
7.2878e-05
7.37854e-05
7.01322e-05
6.87663e-05
7.49997e-05
7.22937e-05
7.1878e-05
7.55794e-05
7.48923e-05
6.72279e-05
7.34648e-05
0.000117194
0.000116632
0.000116352
0.000116803
0.000117801
0.000120592
0.000123752
0.000126859
0.000132735
0.000142678
0.000158
0.000184087
0.000260573
0.000327566
0.000331772
0.000308483
0.000250807
0.00020048
0.000169632
0.000155457
0.000148279
0.000143581
0.00014082
0.000139172
0.000138601
0.000138725
0.000123184
0.000106642
9.51909e-05
8.90454e-05
8.60015e-05
9.15752e-05
7.83826e-05
9.98006e-05
7.33506e-05
8.20571e-05
6.86344e-05
7.14253e-05
7.02724e-05
7.25693e-05
7.00214e-05
7.04171e-05
7.51494e-05
7.36659e-05
6.76007e-05
7.45222e-05
0.000117231
0.000116658
0.000116344
0.000116664
0.000117612
0.000120237
0.000123258
0.000126083
0.000131388
0.000140599
0.000154681
0.00017677
0.000233461
0.000318757
0.000335997
0.000324072
0.000271279
0.000216738
0.000178927
0.000160081
0.000151289
0.000146244
0.000143271
0.000141367
0.000140945
0.000140859
0.000122846
0.000107102
9.59744e-05
9.40578e-05
0.000116249
0.00013911
0.000124091
0.000131129
0.000119004
0.000121988
8.79771e-05
0.000115747
7.23843e-05
9.42831e-05
7.16302e-05
7.12369e-05
7.03874e-05
6.98575e-05
7.5789e-05
7.34244e-05
6.97132e-05
7.76556e-05
0.00011725
0.000116718
0.000116352
0.000116558
0.000117486
0.000119948
0.000122828
0.00012548
0.000130052
0.000139025
0.000151813
0.000170408
0.00020994
0.000300899
0.000339209
0.000332505
0.000293265
0.000235274
0.000190395
0.000165564
0.000154578
0.000148844
0.0001457
0.000143627
0.000143021
0.000142503
0.000124167
0.000107859
9.93316e-05
0.00011363
0.000151503
0.00016662
0.000154594
0.00019037
0.000137759
0.000173186
0.000122983
0.000147653
0.000112362
0.00012552
9.66137e-05
0.000108791
9.53389e-05
7.09211e-05
8.99943e-05
8.21011e-05
7.7516e-05
7.51477e-05
7.46716e-05
8.31303e-05
0.000117285
0.00011678
0.000116374
0.000116505
0.000117419
0.000119742
0.000122489
0.000124986
0.000129039
0.000137658
0.000149257
0.000165548
0.000194286
0.000278519
0.000337375
0.000339312
0.000312816
0.000254522
0.000204599
0.000172628
0.000158149
0.000151318
0.000147948
0.000145869
0.000145103
0.000145664
0.000126861
0.000110087
0.000103245
0.000131288
0.000178317
0.000213761
0.000230861
0.000283864
0.000230158
0.000302934
0.000204811
0.000291935
0.000161724
0.000248053
0.00012627
0.000178081
0.00010505
0.000125521
0.000101036
7.58476e-05
9.71299e-05
9.46353e-05
8.19258e-05
7.86696e-05
8.44516e-05
9.22874e-05
0.000117368
0.000116875
0.000116383
0.000116453
0.000117409
0.000119637
0.000122235
0.000124598
0.000128267
0.000136202
0.000147262
0.00016163
0.000185085
0.000253581
0.000330682
0.000342308
0.000329968
0.00027515
0.000220189
0.000181931
0.000162112
0.000153785
0.000149848
0.000147899
0.000147037
0.000147787
0.000130464
0.000113189
0.000107429
0.000154524
0.000192651
0.000274176
0.000339159
0.000399123
0.000383632
0.000451049
0.000384881
0.000465997
0.000354458
0.000448485
0.00029055
0.000402465
0.000192776
0.000322094
0.000122667
0.000198667
0.0001168
9.47369e-05
0.000108897
9.90049e-05
9.11774e-05
9.0342e-05
0.000107194
0.000109866
0.000117501
0.000117018
0.000116368
0.000116439
0.00011747
0.000119609
0.000122059
0.000124319
0.000127717
0.000134906
0.000145678
0.000158388
0.00017894
0.000229532
0.000316735
0.000346472
0.000338309
0.000295058
0.000238277
0.000193178
0.00016745
0.00015662
0.000151444
0.000149641
0.000148733
0.000149554
0.000135417
0.000117231
0.00010939
0.0001591
0.000210716
0.00031307
0.000443553
0.000493204
0.000512259
0.000558168
0.000530301
0.000582534
0.000522641
0.000583379
0.000490276
0.000561282
0.000432484
0.000517198
0.000338426
0.000447804
0.000193256
0.000340098
0.000176681
8.95949e-05
0.000154354
0.000132021
9.70086e-05
8.55981e-05
0.000115208
0.000110416
0.000117694
0.000117339
0.000116338
0.000116455
0.000117613
0.000119676
0.000121973
0.00012414
0.000127381
0.000133938
0.00014443
0.000155806
0.00017333
0.000209941
0.000297452
0.000345795
0.000345258
0.000315849
0.000256472
0.000206829
0.000174443
0.000159577
0.000153274
0.000151191
0.000150147
0.000151133
0.000141834
0.000122802
0.000111882
0.000158568
0.000218224
0.000351294
0.000532718
0.000549237
0.000597996
0.000632721
0.000626773
0.000664742
0.000633997
0.000677745
0.000620705
0.000670022
0.000587284
0.000644817
0.000533876
0.000602986
0.000452535
0.00054182
0.000328798
0.000447683
0.000304037
0.000110758
0.000265121
0.000214265
8.95743e-05
9.21869e-05
0.000115037
0.000100325
0.000118363
0.000118121
0.000116364
0.000116493
0.000117805
0.00011983
0.000121975
0.000124051
0.000127229
0.000133304
0.000143401
0.000153855
0.000168667
0.000196258
0.000275527
0.000341415
0.000348131
0.000333537
0.000276721
0.000222227
0.000183526
0.000163202
0.000155109
0.000152573
0.000151231
0.000151826
0.000150217
0.000130146
0.000114842
0.000157132
0.000215322
0.0003812
0.000656841
0.000655066
0.000701945
0.000698192
0.000728662
0.000715278
0.00074757
0.00070882
0.000735418
0.000687286
0.000708633
0.000655989
0.000680183
0.000610448
0.000648603
0.000540518
0.000609538
0.000434002
0.000532334
0.000411015
0.000161691
0.00037725
0.00033028
8.04418e-05
0.000122939
5.64822e-05
8.37885e-05
0.000121062
0.000119663
0.000116763
0.000116626
0.000118011
0.000120022
0.00012206
0.00012409
0.00012723
0.000132898
0.000142467
0.000152394
0.00016504
0.000187975
0.000253828
0.000331499
0.000351928
0.000342833
0.000295497
0.0002393
0.00019496
0.000168256
0.00015739
0.000153571
0.000152323
0.000152556
0.000154806
0.000139059
0.000120013
0.00015425
0.000210152
0.000381616
0.000684765
0.000804895
0.000828125
0.000756694
0.000782699
0.000776968
0.000806177
0.000755878
0.000777248
0.000722715
0.000739864
0.000693272
0.000706577
0.000664058
0.000676953
0.000637581
0.000648077
0.000600037
0.000623124
0.000517738
0.000587295
0.000496748
0.000262664
0.000466208
0.000424648
9.26335e-05
0.000185956
2.44715e-05
7.58826e-05
0.000126283
0.000123075
0.000118511
0.000117091
0.000118277
0.000120236
0.000122197
0.000124243
0.000127418
0.00013277
0.000141718
0.000151286
0.000162222
0.000182333
0.000233516
0.000316481
0.000352338
0.000349563
0.00031677
0.000257262
0.000208035
0.000175373
0.000160179
0.000154656
0.000153285
0.000153135
0.000155457
0.000148011
0.000129429
0.000149999
0.000198145
0.000375498
0.000685894
0.000847306
0.000865515
0.000894105
0.000923321
0.00083553
0.000864765
0.000801317
0.000828439
0.000757404
0.000775556
0.000710427
0.00070488
0.000672514
0.000648797
0.000648642
0.000621206
0.000628726
0.000611493
0.000607347
0.000605945
0.000572959
0.000593925
0.000554414
0.000369344
0.000529375
0.000498084
0.000127673
0.000288009
1.37706e-05
8.49141e-05
0.000139741
0.000137426
0.000124517
0.00011871
0.000118789
0.000120509
0.000122397
0.000124612
0.00012783
0.000132884
0.000141177
0.000150482
0.000160046
0.000177687
0.00021654
0.000298308
0.000350463
0.000353279
0.000334018
0.000276254
0.000222805
0.00018449
0.000163554
0.000155894
0.000154299
0.000153562
0.000155499
0.000157843
0.000140203
0.000133168
0.000170875
0.000357031
0.000682335
0.000878606
0.000873037
0.000950901
0.000977459
0.000929136
0.000967955
0.000859099
0.000892669
0.000795973
0.000820475
0.000696931
0.000696153
0.000607135
0.000565845
0.00056606
0.000491615
0.000562099
0.000485078
0.000575899
0.000511207
0.000586786
0.000548029
0.000583035
0.000573613
0.000573113
0.00045265
0.000561153
0.000542181
0.000194856
0.000390379
1.24781e-05
0.000118417
0.000150688
0.000159887
0.000139429
0.000124417
0.000120104
0.000120988
0.000122699
0.000125211
0.00012858
0.000133235
0.000140959
0.000149964
0.000158434
0.000173511
0.000203539
0.000279768
0.000344941
0.000355816
0.000345766
0.000295374
0.000239105
0.000195439
0.000168551
0.000157653
0.000154961
0.000154153
0.000155488
0.000158755
0.000152975
0.000135795
0.000149591
0.000312392
0.000664063
0.000965887
0.000996897
0.00103442
0.00100809
0.00104811
0.000925498
0.00096977
0.000850515
0.000885574
0.000702908
0.000719774
0.00053468
0.000519984
0.000418866
0.000356144
0.000406708
0.000342715
0.000439739
0.000383876
0.000484659
0.000431104
0.000532088
0.000477466
0.000564894
0.000525612
0.000561015
0.000514614
0.000560096
0.000556628
0.000300633
0.000474205
1.48165e-05
0.0001521
0.00016095
0.000162389
0.000140326
0.000124221
0.000122197
0.000123248
0.000125964
0.000129501
0.000134037
0.000141082
0.000149642
0.000157407
0.000170153
0.00019455
0.000262363
0.000333846
0.000357657
0.000352705
0.000314557
0.000256673
0.000208324
0.000176061
0.000160139
0.000155414
0.00015466
0.000155381
0.000158601
0.000160115
0.000150632
0.00014083
0.000254361
0.000639998
0.000963293
0.00115395
0.00117515
0.00108713
0.0011253
0.00101704
0.00106596
0.00083635
0.000892118
0.000748876
0.000788029
0.000521245
0.000534749
0.000311465
0.000291624
0.000284778
0.000230572
0.000336452
0.000291763
0.000385304
0.000344432
0.000427729
0.000384537
0.000474625
0.000425372
0.000525041
0.000472982
0.000527873
0.000548561
0.000534683
0.000543205
0.000331979
0.000536341
0.00010132
0.000161209
0.000159556
0.000162593
0.000136171
0.00012514
0.000124311
0.000126927
0.00013063
0.00013513
0.000141539
0.000149525
0.000156719
0.000167656
0.000188755
0.000246184
0.000320132
0.000357414
0.000356817
0.000332875
0.000274515
0.000222479
0.000185211
0.000163164
0.000156559
0.000155062
0.000155214
0.000157695
0.000161068
0.000159157
0.000141009
0.000204877
0.000586432
0.000942798
0.00118847
0.0011898
0.0012135
0.00125936
0.00111567
0.00116485
0.000953571
0.00101889
0.00066957
0.000737293
0.000566264
0.000611776
0.000288663
0.000301458
0.000197117
0.000189724
0.000241488
0.000186433
0.000308141
0.000270273
0.000354065
0.000334854
0.000393022
0.000381603
0.000428694
0.000411082
0.000475714
0.000436352
0.000483881
0.000552711
0.000496694
0.00050687
0.00053182
0.000305846
0.000487169
0.000134808
0.000173085
0.000164772
0.000157962
0.000132369
0.000126808
0.000127955
0.000131803
0.000136391
0.00014248
0.000149753
0.000156523
0.000165836
0.000184766
0.000231739
0.000305836
0.000354995
0.000359474
0.000346663
0.000293712
0.000238116
0.000195991
0.000168787
0.000158012
0.000155813
0.000155179
0.000156767
0.000161194
0.000160707
0.00014496
0.000170481
0.000488044
0.0008949
0.00127268
0.00129457
0.00134081
0.00121914
0.00128026
0.00108644
0.00115406
0.000812342
0.000893455
0.000445113
0.000524312
0.000331521
0.000380064
0.000187024
0.000187802
0.000155013
0.000150244
0.000223537
0.000172327
0.000314844
0.000278902
0.000379409
0.000373615
0.000416682
0.000429833
0.00042975
0.000451267
0.000445821
0.000447438
0.000442189
0.000470371
0.000454841
0.000514874
0.000545475
0.000523368
0.000483763
0.000465475
0.000460488
0.000490745
0.000300701
0.000531181
0.000538141
0.000460402
0.000143616
0.000177489
0.000168437
0.000148652
0.000131307
0.000128962
0.000132804
0.000137613
0.000143589
0.000150563
0.000156566
0.000164718
0.000181766
0.000219881
0.000291691
0.000348195
0.000360787
0.000354659
0.000311523
0.000255968
0.000208409
0.0001771
0.000160001
0.000156917
0.000155429
0.000156204
0.000160498
0.000161642
0.000150302
0.000149522
0.000396158
0.000807097
0.00125877
0.00142678
0.00145043
0.00133597
0.00138722
0.00115109
0.00123442
0.000978533
0.00106504
0.000608874
0.000702314
0.000234902
0.000281008
0.000194095
0.000208727
0.000146522
0.000141305
0.000146782
0.000142953
0.000220893
0.00016358
0.000344116
0.000288646
0.000428743
0.000398651
0.000457629
0.000466392
0.000468354
0.000463451
0.000459218
0.000474951
0.000484666
0.000499452
0.000488601
0.000455527
0.000452185
0.000460534
0.000469259
0.000456058
0.00049902
0.000507062
0.000471341
0.00046285
0.000459657
0.000477427
0.000510213
0.000286738
0.000384554
0.000515035
0.000520907
0.000172431
0.000317874
0.000266296
0.000162476
0.000164835
0.00014226
0.000132429
0.000133371
0.000138546
0.000144778
0.000151698
0.000156926
0.00016424
0.000179348
0.00021115
0.000278664
0.000338862
0.000361524
0.000358942
0.000330306
0.000274273
0.000222577
0.000186704
0.000163248
0.00015797
0.000156519
0.00015627
0.000159557
0.000161624
0.000155267
0.000139306
0.000329927
0.000720484
0.00119598
0.00153184
0.00144677
0.00150848
0.00131323
0.00138533
0.00100821
0.00111141
0.000801907
0.00090419
0.000359836
0.000456543
0.000158212
0.00017767
0.000138231
0.000143893
0.000138983
0.000131912
0.000148962
0.000147523
0.00022438
0.000182644
0.000345412
0.000280972
0.00045164
0.000430674
0.000406042
0.000375773
0.000488025
0.000482908
0.000468166
0.000485943
0.000501513
0.000502577
0.000513606
0.000511262
0.000476453
0.000464106
0.000481314
0.000495003
0.000466686
0.000483829
0.000490413
0.000465727
0.000467797
0.000467643
0.000468712
0.000526812
0.000445263
0.000496402
0.000502193
0.000161243
0.000210893
0.000149708
0.000410039
0.00031307
0.000157799
0.000139099
0.000134734
0.000138989
0.000145801
0.00015303
0.000158045
0.000164428
0.000177934
0.000205083
0.000267814
0.000328807
0.00036114
0.000361927
0.000344914
0.000292328
0.00023831
0.000197419
0.000169508
0.000159087
0.000157876
0.000157099
0.0001589
0.000161329
0.000158382
0.000136884
0.000287437
0.000670706
0.0011137
0.00154698
0.00154049
0.00159531
0.00139494
0.00147317
0.00121166
0.00130687
0.00079568
0.000915058
0.000566949
0.000678461
0.000200053
0.000236428
0.000122577
0.000130793
0.000121747
0.000118476
0.0001421
0.00012989
0.000174445
0.000172265
0.000236309
0.000222805
0.000345026
0.000315926
0.000294883
0.000280679
0.000446866
0.000420149
0.00039
0.000359519
0.000496142
0.000480551
0.000457847
0.000511275
0.000520636
0.000479082
0.000452214
0.000495822
0.000501257
0.000483679
0.000504641
0.000518512
0.000483995
0.000471917
0.000475406
0.000466615
0.000482016
0.000478059
0.000465368
0.000509004
0.000519317
0.000479411
0.000484817
0.000225474
0.000160364
0.000193901
0.000467807
0.000342085
0.000154675
0.000139128
0.000139894
0.000146569
0.00015446
0.000159422
0.000165171
0.000177737
0.000200946
0.00025951
0.000319453
0.000357528
0.000362939
0.000355867
0.000310892
0.000256587
0.000211247
0.000178828
0.000161415
0.000158823
0.000158296
0.000158961
0.000161594
0.000159585
0.000139068
0.000251594
0.000643143
0.00102807
0.00154145
0.00168337
0.00145838
0.0015489
0.00126032
0.00136339
0.00103338
0.00114934
0.000520203
0.000652234
0.000297808
0.000399611
0.000142741
0.000160597
0.000113062
0.000115195
0.000112764
0.000109461
0.000162401
0.000143036
0.000220073
0.000212452
0.000273074
0.000269755
0.000269456
0.000268913
0.000334297
0.000317419
0.00030722
0.000303624
0.00042969
0.000398924
0.000370283
0.000350033
0.000445848
0.000433474
0.000432688
0.000515816
0.00047018
0.000418752
0.000400085
0.000429066
0.000522896
0.000505273
0.000524528
0.000499635
0.000503186
0.000464358
0.000464256
0.000472615
0.000498187
0.000490486
0.000466673
0.000493978
0.000510248
0.000465993
0.000471453
0.00026257
0.000131092
0.000184083
0.000531859
0.000385883
0.000152835
0.000141983
0.000147551
0.00015557
0.000161169
0.000166825
0.000178239
0.000199906
0.000253586
0.000311894
0.000352137
0.000364135
0.000361372
0.000328922
0.000277472
0.000227595
0.000190527
0.000166593
0.000160266
0.00015908
0.000159853
0.000162466
0.000160004
0.000143039
0.000216386
0.000595145
0.000939427
0.0014817
0.0017637
0.00149985
0.00159671
0.00128801
0.00139793
0.0010443
0.00116914
0.000781883
0.000914242
0.000261116
0.000341759
0.000183821
0.000213398
0.000118401
0.000124442
0.00010659
0.000110884
0.000113237
0.000100199
0.000195492
0.000167011
0.000279061
0.000265873
0.000303821
0.000305071
0.000305092
0.000302843
0.000336512
0.000331795
0.00033294
0.000336792
0.000402994
0.000379138
0.000361353
0.00035303
0.000407009
0.000426313
0.000404592
0.000451131
0.000411942
0.000392125
0.000386125
0.000386335
0.000488779
0.000523593
0.00048824
0.000441104
0.000519741
0.000461079
0.000457151
0.000480817
0.000512445
0.000501598
0.000470463
0.000484055
0.000506384
0.000456724
0.00046261
0.000294225
0.000122435
0.000199106
0.000530546
0.00043156
0.000153016
0.000149213
0.000156788
0.0001631
0.000168804
0.000179914
0.000200439
0.000251309
0.000306578
0.000346972
0.000365595
0.000364919
0.000345504
0.000297163
0.000245738
0.000202857
0.000174839
0.000163911
0.000160264
0.000160501
0.000163507
0.000161226
0.000147517
0.000184853
0.000473034
0.000829924
0.00138457
0.00178531
0.00167177
0.00128831
0.00140932
0.00103008
0.00116215
0.000751558
0.000891506
0.000465034
0.000605546
0.000173619
0.000201171
0.000134006
0.000150179
0.000112458
0.000113994
0.000101098
0.000105744
0.00012488
9.66662e-05
0.000239869
0.000197901
0.00033442
0.000327848
0.000305679
0.000318299
0.000340681
0.000342144
0.000341686
0.000338976
0.000353238
0.000358473
0.000365102
0.000370801
0.000384268
0.000369981
0.000366672
0.000371034
0.000415751
0.000405904
0.000386529
0.00040237
0.000380889
0.000415935
0.00042239
0.000385765
0.000439257
0.000496015
0.000445791
0.000401463
0.000515222
0.000460697
0.000453327
0.000488116
0.000520901
0.000509165
0.000473988
0.00047874
0.000506145
0.000450822
0.000457143
0.000327581
9.2683e-05
0.000196282
0.000529144
0.000453451
0.000156425
0.000158516
0.000165293
0.000171406
0.000182568
0.00020201
0.000251398
0.000304542
0.000343289
0.000364685
0.000368582
0.000358739
0.000315961
0.000265497
0.000217947
0.000185839
0.000170003
0.000163401
0.000161374
0.00016405
0.000163107
0.000152355
0.000162784
0.000356966
0.000717027
0.00126142
0.00178471
0.00181777
0.00125862
0.00139386
0.000985124
0.00112389
0.000689833
0.000841254
0.000399034
0.000537822
0.000237397
0.000296253
0.000133642
0.000147533
0.000116976
0.000123252
0.000108795
0.000110798
9.88506e-05
0.000101881
0.000141991
9.85505e-05
0.000288733
0.000266125
0.00023373
0.000359672
0.000351583
0.000326757
0.000340844
0.000373029
0.000373149
0.000370674
0.000366077
0.000379013
0.000387412
0.000394023
0.000396347
0.00037646
0.000376808
0.000383961
0.000393473
0.000406899
0.000387407
0.000380889
0.000382915
0.000390289
0.000407506
0.000408968
0.000430038
0.000407967
0.000462314
0.000422646
0.00039052
0.000489455
0.000460881
0.000450875
0.000493594
0.000521375
0.000509132
0.000475888
0.000476417
0.000507371
0.000446752
0.000453291
0.000349859
4.88774e-05
0.000145135
0.000526044
0.000457851
0.000164833
0.000167585
0.000174235
0.000186245
0.000205637
0.000253055
0.000304919
0.000342185
0.000364443
0.000374087
0.000369558
0.000337869
0.000288474
0.000236938
0.000200306
0.000180148
0.000168961
0.000163763
0.000165038
0.000164194
0.000156975
0.000151356
0.000294712
0.00066234
0.0011329
0.00173163
0.00192239
0.00145425
0.000910147
0.00106385
0.000598709
0.000755146
0.000333792
0.00045233
0.000221132
0.000264584
0.000166629
0.00019234
0.000121452
0.000128763
0.000113128
0.000116148
0.000104207
0.000105682
9.92061e-05
0.000100309
0.000161447
0.000103138
0.000308172
0.00028453
0.000264879
0.000227151
0.000376442
0.000367135
0.000340299
0.000355435
0.000396639
0.000394132
0.000389594
0.000383857
0.000402381
0.000409291
0.000411741
0.000411792
0.000383268
0.000391497
0.000401165
0.000409495
0.000389298
0.000382946
0.000386225
0.000398766
0.000434626
0.000389641
0.000390385
0.000411649
0.000404734
0.00044623
0.000425399
0.000410854
0.000480139
0.00045963
0.000448046
0.000492922
0.000514621
0.000502455
0.000474518
0.000475324
0.000508276
0.000442687
0.000449415
0.00031157
1.25496e-05
9.69084e-05
0.000520214
0.000436689
0.000174619
0.000177308
0.000190077
0.000211325
0.000258282
0.000308033
0.000343221
0.000365519
0.000378376
0.000379474
0.000359493
0.000317164
0.000265587
0.00021832
0.000194573
0.000179019
0.000169006
0.000167501
0.000165783
0.000161672
0.000148408
0.00026332
0.00063422
0.00101487
0.00163923
0.00196652
0.00167885
0.000817661
0.000991842
0.000487944
0.000643161
0.000286236
0.000360902
0.000211053
0.000239514
0.000163644
0.000184198
0.000137655
0.000148706
0.00011731
0.000123136
0.000108065
0.000112133
0.000100993
0.000101333
0.000102496
0.000104018
0.000191989
0.000146721
0.000110445
0.000320518
0.00029556
0.000264164
0.000227732
0.000382477
0.000372826
0.000344376
0.000360527
0.00040956
0.000405265
0.000399209
0.000391144
0.000415998
0.000418165
0.000418957
0.000416544
0.000393967
0.000402369
0.000409379
0.000414391
0.000383423
0.000385719
0.000391995
0.000440904
0.000416273
0.000382318
0.000381226
0.000392295
0.000427569
0.000454041
0.000449496
0.000449787
0.000486198
0.000456341
0.000443189
0.000486197
0.000506755
0.000492357
0.000467313
0.000474075
0.000507449
0.000436833
0.000444693
0.000247626
7.6375e-06
6.36047e-05
0.000498291
0.000395184