/*--------------------------------*- C++ -*----------------------------------*\
  =========                 |
  \\      /  F ield         | OpenFOAM: The Open Source CFD Toolbox
   \\    /   O peration     | Website:  https://openfoam.org
    \\  /    A nd           | Version:  dev
     \\/     M anipulation  |
\*---------------------------------------------------------------------------*/
FoamFile
{
    version     2.0;
    format      ascii;
    class       volScalarField;
    location    "2500";
    object      CO2;
}
// * * * * * * * * * * * * * * * * * * * * * * * * * * * * * * * * * * * * * //

dimensions      [0 0 0 0 0 0 0];

internalField   nonuniform List<scalar> 
9836
(
1.6958e-32
7.28262e-32
3.26845e-32
1.38291e-31
1.61089e-31
2.26895e-32
3.0431e-31
5.95551e-31
2.47433e-31
1.47042e-32
8.14751e-31
2.19638e-30
1.36394e-30
2.14551e-31
1.75018e-32
3.34957e-30
4.36766e-30
3.61114e-30
1.46639e-30
1.26133e-31
9.02035e-33
8.76269e-30
1.05835e-29
8.88824e-30
4.29727e-30
1.09264e-30
6.32473e-32
3.7001e-33
2.23325e-29
3.06072e-29
2.43554e-29
1.11916e-29
3.82602e-30
3.78575e-31
3.46277e-32
1.88864e-33
3.83389e-29
9.61706e-29
6.63433e-29
2.59556e-29
1.04286e-29
2.12104e-30
2.24303e-31
2.26223e-32
9.61706e-34
3.80331e-29
2.10675e-28
1.98858e-28
9.27828e-29
2.55452e-29
6.14273e-30
1.44356e-30
1.55498e-31
9.92927e-33
2.25526e-34
1.419e-28
5.02326e-28
4.98853e-28
2.48999e-28
8.82734e-29
2.40184e-29
5.13339e-30
8.39486e-31
6.41611e-32
1.73983e-33
6.67403e-35
1.23502e-28
8.50312e-28
1.1428e-27
5.96278e-28
2.74178e-28
7.60053e-29
1.82748e-29
2.75264e-30
3.06446e-31
1.60305e-32
6.46405e-34
1.53693e-35
4.90107e-28
1.65668e-27
2.00046e-27
1.87416e-27
7.56019e-28
2.22401e-28
5.83374e-29
1.03633e-29
1.1047e-30
1.51006e-31
4.53374e-33
1.43739e-34
3.36549e-36
6.50053e-28
2.76764e-27
3.5963e-27
4.07809e-27
2.14646e-27
7.59915e-28
1.47348e-28
2.93808e-29
5.5762e-30
6.43835e-31
5.78725e-32
2.25049e-33
4.09348e-35
5.95499e-37
2.78519e-27
7.52735e-27
9.90315e-27
7.96415e-27
5.23281e-27
2.10376e-27
6.19909e-28
1.0919e-28
1.70514e-29
2.81825e-30
2.30124e-31
1.73564e-32
6.88976e-34
1.25845e-35
1.41602e-37
2.18363e-27
1.47368e-26
1.75074e-26
1.95613e-26
1.1251e-26
5.63099e-27
1.45321e-27
3.44754e-28
7.15517e-29
9.06425e-30
1.0689e-30
9.29806e-32
4.69894e-33
1.99918e-34
5.14127e-36
4.67109e-37
2.08227e-27
2.56577e-26
3.04593e-26
4.10164e-26
2.79672e-26
1.40985e-26
4.59982e-27
1.20751e-27
2.1233e-28
3.33822e-29
4.40212e-30
3.25308e-31
2.39465e-32
1.3252e-33
5.2901e-35
1.29001e-35
9.16447e-36
3.81836e-27
3.51637e-26
5.94557e-26
1.02965e-25
7.19965e-26
3.77345e-26
1.25923e-26
3.42066e-27
8.7309e-28
1.27359e-28
1.92604e-29
1.36478e-30
1.2995e-31
8.03267e-33
4.12197e-34
9.40039e-35
1.14977e-34
1.66872e-34
1.88615e-26
6.4714e-26
8.34328e-26
1.74762e-25
1.68667e-25
9.14733e-26
3.99158e-26
1.03055e-26
2.52164e-27
3.37141e-28
6.9091e-29
9.00398e-30
4.59838e-31
4.56738e-32
2.10625e-33
5.78521e-34
1.38534e-33
2.14707e-33
2.02642e-33
3.89938e-26
1.07576e-25
1.65591e-25
3.30023e-25
3.25561e-25
2.13549e-25
9.64203e-26
3.64653e-26
7.61184e-27
1.27163e-27
2.31592e-28
3.30959e-29
2.93753e-30
2.08605e-31
1.73436e-32
4.37799e-33
8.2591e-33
1.87504e-32
3.25802e-32
2.24545e-32
4.21748e-26
2.15677e-25
3.65927e-25
4.8103e-25
5.97514e-25
4.00526e-25
2.33005e-25
8.85859e-26
2.21908e-26
5.50645e-27
6.71268e-28
8.67636e-29
1.52496e-29
1.31453e-30
8.25072e-32
2.08005e-32
5.7815e-32
1.72872e-31
2.96147e-31
5.96426e-31
7.56e-31
7.76834e-26
3.35055e-25
6.06994e-25
8.34681e-25
1.08144e-24
1.00992e-24
5.29537e-25
2.24478e-25
5.81304e-26
1.24304e-26
3.45462e-27
2.46035e-28
5.30517e-29
7.10651e-30
5.25756e-31
1.00822e-31
3.05617e-31
1.147e-30
3.99747e-30
8.06833e-30
2.43978e-29
3.51069e-29
5.77008e-26
5.04747e-25
1.04393e-24
1.54502e-24
1.76846e-24
1.9048e-24
1.31341e-24
4.95906e-25
2.05374e-25
4.39686e-26
8.3762e-27
1.2508e-27
1.25944e-28
2.43279e-29
2.82536e-30
4.31084e-31
1.39194e-30
6.85236e-30
3.03441e-29
1.31011e-28
3.66487e-28
8.67901e-28
1.01069e-27
3.11369e-26
4.31872e-25
1.8355e-24
3.2074e-24
3.68424e-24
3.65435e-24
2.89073e-24
1.19486e-24
4.82855e-25
1.46356e-25
3.15561e-26
5.05124e-27
7.56689e-28
8.7079e-29
1.13464e-29
1.89352e-30
5.37368e-30
3.85856e-29
2.36738e-28
1.3843e-27
6.21493e-27
1.74783e-26
3.50963e-26
2.51956e-26
1.21651e-26
1.98587e-25
2.09535e-24
5.11162e-24
5.73826e-24
6.87824e-24
5.70539e-24
3.15555e-24
1.20791e-24
3.65799e-25
9.55185e-26
1.77717e-26
2.16343e-27
4.16627e-28
5.40717e-29
7.97477e-30
1.77501e-29
1.68721e-28
1.54161e-27
1.26333e-26
8.86433e-26
3.84891e-25
7.76568e-25
1.32733e-24
8.01607e-25
6.85513e-26
2.56377e-25
1.55698e-24
6.30284e-24
8.13112e-24
1.32178e-23
1.13465e-23
6.77805e-24
2.7118e-24
1.07315e-24
2.1568e-25
6.54844e-26
9.10919e-27
1.0408e-27
2.17682e-28
3.47442e-29
6.37374e-29
8.30977e-28
1.0101e-26
9.35985e-26
9.10146e-25
6.29243e-24
1.93613e-23
3.43392e-23
4.03867e-23
1.66164e-23
5.61982e-26
4.27126e-25
1.74681e-24
6.26624e-24
1.41252e-23
1.77986e-23
1.8087e-23
1.39714e-23
5.70385e-24
2.45269e-24
7.44646e-25
1.49801e-25
4.02065e-26
5.10687e-27
6.12225e-28
1.26686e-28
2.20122e-28
3.05259e-27
5.92395e-26
7.48125e-25
8.11464e-24
7.34011e-23
3.70847e-22
6.9461e-22
1.2206e-21
1.02358e-21
4.85403e-22
1.17929e-25
5.79357e-25
2.0211e-24
4.31778e-24
1.80419e-23
2.19403e-23
3.42059e-23
2.78131e-23
1.48928e-23
5.5575e-24
1.85317e-24
4.59937e-25
1.0576e-25
1.58446e-26
2.51185e-27
3.96099e-28
7.89275e-28
9.45826e-27
1.95809e-25
5.25663e-24
6.50887e-23
6.79096e-22
5.74503e-21
1.66788e-20
2.58521e-20
3.26429e-20
2.08944e-20
8.50821e-21
6.02523e-26
7.98306e-25
2.98768e-24
6.28254e-24
1.43261e-23
2.86864e-23
4.72411e-23
4.85372e-23
3.09889e-23
1.2404e-23
4.79954e-24
1.14152e-24
2.45958e-25
4.47931e-26
8.83726e-27
1.68702e-27
2.44478e-27
3.75687e-26
6.78508e-25
1.73829e-23
4.88405e-22
5.82577e-21
4.78547e-20
2.68823e-19
5.65307e-19
7.90231e-19
8.60176e-19
4.18042e-19
1.09077e-19
1.2269e-25
9.87365e-25
3.05489e-24
1.01755e-23
1.82088e-23
3.12237e-23
6.77893e-23
9.0327e-23
4.99368e-23
3.01555e-23
1.0849e-23
3.40632e-24
8.22366e-25
1.53892e-25
2.14899e-26
4.90689e-27
6.47417e-27
8.24782e-26
3.24251e-24
6.01972e-23
1.75847e-21
4.45802e-20
5.45875e-19
2.6503e-18
1.02652e-17
1.52747e-17
1.67068e-17
1.57183e-17
6.60995e-18
1.95037e-18
3.66018e-25
6.86911e-25
4.05067e-24
1.06071e-23
2.60157e-23
4.32959e-23
6.384e-23
1.28384e-22
1.13866e-22
5.41912e-23
2.43682e-23
8.75202e-24
1.91595e-24
5.59482e-25
6.62552e-26
1.46807e-26
1.42339e-26
1.73389e-25
5.75181e-24
3.32195e-22
6.41062e-21
1.62533e-19
4.16138e-18
2.89091e-17
9.7562e-17
2.65954e-16
4.01921e-16
3.81833e-16
2.12299e-16
8.37526e-17
1.75986e-17
1.78494e-24
2.12764e-24
4.25397e-24
1.32802e-23
2.95363e-23
6.29011e-23
1.00853e-22
1.45646e-22
1.77527e-22
1.16688e-22
4.95312e-23
1.95541e-23
5.92954e-24
1.07248e-24
3.37693e-25
4.62884e-26
3.7194e-26
3.23817e-25
8.23422e-24
5.45043e-22
3.6733e-20
6.19864e-19
1.6417e-17
2.50357e-16
9.50856e-16
3.53718e-15
7.70209e-15
9.35183e-15
6.60215e-15
3.09432e-15
8.23311e-16
7.48442e-17
1.72887e-24
1.32107e-23
1.71741e-23
2.45207e-23
5.12938e-23
8.58509e-23
1.49725e-22
1.59786e-22
2.74283e-22
2.06168e-22
9.07125e-23
4.13682e-23
1.23442e-23
3.44752e-24
7.95055e-25
1.53239e-25
7.92186e-26
6.20949e-25
1.21373e-23
5.90195e-22
5.26038e-20
4.01333e-18
5.73898e-17
1.17243e-15
8.67465e-15
3.95172e-14
1.2603e-13
2.17537e-13
2.10016e-13
1.18771e-13
4.15496e-14
5.74209e-15
4.11834e-16
9.97558e-24
4.41671e-23
3.94547e-23
3.80588e-23
5.80318e-23
1.33581e-22
1.99828e-22
2.2332e-22
3.06867e-22
3.41127e-22
1.96535e-22
8.16418e-23
2.83366e-23
6.81908e-24
2.07859e-24
4.40969e-25
1.8451e-25
1.01554e-24
1.77728e-23
5.64213e-22
5.16772e-20
5.09451e-18
4.27778e-16
4.26442e-15
6.09504e-14
3.11466e-13
1.40331e-12
3.64224e-12
5.14458e-12
3.98781e-12
1.80137e-12
3.70007e-13
3.18036e-14
1.83002e-16
4.88892e-15
1.20214e-22
2.13684e-22
1.11352e-22
1.42521e-22
1.5992e-22
1.76231e-22
2.7966e-22
3.86927e-22
4.48535e-22
5.18725e-22
3.61454e-22
1.82605e-22
6.62082e-23
2.24707e-23
4.42247e-24
1.33751e-24
4.34105e-25
2.08696e-24
2.78216e-23
5.47908e-22
4.07679e-20
4.58606e-18
4.79693e-16
4.26604e-14
2.45894e-13
1.81366e-12
1.07674e-11
3.9961e-11
8.68221e-11
1.03384e-10
6.63188e-11
2.49035e-11
1.69061e-12
8.86244e-14
1.56646e-12
1.44636e-15
4.10388e-14
3.07508e-22
9.92047e-22
7.40028e-22
3.77596e-22
3.65687e-22
3.68801e-22
4.35467e-22
5.68196e-22
7.28041e-22
6.9252e-22
6.0564e-22
3.40933e-22
1.48404e-22
4.26828e-23
1.06057e-23
2.67011e-24
8.01653e-25
4.3271e-24
4.96606e-23
6.54909e-22
3.05302e-20
3.2364e-18
3.99027e-16
4.37341e-14
2.68906e-12
6.9738e-12
5.33932e-11
3.01514e-10
9.42024e-10
1.7691e-09
1.84659e-09
9.8833e-10
6.7255e-11
4.87087e-10
2.04952e-11
3.45425e-10
2.70809e-10
7.94321e-13
1.30232e-11
1.19053e-14
3.38585e-13
1.32805e-21
5.24424e-21
2.68008e-21
2.28445e-21
1.32273e-21
7.07972e-22
7.0919e-22
7.9391e-22
1.0334e-21
1.01557e-21
9.47813e-22
6.09685e-22
2.91874e-22
1.08259e-22
2.44637e-23
6.89588e-24
2.03326e-24
6.46419e-24
7.98093e-23
1.0184e-21
2.44338e-20
2.0788e-18
2.51382e-16
3.24762e-14
2.6032e-12
8.81904e-11
2.05974e-10
1.45983e-09
6.95169e-09
1.88307e-08
3.10059e-08
2.90225e-08
2.80139e-09
1.88881e-08
2.85336e-09
1.83156e-10
2.73994e-09
2.18012e-09
6.47312e-12
1.04447e-10
9.74192e-14
2.71701e-12
1.07047e-20
2.15029e-20
1.7227e-20
1.70811e-20
6.23502e-21
2.64197e-21
1.62079e-21
1.37143e-21
1.45893e-21
1.40653e-21
1.32415e-21
1.00358e-21
5.15042e-22
2.20242e-22
6.60928e-23
1.5079e-23
4.78072e-24
1.30737e-23
1.43656e-22
1.69215e-21
2.67504e-20
1.31105e-18
1.52169e-16
1.90121e-14
2.24762e-12
9.33027e-11
2.16113e-09
5.12832e-09
3.22805e-08
1.32429e-07
3.14508e-07
4.5947e-07
1.00343e-07
4.97246e-07
2.27885e-08
1.46792e-07
2.42997e-08
1.43572e-09
2.19464e-08
1.65629e-08
5.08468e-11
7.96714e-10
7.78866e-13
2.0978e-11
9.34851e-20
2.18916e-19
1.28087e-19
1.08494e-19
3.79747e-20
1.28555e-20
4.63893e-21
2.4014e-21
2.52539e-21
2.43057e-21
1.86999e-21
1.50437e-21
9.5932e-22
4.31416e-22
1.49147e-22
3.7279e-23
9.08625e-24
1.97023e-23
2.49448e-22
2.98886e-21
3.41895e-20
8.62907e-19
7.61366e-17
1.02427e-14
1.40128e-12
8.32524e-11
1.78372e-09
3.33356e-08
1.04881e-07
5.72168e-07
2.03431e-06
4.25846e-06
1.963e-06
6.70456e-06
7.77248e-07
3.38786e-06
1.75395e-07
1.04663e-06
1.8152e-07
1.06062e-08
1.58517e-07
1.17235e-07
3.79736e-10
5.726e-09
5.96736e-12
1.53925e-10
4.51882e-19
2.33121e-18
1.10512e-18
7.23262e-19
2.48427e-19
7.39418e-20
1.94605e-20
7.24976e-21
4.37701e-21
3.77207e-21
3.19195e-21
2.18845e-21
1.51852e-21
8.42007e-22
2.53308e-22
1.00385e-22
2.54481e-23
2.77498e-23
3.34242e-22
5.00781e-21
5.85256e-20
8.79645e-19
4.24942e-17
5.10519e-15
6.76414e-13
6.38778e-11
2.27838e-09
3.40519e-08
3.56378e-07
1.71227e-06
7.80263e-06
2.36439e-05
1.89462e-05
4.8246e-05
1.20115e-05
3.54055e-05
4.98444e-06
1.87557e-05
1.21394e-06
6.39876e-06
1.22137e-06
7.30059e-08
1.04644e-06
7.61086e-07
2.67353e-09
3.85833e-08
4.36778e-11
1.06887e-09
3.51841e-18
7.42724e-18
8.48016e-18
4.51247e-18
1.46026e-18
3.96651e-19
1.1519e-19
3.1784e-20
9.95372e-21
6.41325e-21
5.02108e-21
3.65981e-21
2.33499e-21
1.37502e-21
5.81292e-22
1.78959e-22
6.89581e-23
4.21387e-23
4.07364e-22
6.75115e-21
9.37361e-20
1.10699e-18
2.67614e-17
2.28961e-15
3.26332e-13
3.93877e-11
1.70637e-09
3.90892e-08
5.16058e-07
4.77535e-06
2.07824e-05
7.65365e-05
0.000102067
0.000200139
8.96618e-05
0.000197199
5.7517e-05
0.000148769
2.59591e-05
8.39998e-05
7.16219e-06
3.18064e-05
7.02582e-06
4.65241e-07
5.94342e-06
4.32667e-06
1.76135e-08
2.40633e-07
3.0129e-10
6.9254e-09
4.20152e-17
6.20832e-17
2.81758e-17
1.87208e-17
8.96906e-18
2.50597e-18
6.78499e-19
1.61443e-19
3.57616e-20
1.41592e-20
8.89592e-21
6.18032e-21
3.59615e-21
2.02974e-21
1.11315e-21
3.39995e-22
1.37561e-22
9.67008e-23
5.57523e-22
7.66922e-21
1.3376e-19
1.51494e-18
2.30192e-17
1.10829e-15
1.38158e-13
1.91566e-11
1.6227e-09
4.13846e-08
7.39412e-07
6.62082e-06
4.78925e-05
0.000172307
0.000308654
0.000456593
0.000358116
0.000551986
0.000323401
0.000561254
0.00022271
0.000473132
0.000110371
0.000301133
3.44684e-05
0.000129585
3.30693e-05
2.65358e-06
2.78287e-05
2.03906e-05
1.07101e-07
1.35759e-06
1.9507e-09
4.15516e-08
1.49508e-16
2.72634e-16
1.47219e-16
1.08916e-16
4.50634e-17
1.42818e-17
3.96612e-18
9.70391e-19
1.65819e-19
4.32439e-20
1.78255e-20
9.58202e-21
6.54598e-21
3.64506e-21
1.83546e-21
7.77783e-22
3.03057e-22
1.63852e-22
7.60091e-22
8.42162e-21
1.60841e-19
2.43374e-18
2.68844e-17
5.90199e-16
5.46777e-14
7.60542e-12
9.83297e-10
3.59521e-08
8.34004e-07
9.82297e-06
6.24453e-05
0.000299846
0.000579877
0.000721686
0.000748516
0.000935128
0.000813208
0.00105643
0.000777456
0.00107611
0.000627185
0.000979086
0.00036888
0.000759804
0.000136323
0.000410073
0.00012864
1.26442e-05
0.000108055
7.96048e-05
5.89698e-07
6.4984e-06
1.17008e-08
2.23606e-07
7.80944e-16
1.60437e-15
8.18014e-16
5.17473e-16
2.45174e-16
9.82901e-17
2.88681e-17
5.99899e-18
1.22497e-18
1.60376e-19
4.30434e-20
2.0445e-20
1.06671e-20
6.09347e-21
3.22253e-21
1.45441e-21
8.21341e-22
5.0057e-22
1.1493e-21
1.38084e-20
1.69802e-19
2.88089e-18
4.13622e-17
5.29445e-16
2.34295e-14
2.78939e-12
3.91937e-10
3.21978e-08
7.71242e-07
1.13543e-05
8.69376e-05
0.000373515
0.000827769
0.000933735
0.00108613
0.00119589
0.00123815
0.00134059
0.00130689
0.0014241
0.00128904
0.00146537
0.0011486
0.00144142
0.00085606
0.00126975
0.000417736
0.000907189
0.000389807
5.03908e-05
0.000332805
0.000253293
2.84017e-06
2.66694e-05
6.27009e-08
1.04065e-06
3.70512e-15
7.77964e-15
5.0556e-15
2.58131e-15
1.49184e-15
5.94945e-16
1.62897e-16
3.83421e-17
7.42512e-18
1.26007e-18
1.90812e-19
4.55952e-20
1.97834e-20
1.0514e-20
5.44281e-21
3.62332e-21
2.03918e-21
2.40948e-21
2.35355e-21
1.63013e-20
2.1868e-19
3.32037e-18
5.63905e-17
7.14666e-16
1.35686e-14
1.06264e-12
1.2988e-10
1.72152e-08
6.01233e-07
1.07425e-05
9.8348e-05
0.000478035
0.00100986
0.00103687
0.00125932
0.00129657
0.00138779
0.00140475
0.00147034
0.00146978
0.00153377
0.0015323
0.00157066
0.00159922
0.0015424
0.00164766
0.00134609
0.00161464
0.000911122
0.00137881
0.000862829
0.000166208
0.000759787
0.000607673
1.14452e-05
9.07361e-05
2.73263e-07
4.0547e-06
3.01712e-14
5.6951e-14
3.64329e-14
1.68494e-14
6.84374e-15
2.86165e-15
9.47695e-16
2.2222e-16
4.82782e-17
7.16343e-18
1.16234e-18
1.45644e-19
3.87665e-20
1.85692e-20
1.40559e-20
8.70275e-21
9.03346e-21
1.12386e-20
1.20069e-20
2.44206e-20
2.67498e-19
3.69116e-18
5.95333e-17
9.47587e-16
1.26498e-14
4.84483e-13
4.52702e-11
5.37884e-09
3.58899e-07
9.2217e-06
9.37973e-05
0.000509636
0.0012275
0.0013111
0.00134507
0.00140051
0.00139465
0.00145746
0.00142935
0.00151111
0.00146077
0.00157934
0.00151963
0.00164863
0.00160761
0.00170755
0.00169678
0.00166472
0.0017615
0.00137309
0.00169477
0.00132788
0.000425676
0.00123575
0.00108351
3.9937e-05
0.000254403
9.36306e-07
1.35496e-05
2.3362e-13
4.39665e-13
2.74975e-13
1.21942e-13
4.60349e-14
1.69286e-14
5.14997e-15
1.27732e-15
2.69663e-16
4.82334e-17
7.05396e-18
9.76292e-19
1.35366e-19
4.06125e-20
2.58326e-20
4.02817e-20
4.49267e-20
4.05488e-20
5.94166e-20
7.0681e-20
3.65246e-19
3.69941e-18
6.32743e-17
1.04539e-15
1.6382e-14
3.42531e-13
1.83897e-11
1.70683e-09
1.52744e-07
6.42574e-06
8.5513e-05
0.000495529
0.00122459
0.00136055
0.0013469
0.0013831
0.00137544
0.00139142
0.00134762
0.00137748
0.00128459
0.00140194
0.0012578
0.00149785
0.00132261
0.00163286
0.0014791
0.00174654
0.00166359
0.00181075
0.00180251
0.00170038
0.00185917
0.00167385
0.000847815
0.00160251
0.00147454
0.000118505
0.00055568
2.53179e-06
3.96804e-05
1.58296e-12
3.10915e-12
2.02406e-12
8.73152e-13
3.13841e-13
1.07091e-13
3.61563e-14
8.37575e-15
1.54756e-15
2.47961e-16
4.12485e-17
5.63107e-18
6.68091e-19
1.22498e-19
7.60878e-20
1.11564e-19
2.53024e-19
2.2382e-19
2.68843e-19
2.55536e-19
8.28946e-19
4.26086e-18
6.3594e-17
1.12336e-15
1.9667e-14
3.61454e-13
1.05106e-11
6.49098e-10
5.21834e-08
3.07434e-06
6.85164e-05
0.000462543
0.00121065
0.00133916
0.00133565
0.00125189
0.00124076
0.00130644
0.00127383
0.00119507
0.0011171
0.00111046
0.000976994
0.00112693
0.000934401
0.00126846
0.00104608
0.00149416
0.00130015
0.00172482
0.00157659
0.00187236
0.0018142
0.00189153
0.00194669
0.00189847
0.00127264
0.0018681
0.00178068
0.000291462
0.000965437
5.94896e-06
0.000100517
6.59723e-12
1.80148e-11
1.34616e-11
6.22864e-12
2.22347e-12
7.55166e-13
1.94277e-13
5.27963e-14
8.55782e-15
1.59138e-15
2.23413e-16
3.06236e-17
4.06376e-18
5.89895e-19
3.07587e-19
4.92983e-19
6.65573e-19
1.2956e-18
1.18433e-18
1.15002e-18
1.61793e-18
6.07179e-18
5.69562e-17
1.05454e-15
1.96249e-14
4.0702e-13
8.89709e-12
3.31609e-10
2.00444e-08
1.28308e-06
4.0703e-05
0.000392766
0.00117633
0.00133571
0.00133493
0.00124021
0.00124502
0.00100374
0.00100355
0.0010586
0.0010214
0.000868814
0.000789501
0.000761637
0.000623761
0.00082349
0.000616194
0.00110181
0.000889898
0.00141764
0.00124762
0.00169796
0.00157206
0.00191885
0.00184672
0.00201548
0.0020356
0.002065
0.00161402
0.00207789
0.00203471
0.000581447
0.00135278
1.25679e-05
0.00022079
1.33041e-11
5.68354e-11
7.14352e-11
3.96532e-11
1.39105e-11
4.40686e-12
1.01646e-12
2.71847e-13
5.69491e-14
8.16409e-15
1.30402e-15
1.62426e-16
1.74353e-17
2.72943e-18
1.61481e-18
1.97535e-18
3.68898e-18
4.51855e-18
5.61395e-18
5.82263e-18
5.11553e-18
1.32775e-17
5.53951e-17
8.47424e-16
1.85401e-14
4.03094e-13
8.56567e-12
2.3196e-10
9.81771e-09
5.09113e-07
1.94255e-05
0.000288934
0.00110678
0.0013382
0.00125752
0.00127047
0.00101219
0.00103306
0.000720236
0.000732238
0.000740916
0.000719563
0.000528106
0.000471572
0.000439174
0.00031563
0.000655739
0.000411658
0.00106632
0.000857038
0.00145735
0.00134842
0.00178633
0.00177139
0.00203056
0.00206087
0.00215388
0.0022283
0.00225226
0.00191418
0.00231067
0.0023067
0.000954838
0.00169737
2.63748e-05
0.000434995
7.92675e-11
2.07158e-10
2.01705e-10
8.20647e-11
2.47996e-11
5.85335e-12
1.49999e-12
2.90679e-13
5.42933e-14
7.35376e-15
8.02655e-16
9.97009e-17
1.05228e-17
5.20549e-18
8.77605e-18
1.18533e-17
1.67969e-17
2.13897e-17
2.43876e-17
2.44118e-17
3.85434e-17
6.57349e-17
6.11543e-16
1.55415e-14
3.78888e-13
8.17081e-12
1.89571e-10
6.04662e-09
2.55731e-07
8.71597e-06
0.000185164
0.000976851
0.00137375
0.00114096
0.00118752
0.00106458
0.00110349
0.000759754
0.000799549
0.00046547
0.000496881
0.000448379
0.000450413
0.000248102
0.000221784
0.000224444
0.000132307
0.000607121
0.000326506
0.00120862
0.000981165
0.00178617
0.00176577
0.00216116
0.00231315
0.00236298
0.00259389
0.00241672
0.0026636
0.00256981
0.00222524
0.00266684
0.00268657
0.00135867
0.00206348
0.000157177
0.000960621
2.66606e-10
5.82218e-10
3.97171e-10
1.29392e-10
3.08142e-11
6.789e-12
1.59101e-12
2.79474e-13
3.84618e-14
5.56427e-15
4.37577e-16
6.51358e-17
1.65319e-17
3.67274e-17
5.26964e-17
7.82689e-17
1.0945e-16
9.06484e-17
8.17288e-17
1.12186e-16
1.48339e-16
6.39798e-16
1.10203e-14
3.18906e-13
7.42294e-12
1.63722e-10
4.22819e-09
1.48479e-07
4.9074e-06
0.000109216
0.000804466
0.00138257
0.00123043
0.00128978
0.000961255
0.00102395
0.000847424
0.000902284
0.000539815
0.000591302
0.000273133
0.000314194
0.000223731
0.000241772
9.74586e-05
8.7584e-05
0.000138657
6.9461e-05
0.000654658
0.00030697
0.00162511
0.00127764
0.00241786
0.00229683
0.00286123
0.00301918
0.00301592
0.00339401
0.00293065
0.00340126
0.00312843
0.00263292
0.00324907
0.00330401
0.0029592
0.00185565
0.00252963
0.000709831
0.00173181
7.97922e-10
1.3598e-09
5.75048e-10
1.43897e-10
3.10276e-11
6.47184e-12
1.42765e-12
2.0441e-13
2.12197e-14
2.46135e-15
2.49479e-16
9.45409e-17
1.35981e-16
2.50172e-16
2.58854e-16
3.50665e-16
4.38251e-16
4.72615e-16
3.46302e-16
3.70249e-16
9.52401e-16
8.43188e-15
2.2798e-13
6.16139e-12
1.3956e-10
3.24967e-09
8.943e-08
3.04813e-06
6.25342e-05
0.000607451
0.00137272
0.00130434
0.00108864
0.00114173
0.000784496
0.000857701
0.000649985
0.000714909
0.000363161
0.000419426
0.000134127
0.000174402
8.98855e-05
0.000104276
4.93559e-05
4.2939e-05
0.000119882
5.98914e-05
0.000773232
0.000323416
0.00191444
0.00137733
0.00284618
0.00245619
0.00349598
0.00328728
0.00381949
0.0038815
0.00372049
0.0041013
0.00390491
0.00356473
0.0039121
0.00329519
0.00289673
0.00327113
0.00366121
0.0040609
0.00399624
0.00368051
0.00241236
0.00323044
0.00317459
0.00279414
0.00128759
0.00235963
2.19319e-09
2.04229e-09
6.0018e-10
1.34403e-10
2.85393e-11
5.35579e-12
8.71596e-13
1.08743e-13
1.24793e-14
9.51625e-16
3.30799e-16
5.13921e-16
8.10474e-16
1.30675e-15
1.72066e-15
1.88133e-15
2.54346e-15
1.35933e-15
1.57099e-15
2.28227e-15
8.90535e-15
1.55451e-13
4.54754e-12
1.12608e-10
2.5392e-09
6.20671e-08
1.68918e-06
3.65778e-05
0.000435116
0.00132889
0.00140749
0.00108035
0.00116896
0.000933119
0.00100741
0.000624895
0.000702481
0.000482433
0.000551232
0.000221035
0.000275275
5.04974e-05
6.97498e-05
3.9473e-05
4.09749e-05
4.39619e-05
3.69199e-05
0.0001316
8.37734e-05
0.000785913
0.000351242
0.00192595
0.00129189
0.00286898
0.00228535
0.00370929
0.00352949
0.0033114
0.0030148
0.00416792
0.00411336
0.00366596
0.00377028
0.00399373
0.00425533
0.00418834
0.00440118
0.00432874
0.0043093
0.00367127
0.00364345
0.00408637
0.00446377
0.00439822
0.00410104
0.00312176
0.00264387
0.00303907
0.00359581
0.00353137
0.00136329
0.00293119
0.00273208
0.00238133
4.7872e-09
2.19212e-09
5.52155e-10
1.18863e-10
2.11282e-11
3.4217e-12
5.14716e-13
4.79155e-14
4.54979e-15
9.87074e-16
1.83143e-15
3.90143e-15
6.34454e-15
9.51996e-15
1.17581e-14
1.44729e-14
9.33943e-15
8.0479e-15
9.95516e-15
1.74163e-14
1.32517e-13
3.0506e-12
8.38764e-11
1.95183e-09
4.4613e-08
1.10403e-06
2.14634e-05
0.000306935
0.00121388
0.00147744
0.00121474
0.000946143
0.00102002
0.00078288
0.000864622
0.000476974
0.000554627
0.000336561
0.000403935
0.000102813
0.00014781
1.93938e-05
2.3563e-05
2.81379e-05
2.07934e-05
7.20898e-05
5.81005e-05
0.000206621
0.000183162
0.000717584
0.000446553
0.00163233
0.00106368
0.00271604
0.00236595
0.00205896
0.00173407
0.0034203
0.00311918
0.00278202
0.00427197
0.00412098
0.00350659
0.00358343
0.00388567
0.00446757
0.00452419
0.00459666
0.00440392
0.00463593
0.00409291
0.00406215
0.00450747
0.0047325
0.00481543
0.0045309
0.00345006
0.00333317
0.00400723
0.00392345
0.00236884
0.000749151
0.00152406
0.00314362
0.00282797
6.27418e-09
2.03245e-09
4.21811e-10
7.72654e-11
1.16352e-11
2.04885e-12
2.42982e-13
1.91757e-14
4.1092e-15
6.60606e-15
1.68509e-14
3.47097e-14
5.65616e-14
7.88961e-14
1.00986e-13
1.04934e-13
5.29723e-14
5.77321e-14
7.22816e-14
1.6977e-13
2.11791e-12
5.69616e-11
1.43339e-09
3.20323e-08
7.51972e-07
1.29249e-05
0.00020794
0.0010403
0.00149073
0.00135494
0.000974696
0.00107192
0.000805107
0.000889418
0.000635962
0.000719902
0.000331518
0.000405739
0.00020239
0.000263146
3.35373e-05
5.14802e-05
1.13873e-05
9.1566e-06
3.2934e-05
1.72163e-05
0.000173834
0.000134695
0.000418368
0.000432456
0.000796701
0.000815949
0.00150047
0.00129407
0.00118941
0.00116925
0.00243873
0.0021071
0.00182167
0.00161176
0.00318771
0.00283793
0.00248403
0.00423616
0.00397704
0.00324082
0.00328202
0.00365243
0.00452947
0.00471743
0.00465268
0.004345
0.00483307
0.00453095
0.00450159
0.00488166
0.00494327
0.00504713
0.00492766
0.00380178
0.00361331
0.00443766
0.00432838
0.00222073
0.000569263
0.00118364
0.00332763
0.00286424
6.23384e-09
1.61983e-09
2.82465e-10
4.12976e-11
6.96259e-12
1.09225e-12
7.99677e-14
1.60456e-14
2.67294e-14
8.04136e-14
1.83499e-13
3.31583e-13
5.01017e-13
6.97932e-13
9.22395e-13
3.92121e-13
3.65527e-13
4.01291e-13
4.96256e-13
2.05466e-12
3.63811e-11
9.68725e-10
2.28087e-08
5.01711e-07
8.37653e-06
0.000130221
0.000817789
0.00147734
0.00147107
0.00112678
0.000828011
0.000910143
0.000653841
0.000740899
0.000484873
0.000568031
0.00018527
0.000252372
8.15359e-05
0.000127111
1.01043e-05
1.4516e-05
1.05389e-05
5.95153e-06
6.65054e-05
2.38227e-05
0.000404594
0.000298507
0.000942308
0.000957151
0.00123296
0.00134443
0.00147422
0.00159296
0.00147308
0.00143811
0.00149828
0.00163758
0.00216031
0.00190933
0.00174371
0.00169141
0.00287296
0.00251094
0.00220386
0.0040649
0.00371419
0.00289084
0.00290312
0.00331427
0.0044577
0.00477737
0.00457901
0.00415724
0.00490491
0.00494742
0.00492798
0.00514482
0.0050375
0.00517202
0.00523016
0.00415306
0.00387694
0.00485872
0.0047214
0.00206475
0.00037656
0.000981092
0.00347253
0.00284372
5.67706e-09
1.1226e-09
1.61194e-10
2.42553e-11
4.17203e-12
3.87514e-13
6.51624e-14
1.11941e-13
3.64294e-13
9.1231e-13
1.80061e-12
2.98462e-12
4.33889e-12
6.15366e-12
3.30251e-12
2.46534e-12
2.42082e-12
2.47639e-12
3.46009e-12
2.73975e-11
6.14962e-10
1.48742e-08
3.38721e-07
5.21117e-06
7.56681e-05
0.00057935
0.0014274
0.00156096
0.00128715
0.000839536
0.000941438
0.000662223
0.000750142
0.00048808
0.000574366
0.000325264
0.000404639
6.36848e-05
0.00010402
2.3584e-05
3.88961e-05
4.1861e-06
3.99359e-06
1.35691e-05
5.80343e-06
0.000144227
4.60018e-05
0.000837429
0.000586682
0.00193041
0.00181957
0.00181998
0.00200107
0.00214191
0.00219231
0.00173749
0.00189345
0.00211868
0.0023677
0.0019986
0.00190982
0.00193462
0.00209287
0.00252391
0.00224439
0.00210217
0.00377955
0.00335017
0.00254155
0.00256713
0.00292183
0.0042642
0.00471003
0.00438837
0.00386026
0.00485473
0.00529301
0.00530814
0.00530329
0.00501511
0.00519153
0.00542495
0.00448413
0.00411333
0.00524867
0.00508425
0.00189594
0.000250306
0.000776789
0.00357373
0.00278434
4.43648e-09
6.77447e-10
8.52018e-11
1.3002e-11
1.97494e-12
2.65245e-13
4.48258e-13
1.59183e-12
4.2605e-12
9.04841e-12
1.60588e-11
2.53859e-11
3.57378e-11
3.49607e-11
1.73996e-11
1.5226e-11
1.39717e-11
1.31355e-11
3.01131e-11
4.01221e-10
9.36958e-09
2.07315e-07
2.55733e-06
4.24081e-05
0.000392856
0.00130481
0.00160941
0.00143329
0.000982975
0.000652298
0.000738726
0.000476141
0.000563606
0.000309128
0.000390511
0.000161564
0.000231993
1.65152e-05
2.86636e-05
5.63891e-06
9.49816e-06
3.10114e-06
1.83595e-06
2.46294e-05
8.23499e-06
0.000280815
8.64741e-05
0.00148479
0.000996439
0.00290019
0.00280011
0.00239299
0.00263487
0.00259817
0.00277945
0.00289482
0.0029302
0.00234872
0.00265559
0.00296341
0.0032291
0.00209274
0.00222013
0.00248708
0.00284043
0.00229885
0.00223703
0.00229449
0.003404
0.00296347
0.0023903
0.00250782
0.00262315
0.00396855
0.00453297
0.0041071
0.00348959
0.00470227
0.00553203
0.00560161
0.00537535
0.00489901
0.00512424
0.00555257
0.00478705
0.0043166
0.00558615
0.00541477
0.00170851
0.000156521
0.000594432
0.00363712
0.00269654
2.97167e-09
3.54665e-10
4.21106e-11
5.35006e-12
1.07556e-12
1.67833e-12
6.4884e-12
1.89578e-11
4.25291e-11
7.96718e-11
1.30966e-10
2.07213e-10
2.86856e-10
1.19628e-10
9.65038e-11
8.02267e-11
6.6198e-11
6.42849e-11
3.33562e-10
6.13061e-09
1.23053e-07
1.63465e-06
2.37909e-05
0.000262957
0.00111904
0.00161011
0.0015506
0.00115514
0.000621181
0.000722626
0.00044434
0.000531804
0.000276448
0.00035911
0.00013083
0.000198
4.86262e-05
8.038e-05
3.44369e-06
6.18046e-06
1.45973e-06
2.00965e-06
3.6346e-06
1.63934e-06
3.82045e-05
1.08122e-05
0.000473187
0.000144253
0.002133
0.00177504
0.00134377
0.00339906
0.0032091
0.00265683
0.00295851
0.0034259
0.00354015
0.00356584
0.00352172
0.00322193
0.00357753
0.00386699
0.0040652
0.00253574
0.00290468
0.00334304
0.00378569
0.00238041
0.00252917
0.00286442
0.00303259
0.0027146
0.00253818
0.00269225
0.00263682
0.00361698
0.00427851
0.00378658
0.00314554
0.00448433
0.0057039
0.00581917
0.00536949
0.00472756
0.005011
0.00562031
0.00506085
0.00448912
0.00585925
0.00571307
0.00150831
7.09735e-05
0.000389035
0.00367338
0.00257938
1.70045e-09
1.68416e-10
1.97667e-11
2.73958e-12
5.82884e-12
2.47207e-11
7.91807e-11
1.90841e-10
3.71617e-10
6.21502e-10
9.9371e-10
1.80806e-09
8.19513e-10
5.90974e-10
4.56323e-10
3.43293e-10
2.56362e-10
3.96035e-10
4.19573e-09
8.58884e-08
1.29297e-06
1.31308e-05
0.000174009
0.000901374
0.00158549
0.00163568
0.00131636
0.000752778
0.0003929
0.00048108
0.000226169
0.0003077
9.68644e-05
0.000154164
3.50408e-05
5.93716e-05
1.11486e-05
1.99543e-05
6.72396e-07
1.12409e-06
8.20353e-07
5.8158e-07
5.41304e-06
3.04386e-06
4.80067e-05
1.47495e-05
0.000627346
0.000183593
0.00232037
0.00195587
0.00159078
0.00116101
0.00368067
0.00339282
0.00272096
0.00306906
0.00416297
0.00416936
0.00408906
0.00392072
0.00417667
0.00447767
0.00466854
0.00473496
0.00332258
0.00383144
0.00431973
0.00473513
0.002768
0.00318529
0.00372058
0.00283487
0.00276503
0.00298588
0.00317913
0.00285259
0.00330773
0.00399956
0.00351619
0.00299004
0.00425458
0.00583926
0.00599664
0.00532496
0.00455101
0.00489399
0.00565181
0.00530645
0.004637
0.00608476
0.00597948
0.00125633
1.79943e-05
0.000190939
0.00368449
0.00241274
8.4235e-10
8.32188e-11
8.73455e-12
2.05534e-11
8.67796e-11
3.11237e-10
8.13302e-10
1.67527e-09
2.85114e-09
4.29364e-09
7.5826e-09
5.79893e-09
3.50464e-09
2.53352e-09
1.76062e-09
1.1939e-09
9.13406e-10
3.71175e-09
5.71017e-08
1.097e-06
9.40424e-06
0.00011349
0.000671181
0.00151784
0.00169861
0.00146117
0.00093725
0.000335083
0.000437673
0.000167429
0.000244623
6.72318e-05
0.00010719
2.33551e-05
4.06164e-05
7.0889e-06
1.30066e-05
2.07125e-06
3.84281e-06
2.76437e-07
2.22254e-07
1.21215e-06
4.95496e-07
7.51087e-06
5.49959e-06
5.23719e-05
2.6899e-05
0.000830663
0.000444718
0.000179956
0.00235175
0.00197135
0.00145488
0.00107701
0.00373006
0.00338807
0.00263878
0.00302397
0.00470578
0.00456806
0.00433364
0.00404534
0.00504056
0.00521511
0.00524733
0.00518226
0.00428545
0.00480904
0.00523948
0.00554691
0.00347679
0.00408001
0.00469379
0.00291722
0.00298256
0.00373407
0.00394706
0.00335298
0.00316981
0.00377464
0.00338539
0.00307269
0.00407352
0.00595368
0.00616774
0.00527844
0.00441972
0.00482082
0.00568102
0.00552928
0.00476456
0.00629191
0.00621932
0.000930936
4.07541e-06
7.68114e-05
0.0036559
0.00217058
3.82265e-10
3.3417e-11
4.61661e-11
2.8366e-10
1.12526e-09
3.27869e-09
7.27503e-09
1.28631e-08
1.86942e-08
2.55833e-08
3.21028e-08
1.92509e-08
1.35371e-08
8.85012e-09
5.57795e-09
3.51849e-09
4.51868e-09
4.23516e-08
6.93495e-07
7.45573e-06
7.37996e-05
0.000481517
0.00138957
0.00172355
0.00158116
0.00110589
0.000463355
0.00012083
0.000198113
4.34687e-05
7.32649e-05
1.39861e-05
2.49212e-05
4.22884e-06
7.74899e-06
1.18845e-06
2.26674e-06
3.32777e-07
6.21208e-07
3.92949e-07
1.32595e-07
3.22471e-06
1.44774e-06
1.88033e-05
1.32521e-05
7.14618e-05