/*--------------------------------*- C++ -*----------------------------------*\
  =========                 |
  \\      /  F ield         | OpenFOAM: The Open Source CFD Toolbox
   \\    /   O peration     | Website:  https://openfoam.org
    \\  /    A nd           | Version:  dev
     \\/     M anipulation  |
\*---------------------------------------------------------------------------*/
FoamFile
{
    version     2.0;
    format      ascii;
    class       volScalarField;
    location    "2500";
    object      G;
}
// * * * * * * * * * * * * * * * * * * * * * * * * * * * * * * * * * * * * * //

dimensions      [1 0 -3 0 0 0 0];

internalField   nonuniform List<scalar> 
9836
(
4050.39
4056.3
4057.74
4061.49
4063.66
4065.82
4065.97
4068.86
4071.76
4074.67
4069.74
4073.35
4076.97
4080.62
4084.28
4072.82
4077.12
4081.46
4085.83
4090.24
4094.68
4075.21
4080.19
4085.22
4090.3
4095.45
4100.65
4105.88
4076.94
4082.57
4088.27
4094.04
4099.91
4105.85
4111.86
4117.9
4078.02
4084.29
4090.63
4097.06
4103.61
4110.28
4117.04
4123.89
4130.79
4078.47
4085.35
4092.31
4099.38
4106.59
4113.94
4121.43
4129.05
4136.77
4144.56
4078.33
4085.79
4093.33
4101.01
4108.84
4116.85
4125.03
4133.4
4141.91
4150.55
4159.26
4077.61
4085.61
4093.72
4101.97
4110.4
4119.02
4127.86
4136.92
4146.2
4155.65
4165.25
4174.93
4076.33
4084.86
4093.5
4102.29
4111.28
4120.48
4129.94
4139.65
4149.63
4159.86
4170.31
4180.91
4191.63
4074.54
4083.56
4092.7
4101.99
4111.5
4121.25
4131.28
4141.61
4152.24
4163.19
4174.43
4185.92
4197.6
4209.41
4072.25
4081.73
4091.33
4101.11
4111.1
4121.36
4131.92
4142.81
4154.05
4165.66
4177.63
4189.93
4202.54
4215.37
4228.35
4069.5
4079.41
4089.44
4099.66
4110.1
4120.82
4131.87
4143.28
4155.08
4167.29
4179.93
4192.98
4206.43
4220.22
4234.28
4248.51
4066.31
4076.62
4087.05
4097.67
4108.53
4119.68
4131.18
4143.05
4155.36
4168.12
4181.36
4195.09
4209.3
4223.97
4239.04
4254.41
4269.99
4062.71
4073.39
4084.19
4095.19
4106.43
4117.97
4129.86
4142.17
4154.92
4168.17
4181.95
4196.29
4211.18
4226.63
4242.61
4259.05
4275.86
4292.9
4058.74
4069.75
4080.9
4092.23
4103.82
4115.71
4127.97
4140.65
4153.81
4167.49
4181.74
4196.61
4212.11
4228.25
4245.03
4262.43
4280.36
4298.71
4317.35
4054.41
4065.74
4077.19
4088.84
4100.74
4112.95
4125.53
4138.54
4152.05
4166.11
4180.77
4196.09
4212.11
4228.86
4246.35
4264.57
4283.49
4303.04
4323.09
4343.48
4049.77
4061.37
4073.11
4085.04
4097.22
4109.71
4122.57
4135.88
4149.69
4164.07
4179.09
4194.79
4211.25
4228.5
4246.59
4265.53
4285.31
4305.9
4327.23
4349.14
4371.45
4044.83
4056.69
4068.68
4080.85
4093.28
4106.02
4119.14
4132.7
4146.77
4161.43
4176.73
4192.76
4209.57
4227.24
4245.82
4265.35
4285.85
4307.33
4329.75
4353.03
4377.01
4401.46
4039.63
4051.71
4063.92
4076.32
4088.97
4101.93
4115.26
4129.04
4143.33
4158.21
4173.75
4190.03
4207.13
4225.13
4244.1
4264.1
4285.2
4307.4
4330.74
4355.17
4380.61
4406.88
4433.71
4034.19
4046.47
4058.88
4071.47
4084.31
4097.46
4110.98
4124.94
4139.41
4154.47
4170.2
4186.68
4204
4222.24
4241.49
4261.85
4283.4
4306.19
4330.25
4355.63
4382.29
4410.14
4438.97
4468.48
4028.53
4040.98
4053.57
4066.33
4079.34
4092.65
4106.32
4120.43
4135.04
4150.24
4166.11
4182.74
4200.21
4218.63
4238.08
4258.69
4280.55
4303.76
4328.39
4354.5
4382.13
4411.27
4441.81
4473.53
4506.14
4022.67
4035.28
4048.02
4060.93
4074.08
4087.52
4101.32
4115.54
4130.27
4145.57
4161.54
4178.26
4195.83
4214.36
4233.94
4254.69
4276.74
4300.21
4325.23
4351.89
4380.24
4410.38
4442.28
4475.86
4510.93
4547.1
4016.65
4029.39
4042.25
4055.29
4068.55
4082.11
4096.01
4110.32
4125.13
4140.5
4156.53
4173.31
4190.92
4209.49
4229.12
4249.94
4272.08
4295.68
4320.9
4347.89
4376.75
4407.6
4440.53
4475.55
4512.64
4551.56
4591.76
4010.48
4023.33
4036.3
4049.44
4062.8
4076.44
4090.41
4104.8
4119.66
4135.07
4151.13
4167.91
4185.53
4204.09
4223.71
4244.51
4266.65
4290.27
4315.54
4342.65
4371.78
4403.09
4436.7
4472.76
4511.37
4552.5
4595.8
4640.67
4004.18
4017.12
4030.17
4043.4
4056.83
4070.54
4084.57
4099
4113.89
4129.31
4145.36
4162.13
4179.71
4198.21
4217.75
4238.48
4260.53
4284.06
4309.27
4336.33
4365.5
4396.99
4430.99
4467.69
4507.33
4550.05
4595.77
4644.15
4694.49
3997.77
4010.78
4023.9
4037.19
4050.69
4064.44
4078.51
4092.96
4107.85
4123.27
4139.28
4156
4173.5
4191.91
4211.33
4231.92
4253.81
4277.17
4302.2
4329.09
4358.1
4389.5
4423.57
4460.57
4500.77
4544.5
4591.9
4642.93
4697.3
4754.1
3991.27
4004.33
4017.51
4030.84
4044.37
4058.16
4072.25
4086.7
4101.58
4116.96
4132.93
4149.56
4166.96
4185.23
4204.5
4224.89
4246.56
4269.68
4294.43
4321.04
4349.75
4380.85
4414.68
4451.61
4491.97
4536.15
4584.51
4637.29
4694.57
4756.05
4820.59
3984.68
3997.79
4011
4024.37
4037.92
4051.72
4065.81
4080.25
4095.1
4110.43
4126.32
4142.86
4160.13
4178.24
4197.31
4217.47
4238.87
4261.68
4286.09
4312.31
4340.6
4371.25
4404.61
4441.1
4481.2
4525.35
4574.01
4627.66
4686.72
4751.41
4821.43
4895.25
3978.02
3991.16
4004.41
4017.79
4031.35
4045.15
4059.22
4073.63
4088.43
4103.7
4119.5
4135.91
4153.04
4170.97
4189.82
4209.72
4230.81
4253.26
4277.25
4303.01
4330.78
4360.85
4393.58
4429.39
4468.79
4512.43
4560.82
4614.54
4674.32
4740.77
4814.36
4894.72
4979.78
3971.32
3984.47
3997.73
4011.12
4024.68
4038.46
4052.51
4066.87
4081.61
4096.8
4112.49
4128.77
4145.73
4163.46
4182.07
4201.68
4222.43
4244.48
4268.02
4293.24
4320.41
4349.81
4381.78
4416.73
4455.17
4497.81
4545.37
4598.49
4658.01
4724.93
4800.14
4884.65
4977.55
5050.89
5052.28
3964.59
3977.73
3991
4004.39
4017.93
4031.69
4045.69
4060
4074.67
4089.75
4105.32
4121.45
4138.23
4155.74
4174.09
4193.4
4213.79
4235.42
4258.46
4283.12
4309.62
4338.26
4369.37
4403.33
4440.65
4481.99
4528.16
4580.01
4638.48
4704.69
4779.99
4865.66
4964.06
5050.32
5044.74
5102.81
5103.89
3957.85
3970.96
3984.22
3997.59
4011.12
4024.83
4038.79
4053.03
4067.61
4082.59
4098.03
4114
4130.58
4147.86
4165.94
4184.92
4204.94
4226.13
4248.66
4272.71
4298.52
4326.35
4356.51
4389.4
4425.46
4465.33
4509.78
4559.75
4616.39
4680.92
4754.87
4840.19
4927.59
4913.61
5036.1
4966.53
5023.78
5101.12
5094.51
5158.79
5159.46
3951.1
3964.18
3977.41
3990.75
4004.25
4017.92
4031.82
4045.98
4060.47
4075.34
4090.64
4106.44
4122.82
4139.86
4157.65
4176.29
4195.91
4216.65
4238.65
4262.09
4287.18
4314.17
4343.36
4375.09
4409.82
4448.11
4490.68
4538.42
4592.53
4654.48
4725.92
4808.93
4898.24
4880.82
4951.36
5084.23
5008.68
5070.29
5155.78
5147.89
5219.32
5219.47
3944.35
3957.39
3970.58
3983.89
3997.34
4010.96
4024.79
4038.88
4053.27
4068.01
4083.16
4098.79
4114.96
4131.76
4149.26
4167.56
4186.79
4207.05
4228.5
4251.31
4275.68
4301.82
4330.01
4360.57
4393.91
4430.55
4471.15
4516.53
4567.75
4626.34
4694.2
4773.57
4862.45
4842.53
4933.88
4914.46
4991.25
5135.9
5053.19
5119.95
5214.74
5205.34
5284.9
5284.53
3937.62
3950.61
3963.75
3977.01
3990.41
4003.97
4017.73
4031.73
4046.01
4060.63
4075.63
4091.08
4107.04
4123.58
4140.79
4158.76
4177.58
4197.38
4218.29
4240.46
4264.08
4289.36
4316.54
4345.93
4377.89
4412.86
4451.46
4494.42
4542.67
4597.55
4660.96
4735.42
4822.04
4800.39
4893.71
4871.7
4971.42
4949.58
5033.36
5191.41
5100.49
5173.15
5278.54
5267.35
5356.2
5355.21
3930.92
3943.85
3956.93
3970.13
3983.46
3996.95
4010.64
4024.54
4038.72
4053.21
4068.06
4083.32
4099.07
4115.36
4132.28
4149.9
4168.33
4187.66
4208.04
4229.58
4252.47
4276.88
4303.06
4331.28
4361.85
4395.19
4431.82
4472.37
4517.65
4568.83
4627.52
4696.18
4778.57
4756.19
4848.82
4825.17
4926.32
4901.86
5010.93
4986.39
5077.97
5251.18
5150.96
5230.23
5347.78
5334.47
5433.84
5432.26
3924.24
3937.11
3950.13
3963.26
3976.52
3989.94
4003.53
4017.34
4031.4
4045.76
4060.45
4075.54
4091.07
4107.12
4123.75
4141.03
4159.06
4177.94
4197.78
4218.71
4240.89
4264.48
4289.68
4316.72
4345.93
4377.66
4412.37
4450.6
4493.02
4540.57
4594.78
4657.66
4734.33
4712.52
4801.21
4777.22
4876.58
4850.82
4960.39
4933.35
5052.65
5025.15
5125.38
5315.63
5204.9
5291.55
5423.2
5407.35
5518.77
5516.5
3917.61
3930.4
3943.36
3956.42
3969.6
3982.93
3996.43
4010.13
4024.07
4038.29
4052.83
4067.74
4083.06
4098.86
4115.2
4132.16
4149.81
4168.24
4187.57
4207.9
4229.37
4252.15
4276.42
4302.36
4330.25
4360.39
4393.23
4429.22
4468.92
4513.14
4563.07
4620.93
4691.64
4671.15
4753.69
4730.74
4824.95
4799.32
4905.76
4877.96
4996.31
4966.79
5096.93
5066.41
5175.94
5385.36
5262.68
5357.65
5505.52
5486.68
5611.99
5608.81
3911.02
3923.73
3936.62
3949.6
3962.69
3975.93
3989.33
4002.93
4016.75
4030.83
4045.21
4059.93
4075.05
4090.61
4106.67
4123.31
4140.59
4158.59
4177.42
4197.17
4217.97
4239.96
4263.31
4288.21
4314.86
4343.53
4374.55
4408.38
4445.5
4486.58
4532.74
4586.02
4651.71
4632.67
4708.7
4687.61
4774.37
4750.36
4850.25
4823.04
4936.99
4907.16
5034.85
5002.99
5144.32
5111.01
5230.24
5461.03
5325.07
5429.41
5595.59
5573.35
5714.8
5710.51
3904.48
3917.12
3929.92
3942.82
3955.82
3968.96
3982.26
3995.74
4009.44
4023.37
4037.59
4052.14
4067.05
4082.37
4098.16
4114.49
4131.41
4149
4167.34
4186.54
4206.7
4227.94
4250.42
4274.29
4299.77
4327.07
4356.43
4388.24
4422.92
4461.04
4503.75
4553.02
4614.59
4596.78
4667.47
4648.1
4727.41
4705.58
4796.66
4771.33
4877.53
4848.37
4970.96
4938.7
5077
5042.7
5195.76
5160.11
5289.58
5543.57
5393.59
5508.28
5694.75
5668.62
5828.77
5823.13
3898
3910.55
3923.27
3936.08
3948.99
3962.03
3975.22
3988.58
4002.15
4015.94
4030
4044.36
4059.07
4074.16
4089.69
4105.71
4122.28
4139.47
4157.36
4176.03
4195.58
4216.12
4237.77
4260.68
4285.02
4311.01
4338.85
4368.81
4401.27
4436.69
4476.08
4522.01
4579.67
4563.14
4629.47
4611.34
4684.78
4664.85
4747.19
4724.28
4820.01
4792.76
4906.4
4874.48
5007.8
4972.11
5123.53
5085.94
5252.88
5214.69
5355.97
5634.5
5470.42
5596.64
5804.34
5773.9
5955.74
5948.35
3891.58
3904.04
3916.68
3929.39
3942.21
3955.15
3968.22
3981.46
3994.89
4008.54
4022.44
4036.62
4051.13
4065.99
4081.26
4096.99
4113.23
4130.03
4147.48
4165.65
4184.62
4204.49
4225.37
4247.39
4270.68
4295.42
4321.82
4350.08
4380.51
4413.48
4449.89
4492.34
4544.45
4593.71
4576.42
4645.61
4626.9
4702.52
4681.75
4766.9
4742.51
4843.35
4813.52
4936.11
4900.5
5046.99
5006.77
5174.46
5132.25
5316.88
5274.81
5430.89
5736.36
5557.51
5697.43
5925.93
5891.69
6098.1
6088.49
3885.23
3897.6
3910.14
3922.77
3935.48
3948.31
3961.27
3974.39
3987.68
4001.18
4014.92
4028.92
4043.23
4057.87
4072.89
4088.33
4104.25
4120.69
4137.72
4155.41
4173.83
4193.07
4213.22
4234.4
4256.73
4280.33
4305.39
4332.08
4360.64
4391.35
4425.04
4464.2
4513.06
4573.67
4556.67
4608.69
4590.99
4661.75
4642.33
4719.54
4697.78
4785.45
4759.34
4865.81
4832.84
4966.13
4925.96
5088.12
5042.46
5229.47
5181.48
5387.85
5340.36
5514.44
5852.87
5655.51
5812.23
6061.98
6025.78
6258.86
6246.51
3878.94
3891.22
3903.67
3916.2
3928.82
3941.54
3954.38
3967.37
3980.53
3993.88
4007.45
4021.27
4035.38
4049.8
4064.58
4079.75
4095.36
4111.45
4128.08
4145.31
4163.21
4181.86
4201.33
4221.73
4243.15
4265.72
4289.56
4314.83
4341.7
4370.37
4401.44
4437.43
4482.95
4540.26
4524.07
4587.38
4569.94
4623.48
4605.21
4676.94
4656.76
4735.04
4712.21
4802.23
4774.19
4887.07
4850.47
4996.42
4951.19
5131.33
5079.65
5288.73
5234.11
5465.87
5411.75
5607.02
5986.94
5765.09
5941.72
6216.18
6180.29
6441.62
6426.12
3872.72
3884.91
3897.27
3909.7
3922.22
3934.83
3947.55
3960.41
3973.43
3986.63
4000.03
4013.68
4027.59
4041.8
4056.34
4071.25
4086.56
4102.31
4118.56
4135.36
4152.77
4170.86
4189.7
4209.36
4229.95
4251.56
4274.3
4298.28
4323.65
4350.55
4379.28
4412
4454.05
4508.37
4493.01
4552.93
4536.27
4599.93
4581.98
4637.21
4618.31
4690.46
4669.46
4748.49
4724.6
4816.99
4786.95
4907.65
4866.97
5027.77
4976.95
5177.33
5119.14
5352.96
5291.02
5551.43
5489.72
5709.39
6139.52
5887.26
6087.5
6394.01
6359
6650.31
6631.8
3866.64
3878.66
3890.93
3903.27
3915.69
3928.19
3940.79
3953.52
3966.4
3979.44
3992.69
4006.15
4019.87
4033.87
4048.18
4062.83
4077.85
4093.29
4109.18
4125.57
4142.52
4160.08
4178.32
4197.3
4217.11
4237.83
4259.55
4282.37
4306.39
4331.74
4358.56
4388.25
4426.35
4475.03
4519.98
4503.99
4564.47
4547.34
4610.7
4592.28
4649.18
4629.64
4701.93
4680.12
4759.9
4734.97
4830.26
4798.09
4928.25
4883.14
5061
5004.22
5227.23
5162.32
5423.19
5353.58
5645.58
5575.5
5822.9
6313.15
6023.9
6252.19
6601.73
6565.58
6888.87
6870.11
3872.57
3884.67
3896.91
3909.23
3921.62
3934.11
3946.71
3959.44
3972.33
3985.41
3998.7
4012.22
4026.01
4040.1
4054.5
4069.25
4084.38
4099.93
4115.94
4132.45
4149.52
4167.2
4185.55
4204.64
4224.54
4245.32
4267.07
4289.87
4313.83
4339.04
4366.25
4400.29
4445.3
4497.72
4481.88
4530.55
4514.01
4574.33
4556.81
4619.51
4600.65
4659.13
4638.97
4711.35
4688.71
4769.77
4743.8
4843
4808.64
4949.85
4899.75
5097.56
5034.27
5282.48
5210.44
5500.98
5423.55
5750
5671.03
5949.61
6512.05
6178.11
6439.32
6846.59
6807.08
7173.75
7162.13
3878.56
3890.63
3902.85
3915.13
3927.5
3939.97
3952.56
3965.3
3978.21
3991.32
4004.66
4018.24
4032.1
4046.26
4060.75
4075.59
4090.82
4106.47
4122.57
4139.17
4156.33
4174.09
4192.51
4211.65
4231.58
4252.35
4274.04
4296.73
4320.51
4345.77
4376.07
4417.11
4466.66
4451.91
4506.33
4490.36
4539.63
4522.78
4582.34
4564.49
4626.33
4607.09
4667.03
4646.28
4719.1
4695.46
4778.9
4751.63
4855.95
4819.35
4973.71
4918.15
5138.54
5068.09
5344.53
5264.58
5588.38
5502.57
5867.11
5778.37
6092.65
6743.06
6354.55
6577.58
6626.04
7144.07
7095.15
7554.63
7549.89
3884.5
3896.54
3908.73
3920.98
3933.32
3945.78
3958.36
3971.1
3984.03
3997.17
4010.55
4024.2
4038.12
4052.36
4066.92
4081.84
4097.15
4112.87
4129.04
4145.71
4162.92
4180.72
4199.16
4218.3
4238.19
4258.87
4280.41
4302.88
4326.54
4353.72
4390.6
4434.06
4474.9
4459.95
4513.45
4497.39
4547.02
4529.99
4588.45
4570.32
4631.22
4611.62
4673
4651.63
4725.61
4700.79
4787.89
4758.88
4870.3
4831.01
5001.05
4940.18
5184.76
5107.06
5414.14
5325.59
5687.05
5591.81
6000.9
5845.42
5896.13
6241.97
6190.36
6741.05
6969.13
6920.1
6530.87
6476.98
6327.98
6692.32
7519.16
7113.18
7329.83
7378.92
8084.3
8060.24
3890.4
3902.4
3914.55
3926.77
3939.08
3951.51
3964.09
3976.83
3989.78
4002.96
4016.38
4030.08
4044.07
4058.37
4073
4087.98
4103.35
4119.12
4135.33
4152.03
4169.26
4187.06
4205.47
4224.55
4244.32
4264.83
4286.1
4308.33
4333.05
4365.81
4406.36
4451.81
4437.52
4481.81
4466.65
4518.99
4502.93
4552.68
4535.57
4592.71
4574.37
4634.27
4614.33
4677.34
4655.21
4731.18
4704.91
4797.21
4765.8
4888.11
4844.96
5033.39
4966.74
5237.19
5151.19
5497.76
5449.05
5400.62
5352.24
5796.37
5744.34
5538.55
5638
5692.19
5960.57
6141.13
6086.32
5909.05
6276.17
6870.25
7064.61
6639.93
6583.84
6423.52
6816.33
7564.41
7893.01
7838.91
7278.89
7516.22
8731.9
8134.57
8485.38
8545.13
3896.25
3908.21
3920.3
3932.48
3944.76
3957.17
3969.74
3982.49
3995.46
4008.67
4022.14
4035.89
4049.94
4064.29
4078.97
4094
4109.4
4125.19
4141.42
4158.11
4175.32
4193.07
4211.41
4230.34
4249.91
4270.13
4291.08
4313.76
4342.8
4380.2
4419.47
4457.42
4443.18
4487.34
4472.17
4522.97
4506.96
4556.62
4539.51
4595.16
4576.68
4635.84
4615.47
4680.3
4657.35
4735.83
4707.7
4807.42
4772.45
4909.68
4861.36
5070.17
4997.46
5304.04
5257.05
5210.23
5165.47
5488.4
5437.34
5386.08
5856.14
5801.29
5583.77
5687.87
5745.15
6031.94
6222.27
6165.34
5976.05
6367.43
7009.75
7222.45
6758.63
6525.43
6697.47
6950.16
7782.81
8083.2
7458.21
7721.41
8844.6
9257.86
9240.22
8421.26
8792.71
3902.07
3913.94
3925.98
3938.11
3950.36
3962.74
3975.3
3988.06
4001.06
4014.3
4027.82
4041.62
4055.71
4070.11
4084.82
4099.87
4115.27
4131.06
4147.27
4163.94
4181.08
4198.73
4216.91
4235.63
4254.9
4274.74
4295.7
4321.47
4355.66
4392.94
4433.46
4420.04
4461.68
4447.42
4491.44
4476.35
4525.41
4509.51
4558.92
4541.86
4596
4577.42
4636.09
4615.35
4681.81
4658.09
4739.38
4708.88
4818.43
4778.48
4934.27
4879.12
5121.61
5080.59
5041.11
5004.54
5335.4
5285.62
5236.73
5189.43
5529.79
5475.54
5421.3
5919.01
5860.38
5630.3
5739.46
5800.33
6106.4
6308.94
6247.71
6045.86
6464.2
7160.44
7393.21
6886.34
6633.25
6818.28
7093.54
8017.62
8350.92
7652.81
7943.59
9190.98
9599.2
9585.79
8719.66
9120.5
3907.81
3919.59
3931.58
3943.66
3955.86
3968.22
3980.77
3993.55
4006.57
4019.85
4033.41
4047.25
4061.38
4075.8
4090.52
4105.57
4120.96
4136.73
4152.88
4169.46
4186.48
4203.96
4221.92
4240.34
4259.22
4278.81
4301.74
4332.71
4367.89
4402.29
4436.8
4423.54
4464.65
4450.54
4494.12
4479.17
4526.36
4510.61
4559.68
4542.69
4595.66
4576.97
4635
4614.09
4681.58
4657.26
4741.42
4708.15
4828.99
4782.92
4969.58
4937.15
4905.97
4877.13
5143.83
5100.38
5058.96
5019.79
5367.85
5315.44
5264.11
5214.36
5572.68
5515.06
5457.74
5984.41
5921.51
5678.15
5792.45
5857.3
6183.87
6400.26
6333.65
6118.46
6565.85
7322.42
7577.38
7022.06
6746.66
6945.66
7246.32
8270.89
8634.58
7862.38
8182.14
9534.47
9933.63
9921.97
9032.69
9455.24
3913.46
3925.17
3937.08
3949.11
3961.27
3973.61
3986.15
3998.93
4011.98
4025.31
4038.91
4052.78
4066.93
4081.36
4096.07
4111.1
4126.45
4142.14
4158.19
4174.63
4191.48
4208.74
4226.4
4244.44
4262.94
4283.64
4311.29
4344.32
4377.52
4412.81
4400.51
4438.83
4425.66
4466.3
4452.38
4495.38
4480.63
4525.94
4510.35
4559.17
4542.18
4594.31
4575.57
4632.56
4611.77
4679.45
4654.76
4741.44
4705.35
4836.48
4784.7
4982.59
4947.42
4913.99
4882.72
5166.39
5120.35
5076.28
5034.27
5401.44
5346.3
5292.27
5239.71
5616.83
5555.81
5495.37
6052.12
5984.61
5727.22
5847.01
5916.07
6264.53
6495.57
6422.83
6193.81
6672.07
7495.78
7774.41
7165.2
6865.43
7079.32
7408.25
8539.45
8931.81
8085.94
8435.06
9873.34
10259
10251.8
9355.2
9791
3919.02
3930.64
3942.49
3954.46
3966.58
3978.89
3991.43
4004.23
4017.31
4030.67
4044.31
4058.21
4072.37
4086.79
4101.47
4116.43
4131.68
4147.25
4163.16
4179.42
4196.04
4213.01
4230.3
4247.94
4266.96
4291.47
4322.19
4354.12
4383.68
4414.33
4402.33
4439.65
4426.78
4466.65
4452.94
4495.31
4480.76
4524.47
4508.93
4557.73
4540.71
4592.09
4573.36
4628.94
4608.52
4675.49
4650.77
4739.37
4700.88
4854.3
4824.78
4771.34
4796.95
4994.33
4956.43
4920.52
4886.6
5188.79
5139.63
5092.4
5047.3
5436.05
5377.84
5320.64
5264.66
5662.19
5597.79
5533.95
6122.16
6049.75
5777.74
5903.34
5976.76
6348.02
6594.72
6515.18
6271.65
6782.61
7679.79
7983.1
7315.72
6989.51
7219.08
7578.92
8820.5
9239.61
8322.29
8699.73
10208.3
10577.3
10575.2
9682.57
10126.2
3924.48
3936.01
3947.79
3959.69
3971.76
3984.06
3996.6
4009.44
4022.56
4035.97
4049.64
4063.55
4077.7
4092.07
4106.67
4121.52
4136.65
4152.06
4167.79
4183.82
4200.15
4216.77
4233.66
4251.42
4273.23
4301.52
4332.03
4361.06
4391.34
4380.27
4414.68
4402.89
4439.34
4426.82
4465.74
4452.31
4494
4479.63
4522.23
4506.7
4555.49
4538.47
4589.05
4570.38
4624.61
4604.67
4670.25
4645.8
4747.81
4726.36
4695.78
4855.7
4824.74
4769.77
4796.1
5004.39
4963.69
4925.37
4889.37
5210.19
5157.44
5106.71
5058.33
5471.24
5409.43
5348.36
5288.41
5708.9
5640.71
5573.09
6194.41
6116.97
5829.73
5961.26
6039.36
6434.18
6697.42
6610.62
6351.96
6897.29
7873.55
8202.66
7473.62
7118.8
7364.94
7758.24
9111.91
9554.85
8570.14
8974.07
10539.3
10886.4
10889.1
10012.5
10460.2
3929.82
3941.27
3952.96
3964.79
3976.82
3989.11
4001.68
4014.56
4027.74
4041.2
4054.89
4068.79
4082.88
4097.17
4111.65
4126.37
4141.33
4156.55
4172.05
4187.81
4203.81
4220.04
4236.82
4256.41
4282.23
4311.22
4339.58
4364.66
4391.48
4380.81
4414.02
4402.57
4438
4425.83
4463.79
4450.63
4491.81
4477.51
4519.25
4503.72
4552.53
4535.5
4585.38
4566.72
4620.28
4600.58
4665.11
4640.95
4745.76
4723.92
4702.38
4684.37
4855.55
4823.64
4767.77
4794.44
5012.36
4968.91
4928.32
4890.51
5229.93
5173.24
5118.77
5066.97
5506.3
5440.23
5374.74
5310.35
5756.75
5684.27
5612.04
6269.19
6186.53
5883.11
6020.8
6103.83
6523.11
6803.61
6709.35
6435.08
7016.59
8076.74
8433
7639.14
7253.64
7517.48
7946.18
9412.05
9874.99
8827.56
9257.21
10864.2
11183.6
11189.1
10343.7
10791.6
3935.06
3946.39
3957.99
3969.75
3981.75
3994.04
4006.67
4019.62
4032.87
4046.36
4060.05
4073.9
4087.9
4102.06
4116.4
4130.94
4145.7
4160.7
4175.93
4191.37
4207.01
4223
4240.88
4264.22
4291.63
4319.18
4344.22
4370.07
4360.23
4390.66
4380.28
4412.44
4401.36
4435.86
4423.94
4461.17
4448.25
4488.88
4474.7
4515.49
4499.99
4548.83
4531.76
4581.25
4562.43
4616.75
4596.62
4669.52
4656.06
4637.32
4743.66
4721.93
4700.46
4683.01
4854
4821.52
4765.44
4792.11
5017.97
4971.9
4929.22
4889.93
5247.54
5186.71
5128.41
5073.18
5540.48
5469.55
5399.22
5330.12
5805.36
5727.7
5650.06
6346.77
6258.61
5937.53
6081.51
6170.35
6615.23
6914.16
6812.36
6521.29
7141.29
8289.98
8673.45
7812.43
7394.52
7676.99
8143.26
9719.08
10198.4
9093.6
9548.72
11177
11472.5
11478.1
10674.9
11115.9
3940.16
3951.36
3962.86
3974.56
3986.55
3998.88
4011.59
4024.63
4037.94
4051.45
4065.1
4078.86
4092.73
4106.73
4120.88
4135.21
4149.75
4164.49
4179.42
4194.52
4209.84
4226.44
4247.46
4273.19
4299.83
4324.64
4345.8
4369.32
4359.87
4389.12
4379.07
4410.27
4399.5
4433.15
4421.48
4457.99
4445.31
4485.25
4471.27
4510.86
4495.45
4544.37
4527.17
4576.8
4557.49
4620.2
4609.96
4592.77
4667.83
4654.13
4630.61
4642.02
4741.47
4719.93
4699.13
4682.16
4851.17
4818.43
4762.86
4789.15
5021.19
4972.69
4928.24
4887.77
5262.83
5197.85
5135.74
5077.1
5573.12
5496.91
5421.51
5347.64
5854.06
5770.18
5686.46
6427.29
6333.14
5992.06
6142.63
6238.43
6711.39
7029.73
6919.86
6611.22
7271.59
8513.47
8923.16
7994.42
7541.8
7844.94
8350.26
10031.3
10523.9
9368.5
9847.72
11476.5
11757.2
11761.4
11003.3
11429.9
3945.1
3956.17
3967.56
3979.21
3991.22
4003.64
4016.45
4029.59
4042.95
4056.45
4070.02
4083.64
4097.34
4111.14
4125.07
4139.18
4153.46
4167.91
4182.51
4197.28
4212.88
4231.89
4255.85
4281.46
4305.94
4327.27
4349.5
4340.65
4367.87
4358.62
4387.15
4377.36
4407.71
4397.25
4429.95
4418.6
4454.22
4441.82
4480.93
4467.22
4505.29
4490.08
4539.03
4521.6
4571.99
4551.7
4619.14
4607.93
4595.11
4584.33
4667.23
4653.85
4630.21
4641.68
4739.32
4718.2
4698.32
4681.89
4847.21
4814.6
4760.2
4785.8
5022.25
4971.54
4925.51
4884.12
5275.95
5206.91
5141.06
5079.09
5603.74
5522.06
5441.57
5363.06
5901.82
5811.03
5720.87
6510.86
6409.8
6045.77
6203.66
6307.55
6811.71
7150.39
7031.88
6704.36
7408.11
8747.18
9182.38
8186.33
7697
8022.8
8568.18
10347.8
10849.8
9652.98
10153.2
11763.1
12039.8
12042.8
11325.6
11731
3949.88
3960.79
3972.08
3983.7
3995.78
4008.34
4021.29
4034.53
4047.91
4061.35
4074.78
4088.22
4101.7
4115.26
4128.96
4142.81
4156.81
4170.96
4185.24
4200.05
4217.41
4239.54
4264.06
4288.07
4309.49
4327.15
4348.26
4339.68
4366.08
4357.07
4384.85
4375.33
4404.81
4394.66
4426.29
4415.33
4449.82
4437.77
4475.87
4462.5
4498.72
4483.82
4532.61
4514.94
4572.98
4562.65
4544.59
4618.3
4606.65
4593.32
4581.71
4667.21
4653.86
4629.96
4641.8
4737.34
4716.8
4698.09
4682.17
4842.37
4810.29
4757.63
4782.28
5021.53
4968.74
4921.27
4879.23
5287.15
5214.25
5144.9
5079.81
5632.17
5544.97
5459.52
5376.59
5947.9
5849.9
5753.23
6596.55
6487.41
6098.29
6263.41
6376.48
6915.53
7276.8
7148.55
6799.81
7551.71
8991.79
9452.58
8389.31
7861.38
8211.73
8798.75
10666.9
11173.7
9946.7
10463.9
12044.7
12323.2
12325.1
11639.8
12024.4
3954.45
3965.19
3976.38
3988.03
4000.26
4013.01
4026.14
4039.46
4052.82
4066.13
4079.37
4092.57
4105.79
4119.09
4132.52
4146.1
4159.81
4173.66
4187.85
4203.86
4224.23
4247.57
4271
4292.4
4310.43
4325.19
4346.64
4338.21
4364.03
4355.24
4382.26
4373.03
4401.56
4391.76
4422.22
4411.69
4444.8
4433.22
4469.99
4457.02
4490.96
4476.52
4524.78
4506.93
4570.1
4558.87
4533.01
4543.19
4617.38
4605.24
4590.97
4578.75
4667.66
4654.25
4629.63
4642
4735.67
4715.88
4698.41
4682.87
4836.93
4805.72
4755.36
4778.82
5019.65
4964.81
4915.9
4873.39
5296.69
5220.25
5147.76
5079.86
5658.45
5565.7
5475.45
5388.26
5992.1
5886.69
5783.39
6683.18
6564.57
6148.77
6320.32
6443.58
7022.39
7409.08
7269.37
6896.66
7703.19
9248.93
9734.46
8605.78
8036.66
8414.15
9043.29
10987.2
11493.6
10248.4
10778.1
12325.2
12609.3
12610.4
11946.5
12310.9
3958.77
3969.31
3980.44
3992.23
4004.71
4017.73
4031.03
4044.38
4057.65
4070.75
4083.72
4096.63
4109.56
4122.59
4135.75
4149.05
4162.49
4176.18
4191.14
4209.86
4231.95
4254.69
4275.96
4294.29
4309.3
4326.99
4336.62
4319.31
4344.82
4361.73
4353.18
4379.4
4370.46
4397.98
4388.56
4417.73
4407.69
4439.18
4428.2
4463.21
4450.81
4481.8
4468.07
4515.12
4497.3
4566.64
4554.8
4527.83
4538.62
4616.04
4603.38
4587.84
4575.1
4668.38
4654.79
4628.86
4641.83
4734.47
4715.52
4698.95
4683.56
4831.19
4801.12
4753.49
4775.63
5017.29
4960.55
4910.23
4867.18
5304.63
5225
5149.76
5079.45
5682.39
5584.09
5489.04
5397.78
6033.92
5920.86
5810.68
6769.57
6639.99
6196.06
6373.77
6507.79
7131.76
7547.83
7395.4
6994.2
7864.67
9518.99
10026.6
8837.15
8225.17
8631.45
9301.16
11307.5
11809.8
10556
11095.8
12607.6
12898.8
12900
12247.6
12593.8
3962.76
3973.1
3984.29
3996.37
4009.22
4022.52
4035.95
4049.27
4062.34
4075.16
4087.81
4100.39
4113.01
4125.76
4138.65
4151.69
4164.97
4179.14
4196.35
4217.17
4239.12
4260.14
4278.65
4293.98
4307.16
4334.86
4325.38
4317.83
4342.84
4359.22
4350.95
4376.27
4367.66
4394.09
4385.08
4412.87
4403.34
4433.04
4422.74
4455.53
4443.91
4471.13
4458.44
4511.14
4501.91
4485.81
4562.55
4550.33
4521.89
4533.15
4613.91
4600.76
4583.65
4570.5
4668.97
4655.1
4627.26
4640.82
4733.65
4715.52
4699.14
4683.7
4825.63
4796.66
4751.78
4772.65
5014.81
4956.47
4905.04
4861.39
5310.77
5228.32
5150.77
5078.57
5703.4
5599.49
5499.69
5404.55
6072.5
5951.62
5834.37
6854.67
6712.38
6239.71
6422.96
6567.93
7244.46
7695.35
7527.86
7092.51
8038.39
9800.22
10326.6
9081.65
8427.16
8860.9
9570.29
11628.6
12123.6
10869.6
11418.5
12895.6
13192.1
13195.3
12542.9
12880.4
3966.31
3976.53
3988
4000.55
4013.82
4027.37
4040.86
4054.04
4066.83
4079.29
4091.56
4103.79
4116.12
4128.6
4141.24
4154.12
4167.69
4183.63
4203.17
4224.27
4244.91
4263.5
4279.15
4292.52
4304.69
4333.03
4323.67
4316.29
4340.78
4356.59
4348.62
4372.94
4364.69
4389.91
4381.34
4407.64
4398.68
4426.41
4416.86
4447
4436.4
4459.11
4447.81
4504.99
4495.69
4472.3
4479.8
4557.59
4545.09
4515.49
4526.8
4610.65
4597.04
4578.12
4564.66
4668.89
4654.65
4624.47
4638.57
4732.86
4715.4
4698.4
4682.74
4820.78
4792.61
4749.81
4769.73
5012.36
4952.88
4900.66
4856.48
5314.42
5229.56
5150.19
5076.7
5720.62
5610.99
5506.4
5407.45
6107.62
5978.46
5853.72
6937.71
6780.56
6279.09
6464
6623.66
7360.42
7852.78
7666.57
7191.69
8223.93
10090.7
10634.1
9336.8
8639.22
9098.79
9849.16
11952.1
12436.5
11191.8
11749.1
13190.1
13492.3
13499.9
12840.4
13173.4
3969.28
3979.64
3991.65
4004.75
4018.39
4032.13
4045.59
4058.56
4071
4083.05
4094.92
4106.83
4118.88
4131.13
4143.61
4156.69
4171.6
4189.88
4210.12
4230.28
4248.83
4264.75
4278.27
4290.6
4301.97
4314.69
4331.11
4321.86
4338.62
4353.88
4346.21
4369.49
4361.63
4385.53
4377.45
4402.1
4393.75
4419.35
4410.62
4437.76
4428.36
4465.75
4452.19
4446.66
4436.5
4497.94
4488.53
4472.8
4551.53
4538.85
4508.27
4519.48
4605.86
4591.87
4571
4557.39
4667.61
4652.95
4620.11
4634.66
4731.55
4714.55
4696.06
4680.14
4816.63
4788.84
4747.12
4766.57
5009.61
4949.58
4897.03
4852.53
5314.36
5227.38
5146.71
5072.53
5733.25
5617.63
5508.09
5405.36
6138.79
5996.02
5861.87
7012.41
6838.94
6310.07
6525.97
6676.21
7479.11
8018.86
7805.6
7293.32
8417.41
10389.5
10951.8
9602.24
8857.34
9347.3
10136.1
12281.5
12755.7
11525.3
12090.7
13494.9
13807.6
13825.3
13148.3
13482.6
3971.51
3982.44
3995.15
4008.78
4022.75
4036.61
4049.99
4062.71
4074.77
4086.38
4097.88
4109.5
4121.34
4133.43
4146.05
4160.16
4177.26
4196.59
4216.22
4234.63
4250.73
4264.4
4276.82
4288.4
4303.14
4313.05
4311.4
4296.61
4329.09
4320.02
4336.37
4351.09
4343.71
4365.98
4358.51
4381.07
4373.5
4396.38
4388.69
4412
4404.14
4428.04
4419.96
4458.38
4445.3
4440.45
4424.96
4490.12
4481
4465.21
4544.18
4531.49
4500.17
4511.12
4599.21
4584.94
4562.15
4548.56
4664.65
4649.51
4613.78
4628.69
4729.21
4712.36
4691.57
4675.36
4812.68
4784.64
4742.97
4762.32
5005.21
4945.3
4893.15
4848.83
5309.33
5220.18
5138.26
5063.8
5736.75
5616.95
5503.9
5398.47
6168.01
6036.21
5848.87
7106.62
6849.22
6309.05
6503.67
6694.36
7595.56
8190.59
7961.61
7410.35
8617.03
10698.9
11283.1
9876.09
9075.96
9614.18
10433.6
12623.7
13092.9
11873.4
12449.8
13828.3
14154.5
14220.6
13484.6
13842.5
3973.03
3984.93
3998.43
4012.57
4026.79
4040.7
4053.96
4066.38
4078.03
4089.24
4100.44
4111.85
4123.55
4135.75
4149.2
4165.26
4183.66
4202.69
4220.87
4237.08
4250.88
4263.35
4275.07
4286.03
4309.73
4301.6
4318.17
4295.16
4327.03
4334.07
4348.22
4341.14
4362.43
4355.32
4376.6
4369.52
4390.66
4383.65
4404.56
4397.63
4418.12
4411.4
4450.86
4438.23
4433.82
4427.38
4417.92
4414.87
4481.61
4472.95
4457.21
4535.45
4522.93
4491.2
4501.73
4590.51
4576.14
4551.58
4538.2
4659.52
4643.96
4605.25
4620.36
4725.12
4708.14
4684.29
4667.83
4807.23
4778.63
4736.39
4755.92
4996.91
4937.95
4887.01
4843.39
5300.11
5209.21
5126.34
5051.86
5727.17
5609.31
5496.85
5391.38
6176.15
6015.52
5843.91
7080.37
6843.61
6303.75
6497.3
6689.66
7643.12
8376.34
7940.28
7390.92
8825.74
11023.5
11632.2
10159.6
9173.21
9889.27
9481.96
10748.7
12991
13468.8
12241.1
12836.3
14265.9
14697.2
14883.7
13890.3
14340.8
3974.21
3987.33
4001.58
4016.11
4030.48
4044.35
4057.42
4069.52
4080.78
4091.65
4102.65
4113.95
4125.74
4138.63
4153.77
4171.27
4189.66
4207.55
4223.78
4237.72
4250.18
4261.98
4273.17
4283.69
4316.33
4308.04
4300.07
4324.97
4293.77
4331.77
4345.36
4338.57
4358.87
4352.13
4372.15
4365.54
4385.04
4378.66
4397.28
4391.25
4408.43
4403.03
4443.23
4431.16
4420.89
4412.09
4409.68
4472.49
4464.41
4448.97
4525.37
4513.18
4481.5
4491.49
4579.65
4565.41
4539.42
4526.48
4651.7
4635.86
4594.31
4609.36
4718.36
4701.1
4673.48
4656.96
4797.6
4768.91
4726.14
4745.98
4985.81
4927.3
4876.12
4833.42
5292.65
5201.5
5118.74
5044.7
5722.43
5604.73
5492.41
5387.07
6171.82
6009.69
5839.51
7074.28
6838.38
6298.95
6491.95
6684.96
7638.57
8360.84
7933.56
7384.33
8809.77
11376.1
12001.9
10463.3
9168.16
9889.2
9470.88
11084.9
13400
13914.4
12634.6
13264.1
14992.2
17217.8
16259
14430.9
15084.1
3975.56
3989.82
4004.66
4019.44
4033.83
4047.56
4060.38
4072.13
4083.02
4093.68
4104.59
4116
4128.39
4142.74
4159.37
4177.1
4194.63
4210.82
4224.9
4237.33
4249.14
4260.44
4271.19
4281.35
4292.41
4322.92
4314.47
4306.37
4298.6
4329.5
4342.56
4336.05
4355.37
4349
4367.79
4361.64
4379.57
4373.79
4390.32
4385.1
4399.43
4395.13
4435.55
4424.18
4414.58
4406.62
4404.69
4462.91
4455.51
4440.61
4514.11
4502.41
4471.26
4480.6
4566.68
4552.83
4525.88
4513.62
4640.74
4624.84
4580.94
4595.61
4707.9
4690.44
4658.53
4642.25
4783.47
4754.85
4710.81
4731.08
4979.13
4900.73
4857.6
4817.91
5288.47
5197.48
5114.86
5040.99
5718.22
5600.67