/*--------------------------------*- C++ -*----------------------------------*\
  =========                 |
  \\      /  F ield         | OpenFOAM: The Open Source CFD Toolbox
   \\    /   O peration     | Website:  https://openfoam.org
    \\  /    A nd           | Version:  dev
     \\/     M anipulation  |
\*---------------------------------------------------------------------------*/
FoamFile
{
    version     2.0;
    format      ascii;
    class       volScalarField;
    location    "2500";
    object      H2O;
}
// * * * * * * * * * * * * * * * * * * * * * * * * * * * * * * * * * * * * * //

dimensions      [0 0 0 0 0 0 0];

internalField   nonuniform List<scalar> 
9836
(
1.61623e-32
6.94089e-32
3.11508e-32
1.31802e-31
1.53531e-31
2.16248e-32
2.90031e-31
5.67606e-31
2.35823e-31
1.40143e-32
7.7652e-31
2.09332e-30
1.29994e-30
2.04483e-31
1.66806e-32
3.19239e-30
4.16272e-30
3.44169e-30
1.39758e-30
1.20214e-31
8.59708e-33
8.35152e-30
1.00869e-29
8.47118e-30
4.09563e-30
1.04137e-30
6.02795e-32
3.52648e-33
2.12846e-29
2.9171e-29
2.32125e-29
1.06664e-29
3.64649e-30
3.60811e-31
3.30028e-32
1.80002e-33
3.65399e-29
9.16579e-29
6.32302e-29
2.47377e-29
9.93923e-30
2.02152e-30
2.13778e-31
2.15607e-32
9.16579e-34
3.62485e-29
2.00789e-28
1.89527e-28
8.84291e-29
2.43466e-29
5.8545e-30
1.37582e-30
1.48202e-31
9.46335e-33
2.14943e-34
1.35242e-28
4.78755e-28
4.75445e-28
2.37315e-28
8.41313e-29
2.28914e-29
4.89251e-30
8.00095e-31
6.11505e-32
1.65819e-33
6.36086e-35
1.17707e-28
8.10413e-28
1.08918e-27
5.68299e-28
2.61312e-28
7.24389e-29
1.74173e-29
2.62348e-30
2.92067e-31
1.52783e-32
6.16073e-34
1.46481e-35
4.67109e-28
1.57894e-27
1.90659e-27
1.78622e-27
7.20544e-28
2.11965e-28
5.56e-29
9.87704e-30
1.05286e-30
1.4392e-31
4.321e-33
1.36994e-34
3.20757e-36
6.1955e-28
2.63777e-27
3.42755e-27
3.88673e-27
2.04574e-27
7.24257e-28
1.40434e-28
2.80022e-29
5.31455e-30
6.13624e-31
5.5157e-32
2.14489e-33
3.9014e-35
5.67556e-37
2.6545e-27
7.17414e-27
9.43846e-27
7.59044e-27
4.98727e-27
2.00504e-27
5.90821e-28
1.04067e-28
1.62513e-29
2.68601e-30
2.19325e-31
1.6542e-32
6.56647e-34
1.1994e-35
1.34957e-37
2.08116e-27
1.40453e-26
1.66859e-26
1.86435e-26
1.07231e-26
5.36677e-27
1.38502e-27
3.28577e-28
6.81943e-29
8.63893e-30
1.01874e-30
8.86177e-32
4.47845e-33
1.90538e-34
4.90003e-36
4.45191e-37
1.98456e-27
2.44538e-26
2.90301e-26
3.90918e-26
2.66549e-26
1.34369e-26
4.38399e-27
1.15085e-27
2.02367e-28
3.18158e-29
4.19556e-30
3.10044e-31
2.28229e-32
1.26302e-33
5.04187e-35
1.22948e-35
8.73445e-36
3.63919e-27
3.35137e-26
5.66659e-26
9.81339e-26
6.86182e-26
3.59638e-26
1.20015e-26
3.26015e-27
8.32121e-28
1.21383e-28
1.83566e-29
1.30074e-30
1.23852e-31
7.65575e-33
3.92855e-34
8.9593e-35
1.09581e-34
1.59042e-34
1.79765e-26
6.16774e-26
7.95178e-26
1.66562e-25
1.60753e-25
8.71811e-26
3.80428e-26
9.82189e-27
2.40331e-27
3.21322e-28
6.5849e-29
8.58149e-30
4.38261e-31
4.35306e-32
2.00742e-33
5.51375e-34
1.32034e-33
2.04633e-33
1.93133e-33
3.71641e-26
1.02528e-25
1.57821e-25
3.14538e-25
3.10284e-25
2.03528e-25
9.1896e-26
3.47542e-26
7.25466e-27
1.21196e-27
2.20725e-28
3.15429e-29
2.79969e-30
1.98817e-31
1.65298e-32
4.17256e-33
7.87156e-33
1.78706e-32
3.10514e-32
2.14009e-32
4.01958e-26
2.05557e-25
3.48757e-25
4.58459e-25
5.69477e-25
3.81732e-25
2.22072e-25
8.44291e-26
2.11495e-26
5.24806e-27
6.3977e-28
8.26924e-29
1.45341e-29
1.25285e-30
7.86357e-32
1.98245e-32
5.51022e-32
1.6476e-31
2.82251e-31
5.6844e-31
7.20526e-31
7.40383e-26
3.19333e-25
5.78512e-25
7.95515e-25
1.03069e-24
9.62535e-25
5.04689e-25
2.13945e-25
5.54027e-26
1.18472e-26
3.29252e-27
2.3449e-28
5.05624e-29
6.77305e-30
5.01086e-31
9.60908e-32
2.91276e-31
1.09318e-30
3.80989e-30
7.68973e-30
2.3253e-29
3.34595e-29
5.49933e-26
4.81063e-25
9.94948e-25
1.47252e-24
1.68547e-24
1.81542e-24
1.25178e-24
4.72636e-25
1.95737e-25
4.19055e-26
7.98317e-27
1.19211e-27
1.20035e-28
2.31864e-29
2.69279e-30
4.10856e-31
1.32662e-30
6.53083e-30
2.89202e-29
1.24864e-28
3.4929e-28
8.27177e-28
9.63268e-28
2.96759e-26
4.11607e-25
1.74937e-24
3.05689e-24
3.51137e-24
3.48287e-24
2.75509e-24
1.13879e-24
4.60197e-25
1.39488e-25
3.00753e-26
4.81422e-27
7.21182e-28
8.29929e-29
1.0814e-29
1.80467e-30
5.12153e-30
3.67751e-29
2.2563e-28
1.31935e-27
5.92331e-27
1.66581e-26
3.34495e-26
2.40134e-26
1.15943e-26
1.89269e-25
1.99703e-24
4.87177e-24
5.469e-24
6.55549e-24
5.43767e-24
3.00748e-24
1.15123e-24
3.48634e-25
9.10365e-26
1.69378e-26
2.06191e-27
3.97077e-28
5.15345e-29
7.60057e-30
1.69172e-29
1.60804e-28
1.46927e-27
1.20405e-26
8.44838e-26
3.66831e-25
7.40129e-25
1.26505e-24
7.63993e-25
6.53347e-26
2.44347e-25
1.48392e-24
6.00709e-24
7.74958e-24
1.25976e-23
1.08141e-23
6.46e-24
2.58455e-24
1.02279e-24
2.0556e-25
6.24117e-26
8.68175e-27
9.91967e-28
2.07468e-28
3.31139e-29
6.07467e-29
7.91985e-28
9.62707e-27
8.92065e-26
8.67439e-25
5.99717e-24
1.84528e-23
3.27279e-23
3.84916e-23
1.58367e-23
5.35612e-26
4.07084e-25
1.66485e-24
5.97221e-24
1.34624e-23
1.69634e-23
1.72383e-23
1.33158e-23
5.43621e-24
2.3376e-24
7.09705e-25
1.42772e-25
3.83198e-26
4.86724e-27
5.83498e-28
1.20741e-28
2.09793e-28
2.90935e-27
5.64598e-26
7.13021e-25
7.73387e-24
6.99569e-23
3.53446e-22
6.62017e-22
1.16332e-21
9.75547e-22
4.62626e-22
1.12395e-25
5.52171e-25
1.92626e-24
4.11517e-24
1.71953e-23
2.09108e-23
3.26008e-23
2.6508e-23
1.4194e-23
5.29672e-24
1.76622e-24
4.38355e-25
1.00798e-25
1.51011e-26
2.39399e-27
3.77513e-28
7.5224e-28
9.01445e-27
1.86621e-25
5.00998e-24
6.20346e-23
6.47231e-22
5.47546e-21
1.58961e-20
2.46391e-20
3.11112e-20
1.9914e-20
8.10898e-21
5.74251e-26
7.60847e-25
2.84749e-24
5.98774e-24
1.36538e-23
2.73403e-23
4.50244e-23
4.62597e-23
2.95348e-23
1.18219e-23
4.57433e-24
1.08795e-24
2.34417e-25
4.26912e-26
8.42259e-27
1.60786e-27
2.33006e-27
3.58058e-26
6.4667e-25
1.65672e-23
4.65488e-22
5.55241e-21
4.56092e-20
2.56209e-19
5.38781e-19
7.53151e-19
8.19814e-19
3.98426e-19
1.03958e-19
1.16933e-25
9.41035e-25
2.91154e-24
9.69806e-24
1.73544e-23
2.97586e-23
6.46084e-23
8.60886e-23
4.75936e-23
2.87405e-23
1.03399e-23
3.24649e-24
7.83777e-25
1.4667e-25
2.04815e-26
4.67664e-27
6.17038e-27
7.86081e-26
3.09036e-24
5.73726e-23
1.67595e-21
4.24884e-20
5.20261e-19
2.52594e-18
9.78355e-18
1.4558e-17
1.59229e-17
1.49807e-17
6.29979e-18
1.85885e-18
3.48843e-25
6.54679e-25
3.8606e-24
1.01094e-23
2.4795e-23
4.12643e-23
6.08444e-23
1.22359e-22
1.08523e-22
5.16483e-23
2.32248e-23
8.34135e-24
1.82605e-24
5.33229e-25
6.31463e-26
1.39918e-26
1.3566e-26
1.65253e-25
5.48191e-24
3.16607e-22
6.10982e-21
1.54907e-19
3.96611e-18
2.75526e-17
9.29841e-17
2.53474e-16
3.83061e-16
3.63917e-16
2.02338e-16
7.98227e-17
1.67728e-17
1.70118e-24
2.02781e-24
4.05436e-24
1.26571e-23
2.81504e-23
5.99496e-23
9.61207e-23
1.38812e-22
1.69197e-22
1.11212e-22
4.7207e-23
1.86366e-23
5.6513e-24
1.02216e-24
3.21847e-25
4.41164e-26
3.54487e-26
3.08623e-25
7.84784e-24
5.19468e-22
3.50094e-20
5.90778e-19
1.56467e-17
2.38609e-16
9.06239e-16
3.3712e-15
7.34069e-15
8.91301e-15
6.29236e-15
2.94912e-15
7.84679e-16
7.13323e-17
1.64775e-24
1.25908e-23
1.63682e-23
2.33701e-23
4.88869e-23
8.18225e-23
1.42699e-22
1.52289e-22
2.61413e-22
1.96494e-22
8.6456e-23
3.94271e-23
1.1765e-23
3.28575e-24
7.57748e-25
1.46049e-25
7.55014e-26
5.91812e-25
1.15678e-23
5.62501e-22
5.01355e-20
3.82502e-18
5.46969e-17
1.11742e-15
8.26761e-15
3.76629e-14
1.20117e-13
2.0733e-13
2.00162e-13
1.13198e-13
3.96e-14
5.47265e-15
3.9251e-16
9.5075e-24
4.20946e-23
3.76033e-23
3.6273e-23
5.53088e-23
1.27313e-22
1.90451e-22
2.12842e-22
2.92468e-22
3.2512e-22
1.87313e-22
7.78109e-23
2.70069e-23
6.49911e-24
1.98106e-24
4.20277e-25
1.75852e-25
9.67892e-25
1.69389e-23
5.37738e-22
4.92523e-20
4.85546e-18
4.07706e-16
4.06432e-15
5.80904e-14
2.96851e-13
1.33746e-12
3.47134e-12
4.90318e-12
3.80069e-12
1.71685e-12
3.52645e-13
3.03113e-14
1.74415e-16
4.65952e-15
1.14573e-22
2.03658e-22
1.06127e-22
1.35833e-22
1.52416e-22
1.67962e-22
2.66537e-22
3.68771e-22
4.27488e-22
4.94385e-22
3.44493e-22
1.74037e-22
6.31015e-23
2.14163e-23
4.21495e-24
1.27475e-24
4.13735e-25
1.98903e-24
2.65161e-23
5.22199e-22
3.8855e-20
4.37087e-18
4.57184e-16
4.06586e-14
2.34356e-13
1.72856e-12
1.02621e-11
3.80859e-11
8.27482e-11
9.85331e-11
6.32069e-11
2.37349e-11
1.61128e-12
8.44659e-14
1.49295e-12
1.3785e-15
3.91132e-14
2.93079e-22
9.45497e-22
7.05304e-22
3.59878e-22
3.48528e-22
3.51496e-22
4.15033e-22
5.41534e-22
6.93879e-22
6.60025e-22
5.77222e-22
3.24935e-22
1.41441e-22
4.068e-23
1.0108e-23
2.54482e-24
7.64037e-25
4.12406e-24
4.73304e-23
6.24179e-22
2.90976e-20
3.08454e-18
3.80303e-16
4.1682e-14
2.56288e-12
6.64657e-12
5.08878e-11
2.87366e-10
8.97821e-10
1.68608e-09
1.75995e-09
9.41954e-10
6.40991e-11
4.64231e-10
1.95335e-11
3.29216e-10
2.58102e-10
7.57049e-13
1.24121e-11
1.13466e-14
3.22698e-13
1.26574e-21
4.99816e-21
2.55432e-21
2.17726e-21
1.26066e-21
6.74752e-22
6.75913e-22
7.56658e-22
9.84913e-22
9.67915e-22
9.03338e-22
5.81076e-22
2.78178e-22
1.03179e-22
2.33157e-23
6.5723e-24
1.93786e-24
6.16087e-24
7.60644e-23
9.70615e-22
2.32873e-20
1.98126e-18
2.39586e-16
3.09523e-14
2.48105e-12
8.40522e-11
1.96309e-10
1.39133e-09
6.6255e-09
1.79471e-08
2.9551e-08
2.76607e-08
2.66994e-09
1.80018e-08
2.71947e-09
1.74562e-10
2.61137e-09
2.07782e-09
6.16938e-12
9.95461e-11
9.2848e-14
2.58952e-12
1.02024e-20
2.0494e-20
1.64187e-20
1.62796e-20
5.94246e-21
2.518e-21
1.54474e-21
1.30708e-21
1.39047e-21
1.34053e-21
1.26202e-21
9.56485e-22
4.90874e-22
2.09908e-22
6.29915e-23
1.43714e-23
4.55639e-24
1.24602e-23
1.36915e-22
1.61275e-21
2.54952e-20
1.24953e-18
1.45029e-16
1.812e-14
2.14215e-12
8.89246e-11
2.05973e-09
4.88769e-09
3.07658e-08
1.26215e-07
2.99751e-07
4.3791e-07
9.56342e-08
4.73914e-07
2.17192e-08
1.39904e-07
2.31595e-08
1.36835e-09
2.09166e-08
1.57857e-08
4.84609e-11
7.59329e-10
7.42319e-13
1.99936e-11
8.90985e-20
2.08644e-19
1.22076e-19
1.03403e-19
3.61928e-20
1.22523e-20
4.42125e-21
2.28872e-21
2.40689e-21
2.31652e-21
1.78224e-21
1.43378e-21
9.14306e-22
4.11173e-22
1.42149e-22
3.55297e-23
8.6599e-24
1.87778e-23
2.37743e-22
2.84861e-21
3.25852e-20
8.22417e-19
7.2564e-17
9.76209e-15
1.33552e-12
7.9346e-11
1.70002e-09
3.17713e-08
9.99595e-08
5.4532e-07
1.93885e-06
4.05864e-06
1.87089e-06
6.38996e-06
7.40777e-07
3.22889e-06
1.67165e-07
9.97515e-07
1.73002e-07
1.01086e-08
1.51079e-07
1.11734e-07
3.61918e-10
5.45731e-09
5.68735e-12
1.46702e-10
4.30678e-19
2.22182e-18
1.05327e-18
6.89325e-19
2.3677e-19
7.04722e-20
1.85473e-20
6.90958e-21
4.17163e-21
3.59507e-21
3.04217e-21
2.08576e-21
1.44726e-21
8.02498e-22
2.41422e-22
9.56745e-23
2.4254e-23
2.64477e-23
3.18558e-22
4.77283e-21
5.57794e-20
8.38369e-19
4.05003e-17
4.86563e-15
6.44674e-13
6.08804e-11
2.17147e-09
3.24541e-08
3.39656e-07
1.63193e-06
7.43651e-06
2.25344e-05
1.80572e-05
4.59822e-05
1.14479e-05
3.37441e-05
4.75055e-06
1.78757e-05
1.15698e-06
6.09851e-06
1.16406e-06
6.95803e-08
9.97341e-07
7.25374e-07
2.54808e-09
3.67728e-08
4.16283e-11
1.01871e-09
3.35332e-18
7.07873e-18
8.08225e-18
4.30074e-18
1.39174e-18
3.78039e-19
1.09785e-19
3.02926e-20
9.48666e-21
6.11232e-21
4.78547e-21
3.48808e-21
2.22542e-21
1.3105e-21
5.54016e-22
1.70562e-22
6.57223e-23
4.01614e-23
3.88249e-22
6.43436e-21
8.93377e-20
1.05505e-18
2.55057e-17
2.18217e-15
3.11019e-13
3.75396e-11
1.6263e-09
3.7255e-08
4.91843e-07
4.55127e-06
1.98072e-05
7.29452e-05
9.7278e-05
0.000190748
8.54546e-05
0.000187946
5.48181e-05
0.000141788
2.4741e-05
8.00583e-05
6.82611e-06
3.03139e-05
6.69615e-06
4.43411e-07
5.66453e-06
4.12365e-06
1.6787e-08
2.29342e-07
2.87153e-10
6.60043e-09
4.00437e-17
5.917e-17
2.68537e-17
1.78424e-17
8.5482e-18
2.38838e-18
6.46662e-19
1.53868e-19
3.40836e-20
1.34948e-20
8.47849e-21
5.89032e-21
3.4274e-21
1.9345e-21
1.06092e-21
3.24042e-22
1.31106e-22
9.21633e-23
5.31362e-22
7.30936e-21
1.27483e-19
1.44385e-18
2.1939e-17
1.05629e-15
1.31675e-13
1.82577e-11
1.54656e-09
3.94427e-08
7.04717e-07
6.31015e-06
4.56452e-05
0.000164222
0.000294171
0.000435168
0.000341312
0.000526085
0.000308226
0.000534919
0.00021226
0.000450931
0.000105192
0.000287003
3.2851e-05
0.000123505
3.15176e-05
2.52906e-06
2.65229e-05
1.94338e-05
1.02075e-07
1.29388e-06
1.85917e-09
3.96019e-08
1.42493e-16
2.59841e-16
1.40311e-16
1.03805e-16
4.29489e-17
1.36117e-17
3.78002e-18
9.24858e-19
1.58038e-19
4.12148e-20
1.69891e-20
9.1324e-21
6.23882e-21
3.47403e-21
1.74934e-21
7.41287e-22
2.88837e-22
1.56163e-22
7.24425e-22
8.02645e-21
1.53294e-19
2.31954e-18
2.56229e-17
5.62505e-16
5.2112e-14
7.24855e-12
9.37157e-10
3.42651e-08
7.9487e-07
9.36205e-06
5.95152e-05
0.000285776
0.000552667
0.000687822
0.000713393
0.000891249
0.00077505
0.00100686
0.000740975
0.00102561
0.000597756
0.000933145
0.000351571
0.000724152
0.000129926
0.000390831
0.000122604
1.20509e-05
0.000102985
7.58695e-05
5.62028e-07
6.19347e-06
1.11518e-08
2.13113e-07
7.443e-16
1.52909e-15
7.7963e-16
4.93191e-16
2.33669e-16
9.3678e-17
2.75135e-17
5.71749e-18
1.16749e-18
1.5285e-19
4.10236e-20
1.94857e-20
1.01666e-20
5.80755e-21
3.07132e-21
1.38617e-21
7.82802e-22
4.77081e-22
1.09537e-21
1.31605e-20
1.61834e-19
2.74571e-18
3.94214e-17
5.04602e-16
2.23301e-14
2.6585e-12
3.73546e-10
3.0687e-08
7.35052e-07
1.08216e-05
8.28582e-05
0.000355988
0.000788928
0.000889921
0.00103516
0.00113977
0.00118006
0.00127768
0.00124557
0.00135728
0.00122856
0.00139661
0.0010947
0.00137379
0.000815891
0.00121017
0.000398134
0.000864621
0.000371516
4.80263e-05
0.000317189
0.000241408
2.7069e-06
2.5418e-05
5.97588e-08
9.91816e-07
3.53127e-15
7.41459e-15
4.81837e-15
2.46018e-15
1.42184e-15
5.67029e-16
1.55254e-16
3.6543e-17
7.07671e-18
1.20094e-18
1.81858e-19
4.34558e-20
1.88551e-20
1.00206e-20
5.18742e-21
3.4533e-21
1.9435e-21
2.29642e-21
2.24311e-21
1.55364e-20
2.08419e-19
3.16457e-18
5.37445e-17
6.81132e-16
1.29319e-14
1.01278e-12
1.23786e-10
1.64074e-08
5.73022e-07
1.02384e-05
9.37332e-05
0.000455604
0.000962477
0.000988219
0.00120023
0.00123574
0.00132267
0.00133883
0.00140135
0.00140081
0.0014618
0.0014604
0.00149696
0.00152418
0.00147003
0.00157034
0.00128293
0.00153887
0.00086837
0.00131412
0.000822343
0.000158409
0.000724136
0.000579159
1.09082e-05
8.64784e-05
2.6044e-07
3.86444e-06
2.87555e-14
5.42787e-14
3.47233e-14
1.60588e-14
6.52261e-15
2.72737e-15
9.03226e-16
2.11793e-16
4.60129e-17
6.8273e-18
1.1078e-18
1.3881e-19
3.69474e-20
1.76979e-20
1.33964e-20
8.29439e-21
8.60958e-21
1.07112e-20
1.14435e-20
2.32747e-20
2.54946e-19
3.51796e-18
5.67399e-17
9.03124e-16
1.20562e-14
4.61749e-13
4.3146e-11
5.12645e-09
3.42058e-07
8.78899e-06
8.9396e-05
0.000485722
0.0011699
0.00124958
0.00128195
0.00133479
0.0013292
0.00138908
0.00136228
0.00144021
0.00139223
0.00150523
0.00144832
0.00157127
0.00153217
0.00162743
0.00161717
0.0015866
0.00167885
0.00130866
0.00161525
0.00126557
0.000405702
0.00117776
0.00103266
3.80631e-05
0.000242466
8.92371e-07
1.29138e-05
2.22658e-13
4.19035e-13
2.62073e-13
1.1622e-13
4.38748e-14
1.61343e-14
4.90832e-15
1.21739e-15
2.57009e-16
4.59701e-17
6.72297e-18
9.30482e-19
1.29014e-19
3.87068e-20
2.46205e-20
3.83915e-20
4.28186e-20
3.86462e-20
5.66286e-20
6.73644e-20
3.48107e-19
3.52582e-18
6.03053e-17
9.96337e-16
1.56133e-14
3.26459e-13
1.75268e-11
1.62674e-09
1.45577e-07
6.12422e-06
8.15005e-05
0.000472277
0.00116713
0.00129671
0.0012837
0.0013182
0.0013109
0.00132613
0.00128439
0.00131285
0.00122432
0.00133615
0.00119878
0.00142756
0.00126055
0.00155624
0.0014097
0.00166459
0.00158553
0.00172578
0.00171793
0.00162059
0.00177193
0.00159531
0.000808033
0.00152732
0.00140535
0.000112945
0.000529605
2.41299e-06
3.78185e-05
1.50868e-12
2.96326e-12
1.92908e-12
8.32181e-13
2.99115e-13
1.02066e-13
3.44597e-14
7.98273e-15
1.47495e-15
2.36326e-16
3.9313e-17
5.36684e-18
6.36742e-19
1.1675e-19
7.25175e-20
1.06329e-19
2.41151e-19
2.13317e-19
2.56229e-19
2.43546e-19
7.90049e-19
4.06092e-18
6.06099e-17
1.07064e-15
1.87442e-14
3.44493e-13
1.00174e-11
6.1864e-10
4.97348e-08
2.93008e-06
6.53014e-05
0.000440839
0.00115384
0.00127632
0.00127297
0.00119314
0.00118254
0.00124513
0.00121406
0.00113899
0.00106468
0.00105835
0.000931151
0.00107405
0.000890556
0.00120894
0.000996994
0.00142405
0.00123914
0.00164389
0.00150261
0.0017845
0.00172907
0.00180278
0.00185534
0.00180939
0.00121292
0.00178044
0.00169712
0.000277785
0.000920136
5.66982e-06
9.58002e-05
6.28767e-12
1.71695e-11
1.28299e-11
5.93637e-12
2.11914e-12
7.19732e-13
1.85161e-13
5.03189e-14
8.15626e-15
1.51671e-15
2.1293e-16
2.91866e-17
3.87308e-18
5.62215e-19
2.93154e-19
4.69851e-19
6.34342e-19
1.23481e-18
1.12876e-18
1.09606e-18
1.54201e-18
5.78688e-18
5.42836e-17
1.00506e-15
1.87041e-14
3.87921e-13
8.47961e-12
3.16048e-10
1.91039e-08
1.22288e-06
3.87931e-05
0.000374336
0.00112114
0.00127303
0.00127229
0.00118201
0.0011866
0.000956639
0.000956463
0.00100893
0.000973475
0.000828047
0.000752455
0.000725899
0.000594492
0.000784849
0.00058728
0.00105011
0.000848141
0.00135112
0.00118907
0.00161829
0.0014983
0.00182881
0.00176007
0.00192091
0.00194008
0.0019681
0.00153829
0.00198039
0.00193924
0.000554164
0.0012893
1.19782e-05
0.000210429
1.26798e-11
5.41685e-11
6.80833e-11
3.77925e-11
1.32578e-11
4.20008e-12
9.68761e-13
2.59091e-13
5.42769e-14
7.78101e-15
1.24283e-15
1.54805e-16
1.66172e-17
2.60136e-18
1.53904e-18
1.88266e-18
3.51589e-18
4.30653e-18
5.35053e-18
5.54942e-18
4.87549e-18
1.26545e-17
5.27958e-17
8.0766e-16
1.76701e-14
3.84179e-13
8.16375e-12
2.21076e-10
9.35703e-09
4.85224e-07
1.8514e-05
0.000275377
0.00105485
0.00127541
0.00119852
0.00121086
0.000964699
0.000984587
0.00068644
0.000697879
0.00070615
0.000685798
0.000503326
0.000449445
0.000418567
0.00030082
0.000624969
0.000392342
0.00101628
0.000816823
0.00138897
0.00128515
0.00170251
0.00168827
0.00193528
0.00196417
0.00205281
0.00212375
0.00214658
0.00182436
0.00220224
0.00219846
0.000910035
0.00161772
2.51373e-05
0.000414583
7.55481e-11
1.97438e-10
1.9224e-10
7.82139e-11
2.36359e-11
5.57869e-12
1.42961e-12
2.77039e-13
5.17457e-14
7.0087e-15
7.64992e-16
9.50227e-17
1.0029e-17
4.96123e-18
8.36425e-18
1.12971e-17
1.60088e-17
2.0386e-17
2.32433e-17
2.32663e-17
3.67348e-17
6.26504e-17
5.82848e-16
1.48122e-14
3.6111e-13
7.78741e-12
1.80676e-10
5.76289e-09
2.43732e-07
8.30699e-06
0.000176476
0.000931014
0.00130929
0.00108742
0.0011318
0.00101463
0.00105171
0.000724104
0.000762032
0.000443629
0.000473566
0.000427339
0.000429278
0.000236461
0.000211377
0.000213912
0.000126098
0.000578633
0.000311185
0.00115191
0.000935125
0.00170236
0.00168291
0.00205975
0.00220461
0.0022521
0.00247218
0.00230332
0.00253862
0.00244923
0.00212083
0.0025417
0.00256051
0.00129492
0.00196665
0.000149802
0.000915545
2.54096e-10
5.54898e-10
3.78534e-10
1.23321e-10
2.93683e-11
6.47044e-12
1.51636e-12
2.66361e-13
3.6657e-14
5.30318e-15
4.17045e-16
6.20794e-17
1.57562e-17
3.5004e-17
5.02237e-17
7.45963e-17
1.04314e-16
8.63949e-17
7.78938e-17
1.06922e-16
1.41379e-16
6.09777e-16
1.05031e-14
3.03942e-13
7.07463e-12
1.56039e-10
4.02979e-09
1.41512e-07
4.67713e-06
0.000104091
0.000766718
0.00131769
0.00117269
0.00122926
0.00091615
0.000975899
0.00080766
0.000859946
0.000514486
0.000563557
0.000260317
0.000299451
0.000213233
0.000230427
9.28855e-05
8.34743e-05
0.000132151
6.62017e-05
0.000623939
0.000292566
0.00154886
0.00121769
0.00230441
0.00218905
0.00272697
0.00287751
0.00287441
0.00323475
0.00279314
0.00324166
0.00298163
0.00250937
0.00309661
0.00314897
0.00282034
0.00176858
0.00241093
0.000676523
0.00165055
7.60481e-10
1.29599e-09
5.48065e-10
1.37145e-10
2.95717e-11
6.16816e-12
1.36066e-12
1.94818e-13
2.0224e-14
2.34585e-15
2.37772e-16
9.01048e-17
1.296e-16
2.38433e-16
2.46708e-16
3.34211e-16
4.17687e-16
4.50439e-16
3.30052e-16
3.52875e-16
9.07711e-16
8.03623e-15
2.17283e-13
5.87228e-12
1.33011e-10
3.09719e-09
8.52336e-08
2.9051e-06
5.95999e-05
0.000578947
0.00130831
0.00124314
0.00103756
0.00108816
0.000747685
0.000817455
0.000619486
0.000681363
0.000346121
0.000399745
0.000127833
0.000166218
8.56678e-05
9.93826e-05
4.70399e-05
4.09241e-05
0.000114257
5.70811e-05
0.000736949
0.00030824
0.00182461
0.0013127
0.00271263
0.00234094
0.00333193
0.00313303
0.00364027
0.00369937
0.00354591
0.00390886
0.00372168
0.00339747
0.00372853
0.00314057
0.0027608
0.00311764
0.00348941
0.00387035
0.00380872
0.00350781
0.00229916
0.00307886
0.00302563
0.00266303
0.00122717
0.00224891
2.09028e-09
1.94645e-09
5.72018e-10
1.28096e-10
2.72002e-11
5.10448e-12
8.30698e-13
1.0364e-13
1.18937e-14
9.06972e-16
3.15277e-16
4.89806e-16
7.72444e-16
1.24543e-15
1.63992e-15
1.79305e-15
2.42411e-15
1.29555e-15
1.49727e-15
2.17518e-15
8.48749e-15
1.48157e-13
4.33415e-12
1.07324e-10
2.42005e-09
5.91547e-08
1.60992e-06
3.48615e-05
0.000414699
0.00126654
0.00134144
0.00102965
0.00111411
0.000889334
0.00096014
0.000595573
0.000669518
0.000459796
0.000525367
0.000210663
0.000262358
4.81279e-05
6.64769e-05
3.76208e-05
3.90522e-05
4.18991e-05
3.51875e-05
0.000125425
7.98425e-05
0.000749036
0.000334761
0.00183558
0.00123127
0.00273436
0.00217812
0.00353524
0.00336387
0.00315602
0.00287334
0.00397235
0.00392035
0.00349395
0.00359336
0.00380634
0.00405565
0.00399181
0.00419466
0.00412562
0.0041071
0.003499
0.00347249
0.00389462
0.00425432
0.00419184
0.00390861
0.00297528
0.00251981
0.00289647
0.00342708
0.00336567
0.00129932
0.00279365
0.00260388
0.00226959
4.56257e-09
2.08926e-09
5.26246e-10
1.13285e-10
2.01368e-11
3.26114e-12
4.90563e-13
4.56672e-14
4.3363e-15
9.40758e-16
1.7455e-15
3.71836e-15
6.04684e-15
9.07325e-15
1.12064e-14
1.37938e-14
8.9012e-15
7.67027e-15
9.48803e-15
1.65991e-14
1.26299e-13
2.90745e-12
7.99407e-11
1.86025e-09
4.25196e-08
1.05223e-06
2.04563e-05
0.000292533
0.00115692
0.00140812
0.00115774
0.000901747
0.000972157
0.000746145
0.000824052
0.000454593
0.000528603
0.000320769
0.000384981
9.79891e-05
0.000140874
1.84838e-05
2.24573e-05
2.68176e-05
1.98177e-05
6.87072e-05
5.53742e-05
0.000196925
0.000174567
0.000683912
0.000425599
0.00155574
0.00101376
0.0025886
0.00225493
0.00196235
0.0016527
0.0032598
0.00297282
0.00265148
0.00407152
0.00392761
0.00334205
0.00341529
0.00370334
0.00425794
0.0043119
0.00438097
0.00419727
0.0044184
0.00390086
0.00387154
0.00429597
0.00451044
0.00458948
0.0043183
0.00328817
0.00317677
0.0038192
0.00373935
0.00225769
0.000713999
0.00145254
0.00299612
0.00269527
5.97978e-09
1.93708e-09
4.02018e-10
7.36399e-11
1.10892e-11
1.95272e-12
2.31581e-13
1.82759e-14
3.91638e-15
6.29609e-15
1.60602e-14
3.3081e-14
5.39076e-14
7.51941e-14
9.62478e-14
1.00011e-13
5.04867e-14
5.50232e-14
6.889e-14
1.61804e-13
2.01853e-12
5.42888e-11
1.36613e-09
3.05293e-08
7.16687e-07
1.23184e-05
0.000198183
0.00099149
0.00142078
0.00129136
0.00092896
0.00102162
0.000767329
0.000847683
0.000606121
0.000686122
0.000315962
0.0003867
0.000192893
0.000250798
3.19636e-05
4.90646e-05
1.0853e-05
8.72694e-06
3.13886e-05
1.64084e-05
0.000165678
0.000128374
0.000398737
0.000412163
0.000759318
0.000777662
0.00143006
0.00123334
0.0011336
0.00111438
0.0023243
0.00200823
0.00173619
0.00153613
0.00303813
0.00270477
0.00236747
0.00403739
0.00379042
0.00308875
0.00312801
0.00348104
0.00431694
0.00449608
0.00443436
0.00414112
0.00460628
0.00431834
0.00429036
0.0046526
0.00471131
0.0048103
0.00469644
0.00362339
0.00344377
0.00422943
0.00412527
0.00211653
0.000542552
0.0011281
0.00317149
0.00272984
5.94133e-09
1.54383e-09
2.69211e-10
3.93598e-11
6.63589e-12
1.041e-12
7.62154e-14
1.52927e-14
2.54752e-14
7.66403e-14
1.74889e-13
3.16024e-13
4.77507e-13
6.65182e-13
8.79114e-13
3.73722e-13
3.48375e-13
3.82461e-13
4.7297e-13
1.95825e-12
3.4674e-11
9.23269e-10
2.17385e-08
4.78169e-07
7.98348e-06
0.00012411
0.000779415
0.00140801
0.00140204
0.00107391
0.000789159
0.000867436
0.000623161
0.000706133
0.000462121
0.000541378
0.000176576
0.00024053
7.771e-05
0.000121146
9.63016e-06
1.38349e-05
1.00444e-05
5.67226e-06
6.33848e-05
2.27048e-05
0.00038561
0.0002845
0.000898092
0.000912239
0.0011751
0.00128135
0.00140504
0.00151821
0.00140395
0.00137063
0.00142798
0.00156074
0.00205895
0.00181974
0.00166189
0.00161205
0.00273815
0.00239312
0.00210044
0.00387416
0.00353991
0.00275519
0.0027669
0.00315875
0.00424853
0.0045532
0.00436415
0.00396217
0.00467475
0.00471527
0.00469675
0.00490341
0.00480113
0.00492933
0.00498475
0.00395818
0.00369502
0.00463073
0.00449986
0.00196787
0.00035889
0.000935056
0.00330958
0.00271028
5.41067e-09
1.06993e-09
1.5363e-10
2.31171e-11
3.97627e-12
3.6933e-13
6.21047e-14
1.06688e-13
3.472e-13
8.69502e-13
1.71612e-12
2.84457e-12
4.13529e-12
5.86491e-12
3.14755e-12
2.34966e-12
2.30723e-12
2.36019e-12
3.29774e-12
2.61119e-11
5.86106e-10
1.41762e-08
3.22827e-07
4.96664e-06
7.21175e-05
0.000552165
0.00136042
0.00148772
0.00122675
0.000800143
0.000897263
0.000631149
0.000714943
0.000465178
0.000547415
0.000310001
0.000385652
6.06965e-05
9.9139e-05
2.24774e-05
3.7071e-05
3.98967e-06
3.8062e-06
1.29324e-05
5.53112e-06
0.000137459
4.38433e-05
0.000798134
0.000559153
0.00183983
0.00173419
0.00173458
0.00190717
0.0020414
0.00208944
0.00165596
0.00180461
0.00201926
0.0022566
0.00190482
0.00182021
0.00184384
0.00199467
0.00240548
0.00213908
0.00200353
0.0036022
0.00319297
0.00242229
0.00244668
0.00278473
0.00406411
0.00448902
0.00418246
0.00367913
0.00462693
0.00504464
0.00505906
0.00505444
0.00477978
0.00494793
0.00517039
0.00427373
0.00392032
0.00500238
0.00484568
0.00180698
0.000238561
0.000740339
0.00340604
0.00265369
4.22831e-09
6.45659e-10
8.12039e-11
1.23919e-11
1.88227e-12
2.52799e-13
4.27225e-13
1.51714e-12
4.06059e-12
8.62384e-12
1.53052e-11
2.41947e-11
3.40609e-11
3.33202e-11
1.65832e-11
1.45115e-11
1.33161e-11
1.25192e-11
2.87001e-11
3.82395e-10
8.92993e-09
1.97587e-07
2.43733e-06
4.04182e-05
0.000374422
0.00124358
0.00153389
0.00136604
0.000936851
0.00062169
0.000704063
0.000453799
0.00053716
0.000294623
0.000372187
0.000153983
0.000221107
1.57403e-05
2.73186e-05
5.37431e-06
9.05247e-06
2.95562e-06
1.7498e-06
2.34737e-05
7.84858e-06
0.000267639
8.24165e-05
0.00141512
0.000949683
0.0027641
0.00266872
0.0022807
0.00251124
0.00247626
0.00264903
0.00275898
0.00279271
0.00223851
0.00253098
0.00282436
0.00307758
0.00199454
0.00211595
0.00237038
0.00270715
0.00219098
0.00213206
0.00218683
0.00324428
0.00282441
0.00227814
0.00239015
0.00250007
0.00378233
0.00432027
0.00391438
0.00332585
0.00448163
0.00527245
0.00533876
0.00512312
0.00466913
0.00488379
0.00529203
0.00456243
0.00411405
0.00532403
0.00516069
0.00162834
0.000149177
0.00056654
0.00346646
0.00257001
2.83223e-09
3.38023e-10
4.01347e-11
5.09902e-12
1.02509e-12
1.59958e-12
6.18395e-12
1.80683e-11
4.05335e-11
7.59334e-11
1.2482e-10
1.9749e-10
2.73396e-10
1.14014e-10
9.19755e-11
7.64622e-11
6.30918e-11
6.12685e-11
3.17911e-10
5.84295e-09
1.17279e-07
1.55794e-06
2.26746e-05
0.000250618
0.00106653
0.00153456
0.00147785
0.00110094
0.000592034
0.000688718
0.00042349
0.00050685
0.000263477
0.00034226
0.000124691
0.000188709
4.63445e-05
7.66083e-05
3.2821e-06
5.89045e-06
1.39124e-06
1.91535e-06
3.46405e-06
1.56242e-06
3.64118e-05
1.03049e-05
0.000450984
0.000137484
0.00203291
0.00169175
0.00128071
0.00323957
0.00305852
0.00253217
0.00281969
0.00326515
0.00337403
0.00339852
0.00335647
0.00307075
0.00340966
0.00368554
0.00387445
0.00241676
0.00276838
0.00318617
0.00360805
0.00226871
0.00241049
0.00273001
0.00289029
0.00258722
0.00241908
0.00256592
0.0025131
0.00344726
0.00407775
0.0036089
0.00299794
0.00427391
0.00543626
0.00554612
0.00511754
0.00450573
0.00477586
0.00535659
0.00482338
0.00427848
0.00558432
0.00544499
0.00143753
6.76432e-05
0.00037078
0.00350102
0.00245835
1.62066e-09
1.60513e-10
1.88392e-11
2.61103e-12
5.55534e-12
2.35608e-11
7.54653e-11
1.81886e-10
3.5418e-10
5.92339e-10
9.47082e-10
1.72322e-09
7.81059e-10
5.63244e-10
4.34911e-10
3.27185e-10
2.44333e-10
3.77452e-10
3.99885e-09
8.18583e-08
1.2323e-06
1.25146e-05
0.000165844
0.000859078
0.0015111
0.00155893
0.00125459
0.000717455
0.000374464
0.000458507
0.000215556
0.000293262
9.23192e-05
0.00014693
3.33966e-05
5.65857e-05
1.06255e-05
1.9018e-05
6.40846e-07
1.07134e-06
7.8186e-07
5.54291e-07
5.15904e-06
2.90104e-06
4.57541e-05
1.40574e-05
0.000597909
0.000174978
0.0022115
0.0018641
0.00151614
0.00110654
0.00350797
0.00323362
0.00259328
0.00292505
0.00396763
0.00397372
0.00389719
0.00373675
0.00398069
0.00426757
0.00444948
0.00451278
0.00316667
0.00365166
0.00411703
0.00451294
0.00263811
0.00303583
0.003546
0.00270185
0.00263529
0.00284578
0.00302995
0.00271874
0.00315252
0.00381189
0.0033512
0.00284973
0.00405494
0.00556527
0.00571526
0.00507509
0.00433746
0.00466434
0.00538661
0.00505746
0.00441942
0.00579925
0.00569891
0.00119738
1.715e-05
0.00018198
0.0035116
0.00229953
8.02825e-10
7.93139e-11
8.3247e-12
1.9589e-11
8.27076e-11
2.96632e-10
7.75139e-10
1.59666e-09
2.71736e-09
4.09217e-09
7.2268e-09
5.52683e-09
3.34019e-09
2.41464e-09
1.67801e-09
1.13788e-09
8.70546e-10
3.53758e-09
5.44223e-08
1.04553e-06
8.96296e-06
0.000108165
0.000639687
0.00144662
0.0016189
0.00139261
0.000893272
0.00031936
0.000417136
0.000159572
0.000233145
6.4077e-05
0.000102161
2.22593e-05
3.87106e-05
6.75627e-06
1.23963e-05
1.97406e-06
3.6625e-06
2.63466e-07
2.11826e-07
1.15527e-06
4.72246e-07
7.15844e-06
5.24153e-06
4.99144e-05
2.56369e-05
0.000791686
0.00042385
0.000171512
0.0022414
0.00187884
0.00138661
0.00102647
0.00355504
0.00322909
0.00251496
0.00288207
0.00448497
0.00435371
0.00413029
0.00385552
0.00480404
0.0049704
0.00500111
0.00493909
0.00408436
0.00458339
0.00499363
0.00528663
0.00331364
0.00388856
0.00447355
0.00278033
0.00284261
0.00355885
0.00376185
0.00319565
0.00302107
0.00359752
0.00322653
0.00292851
0.00388237
0.00567431
0.00587833
0.00503076
0.00421234
0.00459461
0.00541445
0.00526983
0.00454099
0.00599667
0.00592749
0.000887253
3.88418e-06
7.32072e-05
0.00348436
0.00206873
3.64328e-10
3.1849e-11
4.39998e-11
2.7035e-10
1.07246e-09
3.12484e-09
6.93367e-09
1.22595e-08
1.7817e-08
2.43828e-08
3.05964e-08
1.83476e-08
1.29019e-08
8.43485e-09
5.31621e-09
3.35339e-09
4.30665e-09
4.03644e-08
6.60954e-07
7.10588e-06
7.03367e-05
0.000458923
0.00132437
0.00164267
0.00150697
0.001054
0.000441613
0.00011516
0.000188817
4.1429e-05
6.9827e-05
1.33299e-05
2.37518e-05
4.03041e-06
7.38538e-06
1.13268e-06
2.16038e-06
3.17162e-07
5.92059e-07
3.74511e-07
1.26373e-07
3.0734e-06
1.37981e-06
1.7921e-05