/*--------------------------------*- C++ -*----------------------------------*\
  =========                 |
  \\      /  F ield         | OpenFOAM: The Open Source CFD Toolbox
   \\    /   O peration     | Website:  https://openfoam.org
    \\  /    A nd           | Version:  dev
     \\/     M anipulation  |
\*---------------------------------------------------------------------------*/
FoamFile
{
    version     2.0;
    format      ascii;
    class       volScalarField;
    location    "2500";
    object      k;
}
// * * * * * * * * * * * * * * * * * * * * * * * * * * * * * * * * * * * * * //

dimensions      [0 2 -2 0 0 0 0];

internalField   nonuniform List<scalar> 
9836
(
0.000166447
0.000171459
0.000158429
0.000143322
0.00022534
0.00012707
0.000120698
0.000237707
0.000203441
0.000112131
0.000111179
0.000220794
0.000243938
0.000155803
0.000108019
0.000105851
0.000182443
0.000265852
0.000213552
0.00012974
0.000105524
0.000103178
0.000147636
0.000262502
0.000254508
0.000162848
0.000119516
0.000103796
0.000101664
0.000128826
0.000242561
0.000275194
0.000210809
0.000135852
0.000113939
0.000102684
0.000100855
0.000116657
0.000202355
0.000284093
0.000253674
0.000162571
0.000124516
0.000110046
0.000101868
0.000100407
0.000109878
0.000161605
0.000276672
0.000278114
0.000201641
0.000137222
0.000118135
0.00010726
0.00010126
0.000100151
0.000105973
0.000138718
0.000253658
0.000292199
0.000245719
0.00015884
0.000125634
0.000113535
0.000105252
0.000100803
9.99751e-05
0.000103742
0.000123854
0.000211016
0.000295618
0.000277161
0.000190927
0.000136214
0.000119051
0.000110122
0.000103738
0.000100459
9.96899e-05
0.000102355
0.000115171
0.000168601
0.000285708
0.000293392
0.0002328
0.000153013
0.000125231
0.000114531
0.000107524
0.000102514
0.000100225
9.94403e-05
0.000101405
0.000109965
0.000144384
0.00025877
0.00030547
0.000269763
0.000181448
0.000133271
0.000118787
0.000111146
0.000105428
0.00010147
0.000100044
9.9247e-05
0.000100678
0.00010682
0.000128774
0.000214038
0.00030473
0.000294986
0.000217372
0.000148132
0.000123386
0.000114327
0.00010842
0.000103742
0.000100641
9.9866e-05
9.91093e-05
0.000100105
0.000104705
0.000119427
0.000172345
0.000292132
0.000306715
0.000258739
0.000171222
0.000130753
0.000117457
0.000110942
0.000106173
0.000102293
0.000100065
9.96314e-05
9.90338e-05
9.96794e-05
0.000103172
0.000113565
0.000148291
0.000261288
0.000315982
0.000288773
0.000204081
0.000142944
0.000121545
0.000113353
0.000108237
0.000104277
0.000101017
9.96202e-05
9.94174e-05
9.90413e-05
9.93769e-05
0.000102019
0.000109761
0.000132618
0.000215941
0.000312894
0.000308782
0.000242029
0.000162832
0.000127994
0.00011588
0.000110244
0.00010597
0.00010266
0.000100023
9.91413e-05
9.92689e-05
9.91351e-05
9.90824e-05
0.000101079
0.00010721
0.000122822
0.00017538
0.000297431
0.000319646
0.000279885
0.000191356
0.000138457
0.00011969
0.000112037
0.000107599
0.000104063
0.000101227
9.92959e-05
9.86229e-05
9.91847e-05
9.91894e-05
9.86278e-05
0.000100191
0.000105056
0.000116347
0.000151466
0.000263444
0.000326117
0.00030522
0.000225634
0.000155321
0.000125368
0.000114473
0.000109048
0.000105354
0.000102446
9.99482e-05
9.86439e-05
9.81472e-05
9.91344e-05
9.91878e-05
9.81905e-05
9.9412e-05
0.000103173
0.000111904
0.000135505
0.000217925
0.000321184
0.000321455
0.000263456
0.00017936
0.00013455
0.000117825
0.00011082
0.000106541
0.000103514
0.000101027
9.89418e-05
9.79941e-05
9.78106e-05
9.90913e-05
9.91425e-05
9.78237e-05
9.87318e-05
0.000101729
0.000108982
0.000125237
0.000177992
0.000303607
0.00033208
0.000297098
0.000210403
0.000148451
0.000123187
0.000112868
0.000107952
0.000104499
0.000101986
9.97413e-05
9.81295e-05
9.73716e-05
9.75976e-05
9.90797e-05
9.9077e-05
9.75985e-05
9.81684e-05
0.000100545
0.000106679
0.000118468
0.000153998
0.000266833
0.000336755
0.000320028
0.000245106
0.0001688
0.000131003
0.000116241
0.000109387
0.00010561
0.000102853
0.000100669
9.85997e-05
9.7427e-05
9.68638e-05
9.74599e-05
9.91047e-05
9.9022e-05
9.75356e-05
9.76414e-05
9.95316e-05
0.000104623
0.000113879
0.000137993
0.000220637
0.000330457
0.000333994
0.000282063
0.000195618
0.000142632
0.000121023
0.00011156
0.000106779
0.000103746
0.000101461
9.94436e-05
9.77112e-05
9.68528e-05
9.6512e-05
9.74265e-05
9.91753e-05
9.89912e-05
9.7468e-05
9.70201e-05
9.85723e-05
0.000102683
0.000110612
0.000127474
0.000181187
0.000311332
0.000344795
0.000312462
0.000227457
0.000159598
0.0001279
0.000114616
0.00010835
0.000104736
0.000102209
0.000100191
9.84031e-05
9.70322e-05
9.6374e-05
9.63538e-05
9.75374e-05
9.93081e-05
9.89763e-05
9.73082e-05
9.64703e-05
9.77241e-05
0.000101015
0.000107985
0.000120197
0.000157089
0.000272846
0.000348583
0.000334251
0.000262354
0.000182108
0.000137768
0.000119148
0.000110387
0.000106016
0.000102998
0.000100875
9.91715e-05
9.75564e-05
9.64997e-05
9.60432e-05
9.63949e-05
9.78157e-05
9.95234e-05
9.89684e-05
9.71006e-05
9.60052e-05
9.69878e-05
9.96466e-05
0.000105662
0.000115005
0.000140592
0.000226568
0.000341681
0.000347109
0.000298575
0.000210537
0.000151249
0.00012531
0.000113496
0.000107532
0.000104104
0.000101574
9.98253e-05
9.83183e-05
9.68781e-05
9.61259e-05
9.59575e-05
9.66928e-05
9.83124e-05
9.98453e-05
9.89569e-05
9.68957e-05
9.56288e-05
9.63512e-05
9.85214e-05
0.000103507
0.000111092
0.000129388
0.000186234
0.00032186
0.000358339
0.000327145
0.000242467
0.000170515
0.000133362
0.000117677
0.0001097
0.000105385
0.000102484
0.000100473
9.90124e-05
9.75571e-05
9.6427e-05
9.60061e-05
9.61984e-05
9.73328e-05
9.91066e-05
0.000100263
9.89474e-05
9.67036e-05
9.53239e-05
9.56662e-05
9.75194e-05
0.00010158
0.000108036
0.000121599
0.000161242
0.000283242
0.00036161
0.000348459
0.000277391
0.000194342
0.000144908
0.000123096
0.000112641
0.000107035
0.000103629
0.00010127
9.97106e-05
9.83375e-05
9.70457e-05
9.62799e-05
9.62186e-05
9.68476e-05
9.84401e-05
0.000100315
0.00010096
9.89367e-05
9.65417e-05
9.50319e-05
9.48441e-05
9.64504e-05
9.98765e-05
0.000105404
0.000116
0.000144226
0.000236366
0.000354567
0.000360675
0.000313332
0.000223724
0.000159975
0.000130151
0.000116575
0.000109236
0.000105087
0.000102376
0.000100531
9.91903e-05
9.79407e-05
9.69023e-05
9.64927e-05
9.68681e-05
9.80326e-05
0.00010022
0.000101985
0.0001019
9.89209e-05
9.642e-05
9.47279e-05
9.40951e-05
9.54291e-05
9.83266e-05
0.000103036
0.000111883
0.000132573
0.000194285
0.000334342
0.000371675
0.000341148
0.000255465
0.000180848
0.000139255
0.000121349
0.000112174
0.000106875
0.000103824
0.000101638
0.000100174
9.89871e-05
9.79018e-05
9.71816e-05
9.71942e-05
9.81227e-05
0.000100003
0.000102624
0.000104401
0.000103222
9.89037e-05
9.63147e-05
9.43965e-05
9.34434e-05
9.44988e-05
9.68987e-05
0.00010105
0.000108733
0.000124499
0.000168199
0.000297191
0.000374406
0.000361909
0.000290768
0.00020534
0.000151921
0.000127346
0.000115696
0.000109193
0.000105409
0.000103112
0.000101346
0.000100205
9.91609e-05
9.83048e-05
9.80541e-05
9.858e-05
0.000100248
0.000103049
0.000105859
0.000107486
0.00010398
9.8894e-05
9.62273e-05
9.40682e-05
9.29056e-05
9.3674e-05
9.56036e-05
9.92845e-05
0.000105763
0.000118659
0.000150597
0.000250914
0.000367783
0.000373617
0.000326398
0.000235251
0.00016826
0.000134787
0.000120022
0.000112008
0.000107412
0.000104676
0.000102867
0.000101576
0.000100656
9.98439e-05
9.94812e-05
9.97087e-05
0.000101017
0.000103718
0.000107123
0.000109656
0.000109206
0.000104577
9.88945e-05
9.61532e-05
9.37762e-05
9.24447e-05
9.28524e-05
9.44399e-05
9.76031e-05
0.000103108
0.000114368
0.000138115
0.000209015
0.000348803
0.000383978
0.000353851
0.000266655
0.000189728
0.00014471
0.000124897
0.000115425
0.000109813
0.00010649
0.000104536
0.000103189
0.000102348
0.000101707
0.000101395
0.000101725
0.000102685
0.000105014
0.000108407
0.000111262
0.00011216
0.000110019
0.000102134
0.000106623
9.8903e-05
9.60785e-05
9.35266e-05
9.20198e-05
9.20365e-05
9.33636e-05
9.60128e-05
0.000100919
0.000110693
0.00012917
0.000179131
0.000314122
0.000387446
0.000373741
0.000302169
0.00021467
0.000157799
0.000131183
0.000119126
0.000112642
0.000108608
0.000106305
0.00010499
0.000104213
0.000103888
0.000103809
0.000104264
0.00010548
0.000107491
0.000110101
0.000112811
0.000114894
0.000114746
0.000110078
0.00011268
0.000102335
0.000106789
9.89176e-05
9.6013e-05
9.33003e-05
9.16089e-05
9.12856e-05
9.24151e-05
9.46432e-05
9.9065e-05
0.000107325
0.000122713
0.000159457
0.000270544
0.000381947
0.000386004
0.000336635
0.000244343
0.000175023
0.000138861
0.000123457
0.000115682
0.000111012
0.000108287
0.000106857
0.000106254
0.000106261
0.000106614
0.000107364
0.000108638
0.000110443
0.000112937
0.000115408
0.000117505
0.000115963
0.000117692
0.000114834
0.000116841
0.000116632
0.00011028
0.000113125
0.000102329
0.000106905
9.89239e-05
9.59598e-05
9.30915e-05
9.12267e-05
9.06036e-05
9.15528e-05
9.34529e-05
9.73251e-05
0.00010444
0.000117961
0.000145641
0.000228335
0.000365913
0.000395446
0.000364552
0.000274939
0.00019655
0.000149241
0.000128398
0.00011893
0.000113663
0.000110395
0.000108845
0.000108314
0.000108737
0.000109559
0.00011086
0.000112079
0.000113681
0.000116401
0.000119552
0.000122086
0.000119316
0.000122604
0.000119506
0.000115354
0.000119287
0.000117508
0.000110642
0.00011365
0.000102385
0.000107161
9.89422e-05
9.59029e-05
9.28926e-05
9.08688e-05
9.00061e-05
9.07734e-05
9.24128e-05
9.57152e-05
0.000102055
0.000113846
0.000135744
0.00019352
0.000334276
0.000400196
0.000383774
0.000309693
0.000221534
0.000162538
0.000134416
0.000122498
0.000116381
0.000112795
0.000110883
0.000110402
0.000111137
0.000112566
0.000114156
0.000115587
0.000117978
0.000121114
0.000125767
0.000129932
0.000125541
0.000131693
0.000122408
0.000126495
0.000122319
0.000115999
0.000120039
0.000118443
0.000111043
0.000113981
0.000102458
0.00010745
9.89739e-05
9.58409e-05
9.27067e-05
9.05171e-05
8.94826e-05
9.0093e-05
9.14996e-05
9.43531e-05
0.000100057
0.00011028
0.000128817
0.000171389
0.000294796
0.000396232
0.00039708
0.000342683
0.000249893
0.000180165
0.000141978
0.000126295
0.000119203
0.00011519
0.000113107
0.000112488
0.000113399
0.000115442
0.000117503
0.000119305
0.000122102
0.000129991
0.000142918
0.000159965
0.000143885
0.000174915
0.000133458
0.000151743
0.000126302
0.000134525
0.000123623
0.000116368
0.000121737
0.000119297
0.000111306
0.000114032
0.000102555
0.000107719
9.90077e-05
9.57756e-05
9.25429e-05
9.01763e-05
8.90371e-05
8.9505e-05
9.06969e-05
9.31737e-05
9.82369e-05
0.000107451
0.000123473
0.000156068
0.000251957
0.000383288
0.000405355
0.000372032
0.00027963
0.000200945
0.00015232
0.000130775
0.000121896
0.000117538
0.000115354
0.000114553
0.000115573
0.000117993
0.000120479
0.000123049
0.000128789
0.000142655
0.000188338
0.000287114
0.000248038
0.000418163
0.000202372
0.000330193
0.000158788
0.000232785
0.000132435
0.000161919
0.000130321
0.000116548
0.000126785
0.000122472
0.000111365
0.000113824
0.000102703
0.000107877
9.90047e-05
9.57194e-05
9.23892e-05
8.9862e-05
8.86549e-05
8.89906e-05
8.99858e-05
9.21515e-05
9.65011e-05
0.000105219
0.000119132
0.000144828
0.000214876
0.000356297
0.000411075
0.000391359
0.000312411
0.000225228
0.000165683
0.000136303
0.000124787
0.000119717
0.000117452
0.000116606
0.000117522
0.000120299
0.00012312
0.000126424
0.000134459
0.000173616
0.000286357
0.000620522
0.000722328
0.00128335
0.0006209
0.0011916
0.000430809
0.00089361
0.000259969
0.000541189
0.000162054
0.000278692
0.000156958
0.000118053
0.000147591
0.00013645
0.00011105
0.000114034
0.000102901
0.000107792
9.90186e-05
9.56542e-05
9.22278e-05
8.95963e-05
8.83398e-05
8.85573e-05
8.93861e-05
9.12743e-05
9.50721e-05
0.000103259
0.000115563
0.000136633
0.000187701
0.000320294
0.000408797
0.000405675
0.000344989
0.000251712
0.000182732
0.000143638
0.00012794
0.000121705
0.000119285
0.000118466
0.00011936
0.000122281
0.000125448
0.000129413
0.000140125
0.000195973
0.000488653
0.00123563
0.00189414
0.00274884
0.00205921
0.00304717
0.00176659
0.00293154
0.00120764
0.00239369
0.000641951
0.00151515
0.000279919
0.000701028
0.000262945
0.000125757
0.000231316
0.000194573
0.000110524
0.000117386
0.000103016
0.000107418
9.90877e-05
9.5606e-05
9.20462e-05
8.93395e-05
8.80759e-05
8.82065e-05
8.89035e-05
9.05521e-05
9.39161e-05
0.000101312
0.000112769
0.000130311
0.000169396
0.000280337
0.000399065
0.000412789
0.000376199
0.000280876
0.000202505
0.000153689
0.000131563
0.000123565
0.000120746
0.00012008
0.000120942
0.000123909
0.000127403
0.000131814
0.000145346
0.000224889
0.000623844
0.00206104
0.00341939
0.00427008
0.00408232
0.00492431
0.0041087
0.0051135
0.00374125
0.00490276
0.00295612
0.00434457
0.00175028
0.00336238
0.000699905
0.00185314
0.000637347
0.000159853
0.000528823
0.000401067
0.000111454
0.000133396
0.00010306
0.000106828
9.9261e-05
9.56147e-05
9.18315e-05
8.90913e-05
8.78833e-05
8.79424e-05
8.85222e-05
8.99812e-05
9.30281e-05
9.96025e-05
0.000110513
0.000125305
0.000156082
0.000242433
0.000377828
0.000419206
0.000396276
0.000311216
0.000225794
0.000166502
0.00013659
0.00012552
0.000121769
0.000121322
0.000122243
0.000125324
0.000129006
0.000133672
0.000147533
0.000250367
0.000800145
0.00267039
0.00478583
0.00541365
0.0056737
0.00622522
0.00589646
0.006529
0.0058125
0.00654965
0.00542369
0.00629178
0.00472145
0.00576316
0.0035845
0.00493679
0.00180557
0.00362737
0.00161525
0.000283167
0.00132853
0.000993055
0.000117724
0.000195943
0.000102791
0.000108699
9.96294e-05
9.581e-05
9.15838e-05
8.8839e-05
8.77824e-05
8.77844e-05
8.8249e-05
8.95391e-05
9.23743e-05
9.8262e-05
0.000108638
0.000121435
0.000145895
0.000211138
0.000346435
0.000418441
0.000411049
0.000344546
0.000250549
0.000182635
0.00014359
0.000127814
0.000122725
0.000122112
0.000123146
0.00012644
0.000130853
0.00013518
0.000148005
0.000249303
0.000933525
0.00317511
0.00586372
0.00606349
0.00669851
0.00710065
0.00705972
0.00752201
0.00718326
0.00776821
0.00705668
0.00774396
0.00665483
0.0074594
0.0059985
0.0069192
0.00502481
0.00615757
0.0035111
0.00500121
0.00322623
0.000661542
0.00276038
0.0021477
0.000142443
0.000392764
0.000102337
0.000116827
0.000100497
9.65236e-05
9.1367e-05
8.85715e-05
8.77402e-05
8.77239e-05
8.81132e-05
8.9248e-05
9.1924e-05
9.72773e-05
0.000107031
0.0001185
0.000138151
0.000187283
0.000310772
0.000411895
0.000418135
0.000376174
0.000278672
0.000201765
0.000153132
0.000130889
0.000123646
0.000122535
0.00012341
0.000126562
0.000132047
0.000136555
0.000147868
0.000241398
0.000928487
0.00357029
0.00734651
0.00736313
0.00790566
0.0079437
0.00834249
0.00830063
0.00879287
0.00836439
0.00886092
0.00817392
0.00864488
0.00776035
0.00829782
0.00712564
0.00782394
0.00620317
0.00722609
0.00487765
0.00618024
0.0046392
0.00148325
0.00425874
0.00368751
0.000225479
0.000899304
0.000103978
0.000142781
0.000103585
9.83922e-05
9.15147e-05
8.83641e-05
8.77093e-05
8.77211e-05
8.81022e-05
8.91476e-05
9.16612e-05
9.65514e-05
0.000105616
0.000116239
0.000132328
0.00017073
0.000275754
0.000396293
0.000424068
0.000397899
0.000307346
0.000223569
0.000165674
0.000135445
0.000124772
0.000122617
0.00012336
0.000126346
0.00013198
0.000137355
0.000146957
0.000224422
0.000884878
0.00357645
0.00765432
0.00937641
0.00968059
0.00872125
0.00907081
0.00925963
0.00972779
0.00925841
0.0096247
0.00896726
0.0092473
0.00863996
0.00886932
0.00825049
0.0085133
0.00781741
0.0081335
0.0072078
0.00773372
0.00608555
0.00715328
0.00590267
0.00284653
0.00557883
0.00508946
0.000459573
0.00185377
0.000109201
0.000219819
0.000111617
0.000103362
9.32225e-05
8.84959e-05
8.7717e-05
8.77479e-05
8.81811e-05
8.92373e-05
9.16268e-05
9.61171e-05
0.000104462
0.000114466
0.000127863
0.000158551
0.000243425
0.00037116
0.000424418
0.000412659
0.000340081
0.000247308
0.000181031
0.000142246
0.00012649
0.000122637
0.000123161
0.000125768
0.000131419
0.000137312
0.000145624
0.000195101
0.000783701
0.00348495
0.00761728
0.00994369
0.0101605
0.0110944
0.0115292
0.010193
0.0106467
0.010005
0.0104247
0.0094857
0.00973115
0.00892303
0.00881794
0.00847474
0.00812313
0.00818736
0.00781859
0.00795707
0.00775372
0.00763686
0.00775869
0.00707977
0.0075759
0.006946
0.00438062
0.00671248
0.00636023
0.00100771
0.00331641
0.000122479
0.000427423
0.000133477
0.000121737
0.000100383
8.99364e-05
8.7932e-05
8.78366e-05
8.83381e-05
8.95662e-05
9.1871e-05
9.59655e-05
0.00010357
0.000113128
0.000124414
0.000149286
0.000216263
0.000341272
0.000420839
0.000420965
0.00037056
0.000273503
0.000199042
0.000151442
0.000129219
0.00012279
0.000122888
0.000124957
0.000130062
0.000136948
0.000143974
0.000172791
0.000576779
0.00323492
0.0075422
0.0103108
0.0101741
0.0119262
0.0122851
0.0119622
0.01255
0.0108957
0.0114076
0.0100217
0.0103811
0.00866133
0.00858716
0.00748306
0.00679192
0.00701051
0.00588614
0.00705653
0.00594033
0.00737095
0.00646942
0.00762116
0.00713062
0.00755495
0.0075868
0.00755228
0.00579073
0.00751369
0.0073596
0.00205236
0.00496171
0.0001549
0.00098581
0.000154139
0.000158445
0.000121587
9.63125e-05
8.89528e-05
8.81125e-05
8.85944e-05
9.01475e-05
9.24684e-05
9.61106e-05
0.000103037
0.000112169
0.000121832
0.000142094
0.000194392
0.000310914
0.000410926
0.000425329
0.000394953
0.000301581
0.000219316
0.000163367
0.000133531
0.00012332
0.000122351
0.000124139
0.000128585
0.000135966
0.00014238
0.000160705
0.000385863
0.00267615
0.00730509
0.0116086
0.012533
0.0130865
0.0131516
0.0137386
0.0119672
0.0126414
0.0108308
0.0113602
0.00864489
0.00886209
0.00622915
0.00592
0.00476992
0.00380237
0.00479896
0.00385437
0.0054552
0.00463917
0.00626327
0.00553044
0.00710433
0.00642488
0.00764236
0.00726007
0.00777711
0.00705391
0.00794973
0.00806176
0.00377634
0.00657384
0.000231617
0.00247069
0.000165727
0.000159076
0.000116923
9.29677e-05
8.89791e-05
8.902e-05
9.08389e-05
9.32948e-05
9.67143e-05
0.000102938
0.000111492
0.000120039
0.000136594
0.000177956
0.000282285
0.000392085
0.000426949
0.000410599
0.000331197
0.000241951
0.00017813
0.000140406
0.000124515
0.000121672
0.000123119
0.000126966
0.000134033
0.000141082
0.000153464
0.000274632
0.00190757
0.007068
0.0113589
0.0152009
0.0154116
0.0143057
0.0148272
0.013362
0.0141046
0.0105599
0.0114002
0.0092709
0.00984207
0.00587523
0.00603083
0.00309536
0.00274887
0.00298878
0.0021729
0.00393265
0.00325498
0.00491988
0.00437054
0.00585797
0.0054095
0.00674384
0.00633421
0.00753583
0.00713611
0.00785787
0.00808637
0.00822095
0.00856382
0.00600946
0.00810726
0.000921048
0.0058007
0.000160101
0.000153253
0.000106445
9.13883e-05
8.97392e-05
9.16167e-05
9.42939e-05
9.76937e-05
0.000103277
0.000111097
0.000118781
0.000132509
0.000166146
0.000255883
0.000368983
0.000425118
0.000419708
0.000361457
0.000266451
0.000195018
0.000149534
0.000126855
0.000121556
0.000122082
0.000125407
0.00013144
0.000139564
0.00014851
0.0002182
0.00126343
0.0064619
0.0108839
0.0155358
0.0153848
0.0163238
0.0169954
0.0148586
0.0155986
0.0123353
0.0133353
0.00789733
0.00888644
0.00644104
0.00707131
0.00266916
0.00280069
0.00158494
0.00132847
0.00250062
0.00170414
0.00384932
0.00324558
0.00509442
0.00484573
0.00618594
0.0062467
0.00696323
0.00721573
0.00761419
0.00770314
0.00812364
0.00892431
0.00867611
0.00909401
0.00896084
0.00825604
0.00933221
0.00529661
0.00913038
0.000164007
0.00013591
9.83858e-05
9.13731e-05
9.2286e-05
9.52794e-05
9.88946e-05
0.000104218
0.000111153
0.000118102
0.000129486
0.000157428
0.000232622
0.0003446
0.000419138
0.000424144
0.000387335
0.000293746
0.000214156
0.000161124
0.000131514
0.000121819
0.000121389
0.000123822
0.000128867
0.000137587
0.000145163
0.000188149
0.000834212
0.00528724
0.010075
0.0167087
0.0174922
0.0181986
0.0164215
0.0173667
0.0143743
0.0154146
0.0100046
0.0112325
0.00459286
0.0056539
0.00315689
0.00375167
0.00123371
0.00121638
0.00116791
0.000949171
0.0024694
0.00163841
0.00446934
0.00376408
0.00627024
0.00606042
0.00768738
0.00802324
0.00833762
0.00930086
0.00847961
0.00935587
0.00877309
0.00871952
0.00907611
0.00935308
0.00939994
0.00959662
0.00929787
0.00971829
0.00942336
0.00957066
0.00974675
0.00983283
0.0100322
0.00981047
0.00872533
0.0106905
0.000159598
0.000116381
9.47137e-05
9.27464e-05
9.59545e-05
0.000100054
0.000105513
0.000111893
0.000117845
0.000127487
0.00015097
0.000213516
0.000320551
0.000406633
0.000425051
0.000404628
0.000321062
0.000236655
0.000175424
0.000138823
0.000122887
0.000121143
0.00012248
0.000126619
0.000134955
0.000142314
0.000170879
0.000577448
0.00408252
0.00878904
0.0161159
0.0195757
0.0198543
0.0182289
0.018997
0.0152397
0.0165626
0.0125383
0.0138839
0.00683755
0.00818503
0.00183222
0.00242919
0.00128344
0.00147467
0.000849849
0.000780169
0.0011274
0.000925059
0.00272239
0.00174684
0.00532674
0.00415759
0.00783357
0.00693247
0.00931466
0.00951622
0.00946493
0.00921264
0.00993423
0.0105665
0.0104424
0.0113007
0.0110007
0.0099347
0.00961381
0.0104264
0.0106459
0.0100072
0.00983286
0.0100621
0.00996684
0.010614
0.0103347
0.0102196
0.0102051
0.0102863
0.0104433
0.0102803
0.0104145
0.0100951
0.0107085
0.0111032
0.0114
0.000137761
0.000105104
9.45059e-05
9.61211e-05
0.00010077
0.000106875
0.000113197
0.000118089
0.000126415
0.000146347
0.000198765
0.00029847
0.000389911
0.000423955
0.000414192
0.00035007
0.000261144
0.000192118
0.000148116
0.000125408
0.000121261
0.000121888
0.000124802
0.000132197
0.000139217
0.000159248
0.000422547
0.00311267
0.00759726
0.0147082
0.0211047
0.0199081
0.0209132
0.0178202
0.0189564
0.0128298
0.014459
0.00965992
0.0112147
0.00338191
0.00462399
0.000810137
0.000988264
0.000725301
0.000726966
0.000826214
0.000733254
0.00133132
0.00118406
0.00296711
0.00223621
0.00561979
0.00432199
0.00876067
0.00812017
0.00743173
0.00670076
0.0104153
0.0101304
0.00958479
0.0113254
0.0118626
0.0112852
0.0121133
0.0121241
0.0112577
0.0108322
0.0117996
0.0120558
0.0112124
0.0104407
0.0106332
0.0108447
0.0115148
0.0117434
0.0110362
0.010575
0.0107743
0.0107699
0.0108606
0.0118619
0.00711492
0.0108089
0.011022
0.0115283
0.000120906
0.00010015
9.62327e-05
0.000100934
0.000107885
0.000114737
0.0001192
0.000126289
0.000143503
0.000187907
0.000279813
0.000371716
0.000420147
0.000419288
0.00037518
0.000286778
0.000211414
0.000160009
0.000130526
0.000121929
0.000121848
0.000123735
0.000129686
0.000136174
0.000150267
0.000317388
0.00238429
0.0070018
0.0131488
0.0211548
0.0213758
0.0222003
0.0190191
0.0202629
0.0160623
0.0175958
0.00943798
0.0112565
0.00611284
0.00770362
0.00128818
0.00177529
0.000526065
0.000548916
0.00062095
0.000546573
0.00107211
0.00089069
0.00202649
0.00193525
0.00360782
0.00349485
0.00606248
0.00554656
0.0052959
0.00520958
0.0088981
0.00814317
0.00741937
0.00682052
0.0109641
0.010375
0.00963029
0.0126543
0.0129316
0.0117387
0.012463
0.0128887
0.0127063
0.0122426
0.0132513
0.0133865
0.0126009
0.0111886
0.0112921
0.0119035
0.0128527
0.01301
0.0120071
0.0109551
0.0111378
0.0113481
0.0113729
0.0117379
0.00505157
0.00876866
0.0115392
0.0120724
0.000115178
9.96663e-05
0.000100727
0.00010841
0.000116351
0.000120814
0.000126939
0.000142483
0.000180417
0.00026529
0.000354357
0.000411637
0.000419743
0.00039512
0.000314206
0.000235104
0.000176105
0.000138712
0.000123764
0.000122138
0.000123558
0.000127867
0.000133975
0.000143088
0.000244526
0.00170832
0.00675452
0.0117056
0.0206569
0.0236134
0.0199506
0.0215095
0.0167364
0.0184003
0.0131052
0.0149494
0.00540526
0.00724663
0.0025633
0.00381212
0.000615298
0.000746113
0.000470932
0.0004493
0.000658452
0.000522443
0.0017308
0.00135959
0.00350424
0.00331682
0.00527069
0.0053621
0.00545105
0.0054861
0.00646297
0.00638491
0.00649664
0.00673655
0.00883354
0.00812684
0.00762162
0.00747207
0.0110932
0.0102715
0.00943709
0.0136796
0.0136155
0.0117389
0.0123042
0.0131283
0.0140276
0.0136881
0.0145572
0.0143564
0.0140099
0.0120608
0.0120633
0.0130771
0.0142046
0.014284
0.013083
0.0114406
0.0116797
0.0120286
0.012004
0.0114624
0.00363061
0.00759198
0.0121804
0.0125098
0.000112715
0.000102168
0.000108641
0.000117631
0.000122803
0.000128677
0.00014272
0.000177357
0.000254988
0.000339813
0.000400339
0.00041881
0.000406542
0.000342212
0.000262771
0.000195443
0.000150287
0.000128059
0.000123253
0.000123753
0.000127355
0.000133031
0.000137879
0.000197558
0.00111869
0.00622017
0.0103791
0.0192486
0.0248052
0.0206331
0.0221694
0.017112
0.0189058
0.0132049
0.0151913
0.00915962
0.0111755
0.00201766
0.00305895
0.000980234
0.00137506
0.000446291
0.000465088
0.000471996
0.000434121
0.000881592
0.000575613
0.00284344
0.00213449
0.00592589
0.00533271
0.0069801
0.007121
0.00712797
0.0069785
0.0075912
0.00794763
0.0083931
0.00878995
0.00878129
0.00847438
0.0085085
0.00889132
0.0108177
0.00995565
0.00940836
0.0142874
0.0137404
0.0112881
0.0116958
0.0127961
0.0149477
0.0149736
0.0154463
0.0149045
0.0152633
0.0130299
0.0129316
0.0142655
0.0154129
0.0154351
0.0141852
0.0120885
0.0124126
0.012824
0.0127806
0.0109518
0.00223472
0.00608751
0.0129263
0.0128292
0.000112915
0.000109399
0.000118654
0.000125075
0.000130976
0.000144384
0.000177201
0.000250359
0.000329284
0.000389257
0.000416676
0.000412932
0.000367872
0.000289876
0.000217531
0.000164261
0.000135486
0.000126336
0.000124717
0.000127497
0.000132811
0.000135223
0.00016979
0.000713562
0.00481331
0.0088742
0.0171805
0.0250119
0.0234097
0.0171105
0.0191633
0.0129518
0.0150491
0.00867393
0.0107954
0.00463392
0.00656543
0.000788199
0.00109476
0.000513393
0.000611017
0.000415568
0.000407453
0.000517509
0.000446271
0.00129887
0.000717089
0.00438051
0.00315407
0.0083169
0.00781954
0.00662057
0.00729369
0.00903061
0.0090802
0.00896403
0.00869635
0.00950103
0.0101605
0.0107029
0.0110214
0.00929333
0.00955432
0.0102132
0.0110754
0.0104042
0.0100174
0.0100452
0.0143076
0.0132768
0.0108358
0.0112966
0.0120906
0.0154499
0.015847
0.0159169
0.014858
0.0161329
0.0140481
0.013878
0.0153602
0.0162988
0.0163425
0.0152359
0.0129092
0.0133076
0.0137331
0.0136986
0.0102653
0.00155931
0.00469938
0.0137118
0.0130192
0.000116847
0.000120116
0.000127531
0.000134163
0.000147466
0.000178791
0.000249822
0.000324331
0.000380466
0.00041263
0.000416992
0.000388788
0.000317425
0.000243473
0.000182481
0.000146784
0.000131973
0.000127494
0.000128217
0.000132973
0.000134781
0.000154166
0.000482526
0.00330838
0.00740881
0.0148205
0.0245768
0.0257239
0.0166815
0.0187959
0.0122655
0.0144736
0.00777676
0.0100282
0.00376709
0.005617
0.00160601
0.00243385
0.000468407
0.000538785
0.000410103
0.000428157
0.000415569
0.000400908
0.000599123
0.000485619
0.00185195
0.00091919
0.00596905
0.0051252
0.00415918
0.00950929
0.00886917
0.00741304
0.00816804
0.0110848
0.0109315
0.0105814
0.0100915
0.011936
0.0126325
0.0130395
0.0131238
0.0105631
0.011476
0.0125638
0.0136171
0.0105949
0.0107366
0.0114992
0.0137798
0.0125201
0.011119
0.0116238
0.0117742
0.0153948
0.0163017
0.0159109
0.0143396
0.0165907
0.0150579
0.0148693
0.0162949
0.0167907
0.0169145
0.0161773
0.0138854
0.0143091
0.0147374
0.0147412
0.00947962
0.000802186
0.00336833
0.0144911
0.0131027
0.000126988
0.000130116
0.000137575
0.00015238
0.000183249
0.00025213
0.000323926
0.000376005
0.000409421
0.000423328
0.000408604
0.000352219
0.000277054
0.000207963
0.000164244
0.000142293
0.000132795
0.000130343
0.000133938
0.000135134
0.000145925
0.000351512
0.0023308
0.00675653
0.012741
0.0232172
0.0272856
0.0197784
0.0111602
0.013616
0.00649749
0.00878446
0.0029099
0.00447097
0.00127451
0.00191125
0.000662667
0.000884898
0.000404028
0.000421194
0.00039525
0.000395107
0.000436337
0.000410604
0.000706352
0.000555031
0.00237849
0.00113194
0.00659059
0.00571608
0.00504525
0.00397871
0.0104011
0.00959306
0.00788634
0.00875437
0.0129421
0.0125043
0.0118884
0.0111745
0.0144693
0.0149904
0.0151197
0.014924
0.0126193
0.0138964
0.0151168
0.0161192
0.0114088
0.0123184
0.0136224
0.0130309
0.0122854
0.0119861
0.0125224
0.0121307
0.0149441
0.0163975
0.0155822
0.0136531
0.016796
0.0160194
0.0158866
0.0169759
0.0170759
0.0172746
0.0169833
0.0149764
0.0153582
0.0158232
0.0158801
0.00846266
0.000304077
0.00194594
0.0152276
0.0130496
0.00013881
0.000141422
0.000157513
0.000191774
0.000260076
0.000328313
0.000375989
0.000409111
0.000429446
0.000428855
0.000392226
0.000322435
0.000248505
0.000188934
0.000159457
0.000143068
0.000135387
0.000136694
0.000136573
0.000143156
0.000272057
0.00174234
0.00639763
0.0110591
0.021276
0.0278572
0.0232865
0.00979183
0.0123016
0.00499047
0.00720273
0.00217135
0.00327671
0.00100181
0.0014551
0.000578748
0.000733392
0.000447134
0.000492994
0.000394754
0.000400121
0.000397032
0.000392913
0.00048441
0.000444367
0.000874293
0.000712544
0.00310437
0.0020922
0.00133265
0.00697707
0.00603284
0.00501924
0.00401617
0.0107934
0.00985987
0.00800541
0.00893986
0.0144113
0.0136562
0.0127489
0.0117657
0.0167821
0.0169776
0.0168361
0.0162635
0.0150389
0.016389
0.0175144
0.0183133
0.013037
0.0144609
0.015988
0.012857
0.0126696
0.0136519
0.0142118
0.0130522
0.0143915
0.0162168
0.0152178
0.0135219
0.0167964
0.0169409
0.0169418
0.0174738
0.0172552
0.0175955
0.0176716
0.0161273
0.0164145
0.016979
0.0170704
0.00700962
0.000160675
0.000973588
0.0158843
0.0127236
0.000152025
0.000163816
0.000200708
0.00027603
0.000341131
0.000382754
0.000413838
0.00044085
0.000460037
0.000442514
0.000382354
0.000304792
0.000235379
0.000185467
0.000160443
0.000146386
0.000142864
0.000140846
0.000143567
0.000223066
0.00129927
0.00599569
0.00971717
0.0191037
0.0277219
0.0259913
0.0130846
0.00377627
0.00606897
0.00157505
0.00240456
0.000778786
0.00107059
0.000520122
0.000614487
0.000432137
0.0004652
0.000405945
0.000414379
0.00039472
0.000395758
0.000413066
0.00039906
0.000607636
0.000535076
0.0012162
0.00113201
0.00117368
0.00310247
0.00225856
0.00137092
0.00178228
0.00703946
0.00604162
0.00480496
0.0038766
0.0107874
0.00978084
0.00781465
0.00880292
0.0153687
0.0142425
0.0130144
0.0118623
0.0186373
0.018571
0.0180274
0.0170804
0.0174118
0.0186134
0.0195051
0.0199759
0.0151676
0.0167455
0.0181992
0.0132767
0.0136121
0.0157691
0.0163236
0.0147514
0.0142933
0.0160367
0.0151882
0.0139849
0.0167889
0.0178725
0.0180601
0.0179553
0.017423
0.0179902
0.0184682
0.0172983
0.0174374
0.0181644
0.0182843
0.00534633
0.000110959
0.000368302
0.0163973
0.0120686
0.000178823
0.000212641
0.000293113
0.000366159
0.000400435
0.000430868
0.000461943
0.000499669
0.000498425
0.000459154