/*--------------------------------*- C++ -*----------------------------------*\
  =========                 |
  \\      /  F ield         | OpenFOAM: The Open Source CFD Toolbox
   \\    /   O peration     | Website:  https://openfoam.org
    \\  /    A nd           | Version:  dev
     \\/     M anipulation  |
\*---------------------------------------------------------------------------*/
FoamFile
{
    version     2.0;
    format      ascii;
    class       volScalarField;
    location    "2500";
    object      N2;
}
// * * * * * * * * * * * * * * * * * * * * * * * * * * * * * * * * * * * * * //

dimensions      [0 0 0 0 0 0 0];

internalField   nonuniform List<scalar> 
9836
(
0.76699
0.76699
0.76699
0.76699
0.76699
0.76699
0.76699
0.76699
0.76699
0.76699
0.76699
0.76699
0.76699
0.76699
0.76699
0.76699
0.76699
0.76699
0.76699
0.76699
0.76699
0.76699
0.76699
0.76699
0.76699
0.76699
0.76699
0.76699
0.76699
0.76699
0.76699
0.76699
0.76699
0.76699
0.76699
0.76699
0.76699
0.76699
0.76699
0.76699
0.76699
0.76699
0.76699
0.76699
0.76699
0.76699
0.76699
0.76699
0.76699
0.76699
0.76699
0.76699
0.76699
0.76699
0.76699
0.76699
0.76699
0.76699
0.76699
0.76699
0.76699
0.76699
0.76699
0.76699
0.76699
0.76699
0.76699
0.76699
0.76699
0.76699
0.76699
0.76699
0.76699
0.76699
0.76699
0.76699
0.76699
0.76699
0.76699
0.76699
0.76699
0.76699
0.76699
0.76699
0.76699
0.76699
0.76699
0.76699
0.76699
0.76699
0.76699
0.76699
0.76699
0.76699
0.76699
0.76699
0.76699
0.76699
0.76699
0.76699
0.76699
0.76699
0.76699
0.76699
0.76699
0.76699
0.76699
0.76699
0.76699
0.76699
0.76699
0.76699
0.76699
0.76699
0.76699
0.76699
0.76699
0.76699
0.76699
0.76699
0.76699
0.76699
0.76699
0.76699
0.76699
0.76699
0.76699
0.76699
0.76699
0.76699
0.76699
0.76699
0.76699
0.76699
0.76699
0.76699
0.76699
0.76699
0.76699
0.76699
0.76699
0.76699
0.76699
0.76699
0.76699
0.76699
0.76699
0.76699
0.76699
0.76699
0.76699
0.76699
0.76699
0.76699
0.76699
0.76699
0.76699
0.76699
0.76699
0.76699
0.76699
0.76699
0.76699
0.76699
0.76699
0.76699
0.76699
0.76699
0.76699
0.76699
0.76699
0.76699
0.76699
0.76699
0.76699
0.76699
0.76699
0.76699
0.76699
0.76699
0.76699
0.76699
0.76699
0.76699
0.76699
0.76699
0.76699
0.76699
0.76699
0.76699
0.76699
0.76699
0.76699
0.76699
0.76699
0.76699
0.76699
0.76699
0.76699
0.76699
0.76699
0.76699
0.76699
0.76699
0.76699
0.76699
0.76699
0.76699
0.76699
0.76699
0.76699
0.76699
0.76699
0.76699
0.76699
0.76699
0.76699
0.76699
0.76699
0.76699
0.76699
0.76699
0.76699
0.76699
0.76699
0.76699
0.76699
0.76699
0.76699
0.76699
0.76699
0.76699
0.76699
0.76699
0.76699
0.76699
0.76699
0.76699
0.76699
0.76699
0.76699
0.76699
0.76699
0.76699
0.76699
0.76699
0.76699
0.76699
0.76699
0.76699
0.76699
0.76699
0.76699
0.76699
0.76699
0.76699
0.76699
0.76699
0.76699
0.76699
0.76699
0.76699
0.76699
0.76699
0.76699
0.76699
0.76699
0.76699
0.76699
0.76699
0.76699
0.76699
0.76699
0.76699
0.76699
0.76699
0.76699
0.76699
0.76699
0.76699
0.76699
0.76699
0.76699
0.76699
0.76699
0.76699
0.76699
0.76699
0.76699
0.76699
0.76699
0.76699
0.76699
0.76699
0.76699
0.76699
0.76699
0.76699
0.76699
0.76699
0.76699
0.76699
0.76699
0.76699
0.76699
0.76699
0.76699
0.76699
0.76699
0.76699
0.76699
0.76699
0.76699
0.76699
0.76699
0.76699
0.76699
0.76699
0.76699
0.76699
0.76699
0.76699
0.76699
0.76699
0.76699
0.76699
0.76699
0.76699
0.76699
0.76699
0.76699
0.76699
0.76699
0.76699
0.76699
0.76699
0.76699
0.76699
0.76699
0.76699
0.76699
0.76699
0.76699
0.76699
0.76699
0.76699
0.76699
0.76699
0.76699
0.76699
0.76699
0.76699
0.76699
0.76699
0.76699
0.76699
0.76699
0.76699
0.76699
0.76699
0.76699
0.76699
0.76699
0.76699
0.76699
0.76699
0.76699
0.76699
0.76699
0.76699
0.76699
0.76699
0.76699
0.76699
0.76699
0.76699
0.76699
0.76699
0.76699
0.76699
0.76699
0.76699
0.76699
0.76699
0.76699
0.76699
0.76699
0.76699
0.76699
0.76699
0.76699
0.76699
0.76699
0.76699
0.76699
0.76699
0.76699
0.76699
0.76699
0.76699
0.76699
0.76699
0.76699
0.76699
0.76699
0.76699
0.76699
0.76699
0.76699
0.76699
0.76699
0.76699
0.76699
0.76699
0.76699
0.76699
0.76699
0.76699
0.76699
0.76699
0.76699
0.76699
0.76699
0.76699
0.76699
0.76699
0.76699
0.76699
0.76699
0.76699
0.76699
0.76699
0.76699
0.76699
0.76699
0.76699
0.76699
0.76699
0.76699
0.76699
0.76699
0.76699
0.76699
0.76699
0.76699
0.76699
0.76699
0.76699
0.76699
0.76699
0.76699
0.76699
0.76699
0.76699
0.76699
0.76699
0.76699
0.76699
0.76699
0.76699
0.76699
0.76699
0.76699
0.76699
0.76699
0.76699
0.76699
0.76699
0.76699
0.76699
0.76699
0.76699
0.76699
0.76699
0.76699
0.76699
0.76699
0.76699
0.76699
0.76699
0.76699
0.76699
0.76699
0.76699
0.76699
0.76699
0.76699
0.76699
0.76699
0.76699
0.76699
0.76699
0.76699
0.76699
0.76699
0.76699
0.76699
0.76699
0.76699
0.76699
0.76699
0.76699
0.76699
0.76699
0.76699
0.76699
0.76699
0.76699
0.76699
0.76699
0.76699
0.76699
0.76699
0.76699
0.76699
0.76699
0.76699
0.76699
0.76699
0.76699
0.76699
0.76699
0.76699
0.76699
0.76699
0.76699
0.76699
0.76699
0.76699
0.76699
0.76699
0.76699
0.76699
0.76699
0.76699
0.76699
0.76699
0.76699
0.76699
0.76699
0.76699
0.76699
0.76699
0.76699
0.76699
0.76699
0.76699
0.76699
0.76699
0.76699
0.76699
0.76699
0.76699
0.76699
0.76699
0.76699
0.76699
0.76699
0.76699
0.76699
0.76699
0.76699
0.76699
0.76699
0.76699
0.76699
0.76699
0.76699
0.76699
0.76699
0.76699
0.76699
0.76699
0.76699
0.76699
0.76699
0.76699
0.76699
0.76699
0.76699
0.76699
0.76699
0.76699
0.76699
0.76699
0.76699
0.76699
0.76699
0.76699
0.76699
0.76699
0.76699
0.76699
0.76699
0.76699
0.76699
0.76699
0.76699
0.76699
0.76699
0.76699
0.76699
0.76699
0.76699
0.76699
0.76699
0.76699
0.76699
0.76699
0.76699
0.76699
0.76699
0.76699
0.76699
0.76699
0.76699
0.76699
0.76699
0.76699
0.76699
0.76699
0.76699
0.76699
0.76699
0.76699
0.76699
0.76699
0.76699
0.76699
0.76699
0.76699
0.76699
0.76699
0.76699
0.76699
0.76699
0.76699
0.76699
0.76699
0.76699
0.76699
0.76699
0.76699
0.76699
0.76699
0.76699
0.76699
0.76699
0.76699
0.76699
0.76699
0.76699
0.76699
0.76699
0.76699
0.76699
0.76699
0.76699
0.76699
0.76699
0.76699
0.76699
0.76699
0.76699
0.76699
0.76699
0.76699
0.76699
0.76699
0.76699
0.76699
0.76699
0.76699
0.76699
0.76699
0.76699
0.76699
0.76699
0.76699
0.76699
0.76699
0.76699
0.76699
0.76699
0.76699
0.76699
0.76699
0.76699
0.76699
0.76699
0.76699
0.76699
0.76699
0.76699
0.76699
0.76699
0.76699
0.76699
0.76699
0.76699
0.76699
0.76699
0.76699
0.76699
0.76699
0.76699
0.76699
0.76699
0.76699
0.76699
0.76699
0.76699
0.76699
0.76699
0.76699
0.76699
0.76699
0.76699
0.76699
0.76699
0.76699
0.76699
0.76699
0.76699
0.76699
0.76699
0.76699
0.76699
0.76699
0.76699
0.76699
0.76699
0.76699
0.76699
0.76699
0.76699
0.76699
0.76699
0.76699
0.76699
0.76699
0.76699
0.76699
0.76699
0.76699
0.76699
0.76699
0.76699
0.76699
0.76699
0.76699
0.76699
0.76699
0.76699
0.76699
0.76699
0.76699
0.76699
0.76699
0.76699
0.76699
0.76699
0.76699
0.76699
0.76699
0.76699
0.76699
0.76699
0.76699
0.76699
0.76699
0.76699
0.76699
0.76699
0.76699
0.76699
0.76699
0.76699
0.76699
0.76699
0.76699
0.76699
0.76699
0.76699
0.76699
0.76699
0.76699
0.76699
0.76699
0.76699
0.766989
0.766988
0.766989
0.766987
0.76699
0.766989
0.76699
0.76699
0.76699
0.76699
0.76699
0.76699
0.76699
0.76699
0.76699
0.76699
0.76699
0.76699
0.76699
0.76699
0.76699
0.76699
0.76699
0.76699
0.76699
0.76699
0.76699
0.76699
0.76699
0.76699
0.76699
0.76699
0.76699
0.76699
0.76699
0.76699
0.76699
0.76699
0.76699
0.76699
0.76699
0.76699
0.76699
0.76699
0.76699
0.766989
0.766987
0.76698
0.766982
0.76697
0.766985
0.766976
0.766988
0.766982
0.76699
0.766987
0.76699
0.76699
0.76699
0.76699
0.76699
0.76699
0.76699
0.76699
0.76699
0.76699
0.76699
0.76699
0.76699
0.76699
0.76699
0.76699
0.76699
0.76699
0.76699
0.76699
0.76699
0.76699
0.76699
0.76699
0.76699
0.76699
0.76699
0.76699
0.76699
0.76699
0.76699
0.76699
0.76699
0.76699
0.76699
0.76699
0.76699
0.766988
0.766982
0.766959
0.766948
0.766909
0.766954
0.76691
0.766967
0.766929
0.766979
0.766956
0.766987
0.766977
0.766987
0.76699
0.766988
0.766988
0.76699
0.76699
0.76699
0.76699
0.76699
0.76699
0.76699
0.76699
0.76699
0.76699
0.76699
0.76699
0.76699
0.76699
0.76699
0.76699
0.76699
0.76699
0.76699
0.76699
0.76699
0.76699
0.76699
0.76699
0.76699
0.76699
0.76699
0.76699
0.76699
0.76699
0.76699
0.76699
0.76699
0.766987
0.766971
0.76692
0.766864
0.766804
0.766844
0.766765
0.766858
0.766762
0.766899
0.766798
0.766945
0.766867
0.766976
0.766937
0.766977
0.766989
0.766979
0.766982
0.76699
0.766989
0.76699
0.76699
0.76699
0.76699
0.76699
0.76699
0.76699
0.76699
0.76699
0.76699
0.76699
0.76699
0.76699
0.76699
0.76699
0.76699
0.76699
0.76699
0.76699
0.76699
0.76699
0.76699
0.76699
0.76699
0.76699
0.76699
0.76699
0.76699
0.76699
0.76699
0.76699
0.766986
0.766965
0.766868
0.766754
0.766696
0.766685
0.76661
0.766659
0.76656
0.766674
0.766552
0.766735
0.766592
0.76684
0.766681
0.766935
0.766823
0.766938
0.766985
0.766946
0.766958
0.76699
0.766987
0.76699
0.76699
0.76699
0.76699
0.76699
0.76699
0.76699
0.76699
0.76699
0.76699
0.76699
0.76699
0.76699
0.76699
0.76699
0.76699
0.76699
0.76699
0.76699
0.76699
0.76699
0.76699
0.76699
0.76699
0.76699
0.76699
0.76699
0.76699
0.76699
0.76699
0.76699
0.766985
0.766955
0.766838
0.766653
0.76661
0.766548
0.766503
0.766486
0.766445
0.766458
0.766411
0.766466
0.766394
0.766523
0.766404
0.766642
0.766473
0.76682
0.766621
0.766831
0.766969
0.766855
0.766887
0.766989
0.766979
0.76699
0.76699
0.76699
0.76699
0.76699
0.76699
0.76699
0.76699
0.76699
0.76699
0.76699
0.76699
0.76699
0.76699
0.76699
0.76699
0.76699
0.76699
0.76699
0.76699
0.76699
0.76699
0.76699
0.76699
0.76699
0.76699
0.76699
0.76699
0.76699
0.76699
0.76699
0.766986
0.76695
0.766796
0.766579
0.766568
0.766478
0.766462
0.766425
0.766418
0.766392
0.766392
0.766366
0.766367
0.766351
0.766339
0.766362
0.76632
0.766442
0.766333
0.766619
0.766429
0.766639
0.766922
0.766681
0.766743
0.766985
0.766953
0.76699
0.766988
0.76699
0.76699
0.76699
0.76699
0.76699
0.76699
0.76699
0.76699
0.76699
0.76699
0.76699
0.76699
0.76699
0.76699
0.76699
0.76699
0.76699
0.76699
0.76699
0.76699
0.76699
0.76699
0.76699
0.76699
0.76699
0.76699
0.76699
0.76699
0.76699
0.766986
0.766952
0.766783
0.766491
0.766457
0.766443
0.76642
0.766423
0.766397
0.766408
0.766375
0.766396
0.766347
0.766372
0.766319
0.766336
0.766295
0.7663
0.766313
0.766273
0.766431
0.7663
0.76645
0.766817
0.766487
0.766549
0.766974
0.766886
0.76699
0.766984
0.76699
0.76699
0.76699
0.76699
0.76699
0.76699
0.76699
0.76699
0.76699
0.76699
0.76699
0.76699
0.76699
0.76699
0.76699
0.76699
0.76699
0.76699
0.76699
0.76699
0.76699
0.76699
0.76699
0.76699
0.76699
0.76699
0.76699
0.76699
0.76699
0.766987
0.766955
0.766788
0.766492
0.766436
0.766442
0.766427
0.76643
0.766424
0.766442
0.76643
0.766467
0.76642
0.766478
0.766381
0.766452
0.766326
0.766388
0.766279
0.766313
0.766253
0.766257
0.766298
0.766234
0.766309
0.766645
0.766338
0.76639
0.766942
0.766764
0.766989
0.766974
0.76699
0.76699
0.76699
0.76699
0.76699
0.76699
0.76699
0.76699
0.76699
0.76699
0.76699
0.76699
0.76699
0.76699
0.76699
0.76699
0.76699
0.76699
0.76699
0.76699
0.76699
0.76699
0.76699
0.76699
0.76699
0.76699
0.76699
0.76699
0.76699
0.766989
0.766962
0.766802
0.766497
0.766445
0.766447
0.766481
0.766485
0.766458
0.766472
0.766504
0.766536
0.766538
0.766593
0.766532
0.76661
0.766474
0.766564
0.766382
0.766461
0.766288
0.766349
0.766228
0.766252
0.76622
0.766198
0.766218
0.766472
0.76623
0.766266
0.766871
0.766597
0.766988
0.766949
0.76699
0.76699
0.76699
0.76699
0.76699
0.76699
0.76699
0.76699
0.76699
0.76699
0.76699
0.76699
0.76699
0.76699
0.76699
0.76699
0.76699
0.76699
0.76699
0.76699
0.76699
0.76699
0.76699
0.76699
0.76699
0.76699
0.76699
0.76699
0.76699
0.766989
0.766973
0.76683
0.766511
0.766447
0.766447
0.766485
0.766483
0.766582
0.766582
0.766559
0.766574
0.766637
0.766669
0.76668
0.766736
0.766655
0.766739
0.766542
0.766628
0.766413
0.766482
0.766299
0.76635
0.766209
0.766239
0.76617
0.766162
0.76615
0.766333
0.766145
0.766162
0.766753
0.76644
0.766985
0.7669
0.76699
0.76699
0.76699
0.76699
0.76699
0.76699
0.76699
0.76699
0.76699
0.76699
0.76699
0.76699
0.76699
0.76699
0.76699
0.76699
0.76699
0.76699
0.76699
0.76699
0.76699
0.76699
0.76699
0.76699
0.76699
0.76699
0.76699
0.76699
0.76699
0.76699
0.766982
0.766872
0.76654
0.766446
0.766478
0.766473
0.766578
0.76657
0.766697
0.766692
0.766689
0.766697
0.766775
0.766798
0.766811
0.766862
0.766723
0.766823
0.766556
0.766641
0.766397
0.766441
0.766263
0.766269
0.766164
0.766152
0.766114
0.766083
0.766074
0.766211
0.76605
0.766052
0.766602
0.766299
0.766979
0.766813
0.76699
0.76699
0.76699
0.76699
0.76699
0.76699
0.76699
0.76699
0.76699
0.76699
0.76699
0.76699
0.76699
0.76699
0.76699
0.76699
0.76699
0.76699
0.76699
0.76699
0.76699
0.76699
0.76699
0.76699
0.76699
0.76699
0.76699
0.76699
0.76699
0.766986
0.766915
0.766593
0.766431
0.766526
0.766507
0.766557
0.766541
0.766681
0.766665
0.766801
0.766788
0.766808
0.766807
0.766889
0.7669
0.766899
0.766936
0.766743
0.766857
0.766498
0.766591
0.766263
0.766272
0.766111
0.766049
0.766029
0.765935
0.766007
0.765906
0.765944
0.766085
0.765905
0.765897
0.766437
0.76615
0.766926
0.766599
0.76699
0.76699
0.76699
0.76699
0.76699
0.76699
0.76699
0.76699
0.76699
0.76699
0.76699
0.76699
0.76699
0.76699
0.76699
0.76699
0.76699
0.76699
0.76699
0.76699
0.76699
0.76699
0.76699
0.76699
0.76699
0.76699
0.76699
0.76699
0.766988
0.766945
0.766663
0.766427
0.766489
0.766465
0.766599
0.766573
0.766645
0.766623
0.76677
0.766749
0.766879
0.766862
0.766899
0.766892
0.76695
0.766954
0.766934
0.766962
0.766724
0.766865
0.766329
0.76647
0.766006
0.766056
0.765826
0.765762
0.765763
0.765609
0.765798
0.765606
0.765717
0.765919
0.765668
0.765646
0.765786
0.766235
0.765961
0.766701
0.766285
0.76699
0.76699
0.76699
0.76699
0.76699
0.76699
0.76699
0.76699
0.76699
0.76699
0.76699
0.76699
0.76699
0.76699
0.76699
0.76699
0.76699
0.76699
0.76699
0.76699
0.76699
0.76699
0.76699
0.76699
0.76699
0.76699
0.76699
0.766989
0.766964
0.766743
0.766431
0.766459
0.766547
0.766525
0.766671
0.766641
0.766726
0.766699
0.766842
0.766819
0.766935
0.766919
0.766953
0.766948
0.76697
0.766973
0.766941
0.766966
0.766675
0.766858
0.766211
0.76643
0.765832
0.765991
0.765568
0.765653
0.765436
0.765411
0.765476
0.765321
0.765401
0.76554
0.765398
0.765649
0.765811
0.765659
0.7655
0.765338
0.765364
0.765493
0.766009
0.765676
0.765698
0.765853
0.766466
0.76603
0.76699
0.76699
0.76699
0.76699
0.76699
0.76699
0.76699
0.76699
0.76699
0.76699
0.76699
0.76699
0.76699
0.76699
0.76699
0.76699
0.76699
0.76699
0.76699
0.76699
0.76699
0.76699
0.76699
0.76699
0.76699
0.76699
0.766989
0.766975
0.766813
0.766449
0.766417
0.76655
0.766514
0.76661
0.76658
0.766736
0.766704
0.766794
0.766766
0.7669
0.766878
0.766969
0.766962
0.766974
0.766973
0.766972
0.766975
0.766936
0.766956
0.76667
0.766847
0.766206
0.766464
0.765823
0.76606
0.765481
0.765554
0.765643
0.765763
0.765294
0.765316
0.765499
0.765456
0.765365
0.765259
0.765286
0.765199
0.765229
0.765237
0.765496
0.765508
0.765327
0.765174
0.765201
0.765322
0.76572
0.765914
0.765754
0.765527
0.765553
0.766435
0.765797
0.765878
0.766021
0.76699
0.76699
0.76699
0.76699
0.76699
0.76699
0.76699
0.76699
0.76699
0.76699
0.76699
0.76699
0.76699
0.76699
0.76699
0.76699
0.76699
0.76699
0.76699
0.76699
0.76699
0.76699
0.76699
0.76699
0.76699
0.76699
0.766981
0.766865
0.766496
0.766389
0.766496
0.766605
0.766575
0.766671
0.766638
0.766796
0.766764
0.766853
0.766826
0.766948
0.76693
0.766982
0.76698
0.766979
0.766982
0.766961
0.766966
0.766906
0.766915
0.766698
0.766808
0.766326
0.766557
0.765885
0.766027
0.766152
0.766285
0.765598
0.765721
0.765858
0.765252
0.765313
0.765563
0.765532
0.765409
0.765172
0.765149
0.76512
0.765198
0.765104
0.765325
0.765337
0.765156
0.765065
0.765031
0.765147
0.765586
0.765634
0.76536
0.765394
0.766026
0.766685
0.76637
0.765711
0.765839
0.76699
0.76699
0.76699
0.76699
0.76699
0.76699
0.76699
0.76699
0.76699
0.76699
0.76699
0.76699
0.76699
0.76699
0.76699
0.76699
0.76699
0.76699
0.76699
0.76699
0.76699
0.76699
0.76699
0.76699
0.76699
0.766985
0.766905
0.766567
0.766383
0.766439
0.766593
0.766554
0.766662
0.766628
0.766731
0.766697
0.766855
0.766825
0.766908
0.766883
0.766976
0.766969
0.766985
0.766986
0.766977
0.766983
0.766919
0.766935
0.76682
0.766814
0.766666
0.766658
0.76638
0.766464
0.766506
0.766514
0.765998
0.766133
0.766249
0.766334
0.765693
0.765835
0.765979
0.765267
0.765372
0.765671
0.765655
0.765504
0.765147
0.765071
0.765097
0.765222
0.765024
0.765147
0.765159
0.765004
0.764979
0.764937
0.764985
0.765443
0.76552
0.765185
0.765229
0.766087
0.766758
0.766508
0.765636
0.765825
0.76699
0.76699
0.76699
0.76699
0.76699
0.76699
0.76699
0.76699
0.76699
0.76699
0.76699
0.76699
0.76699
0.76699
0.76699
0.76699
0.76699
0.76699
0.76699
0.76699
0.76699
0.76699
0.76699
0.76699
0.766987
0.766937
0.766657
0.766389
0.766391
0.766532
0.766653
0.76662
0.766724
0.766689
0.766793
0.766759
0.766915
0.766887
0.766957
0.766938
0.766986
0.766984
0.766986
0.766988
0.766963
0.76698
0.766825
0.766869
0.766607
0.766601
0.766488
0.766443
0.76639
0.766342
0.766391
0.766405
0.76638
0.766324
0.766111
0.766213
0.766281
0.766302
0.765821
0.765968
0.766093
0.765336
0.765479
0.765814
0.765809
0.765642
0.765176
0.765046
0.765127
0.765299
0.764994
0.764977
0.764985
0.764897
0.764941
0.764886
0.764862
0.7653
0.765413
0.765013
0.765069
0.76615
0.766837
0.766591
0.765577
0.765833
0.76699
0.76699
0.76699
0.76699
0.76699
0.76699
0.76699
0.76699
0.76699
0.76699
0.76699
0.76699
0.76699
0.76699
0.76699
0.76699
0.76699
0.76699
0.76699
0.76699
0.76699
0.76699
0.76699
0.766988
0.766959
0.766754
0.766409
0.766355
0.766466
0.766648
0.766607
0.766721
0.766685
0.766791
0.766756
0.766858
0.766825
0.766964
0.766948
0.76698
0.766974
0.766988
0.766988
0.766984
0.766988
0.766931
0.766971
0.766649
0.766751
0.766205
0.76625
0.76625
0.766176
0.766119
0.766098
0.766283
0.76622
0.766128
0.766027
0.766177
0.766213
0.766203
0.766139
0.765963
0.766077
0.766135
0.765452
0.765627
0.765956
0.765946
0.765801
0.765255
0.765074
0.765205
0.765419
0.765015
0.764837
0.76483
0.764832
0.76495
0.764878
0.764783
0.765166
0.765317
0.764855
0.764921
0.766219
0.766888
0.766674
0.765536
0.765857
0.76699
0.76699
0.76699
0.76699
0.76699
0.76699
0.76699
0.76699
0.76699
0.76699
0.76699
0.76699
0.76699
0.76699
0.76699
0.76699
0.76699
0.76699
0.76699
0.76699
0.76699
0.76699
0.766989
0.766973
0.76683
0.766459
0.766335
0.766407
0.76659
0.766725
0.766689
0.766796
0.766761
0.766864
0.766831
0.766924
0.766896
0.766983
0.766978
0.766988
0.766986
0.766989
0.766989
0.76698
0.766987
0.766876
0.766955
0.766386
0.766585
0.76581
0.765851
0.766016
0.765918
0.765933
0.765859
0.765812
0.765798
0.766034
0.76591
0.765784
0.765676
0.766139
0.766087
0.765978
0.765834
0.766055
0.76608
0.766056
0.765605
0.765784
0.766018
0.76597
0.765923
0.765375
0.765146
0.765319
0.76557
0.765077
0.764739
0.764711
0.764803
0.764997
0.764905
0.764731
0.765042
0.765234
0.764717
0.764787
0.766295
0.766926
0.766748
0.76551
0.765893
0.76699
0.76699
0.76699
0.76699
0.76699
0.76699
0.76699
0.76699
0.76699
0.76699
0.76699
0.76699
0.76699
0.76699
0.76699
0.76699
0.76699
0.76699
0.76699
0.76699
0.76699
0.766989
0.76698
0.766883
0.766535
0.766335
0.766359
0.76652
0.766737
0.766696
0.766809
0.766774
0.766878
0.766844
0.766937
0.766909
0.76697
0.766957
0.766989
0.766987
0.766989
0.766989
0.766989
0.766989
0.766974
0.766986
0.766797
0.766931
0.766122
0.766268
0.766443
0.765607
0.765684
0.765909
0.765786
0.765596
0.76555
0.765539
0.765557
0.765679
0.765534
0.765417
0.765336
0.765958
0.765808
0.76563
0.76545
0.766022
0.765961
0.765825
0.765756
0.765886
0.765957
0.765895
0.765917
0.765518
0.765249
0.765449
0.76571
0.765166
0.764669
0.764622
0.764805
0.765067
0.764951
0.764703
0.764931
0.765164
0.764606
0.764666
0.766376
0.766961
0.766832
0.765495
0.765941
0.76699
0.76699
0.76699
0.76699
0.76699
0.76699
0.76699
0.76699
0.76699
0.76699
0.76699
0.76699
0.76699
0.76699
0.76699
0.76699
0.76699
0.76699
0.76699
0.76699
0.766989
0.766985
0.766919
0.766623
0.766345
0.766325
0.766454
0.766684
0.76683
0.766794
0.766898
0.766865
0.766951
0.766927
0.766976
0.766966
0.766985
0.766982
0.76699
0.76699
0.76699
0.76699
0.766988
0.766989
0.76697
0.766984
0.766735
0.766915
0.766046
0.766194
0.766343
0.766518
0.765493
0.76561
0.765883
0.765741
0.765296
0.765294
0.765326
0.765395
0.765291
0.765168
0.765091
0.765064
0.765638
0.765431
0.765233
0.765064
0.765864
0.765694
0.765476
0.765837
0.765865
0.765775
0.765697
0.765829
0.765644
0.765363
0.765559
0.765774
0.765259
0.764614
0.76455
0.764824
0.765138
0.764999
0.764691
0.764831
0.765103
0.764514
0.764557
0.766479
0.766983
0.766912
0.765491
0.766008
0.76699
0.76699
0.76699
0.76699
0.76699
0.76699
0.76699
0.76699
0.76699
0.76699
0.76699
0.76699
0.76699
0.76699
0.76699
0.76699
0.76699
0.76699
0.76699
0.76699
0.766986
0.766944
0.766717
0.766372
0.766299
0.766396
0.766609
0.766854
0.766812
0.766922
0.76689
0.766963
0.766946
0.76698
0.766973
0.766987
0.766985
0.766989
0.766988
0.76699
0.76699
0.76699
0.76699
0.766987
0.766988
0.766969
0.766979
0.766652
0.766809
0.766917
0.766033
0.766188
0.766398
0.766552
0.765472
0.765612
0.765916
0.76576
0.765075
0.765132
0.765227
0.765344
0.764939
0.764868
0.764855
0.764882
0.765246
0.765033
0.764858
0.764733
0.765575
0.76533
0.76508
0.765803
0.765777
0.765471
0.765384
0.765626
0.7657
0.765454
0.765613
0.76574
0.765333
0.764568
0.764481
0.764842
0.765192
0.765029
0.764679
0.76474
0.765052
0.76443
0.76446
0.766611
0.766988
0.766959
0.765503
0.766107
0.76699
0.76699
0.76699
0.76699
0.76699
0.76699
0.76699
0.76699
0.76699
0.76699
0.76699
0.76699
0.76699
0.76699
0.76699
0.76699
0.76699
0.76699
0.76699
0.766987
0.76696
0.766794
0.766425
0.766289
0.766347
0.76654
0.766801
0.766941
0.766909
0.766972
0.76696
0.766984
0.76698
0.766988
0.766987
0.76699
0.766989
0.76699
0.76699
0.76699
0.76699
0.766989
0.766989
0.766982
0.766985
0.766961
0.766965
0.766958
0.76669
0.766813
0.76695
0.76691
0.766077
0.766238
0.766485
0.766624
0.765531
0.765692
0.766014
0.765853
0.764968
0.765088
0.765223
0.765372
0.76467
0.764663
0.764709
0.764813
0.764856
0.764676
0.764551
0.764491
0.765203
0.764936
0.764701
0.765719
0.765571
0.765097
0.765013
0.765316
0.765669
0.7655
0.765584
0.765661
0.765366
0.764526
0.764411
0.764845
0.765209
0.765027
0.764657
0.764656
0.765008
0.764348
0.764372
0.766741
0.76699
0.766982
0.765537
0.76623
0.76699
0.76699
0.76699
0.76699
0.76699
0.76699
0.76699
0.76699
0.76699
0.76699
0.76699
0.76699
0.76699
0.76699
0.76699
0.76699
0.76699
0.76699
0.766988
0.766971
0.766848
0.766495
0.766291
0.766311
0.766478
0.766731
0.766953
0.766922
0.766978
0.766968
0.766987
0.766984
0.766989
0.766988
0.76699
0.76699
0.76699
0.76699
0.76699
0.76699
0.766989
0.76699
0.766987
0.766988
0.766963
0.766969
0.766942
0.766946
0.766891
0.766894
0.766743
0.766839
0.766935
0.766915
0.766174
0.766332
0.766595
0.766712
0.765676
0.765844
0.766161
0.766004
0.764956
0.765125
0.765312
0.765497
0.764488
0.764539
0.76465
0.764813
0.764517
0.76439
0.76433
0.764324
0.764813
0.764569
0.764378
0.765524
0.765274
0.764714
0.764643
0.764959
0.765596
0.765481
0.765515
0.76549
0.765353
0.764473
0.764335
0.764826
0.76519
0.76499
0.764608
0.764577
0.764977
0.764265
0.76429
0.766862
0.76699
0.766987
0.765592
0.766388
0.76699
0.76699
0.76699
0.76699
0.76699
0.76699
0.76699
0.76699
0.76699
0.76699
0.76699
0.76699
0.76699
0.76699
0.76699
0.76699
0.76699
0.766988
0.766978
0.766889
0.766573
0.766302
0.766286
0.766421
0.766661
0.766911
0.76698
0.766968
0.766988
0.766986
0.766989
0.766989
0.76699
0.76699
0.76699
0.76699
0.76699
0.76699
0.76699
0.76699
0.766989
0.76699
0.76698
0.766987
0.766904
0.766914
0.766917
0.766896
0.766892
0.766791
0.766794
0.766806
0.766875
0.7669
0.7669
0.766313
0.76646
0.766707
0.76679
0.765876
0.766043
0.766341
0.766197
0.765019
0.765244
0.765471
0.765685
0.764369
0.764471
0.764629
0.764834
0.76425
0.764187
0.764178
0.764199
0.764456
0.76426
0.764128
0.765268
0.764964
0.76437
0.764345
0.764638
0.765453
0.765411
0.765394
0.765272
0.76528
0.764397
0.76425
0.76476
0.765096
0.764858
0.76451
0.7645
0.76496
0.764183
0.764211
0.766916
0.76699
0.766989
0.765673
0.766506
0.76699
0.76699
0.76699
0.76699
0.76699
0.766989
0.766989
0.766989
0.766989
0.766989
0.76699
0.76699
0.76699
0.76699
0.76699
0.76699
0.766989
0.766982
0.766918
0.766652
0.766331
0.766266
0.766372
0.766597
0.766862
0.766979
0.766988
0.766984
0.76699
0.766989
0.76699
0.76699
0.76699
0.76699
0.76699
0.76699
0.76699
0.76699
0.76699
0.76699
0.766987
0.766989
0.766952
0.766977
0.766812
0.766844
0.766823
0.766764
0.766806
0.766795
0.766637
0.766641
0.766848
0.766883
0.766825
0.766841
0.766476
0.7666
0.766786
0.766824
0.766102
0.766265
0.766525
0.766404
0.765085
0.765372
0.765655
0.765902
0.764285
0.764412
0.764593
0.764827
0.764062
0.764047
0.764055
0.764109
0.764162
0.764025
0.763958
0.764997
0.764678
0.764115
0.76411
0.764369
0.765266
0.76529
0.76522
0.765042
0.765124
0.764292
0.76416
0.764589
0.764883
0.764607
0.764346
0.764436
0.764965
0.764101
0.764143
0.766962
0.76699
0.76699
0.765752
0.766666
0.76699
0.76699
0.76699
0.766989
0.766988
0.766987
0.766987
0.766988
0.766988
0.766989
0.766989
0.76699
0.76699
0.76699
0.76699
0.766989
0.766983
0.766938
0.766727
0.766375
0.766259
0.766331
0.766537
0.766803
0.766964
0.766989
0.766989
0.766988
0.76699
0.76699
0.76699
0.76699
0.76699
0.76699
0.76699
0.76699
0.76699
0.76699
0.76699
0.76699
0.76699
0.766979
0.766988
0.766865
0.766946
0.766664
0.766707
0.766693
0.766594
0.76666
0.766642
0.766419
0.766424
0.766847
0.766849
0.766692
0.766726
0.766631
0.766721
0.7668
0.766802
0.766312
0.766474
0.766676
0.766591
0.765111
0.765438
0.765778
0.766079
0.764208
0.764346
0.764537
0.764784
0.763939
0.76394
0.763973
0.764038
0.763958
0.763882
0.763856
0.76475
0.764429
0.76392
0.763877
0.764122
0.765049
0.765083
0.764944
0.764781
0.764851
0.76417
0.764066
0.76436
0.764591
0.764346
0.76418
0.764392
0.764973
0.764031
0.764089
0.766974
0.76699
0.76699
0.765853
0.766752
0.76699
0.766989
0.766987
0.766983
0.76698
0.766979
0.76698
0.766983
0.766986
0.766988
0.766988
0.766989
0.76699
0.76699
0.766989
0.766984
0.766951
0.766787
0.766424
0.76626
0.7663
0.766484
0.766742
0.766943
0.766987
0.76699
0.76699
0.76699
0.76699
0.76699
0.76699
0.76699
0.76699
0.76699
0.76699
0.76699
0.76699
0.76699
0.76699
0.766989
0.76699
0.766958
0.766984
0.766627
0.766762
0.766855
0.766456
0.766516
0.766492
0.766372
0.766453
0.766427
0.766148
0.766153
0.76679
0.766759
0.766498
0.766552
0.766739
0.766779
0.766747
0.766709
0.766428
0.766603
0.766743
0.766697
0.765088
0.765441
0.765812
0.766155
0.764137
0.764273
0.764459
0.764699
0.763853
0.763875
0.76392
0.763984
0.763824
0.763783
0.763771
0.764433
0.764064
0.763747
0.763693
0.763818
0.764684
0.764721
0.76449
0.764325
0.764486
0.764045
0.763985
0.764162
0.76428
0.764106
0.764025
0.764348
0.764991
0.763976
0.764034
0.766981
0.76699
0.76699
0.765942
0.766804
0.766987
0.766981
0.76697
0.766958
0.766952
0.766955
0.766964
0.766973
0.76698
0.766985
0.766987
0.766989
0.766989
0.766989
0.766986
0.766958
0.766827
0.766482
0.766267
0.766279
0.766436
0.766681
0.766916
0.766984
0.76699
0.76699
0.76699
0.76699
0.76699
0.76699
0.76699
0.76699
0.76699
0.76699
0.76699
0.76699
0.76699
0.76699
0.76699
0.766989
0.76699
0.766905
0.766975
0.766435
0.766615
0.766798
0.766617
0.766193
0.76627
0.766269
0.766117
0.766199
0.76616
0.765846
0.765851
0.766661
0.766607
0.766261
0.76633
0.766764
0.766762
0.766619
0.766553
0.766445
0.76663
0.76672
0.766701
0.765001
0.765362
0.765759
0.76614
0.764067
0.76418
0.76434
0.764553
0.763779
0.76382
0.763867
0.763925
0.763702
0.763691
0.763694
0.763954
0.763748
0.76366
0.763639
0.763677
0.764188
0.764307
0.764084
0.763902
0.764143
0.763933
0.763903
0.763981
0.764021
0.763959
0.763911
0.764319
0.764993
0.763919
0.76399
0.766982
0.766989
0.766988
0.765987
0.766814
0.766966
0.766939
0.766907
0.766881
0.766879
0.766897
0.766928
0.766955
0.766972
0.766982
0.766986
0.766989
0.766989
0.766986
0.766963
0.766854
0.766542
0.766282
0.766263
0.766395
0.766626
0.766879
0.766978
0.766989
0.76699
0.76699
0.76699
0.76699
0.76699
0.76699
0.76699
0.76699
0.76699
0.76699
0.76699
0.76699
0.76699
0.76699
0.76699
0.766988
0.766989
0.766692
0.766764
0.766902
0.76696
0.766223
0.766419
0.766475
0.765899
0.765991
0.766029
0.765853
0.765917
0.765866
0.765539
0.765546
0.766482
0.766405
0.765986
0.766064
0.766713
0.766673
0.76642
0.766332
0.76634
0.766547
0.766602
0.7666
0.764829
0.765174
0.765574
0.765982
0.764001
0.764085
0.764184
0.764328
0.763709
0.763743
0.763784
0.763835
0.763635
0.763605
0.763598
0.763749
0.763702
0.763573
0.763622
0.763651
0.763898
0.763992
0.76389
0.763812
0.763968
0.763869
0.763842
0.763906
0.763945
0.763883
0.763878
0.764278
0.764978
0.763868
0.763949
0.766978
0.766975
0.766978
0.765981
0.766772
0.766885
0.766823
0.766777
0.766762
0.76678
0.766822
0.76688
0.766933
0.766963
0.766979
0.766986
0.766988
0.766986
0.766967
0.766873
0.766595
0.766307
0.766252
0.766359
0.766577
0.766833
0.766968
0.766989
0.76699
0.76699
0.76699
0.76699
0.76699
0.76699
0.76699
0.76699
0.76699
0.76699
0.76699
0.76699
0.76699
0.76699
0.76699
0.76699
0.76699
0.76699
0.766985
0.766989
0.76656
0.766694
0.766861
0.766937
0.766026
0.766252
0.766334
0.765602
0.765707
0.76581
0.765614
0.765595
0.765554
0.765223
0.765257
0.766241
0.766151
0.765659
0.765736
0.766576
0.766499
0.766135
0.766031
0.76601
0.766301
0.766372
0.766369
0.76455
0.76485
0.76522
0.765619
0.763895
0.763971
0.764057
0.764146
0.763621
0.763662
0.763696
0.763743
0.763569
0.763565
0.763359
0.763756
0.763422
0.763366
0.7634
0.763411
0.763847
0.763919
0.763862
0.763794
0.763908
0.763829
0.763799
0.763869
0.763875
0.76388
0.763809
0.76424
0.764935
0.763829
0.763912
0.76694
0.766943
0.766901
0.765878
0.766595
0.766733
0.766672
0.766646
0.766657
0.766698
0.766762
0.766838
0.76691
0.766958
0.766978
0.766985
0.766985
0.766969
0.766886
0.766639
0.766335
0.766246
0.766329
0.766531
0.766784
0.766954
0.766987
0.76699
0.76699
0.76699
0.76699
0.76699
0.76699
0.76699
0.76699
0.76699
0.76699
0.76699
0.76699
0.76699
0.76699
0.76699
0.76699
0.76699
0.76699
0.766982
0.766989
0.766472
0.766625
0.766814
0.766788
0.766895