/*--------------------------------*- C++ -*----------------------------------*\
  =========                 |
  \\      /  F ield         | OpenFOAM: The Open Source CFD Toolbox
   \\    /   O peration     | Website:  https://openfoam.org
    \\  /    A nd           | Version:  dev
     \\/     M anipulation  |
\*---------------------------------------------------------------------------*/
FoamFile
{
    version     2.0;
    format      ascii;
    class       volScalarField;
    location    "2500";
    object      nut;
}
// * * * * * * * * * * * * * * * * * * * * * * * * * * * * * * * * * * * * * //

dimensions      [0 2 -1 0 0 0 0];

internalField   nonuniform List<scalar> 
9836
(
0.000131373
0.000134241
0.000128254
0.000121112
0.000162785
0.000113543
0.000111858
0.000170995
0.00015386
0.000107204
0.000107525
0.00016375
0.000175454
0.000131384
0.000105312
0.000104535
0.000146172
0.000188131
0.000161903
0.000118864
0.000103859
0.000102922
0.000129826
0.000187437
0.000183725
0.000137652
0.000113446
0.00010285
0.000102195
0.000120274
0.000178895
0.000195806
0.000163684
0.000124006
0.000110113
0.0001022
0.000102004
0.000113189
0.000160035
0.000202127
0.00018661
0.000139988
0.000117718
0.000107714
0.000101682
0.000101885
0.000109159
0.000138972
0.000199182
0.000200282
0.000161663
0.000126402
0.000113887
0.000106012
0.000101249
0.000101754
0.000106686
0.00012788
0.000188655
0.000209361
0.000185767
0.000139928
0.00011959
0.000111037
0.000104809
0.000100958
0.000101443
0.000105164
0.000119225
0.000166817
0.00021216
0.000203161
0.000158477
0.000127228
0.000115541
0.000108881
0.000103828
0.000100795
0.000100971
0.000104375
0.0001139
0.000144311
0.000207487
0.000212272
0.000182003
0.000138319
0.000120558
0.000112726
0.000107257
0.000103015
0.000100674
0.000100607
0.000103933
0.000110678
0.000132651
0.000193846
0.0002201
0.000202216
0.000155616
0.000126567
0.000116482
0.000110553
0.00010589
0.000102351
0.000100583
0.000100416
0.000103546
0.000108724
0.000123797
0.000170152
0.00021995
0.000216252
0.000176196
0.000137089
0.000120336
0.000113598
0.000108767
0.00010473
0.000101827
0.000100477
0.000100316
0.000103011
0.000107337
0.000118251
0.000148216
0.000213497
0.000222583
0.000199641
0.000151706
0.000126215
0.000116525
0.000111271
0.000107205
0.000103733
0.000101497
0.000100302
0.00010027
0.000102466
0.000106339
0.000114549
0.000136693
0.000197192
0.000228364
0.000215664
0.000171233
0.000135309
0.000120173
0.00011389
0.000109368
0.000105865
0.000102857
0.000101262
0.000100136
0.000100258
0.00010205
0.000105733
0.000112158
0.000127825
0.000172919
0.000226665
0.00022632
0.000193124
0.000148512
0.000125611
0.000116461
0.000111716
0.000107822
0.000104764
0.000102211
0.000100965
0.000100028
0.000100295
0.000101772
0.000105197
0.000110574
0.000122063
0.000151647
0.000218411
0.000232334
0.000214237
0.000166073
0.00013377
0.000120055
0.000114113
0.000109894
0.000106513
0.000103776
0.000101792
0.000100603
9.99776e-05
0.000100283
0.000101413
0.000104421
0.0001091
0.000117964
0.000140262
0.000199931
0.000236039
0.000227287
0.000186089
0.000145506
0.000125006
0.000116607
0.000111948
0.000108309
0.000105399
0.000102888
0.000101411
0.000100257
9.99522e-05
0.000100229
0.000101108
0.00010367
0.000107847
0.000115009
0.000131208
0.000175385
0.000233058
0.000235362
0.000207933
0.000160649
0.000132423
0.0001198
0.000114329
0.000110101
0.000106985
0.000104415
0.000102229
0.000100999
0.000100022
9.9924e-05
0.000100161
0.000100847
0.000103032
0.000106997
0.000113216
0.000125004
0.000154488
0.000223382
0.000241353
0.000225937
0.000179439
0.000142362
0.000124588
0.000116426
0.000112213
0.000108601
0.000105896
0.000103506
0.000101728
0.000100572
9.98845e-05
9.99164e-05
0.000100097
0.000100669
0.000102603
0.000106319
0.000111774
0.000120728
0.000143108
0.000202943
0.000243539
0.000237484
0.000199705
0.000155696
0.000131022
0.00011968
0.000114192
0.000110405
0.000107373
0.000104969
0.00010271
0.00010129
0.000100217
9.9792e-05
9.99305e-05
0.000100051
0.000100601
0.000102271
0.000105587
0.000110409
0.000117787
0.000134058
0.000177891
0.000239583
0.000243867
0.000220835
0.000172442
0.000139566
0.000123992
0.000116426
0.000112265
0.000108949
0.000106353
0.000104109
0.000102124
0.000100928
9.99752e-05
9.97643e-05
9.99713e-05
0.00010003
0.000100518
0.000101836
0.000104728
0.000109092
0.000115714
0.000127749
0.000157239
0.00022885
0.000250034
0.000236158
0.000191525
0.000151186
0.000129727
0.000119371
0.000114266
0.000110628
0.000107752
0.000105446
0.000103368
0.00010169
0.000100617
9.98694e-05
9.98292e-05
0.000100049
0.000100021
0.000100364
0.000101438
0.000103966
0.000108067
0.000114111
0.000123142
0.000146047
0.000207166
0.000251262
0.000246904
0.000211948
0.000165588
0.000137252
0.000123497
0.000116344
0.000112519
0.000109214
0.000106734
0.000104705
0.000102752
0.000101356
0.000100385
9.98864e-05
9.9997e-05
0.000100176
0.000100014
0.00010018
0.000101097
0.000103383
0.000107276
0.000112674
0.000119849
0.000136854
0.000181769
0.000246817
0.000252307
0.000232213
0.000183368
0.000146668
0.000128666
0.000119344
0.000114323
0.000110936
0.000108057
0.000105927
0.000104052
0.000102265
0.000101115
0.000100308
0.00010006
0.000100298
0.000100364
0.000100003
0.000100009
0.000100838
0.000102969
0.000106512
0.000111277
0.00011737
0.000130232
0.000160566
0.000235423
0.000258557
0.000245775
0.000202343
0.000159741
0.000134882
0.000123122
0.000116532
0.000112734
0.000109576
0.000107147
0.000105275
0.000103451
0.000101939
0.000101026
0.000100439
0.000100439
0.000100773
0.000100587
9.99914e-05
9.98628e-05
0.000100659
0.000102547
0.000105727
0.000110089
0.000115448
0.000125436
0.000149422
0.000213602
0.000259227
0.00025596
0.000222739
0.000174797
0.000143424
0.000127675
0.00011936
0.000114543
0.000111255
0.000108501
0.000106481
0.000104714
0.000103014
0.000101809
0.000101134
0.00010082
0.000101103
0.000101489
0.000101028
9.99789e-05
9.97535e-05
0.000100488
0.000101987
0.000104893
0.000109074
0.000113814
0.000121888
0.000140267
0.000187616
0.00025466
0.000260688
0.000242392
0.000193226
0.00015374
0.000133313
0.00012289
0.000116774
0.000113081
0.000110094
0.000107782
0.000105997
0.000104336
0.000102837
0.000101906
0.00010152
0.000101518
0.000102189
0.000102428
0.000101609
9.99646e-05
9.96796e-05
0.000100297
0.000101482
0.00010415
0.000108134
0.000112305
0.00011931
0.000133514
0.000165322
0.000242901
0.000266697
0.000254903
0.000211879
0.000167828
0.000140161
0.000126958
0.000119582
0.00011495
0.000111981
0.000109306
0.00010736
0.00010573
0.000104186
0.000102948
0.000102311
0.000102284
0.000102684
0.000103581
0.000103896
0.000102347
9.99512e-05
9.96217e-05
0.000100084
0.000101068
0.00010351
0.000107268
0.000111068
0.000117432
0.000128656
0.000153475
0.000222153
0.000267043
0.000264389
0.000232418
0.000183219
0.000149343
0.00013188
0.000122732
0.000117252
0.00011371
0.000111158
0.000108858
0.000107209
0.000105703
0.000104323
0.000103421
0.000103156
0.000103561
0.000104519
0.000105352
0.000105604
9.07384e-05
9.99437e-05
9.95795e-05
9.98817e-05
0.000100775
0.000102987
0.000106473
0.000110028
0.00011552
0.000125121
0.000145043
0.000196518
0.000262753
0.000268716
0.000251374
0.000202023
0.000160556
0.00013765
0.000126508
0.000119875
0.000115761
0.000112953
0.00011066
0.000108776
0.000107325
0.000105973
0.000104929
0.000104321
0.00010457
0.000105598
0.000106814
0.00010007
8.96929e-05
7.61698e-05
9.99428e-05
9.95502e-05
9.97155e-05
0.000100552
0.000102475
0.00010575
0.000109071
0.000113758
0.000122658
0.000138179
0.000174131
0.000251721
0.000274274
0.000263318
0.000220262
0.000174959
0.000145174
0.000130557
0.000122952
0.000118066
0.000114835
0.000112558
0.00011055
0.000109058
0.00010782
0.000106787
0.000106222
0.00010607
0.000106743
0.000100664
9.15137e-05
8.44475e-05
7.79183e-05
6.47487e-05
6.82367e-05
9.99479e-05
9.95281e-05
9.95874e-05
0.000100357
0.000101973
0.000105042
0.000108149
0.000112382
0.000120437
0.000133092
0.000159461
0.000232244
0.000275094
0.000271951
0.000240921
0.000190714
0.000154571
0.000135725
0.000126195
0.000120651
0.000116921
0.000114398
0.000112507
0.000110918
0.000109843
0.00010897
0.000108409
0.000108368
0.00010039
9.12916e-05
8.35045e-05
7.61279e-05
7.29444e-05
7.0982e-05
7.26304e-05
6.06304e-05
6.72383e-05
9.99586e-05
9.95182e-05
9.94877e-05
0.000100177
0.000101537
0.000104418
0.000107404
0.000111272
0.000118208
0.000129436
0.000151008
0.0002084
0.000271458
0.000276613
0.000258718
0.000209362
0.000166548
0.000141664
0.000129967
0.0001234
0.000119149
0.000116368
0.000114433
0.000112957
0.000111941
0.000111323
0.000110911
0.000102742
9.24516e-05
8.34506e-05
7.62389e-05
7.08185e-05
7.44501e-05
7.16249e-05
6.8548e-05
7.09503e-05
6.5428e-05
6.94432e-05
6.83855e-05
5.95976e-05
6.50242e-05
9.99667e-05
9.95222e-05
9.94156e-05
0.000100019
0.000101162
0.000103872
0.000106781
0.000110221
0.000116267
0.000126788
0.000144074
0.000185325
0.000262124
0.00028132
0.000270973
0.000227145
0.000180904
0.000149582
0.000134121
0.000126363
0.000121594
0.000118345
0.000116407
0.00011499
0.000114169
0.000113701
0.0001093
9.72044e-05
8.65099e-05
7.83523e-05
7.13798e-05
6.59395e-05
6.72553e-05
6.51137e-05
6.2443e-05
6.70751e-05
5.90353e-05
6.43375e-05
6.61055e-05
6.56225e-05
5.80995e-05
6.32514e-05
9.99838e-05
9.95328e-05
9.93639e-05
9.98783e-05
0.000100857
0.000103408
0.000106238
0.000109238
0.000114728
0.000124299
0.000138766
0.000167351
0.000244112
0.000283114
0.000278775
0.000247317
0.000196957
0.000159198
0.0001391
0.000129588
0.000124122
0.00012055
0.000118354
0.00011701
0.000116363
0.000116151
0.000105859
9.32802e-05
8.32791e-05
7.43514e-05
6.89949e-05
6.43872e-05
6.21831e-05
6.22383e-05
6.30004e-05
5.98861e-05
5.87143e-05
6.40243e-05
6.1723e-05
6.13651e-05
6.45079e-05
6.39284e-05
5.73647e-05
6.26966e-05
0.000100011
9.95492e-05
9.93333e-05
9.97473e-05
0.000100622
0.000103034
0.00010576
0.000108436
0.000113491
0.000122023
0.000135163
0.000157532
0.000223029
0.00028043
0.000284067
0.000264116
0.000214707
0.000171592
0.000145153
0.000132988
0.000126818
0.000122781
0.000120401
0.000118973
0.000118466
0.000118556
0.000105263
9.11206e-05
8.13273e-05
7.60695e-05
7.34671e-05
7.82264e-05
6.69457e-05
8.52532e-05
6.26402e-05
7.00847e-05
5.86066e-05
6.09958e-05
6.00026e-05
6.19518e-05
5.97857e-05
6.01205e-05
6.41427e-05
6.28838e-05
5.76835e-05
6.36005e-05
0.000100043
9.95771e-05
9.93281e-05
9.9632e-05
0.000100465
0.000102732
0.000105333
0.000107778
0.00011234
0.000120244
0.000132321
0.000151259
0.000199825
0.000272879
0.00028769
0.000277485
0.000232261
0.000185529
0.000153124
0.000136965
0.000129413
0.000125073
0.000122511
0.000120863
0.000120486
0.000120391
0.000104985
9.15224e-05
8.20038e-05
8.03638e-05
9.93266e-05
0.00011889
0.000106034
0.000112119
0.000101666
0.00010427
7.51427e-05
9.88954e-05
6.18125e-05
8.05283e-05
6.11663e-05
6.0817e-05
6.01023e-05
5.96466e-05
6.46907e-05
6.26801e-05
5.94868e-05
6.62764e-05
0.000100059
9.96253e-05
9.93403e-05
9.95436e-05
0.00010036
0.000102482
0.00010497
0.000107267
0.000111198
0.000118896
0.000129861
0.000145814
0.000179696
0.000257593
0.00029045
0.000284726
0.000251108
0.000201418
0.000162961
0.000141675
0.000132246
0.000127311
0.000124602
0.000122812
0.000122275
0.000121813
0.000106125
9.21749e-05
8.48848e-05
9.70966e-05
0.000129498
0.000142557
0.000132323
0.000163254
0.000117879
0.000148499
0.000105163
0.000126483
9.6014e-05
0.000107383
8.25177e-05
9.29709e-05
8.14257e-05
6.05508e-05
7.68563e-05
7.01096e-05
6.61672e-05
6.41544e-05
6.37188e-05
7.0951e-05
0.000100091
9.96835e-05
9.93573e-05
9.94909e-05
0.000100304
0.00010231
0.000104684
0.000106842
0.000110333
0.000117728
0.000127682
0.000141658
0.000166289
0.000238437
0.000288873
0.000290564
0.000267871
0.000217927
0.000175149
0.000147742
0.000135319
0.000129447
0.000126539
0.000124741
0.000124068
0.000124528
0.000108439
9.40941e-05
8.82351e-05
0.000112204
0.000152498
0.000183238
0.000198385
0.000244612
0.000197951
0.00026149
0.000176027
0.000252025
0.000138724
0.000213778
0.000108076
0.000152975
8.97755e-05
0.000107471
8.63398e-05
6.47633e-05
8.29903e-05
8.08433e-05
6.99343e-05
6.7166e-05
7.20655e-05
7.87692e-05
0.000100162
9.97638e-05
9.9365e-05
9.94532e-05
0.000100294
0.000102219
0.000104468
0.000106512
0.000109673
0.000116482
0.000125974
0.000138302
0.000158414
0.000217091
0.000283145
0.000293144
0.000282577
0.000235613
0.000188517
0.000155726
0.000138729
0.000131575
0.000128176
0.000126489
0.000125735
0.000126357
0.000111528
9.67499e-05
9.18248e-05
0.000132083
0.000164827
0.000235595
0.000292935
0.000345637
0.000332361
0.000392121
0.000333821
0.000405999
0.000307214
0.00039086
0.00025111
0.000350106
0.000165802
0.000279045
0.000105038
0.000170994
9.99967e-05
8.09128e-05
9.31906e-05
8.46761e-05
7.78361e-05
7.71438e-05
9.1474e-05
9.37768e-05
0.000100277
9.98877e-05
9.93526e-05
9.94413e-05
0.000100347
0.0001022
0.000104322
0.000106275
0.000109206
0.000115375
0.000124622
0.000135527
0.000153151
0.000196498
0.000271207
0.000296714
0.000289736
0.000252683
0.000204028
0.000165376
0.000143316
0.000134016
0.000129555
0.000127991
0.000127197
0.000127881
0.000115776
0.000100215
9.35062e-05
0.000136023
0.000180375
0.000269408
0.000384872
0.000428798
0.000446582
0.000487596
0.00046358
0.00051022
0.000457436
0.000511724
0.000428943
0.000492684
0.000377379
0.000453748
0.000293704
0.000391603
0.000166356
0.000295423
0.000152005
7.65808e-05
0.000132652
0.000113286
8.28218e-05
7.31256e-05
9.83149e-05
9.4251e-05
0.000100442
0.00010016
9.93274e-05
9.94528e-05
0.000100473
0.000102263
0.000104248
0.000106117
0.000108919
0.000114549
0.000123555
0.000133319
0.000148348
0.00017973
0.0002547
0.000296138
0.0002957
0.000270508
0.000219631
0.000177083
0.000149322
0.000136563
0.000131146
0.000129332
0.000128419
0.000129244
0.000121275
0.000104987
9.56416e-05
0.000135575
0.00018687
0.000302895
0.000463806
0.000478433
0.000523012
0.000553775
0.000549463
0.000582954
0.000556624
0.000595071
0.000545561
0.00058895
0.000516499
0.000567453
0.000469236
0.000531048
0.000396279
0.000476836
0.000285619
0.00039225
0.000263867
9.48806e-05
0.00022965
0.000185073
7.64913e-05
7.88537e-05
9.81712e-05
8.56463e-05
0.000101014
0.000100829
9.93532e-05
9.94848e-05
0.000100635
0.000102389
0.000104252
0.000106044
0.000108796
0.000114009
0.000122669
0.000131652
0.000144359
0.000168017
0.000235927
0.00029239
0.000298171
0.000285676
0.000236994
0.000190292
0.000157118
0.000139687
0.000132732
0.000130537
0.000129355
0.000129849
0.000128456
0.000111278
9.81804e-05
0.000134349
0.000184383
0.000328901
0.000574189
0.000573499
0.000614938
0.000612273
0.000638941
0.000627911
0.000655964
0.000622851
0.000645692
0.000604655
0.000622832
0.000577806
0.000598741
0.000538208
0.000571799
0.000476108
0.000537923
0.000380209
0.000469133
0.00035976
0.000139186
0.000329639
0.000287785
6.87331e-05
0.000105483
4.82026e-05
7.15447e-05
0.000103319
0.000102149
9.96964e-05
9.95993e-05
0.000100809
0.000102553
0.000104316
0.000106082
0.000108798
0.000113667
0.000121875
0.000130403
0.000141254
0.000160924
0.000217348
0.000283902
0.000301433
0.000293653
0.000253096
0.000204934
0.000166927
0.000144032
0.000134701
0.000131406
0.000130308
0.000130484
0.000132393
0.000118911
0.000102611
0.000131887
0.000179936
0.000329186
0.000598576
0.000705413
0.000725607
0.000663405
0.000686131
0.000681335
0.000706439
0.000662741
0.000680403
0.00063397
0.000647414
0.000609169
0.000619014
0.000584843
0.000594676
0.000562586
0.000571103
0.000529989
0.000550369
0.000456291
0.000519155
0.000437558
0.000227873
0.000410105
0.000372662
7.92705e-05
0.00016045
2.08853e-05
6.48285e-05
0.000107779
0.000105067
0.000101193
0.000100002
0.000101041
0.000102739
0.000104434
0.000106222
0.000108955
0.000113561
0.000121239
0.000129454
0.000138845
0.000156096
0.000199955
0.000271044
0.000301793
0.000299432
0.000271335
0.000220341
0.000178146
0.000150143
0.000137104
0.000132351
0.000131158
0.000130992
0.00013296
0.000126578
0.000110673
0.000128253
0.00016961
0.000323726
0.000599412
0.000742318
0.000758228
0.000782234
0.000807645
0.000731657
0.000756843
0.000700392
0.000723118
0.000661065
0.000675319
0.000620273
0.000613342
0.000588646
0.000565682
0.000569977
0.000544047
0.000554642
0.000538096
0.000537085
0.000535356
0.000506737
0.000525872
0.000490357
0.000322925
0.000467918
0.000439537
0.000109612
0.00025039
1.17535e-05
7.26294e-05
0.000119272
0.000117329
0.00010633
0.000101389
0.00010148
0.000102975
0.000104606
0.000106534
0.000109313
0.000113662
0.000120779
0.000128768
0.000136976
0.000152123
0.00018542
0.000255485
0.000300193
0.000302629
0.000286128
0.000236628
0.000190816
0.000157968
0.000140013
0.000133422
0.000132036
0.000131388
0.000133008
0.000134995
0.000119898
0.00011387
0.000146205
0.000307425
0.000595937
0.000769695
0.000764794
0.000831764
0.000855068
0.000809412
0.00084323
0.000749116
0.000777883
0.000691767
0.000712052
0.000604554
0.000602375
0.000527265
0.00048957
0.000494033
0.000427449
0.000493282
0.000424433
0.000507817
0.000449799
0.00051934
0.000484443
0.000516808
0.000508659
0.000508401
0.000398221
0.000497849
0.000480603
0.000168197
0.000341799
1.06515e-05
0.000101516
0.000128614
0.000136517
0.000119079
0.000106275
0.00010261
0.000103388
0.000104868
0.000107049
0.000109962
0.000113961
0.000120587
0.000128326
0.0001356
0.000148551
0.000174291
0.000239608
0.00029547
0.000304813
0.000296208
0.000253026
0.000204797
0.000167364
0.000144306
0.000134946
0.000132612
0.000131904
0.000133027
0.000135789
0.000130828
0.000116126
0.000127955
0.000268496
0.000579245
0.000846241
0.00087226
0.000905307
0.000878327
0.000913535
0.000802204
0.000840761
0.000737482
0.000767588
0.000607162
0.000621088
0.000461109
0.000447411
0.000362661
0.000306981
0.000354726
0.000297799
0.000386142
0.000336445
0.000427966
0.000380556
0.000471776
0.000423515
0.000501891
0.000467531
0.000499224
0.000455157
0.000498846
0.000495672
0.0002613
0.000417769
1.26501e-05
0.000130916
0.0001374
0.000138694
0.000119883
0.00010614
0.000104425
0.000105342
0.000107698
0.00011075
0.000114646
0.000120693
0.000128046
0.000134725
0.000145671
0.000166597
0.000224705
0.000285974
0.000306399
0.000302168
0.000269478
0.000219867
0.00017842
0.000150757
0.000137098
0.000133016
0.000132346
0.000132946
0.00013568
0.000136946
0.000128821
0.000120447
0.000218221
0.000556947
0.00084445
0.0010077
0.00102704
0.000948071
0.000982036
0.000882182
0.000925274
0.000721597
0.000770156
0.000645923
0.000679718
0.00044793
0.000459305
0.000267537
0.00025006
0.000246339
0.000198421
0.000294158
0.000254061
0.000340205
0.000304019
0.000380001
0.000342492
0.000423052
0.00038054
0.000468432
0.000423601
0.000472098
0.00048776
0.000478903
0.000486655
0.000290675
0.000475518
8.67386e-05
0.000140128
0.000136226
0.000138914
0.000116372
0.00010695
0.000106266
0.000108524
0.000111715
0.000115582
0.000121084
0.000127942
0.000134144
0.000143534
0.000161635
0.000210855
0.000274233
0.000306202
0.000305705
0.000285189
0.000235172
0.000190565
0.000158612
0.000139702
0.00013402
0.000132704
0.000132812
0.00013492
0.000137783
0.000136123
0.000120598
0.000175538
0.000508756
0.000826575
0.00103944
0.00104167
0.00105638
0.00109751
0.000969252
0.00101296
0.000823852
0.000881108
0.00057565
0.000634357
0.000486389
0.000525656
0.000247354
0.000258266
0.000169036
0.000162481
0.00020905
0.00016037
0.000271344
0.000236567
0.000315931
0.000298229
0.000353137
0.000343807
0.000386058
0.00037243
0.000427821
0.000395278
0.000436487
0.000494699
0.000448853
0.000458406
0.000478449
0.000270163
0.00043526
0.000116621
0.000152556
0.000140712
0.000135017
0.00011315
0.000108415
0.000109404
0.00011272
0.000116659
0.000121889
0.000128141
0.00013397
0.000141981
0.00015822
0.000198486
0.000261992
0.000304138
0.000307995
0.00029702
0.000251637
0.00020398
0.000167864
0.000144533
0.000135284
0.00013337
0.000132795
0.000134134
0.000137907
0.000137468
0.000123983
0.000145955
0.000421914
0.000784412
0.00111454
0.00112949
0.00117092
0.00105796
0.00111245
0.000940528
0.00100024
0.000699562
0.000770212
0.000381673
0.000449928
0.000284033
0.000325711
0.000160105
0.00016075
0.000132877
0.000128642
0.000193907
0.000148263
0.000278626
0.000244541
0.000340937
0.000333631
0.000378183
0.000388915
0.000391838
0.000411917
0.000405778
0.000409634
0.000403615
0.000427092
0.000415141
0.000465564
0.00049021
0.000473055
0.000439857
0.000425738
0.000420797
0.000446318
0.000268112
0.000479797
0.000485643
0.00041304
0.000125544
0.000158112
0.000143913
0.000127104
0.000112279
0.000110272
0.000113578
0.000117706
0.000122843
0.000128837
0.000134004
0.000141033
0.000155655
0.000188332
0.000249881
0.000298321
0.000309132
0.000303887
0.000266915
0.000219293
0.00017852
0.00015167
0.000136999
0.000134337
0.00013303
0.000133665
0.000137322
0.000138284
0.000128566
0.000127962
0.000341433
0.000706858
0.00110429
0.00124466
0.00126726
0.00116242
0.0012086
0.000996037
0.00106964
0.000844529
0.000920343
0.000522953
0.00060382
0.000201096
0.000240658
0.000166124
0.000178654
0.000125415
0.000120932
0.00012584
0.000122444
0.000191649
0.000140799
0.000304577
0.000252683
0.000385392
0.000354937
0.000416683
0.000423516
0.000423876
0.000417485
0.000420865
0.000434961
0.000440977
0.000455085
0.000446689
0.000417953
0.000414418
0.00042341
0.000431044
0.000418681
0.000453765
0.000460869
0.000431244
0.000425809
0.000422501
0.000436886
0.000460039
0.000256583
0.000346266
0.000467762
0.000472614
0.000150907
0.000285709
0.00023856
0.000144749
0.000140954
0.000121674
0.000113252
0.000114067
0.000118507
0.000123864
0.000129812
0.000134314
0.000140627
0.00015359
0.000180857
0.000238727
0.000290335
0.000309777
0.000307573
0.000283028
0.000234997
0.000190677
0.000159915
0.000139795
0.000135253
0.000133984
0.000133739
0.000136528
0.00013828
0.000132827
0.0001192
0.000283712
0.000629677
0.00105039
0.00133946
0.00125912
0.00131454
0.00113958
0.0012039
0.000870048
0.000960468
0.000690232
0.000779239
0.000308366
0.000391577
0.000135356
0.000152018
0.000118281
0.000123108
0.000119013
0.000112928
0.000127866
0.000126571
0.00019441
0.000157457
0.000304139
0.000244928
0.0004049
0.000383897
0.000360087
0.000331399
0.000442366
0.000435674
0.000420108
0.00044602
0.000459298
0.000456095
0.000466576
0.000466583
0.00043849
0.000427418
0.000443741
0.000455155
0.000430447
0.00044267
0.000448472
0.000428697
0.000432029
0.000432359
0.000431562
0.000477354
0.000402708
0.000453561
0.000458262
0.00014358
0.000182498
0.000131375
0.00036972
0.000280838
0.000135002
0.000118982
0.000115241
0.000118893
0.000124742
0.000130955
0.000135275
0.000140788
0.000152386
0.000175666
0.000229438
0.000281729
0.000309462
0.000310147
0.000295565
0.000250486
0.000204176
0.000169114
0.000145174
0.000136221
0.000135166
0.000134469
0.000135981
0.000138038
0.000135503
0.000117121
0.000246756
0.000584346
0.000978282
0.00135598
0.00134134
0.00139146
0.00121095
0.00128079
0.00104865
0.00113277
0.000684808
0.000788631
0.000486774
0.000583181
0.000171206
0.00020241
0.000104847
0.000111871
0.000104179
0.000101351
0.000121894
0.000111341
0.000150296
0.000148449
0.000204987
0.000193309
0.000303047
0.00027647
0.000257555
0.000245037
0.000398758
0.000372852
0.000344418
0.00031634
0.000448029
0.000431548
0.000408806
0.000468963
0.000475707
0.000432912
0.000408823
0.000450813
0.000461684
0.000446645
0.000465562
0.000476283
0.000447624
0.000434487
0.00043749
0.000431778
0.000446444
0.000443382
0.00043087
0.000463607
0.000471618
0.000440744
0.000444982
0.000200226
0.000138323
0.000169104
0.000422933
0.000306983
0.000132346
0.000119022
0.000119679
0.000125404
0.000132182
0.000136458
0.00014142
0.000152224
0.000172129
0.000222332
0.000273725
0.000306379
0.000311031
0.00030497
0.000266413
0.000219856
0.00018098
0.000153176
0.000138231
0.000135987
0.000135514
0.000136052
0.000138278
0.000136542
0.000118989
0.000215704
0.000558123
0.00090281
0.00135382
0.00146969
0.00126653
0.00134711
0.00109111
0.00118219
0.000891897
0.000993482
0.000446502
0.000560531
0.000255109
0.000342617
0.000122096
0.000137386
9.67017e-05
9.8518e-05
9.65419e-05
9.36441e-05
0.000139879
0.000122964
0.000191353
0.000184783
0.000238631
0.000236168
0.000236432
0.000236445
0.000293414
0.000278394
0.000269684
0.00026713
0.000381607
0.000352774
0.000326494
0.00030832
0.000400546
0.000387158
0.000384493
0.000471835
0.000427819
0.000376249
0.000359483
0.000388018
0.000481019
0.000466913
0.000483289
0.000457574
0.000465768
0.000430024
0.000429782
0.000438894
0.00046195
0.000455619
0.000433855
0.000452196
0.000465134
0.000430937
0.000435101
0.000232505
0.000112667
0.000159949
0.000481806
0.000346077
0.000130781
0.000121482
0.000126253
0.000133136
0.000137956
0.000142831
0.000152659
0.000171244
0.000217266
0.000267259
0.000301773
0.000312072
0.000309706
0.000281884
0.000237773
0.000195006
0.000163217
0.000142685
0.000137237
0.000136202
0.000136836
0.000139042
0.000136913
0.000122389
0.000185356
0.000514305
0.000824193
0.00130331
0.00154414
0.00130281
0.00138945
0.00111525
0.00121234
0.000901377
0.00101072
0.000672863
0.000787918
0.000223607
0.000292895
0.000157286
0.000182653
0.000101258
0.000106427
9.11651e-05
9.48257e-05
9.70755e-05
8.57468e-05
0.000169683
0.000144318
0.00024681
0.000234745
0.000268117
0.000270049
0.000270727
0.00026898
0.000296591
0.000293151
0.00029524
0.000299885
0.000356851
0.000335181
0.000319535
0.000312926
0.00036354
0.000379021
0.000358821
0.000410812
0.000372667
0.000350288
0.000345008
0.000347168
0.000448254
0.000483261
0.000448493
0.00040209
0.000480626
0.000428995
0.000425396
0.000447414
0.000474893
0.00046594
0.000438482
0.00044517
0.000463133
0.000424612
0.000429053
0.000259739
0.000104978
0.000172355
0.000481237
0.000386576
0.000130947
0.000127686
0.000134184
0.000139612
0.000144524
0.000154097
0.000171708
0.000215324
0.000262717
0.000297362
0.000313339
0.000312764
0.000296115
0.000254667
0.000210572
0.0001738
0.000149766
0.000140376
0.000137227
0.00013741
0.000139952
0.000137973
0.00012623
0.000158267
0.000407457
0.000726512
0.00121878
0.001567
0.00145585
0.00111532
0.00122197
0.000888926
0.00100449
0.000646586
0.000768138
0.000398981
0.000520222
0.000148538
0.000172157
0.000114614
0.000128462
9.61682e-05
9.74807e-05
8.64743e-05
9.04225e-05
0.000107317
8.27764e-05
0.000210595
0.000172271
0.00030058
0.000294247
0.000272576
0.000284939
0.000304518
0.000306771
0.000306985
0.000304775
0.000314383
0.000320622
0.000328186
0.000334765
0.000340689
0.000328632
0.000327042
0.000332778
0.000369895
0.000360718
0.000343759
0.000364239
0.000342438
0.000370542
0.000376942
0.000344936
0.000400977
0.000456513
0.000407703
0.000363826
0.000475269
0.000429976
0.000423464
0.000454539
0.000481785
0.00047237
0.000442439
0.000442098
0.00046418
0.000420988
0.000425829
0.000288212
7.93276e-05
0.000169343
0.0004803
0.00040551
0.000133875
0.00013567
0.000141492
0.000146753
0.000156372
0.00017306
0.00021541
0.000260985
0.00029422
0.000312576
0.000315922
0.000307479
0.000270797
0.000227525
0.000186749
0.000159208
0.000145612
0.000139928
0.000138172
0.000140437
0.0001396
0.000130382
0.000139344
0.000306801
0.00062561
0.00111033
0.0015696
0.00158779
0.00108902
0.00120824
0.000849659
0.000970886
0.000593143
0.000724443
0.000342171
0.000461764
0.000203243
0.00025379
0.000114298
0.000126192
0.000100033
0.000105405
9.30281e-05
9.47417e-05
8.45657e-05
8.7115e-05
0.000122444
8.44738e-05
0.000256357
0.000234848
0.000204724
0.000325918
0.000317683
0.000292678
0.00030678
0.000337886
0.000338674
0.000336633
0.000332293
0.000341994
0.000351558
0.000359222
0.000362518
0.000336022
0.000338255
0.000347031
0.000358083
0.000362381
0.000345766
0.000341681
0.000344571
0.000349432
0.00036378
0.000365924
0.000384499
0.000370367
0.000423803
0.000384603
0.000351971
0.000449949
0.000431066
0.000422319
0.000459451
0.000480893
0.000471432
0.00044449
0.000441536
0.00046634
0.000418618
0.000423829
0.00030671
4.1766e-05
0.000124746
0.000477621
0.000408572
0.000141088
0.00014346
0.000149177
0.000159522
0.000176171
0.00021684
0.000261321
0.00029329
0.000312387
0.00032066
0.000316773
0.000289594
0.000247237
0.000203042
0.000171623
0.000154322
0.000144708
0.000140229
0.000141302
0.000140549
0.000134347
0.000129553
0.000252926
0.000575686
0.000996729
0.00152511
0.0016839
0.00126128
0.000784287
0.000918205
0.000514337
0.000649706
0.000286056
0.000388063
0.000189275
0.00022658
0.000142545
0.000164577
0.000103858
0.000110116
9.67344e-05
9.93191e-05
8.9095e-05
9.03553e-05
8.48795e-05
8.57704e-05
0.00013961
8.8466e-05
0.000274502
0.000251883
0.000233019
0.00019832
0.000342658
0.000332733
0.000305145
0.000320504
0.000363411
0.000361225
0.000356715
0.000350637
0.000368424
0.000376523
0.000379942
0.000380444
0.000346234
0.000356429
0.000367955
0.000377971
0.000348704
0.000345181
0.000350963
0.000357647
0.000389341
0.000350143
0.000351808
0.000369195
0.000365631
0.000407278
0.000385455
0.000369323
0.000439792
0.000430566
0.000420542
0.000458393
0.000473322
0.000464335
0.000443249
0.000441888
0.000468023
0.000415908
0.000421539
0.000271924
1.07123e-05
8.29912e-05
0.000472273
0.000388548
0.000149488
0.000151813
0.000162801
0.000181047
0.000221327
0.000264004
0.000294195
0.000313329
0.000324358
0.000325295
0.000308152
0.000271847
0.000227615
0.000187078
0.000166699
0.000153342
0.000144734
0.000143424
0.000141929
0.000138381
0.000127029
0.000225766
0.000549039
0.000891787
0.00144523
0.00172687
0.00146086
0.000703883
0.000855424
0.00041875
0.000552747
0.000245176
0.000309372
0.000180614
0.000205047
0.000139985
0.000157593
0.000117729
0.000127192
0.000100308
0.000105293
9.23969e-05
9.58798e-05
8.6344e-05
8.66321e-05
8.76975e-05
8.89562e-05
0.00016663
0.000126452
9.47244e-05
0.00028566
0.000261725
0.000231836
0.000198528
0.00034842
0.000337867
0.000308383
0.000324861
0.000378294
0.000373649
0.000366871
0.000357975
0.000385766
0.000388838
0.000389821
0.000387274
0.000361047
0.000371631
0.000380519
0.000386931
0.000347094
0.000352324
0.000361311
0.000395849
0.000374064
0.000347379
0.000347429
0.000354422
0.000385361
0.000412933
0.0004064
0.00040475
0.000444052
0.000427999
0.000416765
0.00045169
0.000465084
0.000454408
0.000436537
0.000441908
0.00046796
0.000411329
0.000418219
0.000214872
6.51749e-06
5.43551e-05