/*--------------------------------*- C++ -*----------------------------------*\
  =========                 |
  \\      /  F ield         | OpenFOAM: The Open Source CFD Toolbox
   \\    /   O peration     | Website:  https://openfoam.org
    \\  /    A nd           | Version:  dev
     \\/     M anipulation  |
\*---------------------------------------------------------------------------*/
FoamFile
{
    version     2.0;
    format      ascii;
    class       volScalarField;
    location    "2500";
    object      O2;
}
// * * * * * * * * * * * * * * * * * * * * * * * * * * * * * * * * * * * * * //

dimensions      [0 0 0 0 0 0 0];

internalField   nonuniform List<scalar> 
9836
(
0.23301
0.23301
0.23301
0.23301
0.23301
0.23301
0.23301
0.23301
0.23301
0.23301
0.23301
0.23301
0.23301
0.23301
0.23301
0.23301
0.23301
0.23301
0.23301
0.23301
0.23301
0.23301
0.23301
0.23301
0.23301
0.23301
0.23301
0.23301
0.23301
0.23301
0.23301
0.23301
0.23301
0.23301
0.23301
0.23301
0.23301
0.23301
0.23301
0.23301
0.23301
0.23301
0.23301
0.23301
0.23301
0.23301
0.23301
0.23301
0.23301
0.23301
0.23301
0.23301
0.23301
0.23301
0.23301
0.23301
0.23301
0.23301
0.23301
0.23301
0.23301
0.23301
0.23301
0.23301
0.23301
0.23301
0.23301
0.23301
0.23301
0.23301
0.23301
0.23301
0.23301
0.23301
0.23301
0.23301
0.23301
0.23301
0.23301
0.23301
0.23301
0.23301
0.23301
0.23301
0.23301
0.23301
0.23301
0.23301
0.23301
0.23301
0.23301
0.23301
0.23301
0.23301
0.23301
0.23301
0.23301
0.23301
0.23301
0.23301
0.23301
0.23301
0.23301
0.23301
0.23301
0.23301
0.23301
0.23301
0.23301
0.23301
0.23301
0.23301
0.23301
0.23301
0.23301
0.23301
0.23301
0.23301
0.23301
0.23301
0.23301
0.23301
0.23301
0.23301
0.23301
0.23301
0.23301
0.23301
0.23301
0.23301
0.23301
0.23301
0.23301
0.23301
0.23301
0.23301
0.23301
0.23301
0.23301
0.23301
0.23301
0.23301
0.23301
0.23301
0.23301
0.23301
0.23301
0.23301
0.23301
0.23301
0.23301
0.23301
0.23301
0.23301
0.23301
0.23301
0.23301
0.23301
0.23301
0.23301
0.23301
0.23301
0.23301
0.23301
0.23301
0.23301
0.23301
0.23301
0.23301
0.23301
0.23301
0.23301
0.23301
0.23301
0.23301
0.23301
0.23301
0.23301
0.23301
0.23301
0.23301
0.23301
0.23301
0.23301
0.23301
0.23301
0.23301
0.23301
0.23301
0.23301
0.23301
0.23301
0.23301
0.23301
0.23301
0.23301
0.23301
0.23301
0.23301
0.23301
0.23301
0.23301
0.23301
0.23301
0.23301
0.23301
0.23301
0.23301
0.23301
0.23301
0.23301
0.23301
0.23301
0.23301
0.23301
0.23301
0.23301
0.23301
0.23301
0.23301
0.23301
0.23301
0.23301
0.23301
0.23301
0.23301
0.23301
0.23301
0.23301
0.23301
0.23301
0.23301
0.23301
0.23301
0.23301
0.23301
0.23301
0.23301
0.23301
0.23301
0.23301
0.23301
0.23301
0.23301
0.23301
0.23301
0.23301
0.23301
0.23301
0.23301
0.23301
0.23301
0.23301
0.23301
0.23301
0.23301
0.23301
0.23301
0.23301
0.23301
0.23301
0.23301
0.23301
0.23301
0.23301
0.23301
0.23301
0.23301
0.23301
0.23301
0.23301
0.23301
0.23301
0.23301
0.23301
0.23301
0.23301
0.23301
0.23301
0.23301
0.23301
0.23301
0.23301
0.23301
0.23301
0.23301
0.23301
0.23301
0.23301
0.23301
0.23301
0.23301
0.23301
0.23301
0.23301
0.23301
0.23301
0.23301
0.23301
0.23301
0.23301
0.23301
0.23301
0.23301
0.23301
0.23301
0.23301
0.23301
0.23301
0.23301
0.23301
0.23301
0.23301
0.23301
0.23301
0.23301
0.23301
0.23301
0.23301
0.23301
0.23301
0.23301
0.23301
0.23301
0.23301
0.23301
0.23301
0.23301
0.23301
0.23301
0.23301
0.23301
0.23301
0.23301
0.23301
0.23301
0.23301
0.23301
0.23301
0.23301
0.23301
0.23301
0.23301
0.23301
0.23301
0.23301
0.23301
0.23301
0.23301
0.23301
0.23301
0.23301
0.23301
0.23301
0.23301
0.23301
0.23301
0.23301
0.23301
0.23301
0.23301
0.23301
0.23301
0.23301
0.23301
0.23301
0.23301
0.23301
0.23301
0.23301
0.23301
0.23301
0.23301
0.23301
0.23301
0.23301
0.23301
0.23301
0.23301
0.23301
0.23301
0.23301
0.23301
0.23301
0.23301
0.23301
0.23301
0.23301
0.23301
0.23301
0.23301
0.23301
0.23301
0.23301
0.23301
0.23301
0.23301
0.23301
0.23301
0.23301
0.23301
0.23301
0.23301
0.23301
0.23301
0.23301
0.23301
0.23301
0.23301
0.23301
0.23301
0.23301
0.23301
0.23301
0.23301
0.23301
0.23301
0.23301
0.23301
0.23301
0.23301
0.23301
0.23301
0.23301
0.23301
0.23301
0.23301
0.23301
0.23301
0.23301
0.23301
0.23301
0.23301
0.23301
0.23301
0.23301
0.23301
0.23301
0.23301
0.23301
0.23301
0.23301
0.23301
0.23301
0.23301
0.23301
0.23301
0.23301
0.23301
0.23301
0.23301
0.23301
0.23301
0.23301
0.23301
0.23301
0.23301
0.23301
0.23301
0.23301
0.23301
0.23301
0.23301
0.23301
0.23301
0.23301
0.23301
0.23301
0.23301
0.23301
0.23301
0.23301
0.23301
0.23301
0.23301
0.23301
0.23301
0.23301
0.23301
0.23301
0.23301
0.23301
0.23301
0.23301
0.23301
0.23301
0.23301
0.23301
0.23301
0.23301
0.23301
0.23301
0.23301
0.23301
0.23301
0.23301
0.23301
0.23301
0.23301
0.23301
0.23301
0.23301
0.23301
0.23301
0.23301
0.23301
0.23301
0.23301
0.23301
0.23301
0.23301
0.23301
0.23301
0.23301
0.23301
0.23301
0.23301
0.23301
0.23301
0.23301
0.23301
0.23301
0.23301
0.23301
0.23301
0.23301
0.23301
0.23301
0.23301
0.23301
0.23301
0.23301
0.23301
0.23301
0.23301
0.23301
0.23301
0.23301
0.23301
0.23301
0.23301
0.23301
0.23301
0.23301
0.23301
0.23301
0.23301
0.23301
0.23301
0.23301
0.23301
0.23301
0.23301
0.23301
0.23301
0.23301
0.23301
0.23301
0.23301
0.23301
0.23301
0.23301
0.23301
0.23301
0.23301
0.23301
0.23301
0.23301
0.23301
0.23301
0.23301
0.23301
0.23301
0.23301
0.23301
0.23301
0.23301
0.23301
0.23301
0.23301
0.23301
0.23301
0.23301
0.23301
0.23301
0.23301
0.23301
0.23301
0.23301
0.23301
0.23301
0.23301
0.23301
0.23301
0.23301
0.23301
0.23301
0.23301
0.23301
0.23301
0.23301
0.23301
0.23301
0.23301
0.23301
0.23301
0.23301
0.23301
0.23301
0.23301
0.23301
0.23301
0.23301
0.23301
0.23301
0.23301
0.23301
0.23301
0.23301
0.23301
0.23301
0.23301
0.23301
0.23301
0.23301
0.23301
0.23301
0.23301
0.23301
0.23301
0.23301
0.23301
0.23301
0.23301
0.23301
0.23301
0.23301
0.23301
0.23301
0.23301
0.23301
0.23301
0.23301
0.23301
0.23301
0.23301
0.23301
0.23301
0.23301
0.23301
0.23301
0.23301
0.23301
0.23301
0.23301
0.23301
0.23301
0.23301
0.23301
0.23301
0.23301
0.23301
0.23301
0.23301
0.23301
0.23301
0.23301
0.23301
0.23301
0.23301
0.23301
0.23301
0.23301
0.23301
0.23301
0.23301
0.23301
0.23301
0.23301
0.23301
0.23301
0.23301
0.23301
0.23301
0.23301
0.23301
0.23301
0.23301
0.23301
0.23301
0.23301
0.23301
0.23301
0.23301
0.23301
0.23301
0.23301
0.23301
0.23301
0.23301
0.23301
0.23301
0.23301
0.23301
0.23301
0.23301
0.23301
0.23301
0.23301
0.23301
0.23301
0.23301
0.23301
0.23301
0.23301
0.23301
0.23301
0.23301
0.23301
0.23301
0.23301
0.23301
0.23301
0.23301
0.23301
0.23301
0.23301
0.23301
0.23301
0.23301
0.23301
0.23301
0.23301
0.23301
0.23301
0.23301
0.23301
0.23301
0.23301
0.23301
0.23301
0.23301
0.23301
0.23301
0.23301
0.23301
0.23301
0.233009
0.23301
0.233009
0.23301
0.23301
0.23301
0.23301
0.23301
0.23301
0.23301
0.23301
0.23301
0.23301
0.23301
0.23301
0.23301
0.23301
0.23301
0.23301
0.23301
0.23301
0.23301
0.23301
0.23301
0.23301
0.23301
0.23301
0.23301
0.23301
0.23301
0.23301
0.23301
0.23301
0.23301
0.23301
0.23301
0.23301
0.23301
0.23301
0.23301
0.23301
0.23301
0.233009
0.233007
0.233003
0.233007
0.233
0.233009
0.233005
0.23301
0.233008
0.23301
0.23301
0.23301
0.23301
0.23301
0.23301
0.23301
0.23301
0.23301
0.23301
0.23301
0.23301
0.23301
0.23301
0.23301
0.23301
0.23301
0.23301
0.23301
0.23301
0.23301
0.23301
0.23301
0.23301
0.23301
0.23301
0.23301
0.23301
0.23301
0.23301
0.23301
0.23301
0.23301
0.23301
0.23301
0.23301
0.233009
0.233007
0.232998
0.232973
0.232981
0.232935
0.232991
0.232955
0.233002
0.232981
0.233008
0.233
0.233008
0.23301
0.233008
0.233009
0.23301
0.23301
0.23301
0.23301
0.23301
0.23301
0.23301
0.23301
0.23301
0.23301
0.23301
0.23301
0.23301
0.23301
0.23301
0.23301
0.23301
0.23301
0.23301
0.23301
0.23301
0.23301
0.23301
0.23301
0.23301
0.23301
0.23301
0.23301
0.23301
0.23301
0.23301
0.23301
0.233009
0.233003
0.232978
0.232892
0.232852
0.232701
0.232871
0.232705
0.232921
0.23278
0.23297
0.23288
0.232999
0.232961
0.232999
0.233009
0.233001
0.233003
0.23301
0.23301
0.23301
0.23301
0.23301
0.23301
0.23301
0.23301
0.23301
0.23301
0.23301
0.23301
0.23301
0.23301
0.23301
0.23301
0.23301
0.23301
0.23301
0.23301
0.23301
0.23301
0.23301
0.23301
0.23301
0.23301
0.23301
0.23301
0.23301
0.23301
0.23301
0.23301
0.233009
0.233
0.232936
0.232744
0.232533
0.232304
0.232456
0.232157
0.23251
0.232142
0.232666
0.232278
0.232839
0.232544
0.232957
0.23281
0.232959
0.233006
0.232967
0.232978
0.23301
0.233008
0.23301
0.23301
0.23301
0.23301
0.23301
0.23301
0.23301
0.23301
0.23301
0.23301
0.23301
0.23301
0.23301
0.23301
0.23301
0.23301
0.23301
0.23301
0.23301
0.23301
0.23301
0.23301
0.23301
0.23301
0.23301
0.23301
0.23301
0.23301
0.23301
0.23301
0.233009
0.232995
0.232913
0.232546
0.232113
0.231894
0.231853
0.231564
0.231753
0.231377
0.231808
0.231346
0.23204
0.231496
0.23244
0.231835
0.232799
0.232376
0.232811
0.23299
0.232843
0.232887
0.233009
0.233
0.23301
0.23301
0.23301
0.23301
0.23301
0.23301
0.23301
0.23301
0.23301
0.23301
0.23301
0.23301
0.23301
0.23301
0.23301
0.23301
0.23301
0.23301
0.23301
0.23301
0.23301
0.23301
0.23301
0.23301
0.23301
0.23301
0.23301
0.23301
0.23301
0.23301
0.233009
0.232992
0.232876
0.232432
0.23173
0.231566
0.231331
0.231161
0.231096
0.230937
0.230989
0.230808
0.231017
0.230744
0.231234
0.230781
0.231686
0.231047
0.232364
0.231607
0.232407
0.232932
0.232495
0.232618
0.233006
0.232969
0.23301
0.233008
0.23301
0.23301
0.23301
0.23301
0.23301
0.23301
0.23301
0.23301
0.23301
0.23301
0.23301
0.23301
0.23301
0.23301
0.23301
0.23301
0.23301
0.23301
0.23301
0.23301
0.23301
0.23301
0.23301
0.23301
0.23301
0.23301
0.23301
0.23301
0.233009
0.232993
0.232858
0.232271
0.231449
0.231407
0.231063
0.231005
0.230864
0.230838
0.230737
0.230737
0.230638
0.230641
0.230581
0.230537
0.230625
0.230462
0.230929
0.230513
0.231601
0.230878
0.231676
0.232753
0.231835
0.23207
0.232992
0.23287
0.23301
0.233004
0.23301
0.23301
0.23301
0.23301
0.23301
0.23301
0.23301
0.23301
0.23301
0.23301
0.23301
0.23301
0.23301
0.23301
0.23301
0.23301
0.23301
0.23301
0.23301
0.23301
0.23301
0.23301
0.23301
0.23301
0.23301
0.23301
0.23301
0.23301
0.233009
0.232996
0.232865
0.232222
0.231112
0.230983
0.23093
0.230844
0.230854
0.230756
0.2308
0.230673
0.230751
0.230568
0.23066
0.230461
0.230524
0.23037
0.230386
0.230436
0.230286
0.230887
0.230389
0.230957
0.232352
0.231099
0.231335
0.232948
0.232617
0.233009
0.232989
0.23301
0.23301
0.23301
0.23301
0.23301
0.23301
0.23301
0.23301
0.23301
0.23301
0.23301
0.23301
0.23301
0.23301
0.23301
0.23301
0.23301
0.23301
0.23301
0.23301
0.23301
0.23301
0.23301
0.23301
0.23301
0.23301
0.23301
0.23301
0.23301
0.233
0.232878
0.232244
0.231116
0.230906
0.230927
0.230871
0.230883
0.230859
0.230926
0.23088
0.231024
0.230842
0.231065
0.230694
0.230965
0.230485
0.230723
0.230309
0.230438
0.23021
0.230223
0.230381
0.230135
0.230422
0.231699
0.230532
0.23073
0.232827
0.232151
0.233006
0.232949
0.23301
0.23301
0.23301
0.23301
0.23301
0.23301
0.23301
0.23301
0.23301
0.23301
0.23301
0.23301
0.23301
0.23301
0.23301
0.23301
0.23301
0.23301
0.23301
0.23301
0.23301
0.23301
0.23301
0.23301
0.23301
0.23301
0.23301
0.23301
0.23301
0.233005
0.232904
0.232295
0.231138
0.230939
0.230945
0.231074
0.231092
0.23099
0.23104
0.231162
0.231283
0.231293
0.231499
0.231268
0.231565
0.231049
0.231393
0.2307
0.231
0.230343
0.230572
0.230115
0.230205
0.230085
0.23
0.230075
0.231042
0.230121
0.230257
0.232559
0.231517
0.233001
0.232855
0.23301
0.23301
0.23301
0.23301
0.23301
0.23301
0.23301
0.23301
0.23301
0.23301
0.23301
0.23301
0.23301
0.23301
0.23301
0.23301
0.23301
0.23301
0.23301
0.23301
0.23301
0.23301
0.23301
0.23301
0.23301
0.23301
0.23301
0.23301
0.23301
0.233008
0.232947
0.232403
0.231191
0.230945
0.230946
0.231092
0.231085
0.231458
0.231458
0.231373
0.231431
0.231667
0.231789
0.231832
0.232046
0.231737
0.232057
0.231306
0.231634
0.230818
0.231081
0.230385
0.230579
0.230043
0.230155
0.229894
0.229862
0.229817
0.230514
0.229797
0.229864
0.232111
0.230918
0.232991
0.232669
0.23301
0.23301
0.23301
0.23301
0.23301
0.23301
0.23301
0.23301
0.23301
0.23301
0.23301
0.23301
0.23301
0.23301
0.23301
0.23301
0.23301
0.23301
0.23301
0.23301
0.23301
0.23301
0.23301
0.23301
0.23301
0.23301
0.23301
0.23301
0.23301
0.233009
0.23298
0.232563
0.231299
0.230941
0.231066
0.231046
0.231445
0.231413
0.231896
0.231878
0.231864
0.231897
0.232193
0.232281
0.232331
0.232522
0.231996
0.232373
0.231361
0.231685
0.230757
0.230925
0.230248
0.230271
0.22987
0.229823
0.22968
0.229565
0.229527
0.23005
0.229437
0.229443
0.231534
0.230385
0.232969
0.232337
0.23301
0.23301
0.23301
0.23301
0.23301
0.23301
0.23301
0.23301
0.23301
0.23301
0.23301
0.23301
0.23301
0.23301
0.23301
0.23301
0.23301
0.23301
0.23301
0.23301
0.23301
0.23301
0.23301
0.23301
0.23301
0.23301
0.23301
0.23301
0.23301
0.232997
0.232724
0.2315
0.230886
0.231246
0.231174
0.231364
0.231304
0.231835
0.231774
0.23229
0.232242
0.232317
0.232314
0.232626
0.232667
0.232663
0.232805
0.232071
0.232505
0.231141
0.231493
0.230248
0.23028
0.229668
0.229433
0.229356
0.228999
0.229273
0.228891
0.229036
0.229569
0.228886
0.228856
0.230909
0.229819
0.232767
0.231525
0.23301
0.23301
0.23301
0.23301
0.23301
0.23301
0.23301
0.23301
0.23301
0.23301
0.23301
0.23301
0.23301
0.23301
0.23301
0.23301
0.23301
0.23301
0.23301
0.23301
0.23301
0.23301
0.23301
0.23301
0.23301
0.23301
0.23301
0.23301
0.233002
0.232841
0.231766
0.230872
0.231107
0.231016
0.231524
0.231427
0.2317
0.231615
0.232175
0.232096
0.232588
0.232524
0.232664
0.232636
0.232859
0.232875
0.232796
0.232903
0.231998
0.232535
0.230497
0.231034
0.229271
0.229459
0.228586
0.228342
0.228347
0.227762
0.228479
0.227751
0.228173
0.228939
0.227986
0.227901
0.228434
0.230141
0.229099
0.231912
0.230332
0.23301
0.23301
0.23301
0.23301
0.23301
0.23301
0.23301
0.23301
0.23301
0.23301
0.23301
0.23301
0.23301
0.23301
0.23301
0.23301
0.23301
0.23301
0.23301
0.23301
0.23301
0.23301
0.23301
0.23301
0.23301
0.23301
0.23301
0.233005
0.232913
0.232071
0.230887
0.230993
0.231327
0.231245
0.231797
0.231684
0.232005
0.231905
0.232448
0.232361
0.232803
0.23274
0.232871
0.232849
0.232934
0.232944
0.232825
0.232917
0.231814
0.23251
0.23005
0.23088
0.228609
0.229212
0.227604
0.227927
0.227104
0.227008
0.227257
0.226668
0.226972
0.227498
0.226961
0.227915
0.228531
0.227952
0.227349
0.226731
0.226831
0.227319
0.22928
0.228015
0.228101
0.22869
0.231019
0.229361
0.23301
0.23301
0.23301
0.23301
0.23301
0.23301
0.23301
0.23301
0.23301
0.23301
0.23301
0.23301
0.23301
0.23301
0.23301
0.23301
0.23301
0.23301
0.23301
0.23301
0.23301
0.23301
0.23301
0.23301
0.23301
0.23301
0.233007
0.232954
0.232337
0.230955
0.230834
0.23134
0.231203
0.231567
0.231452
0.232044
0.231924
0.232264
0.232158
0.232668
0.232584
0.232932
0.232902
0.232949
0.232947
0.232942
0.232953
0.232807
0.23288
0.231795
0.232467
0.230032
0.231012
0.228574
0.229476
0.227275
0.227553
0.22789
0.228348
0.226565
0.22665
0.227342
0.22718
0.226835
0.22643
0.226534
0.226205
0.226317
0.226347
0.227333
0.227376
0.226692
0.226108
0.226209
0.226669
0.228183
0.228922
0.228311
0.22745
0.22755
0.230902
0.228478
0.228786
0.229328
0.23301
0.23301
0.23301
0.23301
0.23301
0.23301
0.23301
0.23301
0.23301
0.23301
0.23301
0.23301
0.23301
0.23301
0.23301
0.23301
0.23301
0.23301
0.23301
0.23301
0.23301
0.23301
0.23301
0.23301
0.23301
0.233008
0.232977
0.232536
0.231133
0.230726
0.231132
0.231547
0.231433
0.231799
0.231673
0.232272
0.232152
0.23249
0.232385
0.232851
0.232781
0.23298
0.232974
0.232966
0.232978
0.232899
0.23292
0.232691
0.232727
0.2319
0.23232
0.230486
0.231365
0.22881
0.229352
0.229826
0.230329
0.227721
0.228187
0.228708
0.226405
0.226638
0.227588
0.227469
0.227002
0.226102
0.226015
0.225903
0.226201
0.225842
0.226681
0.226729
0.22604
0.225692
0.225564
0.226004
0.227675
0.227856
0.226814
0.226943
0.229347
0.231852
0.230653
0.228149
0.228637
0.23301
0.23301
0.23301
0.23301
0.23301
0.23301
0.23301
0.23301
0.23301
0.23301
0.23301
0.23301
0.23301
0.23301
0.23301
0.23301
0.23301
0.23301
0.23301
0.23301
0.23301
0.23301
0.23301
0.23301
0.233009
0.23299
0.232689
0.231402
0.230705
0.230915
0.231503
0.231353
0.231765
0.231635
0.232027
0.231897
0.232497
0.232383
0.232697
0.232603
0.232958
0.23293
0.232992
0.232996
0.232959
0.232983
0.232741
0.232802
0.232363
0.232341
0.231778
0.231748
0.23069
0.231009
0.231171
0.231202
0.229239
0.229752
0.230193
0.230518
0.228081
0.228622
0.229169
0.22646
0.226861
0.227999
0.227935
0.227363
0.226006
0.225716
0.225816
0.226292
0.225537
0.226004
0.22605
0.225462
0.225367
0.225206
0.225391
0.227132
0.227423
0.226148
0.226317
0.229576
0.23213
0.23118
0.227865
0.228581
0.23301
0.23301
0.23301
0.23301
0.23301
0.23301
0.23301
0.23301
0.23301
0.23301
0.23301
0.23301
0.23301
0.23301
0.23301
0.23301
0.23301
0.23301
0.23301
0.23301
0.23301
0.23301
0.23301
0.233009
0.232997
0.232809
0.231746
0.230726
0.230735
0.231268
0.23173
0.231603
0.231999
0.231864
0.23226
0.232132
0.232724
0.23262
0.232884
0.232813
0.232994
0.232988
0.232994
0.233001
0.232907
0.232973
0.232384
0.232548
0.231553
0.23153
0.231104
0.230931
0.230731
0.230547
0.230732
0.230786
0.230693
0.230478
0.22967
0.230058
0.230314
0.230395
0.228568
0.229128
0.229602
0.226725
0.227267
0.22854
0.228521
0.227885
0.226117
0.225623
0.22593
0.226582
0.225426
0.22536
0.22539
0.225055
0.225221
0.225013
0.224923
0.226588
0.227015
0.225497
0.22571
0.229817
0.232428
0.231493
0.227641
0.228613
0.23301
0.23301
0.23301
0.23301
0.23301
0.23301
0.23301
0.23301
0.23301
0.23301
0.23301
0.23301
0.23301
0.23301
0.23301
0.23301
0.23301
0.23301
0.23301
0.23301
0.23301
0.23301
0.233009
0.233002
0.232893
0.232114
0.230803
0.230596
0.23102
0.231712
0.231554
0.231986
0.23185
0.232255
0.232122
0.232507
0.232384
0.232912
0.232849
0.232974
0.23295
0.233004
0.233004
0.232989
0.233001
0.232787
0.232939
0.231715
0.232103
0.230025
0.230197
0.230196
0.229916
0.229698
0.22962
0.230323
0.230082
0.229734
0.229349
0.22992
0.230057
0.230019
0.229774
0.229107
0.22954
0.22976
0.227166
0.22783
0.22908
0.229041
0.228492
0.226417
0.225727
0.226225
0.227041
0.225503
0.224826
0.224802
0.22481
0.225255
0.224983
0.224622
0.226076
0.22665
0.224894
0.225149
0.230078
0.232623
0.231809
0.227484
0.228705
0.23301
0.23301
0.23301
0.23301
0.23301
0.23301
0.23301
0.23301
0.23301
0.23301
0.23301
0.23301
0.23301
0.23301
0.23301
0.23301
0.23301
0.23301
0.23301
0.23301
0.23301
0.23301
0.233006
0.232944
0.232403
0.230993
0.230522
0.230794
0.23149
0.232001
0.231868
0.232274
0.232139
0.232532
0.232406
0.23276
0.232651
0.232984
0.232966
0.233001
0.232995
0.233005
0.233007
0.232972
0.232997
0.232576
0.232876
0.230714
0.231469
0.228526
0.22868
0.22931
0.228936
0.228993
0.228712
0.228534
0.228479
0.229378
0.228904
0.228428
0.228017
0.229774
0.229577
0.229164
0.228618
0.229455
0.229551
0.229462
0.227747
0.228428
0.229314
0.229132
0.228954
0.226874
0.226001
0.226659
0.227614
0.225739
0.224456
0.224349
0.224698
0.225435
0.225087
0.224424
0.225608
0.226336
0.224373
0.224638
0.230368
0.232768
0.232091
0.227386
0.228841
0.23301
0.23301
0.23301
0.23301
0.23301
0.23301
0.23301
0.23301
0.23301
0.23301
0.23301
0.23301
0.23301
0.23301
0.23301
0.23301
0.23301
0.23301
0.23301
0.23301
0.23301
0.233007
0.232973
0.232604
0.23128
0.23052
0.230612
0.231224
0.23205
0.231893
0.232323
0.232188
0.232583
0.232455
0.232808
0.232704
0.232935
0.232886
0.233005
0.233
0.233008
0.233007
0.233004
0.233007
0.232951
0.232993
0.232278
0.232787
0.229712
0.230265
0.230932
0.227754
0.228048
0.228902
0.228435
0.227713
0.227536
0.227496
0.227565
0.228028
0.227478
0.227031
0.226724
0.229089
0.228519
0.227841
0.227156
0.229329
0.229099
0.228581
0.228321
0.228813
0.229085
0.228847
0.228933
0.227417
0.226394
0.227155
0.228146
0.226076
0.22419
0.224012
0.224708
0.2257
0.225262
0.22432
0.225185
0.226069
0.22395
0.224176
0.230678
0.2329
0.232408
0.22733
0.229022
0.23301
0.23301
0.23301
0.23301
0.23301
0.23301
0.23301
0.23301
0.23301
0.23301
0.23301
0.23301
0.23301
0.23301
0.23301
0.23301
0.23301
0.23301
0.23301
0.23301
0.233008
0.23299
0.232741
0.231616
0.230559
0.230481
0.230975
0.231846
0.232402
0.232266
0.23266
0.232534
0.23286
0.232772
0.232956
0.232918
0.232993
0.232979
0.233009
0.233008
0.233009
0.233009
0.233002
0.233005
0.232936
0.232987
0.23204
0.232726
0.229422
0.229986
0.23055
0.231215
0.227319
0.227764
0.228803
0.228265
0.226573
0.226563
0.226687
0.226948
0.226552
0.226086
0.225791
0.225689
0.227873
0.227086
0.226331
0.225688
0.22873
0.228085
0.227257
0.228627
0.228735
0.228393
0.228094
0.228599
0.227895
0.226826
0.227573
0.228387
0.226431
0.223981
0.223738
0.224776
0.225973
0.225443
0.224271
0.224805
0.22584
0.223602
0.223764
0.231067
0.232982
0.232715
0.227313
0.229279
0.23301
0.23301
0.23301
0.23301
0.23301
0.23301
0.23301
0.23301
0.23301
0.23301
0.23301
0.23301
0.23301
0.23301
0.23301
0.23301
0.23301
0.23301
0.23301
0.233008
0.232995
0.232835
0.231972
0.230663
0.230384
0.230751
0.231561
0.232492
0.232333
0.232751
0.232632
0.232906
0.232844
0.232974
0.232947
0.232999
0.23299
0.233007
0.233004
0.23301
0.23301
0.233008
0.233009
0.232998
0.233001
0.232929
0.232968
0.231726
0.232322
0.232732
0.229374
0.229962
0.23076
0.231345
0.227242
0.227771
0.22893
0.228334
0.225734
0.225947
0.226309
0.226755
0.225216
0.224946
0.224896
0.224997
0.226384
0.225574
0.224909
0.224433
0.227634
0.226701
0.225752
0.228499
0.228398
0.227236
0.226907
0.227826
0.228109
0.227174
0.227775
0.228259
0.226711
0.223804
0.223473
0.224848
0.226176
0.225556
0.224226
0.22446
0.225643
0.223281
0.223394
0.231571
0.233004
0.232891
0.227357
0.229654
0.23301
0.23301
0.23301
0.23301
0.23301
0.23301
0.23301
0.23301
0.23301
0.23301
0.23301
0.23301
0.23301
0.23301
0.23301
0.23301
0.23301
0.23301
0.233009
0.232998
0.232896
0.232266
0.230861
0.230345
0.230565
0.2313
0.232294
0.232823
0.232704
0.232943
0.232897
0.232988
0.232971
0.233003
0.232998
0.233008
0.233006
0.233009
0.233009
0.233009
0.23301
0.233005
0.233008
0.232981
0.23299
0.2329
0.232916
0.232887
0.231871
0.232336
0.232858
0.232706
0.229539
0.230151
0.23109
0.23162
0.227467
0.228077
0.229299
0.228687
0.225326
0.225783
0.226296
0.226862
0.224191
0.224166
0.224341
0.224735
0.224901
0.224216
0.223739
0.223513
0.226217
0.225204
0.224312
0.228181
0.227616
0.225814
0.225496
0.226646
0.227989
0.227349
0.227668
0.227957
0.226839
0.223644
0.223208
0.224858
0.226242
0.22555
0.224142
0.224139
0.225477
0.222969
0.223059
0.232064
0.233009
0.23298
0.227488
0.230123
0.23301
0.23301
0.23301
0.23301
0.23301
0.23301
0.23301
0.23301
0.23301
0.23301
0.23301
0.23301
0.23301
0.23301
0.23301
0.23301
0.23301
0.233009
0.233001
0.232938
0.232473
0.231127
0.230353
0.230431
0.231064
0.232024
0.232869
0.23275
0.232966
0.232928
0.232998
0.232987
0.233006
0.233003
0.233009
0.233008
0.23301
0.233009
0.23301
0.23301
0.233008
0.23301
0.233
0.233004
0.232906
0.232932
0.232829
0.232841
0.232635
0.232645
0.232072
0.232437
0.232803
0.232725
0.229909
0.23051
0.23151
0.231955
0.228015
0.228653
0.229858
0.229263
0.225281
0.225922
0.226634
0.227337
0.223499
0.223694
0.224116
0.224738
0.223611
0.223128
0.222901
0.222876
0.224737
0.223807
0.223085
0.22744
0.226487
0.224359
0.224092
0.22529
0.227711
0.227277
0.227405
0.22731
0.226788
0.223444
0.222919
0.224784
0.226169
0.225408
0.223956
0.223839
0.225359
0.222655
0.222747
0.232524
0.23301
0.232999
0.227695
0.230721
0.23301
0.23301
0.23301
0.23301
0.23301
0.23301
0.233009
0.233009
0.233009
0.233009
0.23301
0.23301
0.23301
0.23301
0.23301
0.23301
0.233009
0.233003
0.232966
0.232626
0.231426
0.230397
0.230333
0.230849
0.231759
0.232711
0.232973
0.232925
0.233002
0.232993
0.233008
0.233006
0.23301
0.233009
0.23301
0.23301
0.23301
0.23301
0.23301
0.23301
0.233005
0.233008
0.232973
0.232997
0.232682
0.23272
0.232732
0.232654
0.232637
0.232254
0.232265
0.232311
0.232572
0.232669
0.232669
0.230439
0.230995
0.231933
0.23225
0.228776
0.229412
0.230544
0.229997
0.225519
0.226372
0.227238
0.228051
0.223049
0.223437
0.224038
0.224818
0.222595
0.222359
0.222322
0.222403
0.22338
0.222635
0.222132
0.226467
0.22531
0.223053
0.222956
0.22407
0.227169
0.227009
0.226945
0.226481
0.226509
0.223154
0.222596
0.224535
0.225813
0.224908
0.223585
0.223549
0.225295
0.22234
0.222447
0.232729
0.23301
0.233007
0.228006
0.23117
0.23301
0.23301
0.23301
0.233009
0.233009
0.233008
0.233007
0.233007
0.233008
0.233008
0.233009
0.233009
0.23301
0.23301
0.23301
0.233009
0.233005
0.232979
0.232738
0.231727
0.230506
0.23026
0.23066
0.231516
0.232525
0.232969
0.233002
0.232988
0.233009
0.233007
0.23301
0.233009
0.23301
0.23301
0.23301
0.23301
0.23301
0.23301
0.23301
0.23301
0.232998
0.233006
0.232867
0.232962
0.232333
0.232453
0.232376
0.232152
0.232312
0.232267
0.231669
0.231683
0.232469
0.232603
0.232382
0.232445
0.231056
0.231527
0.232236
0.232379
0.229634
0.230256
0.231243
0.230785
0.22577
0.226861
0.227938
0.228874
0.22273
0.223211
0.223899
0.224788
0.221883
0.221824
0.221856
0.22206
0.222263
0.221741
0.221489
0.225435
0.224224
0.222082
0.222066
0.223049
0.226457
0.226548
0.226283
0.225608
0.225918
0.222757
0.222256
0.223885
0.225004
0.223953
0.222962
0.223303
0.225314
0.222029
0.222191
0.232902
0.23301
0.233009
0.228307
0.231777
0.23301
0.233009
0.233008
0.233006
0.233002
0.232999
0.232999
0.233001
0.233003
0.233005
0.233007
0.233008
0.233009
0.23301
0.233009
0.233006
0.232983
0.232814
0.232012
0.230672
0.230233
0.230504
0.23129
0.232301
0.232909
0.233008
0.233004
0.233002
0.233008
0.23301
0.233009
0.23301
0.23301
0.23301
0.23301
0.23301
0.23301
0.23301
0.23301
0.233009
0.23301
0.232969
0.233002
0.232534
0.232844
0.231772
0.231934
0.231883
0.231506
0.231757
0.231688
0.23084
0.230859
0.232466
0.232472
0.231878
0.232006
0.231644
0.231988
0.232289
0.232297
0.230433
0.231051
0.231817
0.231493
0.225871
0.227111
0.228403
0.229549
0.222436
0.222962
0.223689
0.224626
0.221413
0.221419
0.221542
0.221791
0.221487
0.221198
0.221099
0.224495
0.223276
0.221342
0.221181
0.222109
0.225632
0.225761
0.225235
0.224616
0.22488
0.222292
0.221898
0.223014
0.223892
0.22296
0.22233
0.223136
0.225344
0.221765
0.221984
0.23295
0.23301
0.233009
0.22869
0.232104
0.233009
0.233005
0.232997
0.232983
0.232971
0.232968
0.232974
0.232984
0.232993
0.233001
0.233004
0.233007
0.233009
0.233009
0.233006
0.232988
0.232861
0.232237
0.230861
0.230237
0.230389
0.231085
0.232066
0.232833
0.232999
0.233009
0.23301
0.233008
0.23301
0.23301
0.23301
0.23301
0.23301
0.23301
0.23301
0.23301
0.23301
0.23301
0.23301
0.233007
0.23301
0.232887
0.232987
0.23163
0.232142
0.232497
0.230981
0.231208
0.231117
0.230661
0.230968
0.230868
0.229811
0.229828
0.23225
0.232133
0.23114
0.231345
0.232055
0.232208
0.232086
0.231943
0.230875
0.23154
0.232072
0.231897
0.225781
0.227123
0.228535
0.229837
0.222168
0.222685
0.22339
0.224302
0.221089
0.22117
0.221341
0.221585
0.220976
0.220823
0.220776
0.22329
0.221888
0.220685
0.22048
0.220954
0.224245
0.224388
0.223509
0.222883
0.223494
0.221817
0.221589
0.22226
0.222709
0.222048
0.221742
0.222969
0.225414
0.221554
0.221776
0.232975
0.23301
0.233009
0.229028
0.232304
0.232997
0.232975
0.232934
0.232887
0.232867
0.232877
0.23291
0.232946
0.232974
0.23299
0.233
0.233006
0.233008
0.233006
0.232993
0.232889
0.232392
0.23108
0.230261
0.230308
0.230905
0.231835
0.232727
0.232986
0.233009
0.23301
0.23301
0.23301
0.23301
0.23301
0.23301
0.23301
0.23301
0.23301
0.23301
0.23301
0.23301
0.23301
0.23301
0.233005
0.233009
0.232689
0.232955
0.230901
0.231584
0.232279
0.231591
0.229981
0.230272
0.230269
0.229692
0.230004
0.229855
0.228663
0.228682
0.231761
0.231553
0.23024
0.230502
0.232149
0.232142
0.231599
0.231349
0.23094
0.231643
0.231985
0.231913
0.22545
0.226822
0.228333
0.229778
0.2219
0.222331
0.222938
0.22375
0.220808
0.220962
0.221141
0.221361
0.220516
0.22047
0.220484
0.221472
0.22069
0.220356
0.220273
0.220418
0.222361
0.222815
0.221967
0.221276
0.222188
0.221393
0.221277
0.221573
0.221726
0.221492
0.221309
0.222859
0.225419
0.221339
0.221609
0.23298
0.233006
0.233003
0.229196
0.232342
0.232918
0.232817
0.232694
0.232597
0.232587
0.232657
0.232776
0.232876
0.232942
0.232978
0.232996
0.233005
0.233005
0.232995
0.232907
0.232494
0.231306
0.230319
0.230248
0.230747
0.231628
0.232589
0.232964
0.233008
0.23301
0.23301
0.23301
0.23301
0.23301
0.23301
0.23301
0.23301
0.23301
0.23301
0.23301
0.23301
0.23301
0.23301
0.23301
0.233002
0.233008
0.231878
0.232151
0.232675
0.232895
0.230095
0.230841
0.231051
0.228862
0.229212
0.229359
0.22869
0.228932
0.228737
0.227494
0.227522
0.231081
0.230787
0.229194
0.229489
0.231957
0.231805
0.230845
0.23051
0.23054
0.231327
0.231535
0.23153
0.224796
0.22611
0.227629
0.229179
0.22165
0.22197
0.222344
0.222894
0.220539
0.22067
0.220826
0.22102
0.220261
0.220144
0.220118
0.220691
0.220512
0.220025
0.220211
0.220322
0.221257
0.221615
0.22123
0.220932
0.221526
0.22115
0.221045
0.221291
0.221436
0.221202
0.221184
0.222704
0.225364
0.221146
0.221451
0.232965
0.232952
0.232963
0.229176
0.23218
0.232609
0.232376
0.2322
0.232145
0.232211
0.232372
0.232592
0.232793
0.232908
0.232967
0.232995
0.233001
0.232994
0.232924
0.232565
0.231509
0.230413
0.230207
0.230611
0.23144
0.232415
0.232927
0.233005
0.23301
0.23301
0.23301
0.23301
0.23301
0.23301
0.23301
0.23301
0.23301
0.23301
0.23301
0.23301
0.23301
0.23301
0.23301
0.23301
0.23301
0.23301
0.232992
0.233006
0.231376
0.231885
0.232519
0.23281
0.229345
0.230203
0.230518
0.227736
0.228135
0.228525
0.22778
0.227708
0.227552
0.226294
0.226425
0.230162
0.229821
0.227951
0.228246
0.231438
0.231146
0.229759
0.229364
0.229287
0.230391
0.230661
0.230649
0.223738
0.224877
0.226283
0.227801
0.221249
0.221537
0.221862
0.222201
0.220207
0.22036
0.220491
0.220671
0.220009
0.219994
0.219209
0.220718
0.21945
0.219236
0.219366
0.219408
0.221067
0.221337
0.221122
0.220864
0.221297
0.220998
0.220883
0.221147
0.221172
0.221189
0.220921
0.22256
0.225199
0.220995
0.221312
0.232819
0.232832
0.232671
0.228785
0.23151
0.232035
0.2318
0.231702
0.231744
0.2319
0.232144
0.232433
0.232706
0.232887
0.232966
0.232992
0.232991
0.232932
0.232615
0.231677
0.23052
0.230184
0.230497
0.231265
0.232225
0.232873
0.233
0.23301
0.23301
0.23301
0.23301
0.23301
0.23301
0.23301
0.23301
0.23301
0.23301
0.23301
0.23301
0.23301
0.23301
0.23301
0.23301
0.233009
0.23301
0.23298
0.233005