/*--------------------------------*- C++ -*----------------------------------*\
  =========                 |
  \\      /  F ield         | OpenFOAM: The Open Source CFD Toolbox
   \\    /   O peration     | Website:  https://openfoam.org
    \\  /    A nd           | Version:  dev
     \\/     M anipulation  |
\*---------------------------------------------------------------------------*/
FoamFile
{
    version     2.0;
    format      ascii;
    class       volScalarField;
    location    "2500";
    object      omega;
}
// * * * * * * * * * * * * * * * * * * * * * * * * * * * * * * * * * * * * * //

dimensions      [0 0 -1 0 0 0 0];

internalField   nonuniform List<scalar> 
9836
(
1.26699
1.27725
1.23527
1.18339
1.38428
1.11914
1.07903
1.39014
1.32225
1.04596
1.03398
1.34836
1.39033
1.18586
1.0257
1.01259
1.24814
1.41312
1.31901
1.0915
1.01604
1.00249
1.13718
1.40048
1.38527
1.18304
1.0535
1.0092
0.9948
1.07111
1.35589
1.40545
1.2879
1.09552
1.03474
1.00474
0.988735
1.03064
1.26444
1.40552
1.35938
1.16132
1.05774
1.02165
1.00183
0.985501
1.00659
1.16286
1.38904
1.38861
1.24729
1.08561
1.0373
1.01178
1.00011
0.984251
0.993324
1.08475
1.34456
1.39567
1.32273
1.13515
1.05054
1.02249
1.00423
0.998461
0.985526
0.986473
1.03882
1.26495
1.39337
1.36424
1.20476
1.07063
1.03037
1.0114
0.999135
0.996662
0.987316
0.980642
1.01116
1.16832
1.37699
1.38215
1.2791
1.10623
1.03877
1.01601
1.00249
0.995132
0.995539
0.988405
0.975679
0.993562
1.08845
1.33493
1.38787
1.33404
1.16599
1.05297
1.01978
1.00536
0.99564
0.991397
0.994642
0.988357
0.972305
0.982488
1.0402
1.25792
1.38545
1.36409
1.23369
1.08055
1.02535
1.00642
0.996815
0.99056
0.988354
0.993921
0.987966
0.971791
0.975473
1.00995
1.1628
1.36832
1.37798
1.29602
1.12865
1.03595
1.008
0.997048
0.990378
0.986116
0.985893
0.993317
0.987671
0.972802
0.970222
0.991409
1.08485
1.32504
1.38367
1.33899
1.19183
1.05642
1.01141
0.99529
0.989659
0.985005
0.982104
0.983791
0.992822
0.987866
0.973808
0.964878
0.978626
1.0375
1.2488
1.38043
1.36436
1.25323
1.09643
1.01898
0.995011
0.986821
0.982829
0.979922
0.978598
0.981938
0.992408
0.988431
0.97357
0.960856
0.969577
1.00622
1.1565
1.3618
1.37581
1.30643
1.15224
1.03504
0.996958
0.981812
0.979118
0.976993
0.975442
0.97548
0.980321
0.992069
0.989096
0.972536
0.959492
0.962931
0.986299
1.07988
1.31768
1.38163
1.34288
1.2125
1.06745
1.0029
0.981698
0.974093
0.97271
0.971976
0.971427
0.972709
0.978959
0.991818
0.989608
0.971142
0.958925
0.956662
0.973004
1.03275
1.24255
1.37813
1.36579
1.26703
1.11647
1.01606
0.983513
0.969308
0.96766
0.967558
0.967548
0.967846
0.970248
0.977896
0.991666
0.989828
0.970016
0.958262
0.950766
0.962605
1.00187
1.15214
1.35914
1.37591
1.31496
1.17256
1.04278
0.988756
0.96944
0.962023
0.962229
0.963076
0.963624
0.964631
0.96818
0.977105
0.991627
0.98981
0.969498
0.956781
0.945695
0.954417
0.981277
1.07609
1.31482
1.38276
1.34758
1.22734
1.08417
0.999848
0.971261
0.957917
0.95657
0.957906
0.959035
0.95998
0.961865
0.966543
0.97663
0.991736
0.989712
0.969529
0.954734
0.942652
0.947594
0.966821
1.02935
1.2403
1.3793
1.36957
1.27725
1.1344
1.02197
0.976053
0.958211
0.951128
0.952245
0.954001
0.955186
0.956786
0.959621
0.96536
0.976567
0.992038
0.989614
0.969654
0.95271
0.941225
0.941251
0.955913
0.997846
1.1523
1.36042
1.37899
1.3231
1.18761
1.05564
0.985917
0.960165
0.948227
0.946742
0.948559
0.950167
0.951973
0.954194
0.957835
0.964798
0.977043
0.992591
0.989556
0.969553
0.951027
0.939962
0.934742
0.946316
0.976082
1.07561
1.31704
1.38733
1.35377
1.23782
1.09977
1.00376
0.964777
0.948795
0.942205
0.943081
0.945102
0.94715
0.949432
0.952087
0.956753
0.965046
0.978186
0.993483
0.989542
0.969266
0.949638
0.938142
0.928884
0.937762
0.959579
1.02731
1.24647
1.38435
1.37574
1.28578
1.14817
1.03123
0.973914
0.951001
0.940594
0.938417
0.940001
0.942395
0.944899
0.947328
0.950655
0.956628
0.966347
0.980207
0.994827
0.989537
0.968872
0.948339
0.935734
0.924981
0.930175
0.946507
0.993515
1.15986
1.36715
1.38592
1.33108
1.1983
1.06745
0.988735
0.95577
0.941372
0.934808
0.93527
0.937706
0.940509
0.943027
0.945927
0.950314
0.957781
0.969071
0.983459
0.996774
0.989559
0.968365
0.947001
0.932898
0.922371
0.922707
0.935803
0.969413
1.07911
1.32602
1.39495
1.36138
1.24536
1.11181
1.01035
0.964133
0.943709
0.934456
0.931459
0.93336
0.936416
0.939104
0.942064
0.945693
0.951401
0.960598
0.973665
0.988426
0.999326
0.989576
0.967802
0.945707
0.929963
0.919509
0.915678
0.926109
0.951687
1.02823
1.25984
1.39232
1.38355
1.29267
1.15783
1.04055
0.976282
0.948611
0.935456
0.929309
0.929891
0.932734
0.935782
0.938705
0.942291
0.946879
0.954174
0.965671
0.980734
0.995678
1.00286
0.989559
0.967299
0.944473
0.927212
0.916262
0.909302
0.91747
0.937751
0.992956
1.17519
1.37645
1.39362
1.33834
1.20571
1.07758
0.993531
0.955817
0.938053
0.929752
0.927154
0.929844
0.933066
0.936224
0.939679
0.943989
0.949987
0.95932
0.97389
0.990764
1.00486
1.00855
0.98952
0.966804
0.943175
0.92456
0.912945
0.903331
0.909802
0.925923
0.967689
1.09594
1.33777
1.40204
1.36885
1.25105
1.12073
1.01727
0.965615
0.942673
0.931265
0.926997
0.927617
0.930993
0.934668
0.938106
0.942309
0.94811
0.955644
0.968013
0.985938
1.00481
1.01782
1.01594
0.989497
0.966337
0.941796
0.92191
0.909574
0.897915
0.902361
0.915541
0.94835
1.03829
1.2768
1.39973
1.39038
1.29846
1.16448
1.04799
0.979194
0.94873
0.934375
0.927881
0.92672
0.929584
0.933803
0.937856
0.94216
0.94808
0.955788
0.966025
0.982195
1.00289
1.02226
1.03462
1.02658
0.989511
0.965877
0.940437
0.919369
0.906101
0.89305
0.894856
0.90638
0.932412
0.999534
1.20034
1.38567
1.39998
1.34382
1.21062
1.08441
0.996808
0.956645
0.938775
0.930102
0.927332
0.928732
0.933416
0.938474
0.943308
0.949507
0.957667
0.968082
0.983802
1.0047
1.02768
1.0464
1.05433
1.01548
1.04918
0.989546
0.965341
0.939142
0.916928
0.902559
0.888826
0.887786
0.897999
0.919097
0.970526
1.12335
1.35255
1.40841
1.3743
1.25423
1.12561
1.02088
0.966537
0.943989
0.933623
0.928898
0.929262
0.93319
0.939544
0.945791
0.952641
0.961768
0.973346
0.989033
1.01044
1.03606
1.06327
1.08392
1.07251
1.08684
1.01995
1.05591
0.989586
0.964779
0.937807
0.914471
0.899035
0.885048
0.881191
0.890294
0.907932
0.948059
1.05595
1.29819
1.40702
1.39546
1.30117
1.16708
1.05088
0.980218
0.94991
0.937455
0.93171
0.930558
0.933796
0.940654
0.949263
0.957697
0.968024
0.981573
0.999684
1.0238
1.0513
1.08125
1.08831
1.09626
1.10182
1.09992
1.11528
1.08122
1.10199
1.02127
1.06217
0.989568
0.964205
0.936387
0.912095
0.895632
0.881397
0.875184
0.882998
0.898274
0.930381
1.01087
1.23208
1.39596
1.40568
1.34534
1.21041
1.08648
0.997719
0.957323
0.941181
0.934775
0.932823
0.935035
0.941936
0.952415
0.963574
0.976132
0.992946
1.01416
1.04414
1.08018
1.11563
1.10981
1.13774
1.12447
1.11805
1.14312
1.13701
1.09382
1.11863
1.02379
1.07121
0.989582
0.963532
0.934873
0.909795
0.892417
0.877814
0.869864
0.876206
0.889533
0.915904
0.978229
1.15637
1.36935
1.41355
1.37664
1.25221
1.12478
1.02098
0.966321
0.94529
0.937634
0.935673
0.936872
0.943519
0.955082
0.969131
0.985318
1.00539
1.03656
1.07489
1.12983
1.18709
1.1671
1.22693
1.1534
1.19802
1.17558
1.13863
1.16323
1.1636
1.10741
1.13385
1.02688
1.08093
0.989629
0.962749
0.933289
0.907464
0.88929
0.874405
0.865162
0.870125
0.881623
0.903763
0.953054
1.08796
1.32179
1.41294
1.39784
1.29747
1.16388
1.04996
0.978126
0.94967
0.939951
0.938172
0.939423
0.94549
0.957228
0.973733
0.994173
1.02069
1.0573
1.13596
1.26591
1.4681
1.35299
1.66535
1.2729
1.47019
1.21799
1.31125
1.20469
1.15704
1.20318
1.19217
1.11965
1.14594
1.03063
1.09041
0.989651
0.961824
0.931689
0.905094
0.886249
0.871246
0.861053
0.864495
0.874463
0.893607
0.933129
1.0318
1.26089
1.40461
1.409
1.34073
1.20395
1.0831
0.994745
0.954802
0.941914
0.939755
0.941583
0.947788
0.959221
0.976883
1.00137
1.03467
1.09507
1.22096
1.60533
2.41496
2.33923
3.72964
1.99056
3.16672
1.5848
2.35385
1.31109
1.66303
1.31287
1.17547
1.29227
1.25698
1.12856
1.15446
1.03538
1.09788
0.989464
0.960794
0.930027
0.90274
0.883372
0.868354
0.857254
0.859083
0.86783
0.884964
0.917378
0.993236
1.19578
1.38317
1.4153
1.37451
1.24413
1.11821
1.0167
0.962076
0.943593
0.940356
0.942612
0.94947
0.961134
0.979249
1.00648
1.04603
1.12326
1.41504
2.21128
4.3528
5.45884
7.86105
5.26729
8.02426
4.09657
7.06507
2.70762
5.0398
1.71409
2.99763
1.69957
1.21447
1.62214
1.50194
1.13218
1.17287
1.04058
1.10148
0.989287
0.959579
0.928243
0.900548
0.880719
0.865577
0.853865
0.85429
0.861683
0.877096
0.905086
0.964524
1.12876
1.3433
1.41514
1.39616
1.28789
1.15503
1.04329
0.972223
0.945467
0.940193
0.94267
0.949696
0.962057
0.98064
1.0095
1.05449
1.14985
1.54301
3.20432
6.74329
9.54783
11.2375
10.4026
11.6531
10.0359
11.632
8.70533
11.1971
5.93979
9.90458
3.11799
6.52294
3.04546
1.36646
2.78726
2.40679
1.13505
1.24756
1.04501
1.10071
0.989275
0.958324
0.926345
0.898307
0.878174
0.862921
0.851008
0.850159
0.85633
0.869759
0.895175
0.942218
1.06932
1.29133
1.4094
1.40814
1.33132
1.19211
1.0742
0.986917
0.948345
0.939126
0.942026
0.949333
0.96188
0.980626
1.00988
1.05755
1.17389
1.69679
3.78485
8.74823
11.6729
12.3542
12.2828
12.5581
12.3081
12.5949
12.178
12.5435
11.7722
12.4093
10.5564
12.0496
6.66336
10.8374
6.37368
1.97562
5.67464
4.73648
1.16417
1.58366
1.04762
1.10217
0.989871
0.957222
0.924299
0.895919
0.875793
0.860489
0.848551
0.846679
0.851856
0.863294
0.88679
0.924579
1.01914
1.23377
1.39314
1.41283
1.36771
1.23165
1.10668
1.00681
0.953068
0.9366
0.939901
0.947895
0.961046
0.980007
1.0092
1.05685
1.17383
1.84062
4.43602
9.91208
12.4349
12.6252
12.7047
12.7672
12.7194
12.7964
12.7067
12.7992
12.6443
12.7704
12.5111
12.7012
12.2044
12.6066
10.8536
12.2786
10.6263
3.69762
10.0151
8.7659
1.31171
2.67955
1.04552
1.15329
0.991914
0.956566
0.922039
0.893277
0.873693
0.858416
0.846527
0.843775
0.848101
0.857818
0.879268
0.910858
0.983467
1.17475
1.36017
1.41299
1.39009
1.2737
1.14077
1.03135
0.961617
0.93593
0.935789
0.944174
0.958936
0.978304
1.00734
1.05438
1.16764
1.83886
4.99557
10.4826
12.6426
12.6736
12.8076
12.8223
12.8484
12.9032
12.9051
13.0542
12.9347
13.1488
12.8845
13.1454
12.7835
13.0293
12.68
12.9134
12.2929
12.7501
12.2267
6.97236
12.02
11.6046
1.86221
4.98093
1.04244
1.36407
0.994887
0.957296
0.919618
0.890302
0.871864
0.856772
0.845197
0.841614
0.844923
0.853241
0.87252
0.900099
0.956998
1.11467
1.31724
1.40872
1.40233
1.31679
1.17586
1.06029
0.974634
0.937016
0.93155
0.938699
0.95404
0.974686
1.00319
1.04931
1.15426
1.7968
5.03565
10.8552
12.7946
12.8389
12.856
12.9741
13.0567
13.2194
13.4045
13.4292
13.7231
13.5183
13.88
13.4307
13.8588
13.2396
13.683
13.0289
13.4333
12.8289
13.1738
12.8952
10.6566
12.9194
12.8134
3.2805
8.52554
1.08791
1.99569
1.00257
0.963225
0.917933
0.887196
0.870054
0.855373
0.84457
0.840369
0.842486
0.84942
0.866595
0.891386
0.936806
1.06094
1.26872
1.39588
1.40684
1.355
1.21435
1.09093
0.992495
0.940379
0.926291
0.93311
0.946681
0.968293
0.996884
1.03897
1.13059
1.70163
4.91774
10.8645
12.7876
13.2921
13.3414
13.1462
13.2202
13.5904
13.7702
13.9699
14.1456
14.1446
14.2834
14.1832
14.3281
14.1072
14.3159
13.8955
14.2417
13.5999
14.0519
13.337
13.7787
13.49
12.4918
13.6034
13.657
5.79753
11.5536
1.24953
3.39078
1.0356
0.983769
0.921236
0.884942
0.868137
0.854088
0.844373
0.840098
0.84096
0.84639
0.861622
0.884223
0.920909
1.01573
1.2174
1.36937
1.40632
1.37814
1.25336
1.12239
1.0162
0.947407
0.922582
0.926606
0.939026
0.960122
0.98841
1.02718
1.10314
1.50669
4.62061
10.7651
12.7079
13.3955
13.4003
14.183
14.2751
13.9314
14.0672
14.2848
14.4163
14.3491
14.4097
14.3856
14.3769
14.397
14.3599
14.3644
14.3712
14.3463
14.4095
14.2191
14.4926
13.9713
14.4064
14.1652
13.5654
14.3454
14.4703
9.19347
13.245
1.75493
5.88499
1.1191
1.03757
0.944073
0.887041
0.866497
0.852994
0.844481
0.840729
0.840442
0.844306
0.85752
0.878545
0.908291
0.981348
1.16634
1.33578
1.40189
1.39103
1.29508
1.15584
1.04311
0.958689
0.922909
0.920317
0.930713
0.951056
0.977851
1.01447
1.07483
1.32691
3.94501
10.5226
12.656
13.396
13.3031
14.3384
14.3674
14.7789
14.8832
14.5448
14.6649
14.4871
14.5791
14.3268
14.2555
14.1922
13.8732
14.1904
13.7704
14.3053
13.9959
14.515
14.3829
14.6747
14.7192
14.6185
14.9153
14.855
14.5415
15.0923
15.3133
12.2021
14.5165
3.02875
9.71085
1.19846
1.16062
1.02107
0.906258
0.866904
0.852249
0.844818
0.842114
0.840915
0.843365
0.854459
0.874095
0.898461
0.956531
1.11533
1.29759
1.39075
1.39538
1.33336
1.1919
1.07089
0.976115
0.925326
0.913846
0.922626
0.941133
0.966609
1.0013
1.04998
1.21339
3.01563
9.9672
12.6114
13.7179
14.3684
14.4553
14.9735
15.0389
14.9179
15.0357
14.6862
14.7998
14.2382
14.2687
13.509
13.2317
13.1525
12.3863
13.5286
12.9429
14.1274
13.7888
14.635
14.5325
15.0587
15.1704
15.2271
15.5285
15.5784
15.4978
15.9363
16.2643
14.4522
15.7356
4.7658
15.0935
1.20617
1.14696
0.975306
0.875899
0.852083
0.845055
0.843458
0.842394
0.843592
0.852888
0.870718
0.890991
0.937687
1.06818
1.25625
1.37105
1.39344
1.35884
1.22903
1.10044
0.998374
0.93134
0.908224
0.914716
0.930285
0.955021
0.987859
1.0302
1.14025
2.28011
8.74147
12.6906
13.4513
15.0848
15.0059
15.0893
15.0984
15.1465
15.2437
14.6341
14.8024
14.3529
14.4796
13.1164
13.1303
11.5698
10.9928
12.1328
10.9509
13.3692
12.8118
14.4615
14.3759
15.4157
15.7945
15.9409
16.6453
16.0874
16.8463
16.6446
16.5786
17.1662
17.5973
16.4723
17.0493
10.6187
19.9769
1.17526
1.10322
0.914699
0.854493
0.844473
0.844204
0.844055
0.845231
0.852935
0.868344
0.88547
0.923191
1.02791
1.21355
1.34551
1.38836
1.37292
1.26743
1.13301
1.02336
0.942763
0.908046
0.906999
0.919961
0.944245
0.974205
1.01292
1.091
1.80932
7.19748
12.7014
13.1675
14.9462
14.7694
15.4525
15.4853
15.33
15.3989
14.9727
15.1347
13.719
14.0086
13.2426
13.4523
10.7908
10.8442
9.37634
8.17616
11.9618
10.6263
14.1861
13.7195
16.1251
16.2484
17.5171
18.1692
18.0367
19.3747
17.7976
19.4879
18.6114
18.0399
19.3295
19.8383
18.7289
18.2036
18.6098
21.7408
22.2617
1.16555
1.00661
0.869518
0.842813
0.843531
0.845272
0.847723
0.85502
0.867425
0.88155
0.911995
0.994991
1.17198
1.3153
1.37812
1.37712
1.30407
1.16734
1.04988
0.959848
0.909922
0.90047
0.910169
0.932429
0.960731
0.99768
1.05598
1.51753
5.71554
12.5315
12.844
14.9916
15.4869
15.5421
15.5219
15.6112
15.2832
15.411
14.3012
14.5837
12.0335
12.5662
11.1145
11.5184
7.7056
7.56686
8.78944
7.37841
12.7349
11.0507
16.0407
15.3924
18.3912
18.1651
20.3271
20.6298
21.2782
22.5794
20.8972
22.8396
21.7363
20.416
21.8627
20.0898
19.1753
20.2865
21.1384
22.8269
22.3941
21.4436
19.7385
20.4937
20.6576
19.6966
23.899
23.5253
1.10899
0.915638
0.843558
0.841067
0.844836
0.850031
0.85893
0.868486
0.879413
0.903952
0.969905
1.13372
1.28282
1.36307
1.37498
1.33151
1.20286
1.07917
0.982658
0.915297
0.896987
0.901782
0.920699
0.947289
0.982766
1.02914
1.32911
4.51265
11.957
12.434
14.5938
15.7277
15.6671
15.6818
15.7181
15.3003
15.4843
14.8465
15.0856
13.0749
13.5554
9.11117
10.094
7.7258
8.2543
6.7763
6.45131
8.95903
7.55498
14.2051
12.4066
17.489
16.4538
20.3263
19.5316
22.3543
22.4695
22.3295
22.067
23.6043
24.293
23.6801
24.832
24.6273
23.7699
23.1983
24.6248
24.698
23.9018
21.6695
21.8328
23.1118
24.9267
24.4608
23.392
20.8729
20.9741
21.2325
21.9776
22.0359
28.2346
21.8429
22.9529
25.3375
0.977352
0.863812
0.834474
0.842675
0.850328
0.862845
0.872006
0.879203
0.898938
0.952844
1.09902
1.25026
1.34297
1.36858
1.34664
1.23688
1.11127
1.00756
0.926212
0.89708
0.896552
0.909716
0.933175
0.96828
1.00678
1.19891
3.54487
10.9712
12.0653
14.0026
15.756
15.8111
15.9092
15.6375
15.7459
14.7461
15.0542
13.9952
14.3919
10.9672
11.8086
5.98525
6.50098
6.13203
5.90512
6.9422
6.49313
10.4119
9.35485
15.2622
14.202
18.4777
17.646
21.6366
21.1519
20.6387
20.2196
23.5445
23.2522
22.815
25.3921
25.8277
24.7431
25.9622
25.9849
25.6738
25.3432
26.5911
26.4872
26.0483
23.5856
23.7099
25.2969
26.6529
27.1613
25.5728
22.1534
22.3371
23.7452
23.6994
26.5446
27.4849
29.5948
22.6298
23.9824
0.895591
0.841718
0.835055
0.848944
0.864867
0.87616
0.881163
0.897014
0.94171
1.06968
1.21956
1.31941
1.35767
1.3519
1.26936
1.14489
1.03545
0.946164
0.899097
0.895079
0.901465
0.920175
0.953707
0.986493
1.10896
2.70992
9.66257
11.9823
13.4407
15.6012
15.9361
15.9547
15.7059
15.8207
15.3171
15.5335
13.7819
14.2735
12.5579
13.2097
7.52415
8.77076
5.01747
4.90669
5.96044
5.39288
8.79541
7.99969
13.4833
13.0364
17.6003
18.0791
20.0051
20.0621
20.5622
21.2604
22.3145
21.8402
21.5418
21.5607
24.4718
24.0413
23.5571
26.9836
27.1839
25.7237
26.9933
27.1869
27.5217
27.4102
28.463
28.1062
28.1507
25.7514
25.8111
27.5686
28.789
29.3425
27.867
23.6302
23.616
25.7476
25.558
25.9238
25.6157
27.8644
23.84
25.0515
0.87028
0.837374
0.841641
0.864488
0.880228
0.885352
0.897602
0.936011
1.04815
1.19322
1.29457
1.34356
1.34952
1.2956
1.17939
1.06936
0.973064
0.905569
0.895337
0.898159
0.911768
0.939835
0.96888
1.04795
2.05503
7.91973
12.1022
12.9657
15.2582
16.0669
15.7522
15.9671
15.3389
15.5645
14.6937
15.0475
12.1058
12.9281
10.0478
11.1265
5.03944
5.43078
4.86995
4.56059
6.82038
5.57902
12.3736
11.0568
18.3129
17.9498
22.0872
22.7046
23.0554
23.2024
22.0268
22.9348
24.0898
25.2183
23.1482
23.037
23.3438
24.2348
25.3208
24.8488
24.5443
28.3658
28.4156
26.6099
27.8499
28.2432
29.1621
29.3162
30.1212
29.5057
30.0792
28.0469
28.0685
29.7956
30.7492
31.3507
30.1553
25.3001
25.1104
27.9126
27.589
26.6272
24.1958
28.1949
25.2807
26.2474
0.86186
0.841011
0.860504
0.88354
0.890159
0.900902
0.934894
1.0357
1.17362
1.27147
1.32662
1.34203
1.31267
1.21402
1.10514
1.00224
0.920782
0.897492
0.898105
0.908596
0.93071
0.956768
1.00706
1.61417
6.03539
12.0943
12.593
14.769
16.0641
15.8373
15.9555
15.3436
15.5945
14.6497
15.0302
13.6129
14.1835
9.02323
10.4438
6.23219
7.52826
4.40745
4.37001
5.17737
4.57809
9.08151
6.71294
16.7574
14.7902
24.01
22.717
26.0337
26.3692
26.3291
25.9443
25.5949
27.1111
28.428
29.3111
24.6077
25.283
26.6278
28.4135
26.142
25.9393
26.2202
29.604
29.4558
27.381
28.5067
29.0103
30.5654
30.9844
31.5123
30.7147
31.7571
30.3731
30.399
31.8843
32.4555
33.1269
32.3506
27.1548
26.8015
30.2017
29.788
27.5305
20.2207
28.125
26.8606
27.5597
0.862296
0.856776
0.884267
0.895876
0.906257
0.936965
1.03199
1.16271
1.25338
1.30903
1.32979
1.32027
1.24233
1.13826
1.03305
0.945114
0.90465
0.899984
0.908837
0.92786
0.948977
0.98007
1.34509
4.50858
11.813
12.2148
14.0965
15.9617
16.0798
15.3414
15.6822
14.5701
14.9818
13.415
14.054
11.6144
12.6204
5.30637
6.3591
4.47931
4.75641
4.32126
4.17983
5.98455
4.9354
12.1031
8.66295
20.8006
18.3088
27.6695
26.5748
24.2889
25.5973
29.6554
29.5993
29.2002
28.5337
30.2212
31.6901
32.6123
32.9228
27.278
29.073
31.2291
33.2816
27.2656
27.7707
29.2216
30.5872
30.0771
28.4684
29.5698
29.5591
31.7104
32.3536
32.5882
31.6138
33.1041
32.6717
32.7726
33.793
33.83
34.5969
34.4363
29.1998
28.669
32.6212
32.1692
28.4914
17.9737
27.7506
28.5485
29.0479
0.8728
0.885357
0.901328
0.914212
0.943045
1.03311
1.15975
1.24272
1.29313
1.32009
1.31992
1.26444
1.17219
1.07009
0.977143
0.921965
0.906329
0.911141
0.927951
0.946852
0.965474
1.18242
3.46284
10.7835
11.8425
13.3478
15.658
16.2011
15.3178
15.5564
14.4358
14.9076
13.1111
13.8426
11.0094
12.1642
7.90196
9.58999
4.09811
4.26957
4.09969
4.06202
4.46713
4.23158
7.08471
5.57446
15.1249
10.8814
23.2842
21.8234
20.3161
29.1769
27.9183
25.3283
26.6251
32.8064
32.2773
31.4331
30.3694
34.9011
35.9331
36.2992
36.2019
31.4357
33.9271
36.2038
38.0276
29.2369
31.0516
33.6547
31.061
30.5467
30.5651
31.7654
30.5945
32.5368
33.3713
33.3661
31.9947
34.1153
34.9318
35.2087
35.4661
34.9158
35.8791
36.3951
31.448
30.6839
35.2049
34.7811
29.6742
13.919
27.0016
30.3402
30.6577
0.900067
0.906989
0.922227
0.955232
1.04017
1.16275
1.23957
1.28202
1.31062
1.32017
1.2899
1.21625
1.1206
1.02423
0.957005
0.922055
0.917677
0.929501
0.947885
0.961472
1.08618
2.71328
9.21534
11.7365
12.7828
15.2233
16.2038
15.6812
14.2297
14.8289
12.6327
13.5207
10.1725
11.5212
6.73364
8.43524
4.64881
5.37681
3.8902
3.82501
4.08593
3.97816
4.89743
4.54432
8.32182
6.47113
17.0367
12.7951
24.0093
22.6934
21.6517
20.0621
30.3543
28.8312
25.8446
27.3144
35.6129
34.6163
33.3275
31.8691
39.2734
39.8126
39.7947
39.228
36.4474
38.988
41.0833
42.6468
32.7176
35.6869
38.8145
31.494
31.5543
34.232
35.5943
32.8572
32.8819
34.1461
33.7513
32.418
34.9576
37.2055
37.7764
37.0335
35.9543
37.2029
38.3155
33.8919
32.815
38.0449
37.6718
31.1214
9.19068
23.4475
32.2433
32.4752
0.92857
0.93156
0.967516
1.05925
1.17508
1.24359
1.27803
1.30569
1.32399
1.31836
1.27283
1.18609
1.09177
1.00992
0.956559
0.933003
0.935416
0.953077
0.962259
1.03451
2.1417
7.71746
11.6524
12.4011
14.7215
16.1316
15.9403
13.9112
14.3807
11.9176
13.0308
8.85629
10.5915
5.54669
7.09644
4.13437
4.6537
3.79801
3.87599
3.93541
3.80006
4.29703
4.09798
5.61023
5.12935
9.96942
8.01005
18.6303
16.5454
14.0687
24.4244
23.0503
21.65
20.2298
30.978
29.1827
25.9593
27.519
38.0956
36.5482
34.7505
32.8673
43.5034
43.6624
43.1894
41.9948
41.6535
44.1001
46.0276
47.3296
37.5605
41.0442
44.25
32.4795
33.8702
39.2999
40.9056
36.8266
33.3456
34.6527
34.3214
33.4081
35.7066
39.5817
40.6507
38.6855
37.1012
38.7217
40.4814
36.4946
35.0767
41.2784
40.8168
32.6223
4.67771
17.9116
34.2919
34.5999
0.958216
0.983243
1.07932
1.20348
1.25913
1.28172
1.30742
1.33423
1.34631
1.32566
1.26607
1.17586
1.08665
1.01356
0.968272
0.95246
0.968107
0.968023
1.01364
1.73042
6.2034
11.4775
12.0324
14.1295
15.9282
16.0617
14.4246
11.1089
12.4694
7.30489
9.22542
4.61621
5.61554
3.71571
4.03254
3.5406
3.56626
3.68751
3.59376
4.18465
3.97504
4.73048
4.41581
6.94627
6.20733
12.9077
11.5423
11.3378
18.7936
17.1421
14.1469
16.1494
24.485
23.0633
21.5914
20.3004
31.0449
29.1008
25.7543
27.3478
40.1985
37.9824
35.5876
33.2093
47.7564
47.5764
46.4541
44.5118
47.0697
49.4228
51.1892
52.1057
43.1728
46.7743
50.0126
34.8278
37.9511
45.2053
47.1665
42.392
34.3895
35.427
35.5015
35.79
36.8802
42.3316
44.1223
40.7758
38.5413
40.8354
43.1147
39.2851
37.4745
44.9046
44.3036
33.5288
2.19629
11.2728
36.4748
36.945
1.01987
1.10656
1.23368
1.29404
1.29884
1.32206
1.35509
1.38278
1.38088
1.34989
1.27616
1.18558
1.1044
1.04042
0.994711
0.994263
0.986778
1.01275
1.46824
4.80323
11.0985
11.6916
13.4658
15.5907
16.0848
14.8455
10.1412
11.1184
5.88082
7.96642
3.8939
4.60252
3.33361
3.51435
3.3272
3.29684
3.47304
3.38839
3.78416
3.59723
4.47579
4.23077
5.4502
4.83335
9.8872
8.52868
15.233
14.0358
17.1216
15.929
19.0088
17.6674
16.401
17.2662
24.2906
22.9152
21.4762
20.3641
30.5382
28.484
25.2179
26.7342
41.8881
38.8713
35.8081
32.993
52.2355
51.5225
49.7084
46.8986
52.7959
55.039
56.6161
57.1558
49.2567
52.9382
56.2115
39.0025
43.7554
51.7081
54.1764
49.0154
36.8039
36.9662
38.1359
39.9162
38.5567
46.0528
48.1825
43.4275
40.9316
43.7522
47.29
42.2318
39.8662
49.1815
47.9654
31.2442
1.79181
9.35905
38.7618
39.5238
1.1573
1.2757
1.33191
1.34108
1.35722
1.40233
1.44266
1.45468
1.43801
1.39093
1.31173
1.22442
1.13742
1.06591
1.03025
1.02594
1.02356
1.31721
3.79853
10.3373
11.5742
12.8536
15.17
16.0496
15.2277
11.0848
5.19075
7.40497
3.39861
4.01566
3.03873
3.12441
3.10618
3.05493
3.28972
3.19976
3.53964
3.38879
4.02636
3.77209
4.82475
4.42679
6.97294
5.6032
15.0254
13.8537
13.2949
18.4614
18.0021
21.5897
20.8162
19.3104
18.2732
18.8473
19.2682
23.8665
22.6254
21.6683
20.9496
29.4971
27.4482
24.5268
25.8248
43.3393
39.3824
35.5336
32.1644
57.0683
55.8465
53.3366
49.7716
58.9477
61.1015
62.4632
62.8091
55.9238
59.7025
62.9885
44.7638
50.4779
58.9603
61.8439
56.3165
40.981
39.3518
41.6754
45.6158
41.7347
50.7044
53.3785
48.4038
44.6784
50.1866
52.9618
44.998
42.1671
53.6448
51.0602
29.7413
1.4033
5.62999
41.0755
41.5264
1.3563
1.38736
1.39307
1.4327
1.48999
1.56951
1.60174
1.59063
1.54163
1.46033
1.36149
1.25159
1.16018
1.08965
1.07438
1.0598
1.25317
3.12006
9.31279
11.5554
12.4733
14.7164
15.934
15.5112
12.3256
4.56661
3.20308
3.96987
2.81868
2.89333
2.91205
2.84708
3.09101
2.99941
3.32475
3.20764
3.71305
3.47842
4.21159
3.97684
5.52399
4.71113
10.2251
7.31726
19.4774
17.6546
18.3155
21.0267
22.2317
22.0082
26.3293
25.5312
20.3223
19.7822
22.4081
22.5024
23.4475
22.5121
22.8356
22.6553
28.3796
26.3228
24.1351
24.984
45.2107
40.1561
35.3294
31.3653
62.6526
61.2104
58.4332
54.3329
65.6922
67.7672
69.0225
69.3991
63.3359
67.1912
70.5401
51.4938
57.8709
66.8848
70.0671
64.1649
45.8678
43.986
48.0478
51.75
46.8958
57.1191
58.6705
55.7751
53.7523
59.9751
60.969
47.4539
44.2963
56.8952
53.8977
23.7914
1.41338
5.30143
43.3836
43.7511
1.49951
1.48293
1.52993
1.67587
1.81966
1.92212
1.92322
1.84909
1.73214
1.58565
1.42761
1.29719
1.1831
1.1382
1.11704
1.25164
2.69822
8.30492
11.503
12.1653
14.2589
15.7367
15.6949
13.3462
6.11854
2.6231
2.91737
2.80444
2.69939
2.73417
2.68618
2.90589
2.81657
3.11934
3.00302
3.40292
3.26647
3.86679
3.59907
4.35048
4.10919
6.94434
5.22514
16.2695
10.7994
24.542
23.066
23.0253
25.6118
27.1187
26.8712
31.4576
30.5308
22.5668
22.5715
27.104
26.9792
23.5393
23.1209
25.4322
25.8373
27.8669
25.8867
24.6715
24.8804
48.9777
42.6117
36.3075
31.268
69.2937
67.9189
65.0332
60.7917
73.2712
75.3593
76.8401
77.3497
71.4563
75.6478
79.4087
58.8035
66.5045
75.644
81.7301
74.1565
54.1453
50.9112
57.3698
62.3957
59.4659
63.2019
62.2107
65.6684
65.4811
71.6383
68.1566
50.0705
47.0157
60.8775
58.1587
21.2026
1.41396
5.47757
45.7128
44.7724
1.62942
1.74689
1.96948
2.32972
2.57714
2.71523
2.61574
2.37186
2.06522
1.78093
1.5492
1.35081
1.24488
1.18653
1.27628
2.4422
7.43094
11.382
11.8613
13.7772
15.4846
15.7706
14.1575
7.99542
2.93448
2.57256
2.46801
2.4658
2.59806
2.72896
2.65381
2.91674
2.81738
3.1676
3.03075
3.46516
3.31691
3.98042
3.70606
4.53429
4.21925
9.65321
6.10024
25.1062
20.7828
16.8715
29.2997
27.5983
27.759
30.1312
32.1245
31.9525
36.1975
35.2508
26.2715
26.698
32.0615
31.8243
24.7581
25.112
29.4081
30.1725
29.1603
27.0414
26.9024
26.6286
55.105
48.0568
40.5205
33.9631
77.3712
76.3236
73.606
69.5652
82.4554
84.8825
86.6605
87.3918
81.0218
86.2505
90.9795
72.2214
82.5175
89.11
104.618
93.2389
66.7737
67.5668
78.6382
78.9403
72.9015
68.0395
69.1833
74.7169
80.0547
84.2836
75.3212
53.7931
48.8084
67.9146
63.4056
20.832
2.19429
8.4494
48.1532
45.7806
2.0217
2.61858
3.19127
3.85598
4.07458
3.94169
3.56617
3.06436
2.54431
2.08671
1.70345
1.45262
1.31101
1.33994
2.28562
6.73447
11.21
11.6602
13.2691
15.1911
15.7687
14.7336
9.84485
3.41292
2.29269
2.5161
2.42495
2.36665
2.57803
2.72796
2.64824
2.93453
2.82412
3.2023
3.05934
3.53232
3.35611
4.06988
3.81239
4.81186
4.32483
14.1507
7.57442
28.2275
25.2143
19.5761
25.3207
34.0497
32.2995
31.2127
33.9355
36.9678
36.7248
40.6048
39.4248
30.886
31.4352
36.9616
36.7593
27.695
28.5936
34.0645
35.052
34.3498
31.2696
31.0392
30.764
64.0333
56.8541
48.6182
40.645
87.5871
87.0151
84.8469
81.3517
94.9556
97.9977
100.263
101.332
96.0099
102.955
111.234
93.6072
113.083
118.56
163.169
133.528
93.0309
83.7612
100.076
114.22
92.9196
80.5266
79.2053
85.6138
98.286
100.882
96.9857
55.9072
51.8172
74.2022
66.54
24.5114
8.53816
16.1128
49.9944
48.5012
3.41352
4.56983
5.22436
5.38616
5.19978
4.81085
4.27048
3.64976
2.99253
2.41397
1.91296
1.57542
1.46899
2.23385
6.1792
10.9941
11.6419
12.8395
14.8576
15.7231
15.0936
11.4868
4.15812
2.25158
2.18632
2.33223
2.49826
2.40038
2.56521
2.7285
2.63829
2.95042
2.83364
3.23105
3.08051
3.60347
3.3976
4.12804
3.89205
5.21752
4.4424
23.3844
21.4737
14.4486
9.62112
31.4199
28.2712
26.8334
38.0529
36.2325
34.4643
37.242
41.7571
41.2714
44.8564
43.377
35.7839
36.3908
41.991
41.9709
31.9432
33.057
39.8416
40.7565
45.3141
39.6756
37.849
38.0687
76.4979
69.9234
61.9939
53.0158
101.765
101.784
100.269
97.2243
116.478
121.141
123.023
124.484
134.175
158.62
189.647
152.81
197.679
197.023
218.76
199.017
126.86
112.812
153.674
165.568
119.867
91.069
85.0587
120.736
127.739
163.951
105.126
60.4383
53.4022
78.6661
73.902
36.8651
39.2878
30.8042
53.105
54.8053
5.71663
6.45574
6.34897
6.14886
5.76937
5.28341
4.69667
4.05191
3.35021
2.68161
2.16855
1.73578
2.24902
5.73764
10.7617
11.6637
12.5584
14.5216
15.6117
15.319
12.587
5.21264
2.30826
2.07076
2.1813
2.29575
2.26037
2.11346
2.47543
2.36641
2.5478
2.72924
2.63136
2.96109
2.83929
3.25943
3.09871
3.67083
3.4379
4.16236
3.9308
5.78872
4.59924
25.2728
22.2934
17.3035
11.6283
33.6179
30.3515
28.832
41.7074
39.6947
36.8119
39.8911
46.8015
45.9058
49.1671
47.1187
41.365
41.8115
47.4819
47.7367
38.0614
38.9634
47.1143
47.6407
64.3766
56.5033
48.3509
50.6757
93.1772
87.4051
81.3684
73.285
125.137
125.2
123.774
120.392
186.601
189.908
189.355
183.685
197.663
204.335
424.095
208.026
463.883
454.687
444.496
470.458
200.376
161.484
209.417
213.438
170.611
98.463
92.6503
128.669
203.177
147.058
122.063
62.9938
56.8989
90.942
78.2782
50.2527
37.9466
61.7009
53.9793
55.2713
7.06323
7.11492
6.76007
6.4334
5.98538
5.48052
4.90459
4.27069
3.55849
2.92827
2.30777
2.36522
5.28947
10.551
11.7238
12.3293
14.2037
15.4535
15.4442
13.4009
6.72209
2.50029
1.99069
2.00996
2.22782
2.13325
2.3401
2.08309
2.44768
2.53049
2.72499
2.6212
2.97302
2.844
3.28874
3.11968
3.72706
3.48098
4.21005
3.95664
6.46123
4.77784
26.3448
23.4242
19.036
19.6843
15.6052
9.90723
35.2829
32.0399
29.6772
44.9956
42.6594
38.7346
42.1604
52.0875
50.7214
53.5953
50.908
47.8461
47.9374
53.2694
53.8974
47.2714
47.0932
56.5698
55.9197
91.6084
83.6769
66.0142
70.9877
116.07
109.053
104.097
100.087
180.77
171.121
167.566
157.873
426.492
407.559
413.397
403.356
461.997
408.309
834.109
458.191
888.63
873.804
852.153
893.918
470.337
223.548
464.653
465.385
227.015
114.801
117.581
170.749
497.476
262.902
490.716
166.004
69.2821
58.2202
97.923
89.0115
55.0326
196.259
138.64
53.687
52.3991
7.40887
7.2634
6.81462
6.44878
6.00384
5.52199
4.98234
4.35832
3.70773
3.02586
2.72547
4.85446
10.2676
11.8789
12.2083
13.8699
15.2656
15.4829
14.028
8.33003
2.85792
1.94912
1.90722
1.9395
2.31629
2.20466
2.11085
2.4321
2.05316
2.51649
2.72162
2.61096
2.98216
2.84631
3.31274
3.13723
3.76922
3.51759
4.28717
3.98513
6.92313
4.97196
26.8438
23.5806
19.8099
15.1297
10.5246
36.266
32.8598
29.9208
48.0969
45.3094
40.0471
43.935
57.6801
55.7227
58.2622
54.7721
55.168
54.865
59.4951
60.692
60.2679
58.2619
68.9698
66.5535
121.937
117.599
92.7022
101.429
153.882
143.684
128.327
128.571
405.05
393.411
394.8
387.41
843.138