/*--------------------------------*- C++ -*----------------------------------*\
  =========                 |
  \\      /  F ield         | OpenFOAM: The Open Source CFD Toolbox
   \\    /   O peration     | Website:  https://openfoam.org
    \\  /    A nd           | Version:  dev
     \\/     M anipulation  |
\*---------------------------------------------------------------------------*/
FoamFile
{
    version     2.0;
    format      ascii;
    class       volScalarField;
    location    "2500";
    object      p_rgh;
}
// * * * * * * * * * * * * * * * * * * * * * * * * * * * * * * * * * * * * * //

dimensions      [1 -1 -2 0 0 0 0];

internalField   nonuniform List<scalar> 
9836
(
0.00439922
0.00586472
0.00497332
0.0055357
0.00840218
0.00415427
0.00492039
0.0101372
0.0085964
0.003348
0.0044621
0.0109096
0.0119964
0.00761488
0.0029002
0.00445539
0.0102674
0.0134433
0.0116249
0.00629037
0.00227652
0.00408113
0.00881479
0.0138049
0.0141775
0.01033
0.00531319
0.00168093
0.00380188
0.00791107
0.0138115
0.0159037
0.0135208
0.00842719
0.00457634
0.00123606
0.00343827
0.0078256
0.0131526
0.0165235
0.0160101
0.0119869
0.00748318
0.00397967
0.000836348
0.00287863
0.00726147
0.0124764
0.0167624
0.0176445
0.0150184
0.0107699
0.00671467
0.00341857
0.000422248
0.002859
0.00707013
0.0118591
0.016197
0.0186687
0.0177172
0.0137677
0.00965194
0.00594454
0.00276971
4.75526e-05
0.00241388
0.0062619
0.0110291
0.0158255
0.0191624
0.0192978
0.0166355
0.0123083
0.00845443
0.0052356
0.0024597
-0.000306629
0.00232098
0.00594756
0.00978489
0.0150076
0.0187265
0.0202889
0.0188861
0.0151565
0.0109337
0.00786522
0.00471182
0.00201573
-0.000655238
0.00193383
0.00522179
0.00868449
0.0142134
0.0183534
0.0209077
0.0204076
0.0175868
0.0138155
0.0102494
0.00721713
0.00441585
0.00170548
-0.00100098
0.00194959
0.00513464
0.00860148
0.0135113
0.0175961
0.0207499
0.0216883
0.0199653
0.0162746
0.0127549
0.00944057
0.00665765
0.00406118
0.00145272
-0.00126538
0.00158776
0.00473165
0.0079637
0.0119186
0.0170364
0.0207264
0.0221279
0.0215838
0.0188943
0.0151591
0.0118205
0.00899668
0.0062785
0.00376126
0.001208
-0.0015055
0.0013642
0.00449966
0.00722365
0.0113135
0.015292
0.0200955
0.0224415
0.0229616
0.0208574
0.0174856
0.0143459
0.0110302
0.00842529
0.00595269
0.00345027
0.0010195
-0.00166916
0.00115692
0.00406816
0.0069255
0.0108039
0.0145193
0.0195674
0.022215
0.023508
0.0227685
0.0198138
0.0166727
0.0133743
0.0107147
0.00811843
0.005693
0.00322881
0.000763286
-0.00176488
0.00108024
0.00379927
0.00642163
0.0102256
0.0139262
0.018572
0.0220476
0.0238693
0.0238058
0.0216037
0.0188511
0.0157432
0.0127606
0.010291
0.00779314
0.00544694
0.00318032
0.000707625
-0.00186517
0.000891688
0.00339379
0.00602924
0.00971714
0.013282
0.0175036
0.0215498
0.0237875
0.0245762
0.023379
0.0209865
0.0178798
0.0149215
0.0124145
0.0100534
0.00772429
0.00533145
0.00306172
0.000660308
-0.00199375
0.000620056
0.0031709
0.00587851
0.0091582
0.0124895
0.0163527
0.0206809
0.0235714
0.0250696
0.0248133
0.0227895
0.0196858
0.0171336
0.0145358
0.012133
0.00981509
0.00757752
0.00531007
0.00298371
0.000581986
-0.00201738
0.000479303
0.00286745
0.00549267
0.00841196
0.0118119
0.0154883
0.0198864
0.0231042
0.0250736
0.0255223
0.0245427
0.0215105
0.0192047
0.0165865
0.014228
0.0119485
0.00973946
0.00752039
0.00534037
0.0030279
0.000730995
-0.00188535
0.000258516
0.00259584
0.00507689
0.00795026
0.0110665
0.0144246
0.0186926
0.0223353
0.0249503
0.0261337
0.0256136
0.0233229
0.0208446
0.0184633
0.0161831
0.0139687
0.0118076
0.00968554
0.00754112
0.00542903
0.00319357
0.000840288
-0.0017827
4.97361e-05
0.00226001
0.00479751
0.0075777
0.0105595
0.0139594
0.0176476
0.0216093
0.0246795
0.0262284
0.026562
0.0251957
0.0227657
0.0203199
0.0180107
0.0159276
0.0138119
0.0118011
0.00975887
0.00764209
0.00553273
0.00335299
0.0010134
-0.00162751
-0.000200259
0.00193135
0.00446586
0.00714746
0.00986347
0.0131127
0.0168953
0.0210425
0.0240308
0.0261335
0.0270077
0.0264955
0.024218
0.0221511
0.0199052
0.0177586
0.0156944
0.01365
0.0118307
0.00985513
0.00782545
0.00574977
0.00354385
0.00127027
-0.00136723
-0.000291275
0.00173285
0.00403797
0.0067004
0.00907455
0.0126837
0.016214
0.0198368
0.0233306
0.0258081
0.0271212
0.027308
0.0257503
0.0235505
0.021608
0.0195637
0.0174301
0.0156929
0.0138589
0.011939
0.0100338
0.00806713
0.00603003
0.00388441
0.0015874
-0.00108451
-0.000524486
0.0014822
0.00375881
0.00622475
0.00890236
0.011947
0.014844
0.0187739
0.0223713
0.0252126
0.0270721
0.0276895
0.027044
0.0250838
0.0230864
0.0212156
0.0194224
0.0175663
0.0156872
0.0140145
0.0122136
0.0102006
0.00841675
0.0063912
0.00428009
0.00198625
-0.000671616
-0.000623368
0.00129668
0.00338551
0.00564798
0.0085269
0.0109352
0.0144291
0.0178227
0.0213768
0.0243674
0.0267923
0.0279744
0.0278001
0.0262437
0.0245252
0.0226949
0.0210812
0.0193863
0.0176867
0.0159264
0.0143067
0.0125399
0.0107156
0.00881395
0.00680814
0.00475413
0.00241396
-0.000246797
-0.000830571
0.00103403
0.0030934
0.00535485
0.00776433
0.0103873
0.013445
0.0169908
0.0205374
0.0234335
0.0263342
0.0278966
0.0282405
0.0272821
0.0259121
0.0241739
0.0225357
0.0208564
0.0193978
0.0175831
0.0162591
0.0145301
0.0127879
0.0111179
0.00932396
0.00735572
0.0052755
0.00292701
0.000237894
-0.000938558
0.00081516
0.00271531
0.00501527
0.00736467
0.0099809
0.0128699
0.0163579
0.0196295
0.02273
0.0257622
0.0277804
0.0285756
0.0283209
0.0268153
0.0254069
0.0238562
0.0223926
0.0210156
0.0196139
0.018107
0.0166892
0.0150526
0.0133873
0.01173
0.00987756
0.00792441
0.00585364
0.00350942
0.000833014
-0.00106694
0.000482591
0.00244591
0.00456907
0.00688807
0.00943436
0.0120607
0.0155321
0.0185428
0.021933
0.0248838
0.0272013
0.0285415
0.0288861
0.0278096
0.0265468
0.0250881
0.0237711
0.0222374
0.0211074
0.0198452
0.018357
0.0170869
0.0156121
0.0139886
0.0123236
0.0104911
0.0085718
0.00646318
0.00412138
0.00143559
-0.00116082
0.000254715
0.00207491
0.00415971
0.00643048
0.00895832
0.0115921
0.014389
0.0176385
0.0210254
0.0240451
0.026571
0.0283699
0.0289751
0.0287549
0.0275131
0.0263053
0.0249208
0.023658
0.0225866
0.0213664
0.0202322
0.0189857
0.0176402
0.0161144
0.014613
0.0129597
0.0111949
0.00923414
0.00711528
0.004748
0.00205496
-0.00131045
0.000189018
0.00188981
0.00386383
0.00606384
0.00841563
0.010957
0.0132518
0.01702
0.0200164
0.0229656
0.0258626
0.0279769
0.0290703
0.0291611
0.0283047
0.0272405
0.0260611
0.0249973
0.0239365
0.0228464
0.0216891
0.0207352
0.0194928
0.0181841
0.0168451
0.0153613
0.0137363
0.0119355
0.00995034
0.00778605
0.00536935
0.0026954
-0.00139916
3.416e-05
0.00154417
0.00336154
0.0054593
0.00787809
0.0102455
0.0126009
0.0157684
0.0189234
0.0220809
0.0251449
0.0273126
0.028794
0.0293345
0.0291532
0.0279601
0.0268592
0.0259863
0.0250781
0.0241632
0.023329
0.0223243
0.0212633
0.0200182
0.018931
0.017637
0.0161817
0.0145566
0.0127112
0.0106632
0.00832717
0.00586688
0.00171757
0.00358478
-0.00139604
-0.000113096
0.00119496
0.00313138
0.00517646
0.00725368
0.0095922
0.0119884
0.014668
0.0181973
0.0212067
0.0239864
0.0265849
0.0283799
0.0292751
0.0295043
0.0285575
0.0275226
0.0267021
0.0258939
0.0252772
0.024581
0.0237563
0.0227698
0.0219762
0.0207248
0.0197382
0.0185212
0.0170794
0.0154109
0.0134871
0.0112173
0.00847606
0.00522359
0.00676027
0.00201149
0.00385717
-0.00146748
-0.000276505
0.00113313
0.00272625
0.0046487
0.006797
0.00909949
0.0113739
0.0139665
0.0169804
0.0201771
0.0229257
0.0256769
0.0277466
0.0289986
0.0295538
0.0288772
0.0284875
0.0274683
0.0267837
0.026149
0.0254989
0.0249434
0.0242643
0.0234227
0.0227501
0.0215852
0.0206832
0.0194985
0.018029
0.01627
0.0140725
0.0107931
0.0121289
0.0081814
0.0104309
0.00966244
0.00547407
0.00694812
0.00230269
0.00412545
-0.00150707
-0.000410694
0.000807511
0.00236667
0.00426558
0.00603792
0.00836589
0.0106352
0.0131321
0.015438
0.0190496
0.0219067
0.0245496
0.0270319
0.0285739
0.0294569
0.0293743
0.0286013
0.0280083
0.0276118
0.02695
0.026475
0.0260007
0.0252242
0.0248571
0.0241304
0.0236291
0.0225412
0.0217336
0.0205543
0.0189941
0.0169319
0.0135168
0.0150212
0.012004
0.0083751
0.0111192
0.00980141
0.00570058
0.00713244
0.002586
0.00438258
-0.0015121
-0.000638514
0.000579376
0.00214627
0.00378179
0.00569575
0.00785338
0.00988726
0.0122718
0.0146512
0.0180657
0.0209498
0.0233994
0.0261451
0.0279895
0.0291031
0.0295013
0.0292871
0.0286664
0.0280251
0.0276175
0.0271381
0.0265586
0.0264957
0.0258249
0.0257865
0.0252146
0.0246096
0.0236588
0.0229019
0.021684
0.0198747
0.0164825
0.0181483
0.0135941
0.0152318
0.0126238
0.00852316
0.0112604
0.00993569
0.00590634
0.0072837
0.00285611
0.00461906
-0.00148804
-0.000721895
0.000364278
0.00183834
0.0033322
0.00515325
0.00713727
0.0090598
0.0115267
0.0139842
0.0167145
0.0198858
0.0224231
0.025123
0.0273685
0.0286368
0.0292843
0.0294906
0.0291103
0.0284993
0.0279348
0.027823
0.0275788
0.0272478
0.0267921
0.0265047
0.0262967
0.0261902
0.0257027
0.0249731
0.0244243
0.0233986
0.0199271
0.0224823
0.01701
0.0191942
0.014211
0.0160061
0.0127988
0.00863277
0.0114308
0.0100473
0.00607863
0.00739136
0.0031127
0.00483122
-0.00146054
-0.000663035
0.000195303
0.00161084
0.00302249
0.00465425
0.00627288
0.00848594
0.010696
0.0130518
0.0156543
0.0184705
0.0214271
0.0238626
0.0264148
0.0280944
0.0290702
0.0293341
0.029123
0.0289137
0.0284848
0.0282542
0.0281472
0.0279197
0.0277998
0.027329
0.027326
0.0273484
0.0270362
0.0272143
0.0274901
0.0294387
0.0262025
0.0330692
0.0225319
0.0285324
0.0184526
0.0227985
0.0146016
0.0173137
0.0132004
0.00870709
0.0117254
0.0102357
0.00621193
0.00745757
0.00335654
0.00501512
-0.00141386
-0.000808344
0.000158297
0.00136433
0.00266447
0.00401022
0.0057838
0.00788258
0.00985469
0.0120632
0.0144079
0.0173862
0.0204247
0.0227962
0.0254885
0.0273826
0.0286051
0.029079
0.0291612
0.0290422
0.0289081
0.0284847
0.0285177
0.028548
0.0283952
0.028176
0.0281207
0.0279921
0.0286056
0.0287327
0.0317694
0.0406658
0.0438476
0.0621725
0.0400211
0.0606407
0.0317598
0.0501394
0.0228367
0.0355634
0.0160511
0.0226098
0.0145384
0.00881016
0.0128133
0.0110003
0.00630156
0.00751007
0.00358348
0.0051642
-0.00131688
-0.000732041
-3.38905e-05
0.000878163
0.00228394
0.00361013
0.00527843
0.00705144
0.00904323
0.0111752
0.0136499
0.0163876
0.01906
0.0217186
0.0242003
0.0264295
0.0279605
0.0288727
0.029306
0.0291314
0.0290342
0.0288788
0.0287444
0.0287415
0.0288359
0.0287368
0.0287655
0.0292288
0.029242
0.0304082
0.0369041
0.0582421
0.0814034
0.106624
0.0899993
0.123874
0.0830704
0.126028
0.0629491
0.109844
0.0393734
0.0767253
0.0216579
0.0417652
0.0198679
0.00924906
0.0172908
0.014283
0.00635316
0.00770117
0.00378897
0.0052766
-0.00125491
-0.000788591
-0.000178725
0.000782394
0.00185863
0.00302126
0.00466736
0.00632646
0.00819491
0.0101926
0.0125949
0.0151581
0.0178799
0.0205891
0.0230399
0.0254852
0.0271429
0.0283521
0.0289606
0.0290917
0.0290321
0.029033
0.0287433
0.0288728
0.0290765
0.029094
0.0290263
0.0292998
0.0302704
0.031677
0.0404477
0.0789942
0.126697
0.148926
0.156931
0.187072
0.169836
0.210697
0.164745
0.216816
0.137745
0.201367
0.0886023
0.161987
0.0417244
0.0955623
0.0388448
0.0112668
0.0333551
0.0262195
0.00642752
0.00868346
0.00395597
0.00535192
-0.00114672
-0.000762946
-0.000287907
0.00053931
0.00150026
0.00268609
0.00415647
0.00565671
0.00744364
0.00928537
0.0116098
0.0139932
0.0166054
0.019263
0.0218587
0.0242931
0.0262199
0.0276572
0.0285392
0.0288769
0.0289179
0.0289085
0.0286604
0.0287773
0.0291205
0.0292692
0.0293993
0.0296006
0.0302592
0.0330435
0.044303
0.0896497
0.164672
0.179529
0.210225
0.225669
0.23962
0.254424
0.255332
0.273521
0.255536
0.285042
0.232527
0.284028
0.179779
0.255354
0.0961644
0.189313
0.0898687
0.0188848
0.0777358
0.0608947
0.00679225
0.0126899
0.00406038
0.00545229
-0.00102511
-0.000773274
-0.000372188
0.000270598
0.00124356
0.00236706
0.00355003
0.00479728
0.00661708
0.00838317
0.0106038
0.0129269
0.0153384
0.0180673
0.0206566
0.0230296
0.0251368
0.0267819
0.0279091
0.0284289
0.0287505
0.0287715
0.0290326
0.0288264
0.0290249
0.0293088
0.0295316
0.0296775
0.0300994
0.0327792
0.0467046
0.103418
0.189224
0.190459
0.233108
0.235928
0.259455
0.259189
0.27904
0.276564
0.295198
0.293237
0.305884
0.30978
0.303795
0.321756
0.270185
0.318502
0.190084
0.277087
0.180872
0.0422011
0.160861
0.130774
0.00836237
0.025554
0.0040733
0.00584379
-0.000856556
-0.000708638
-0.000390422
7.66526e-05
0.000880812
0.00177517
0.0030139
0.0041768
0.00597347
0.00753401
0.00938035
0.0118161
0.0141741
0.0167828
0.0193264
0.0217371
0.023965
0.0257928
0.0271401
0.027988
0.0283807
0.0286665
0.0288372
0.0290361
0.0286895
0.0291596
0.0295017
0.0297716
0.0300424
0.0320272
0.0455392
0.106304
0.214529
0.234912
0.23669
0.255384
0.250905
0.271505
0.263818
0.287232
0.276403
0.304702
0.292926
0.32121
0.313106
0.334789
0.332158
0.329056
0.346347
0.276838
0.335885
0.269059
0.0940037
0.252139
0.223276
0.0138784
0.058521
0.00398646
0.00735117
-0.000647319
-0.000606911
-0.000406644
-7.58329e-05
0.000556661
0.00136745
0.00230277
0.00361665
0.00521369
0.00674676
0.00847586
0.0107056
0.0129286
0.0154304
0.0179808
0.0204124
0.0227149
0.0246746
0.0262311
0.0273161
0.0278982
0.0283145
0.0286033
0.0288437
0.0287368
0.0288348
0.0293008
0.0296681
0.0299225
0.0311403
0.043357
0.101784
0.207156
0.234366
0.228125
0.245465
0.240517
0.254403
0.244013
0.260471
0.242735
0.271973
0.246434
0.293902
0.263716
0.320694
0.294477
0.343182
0.328793
0.356764
0.354831
0.338013
0.36678
0.334104
0.17734
0.321626
0.298123
0.0295412
0.118843
0.00380165
0.0119956
-0.000395063
-0.000458955
-0.000381076
-0.000139515
0.000356159
0.0010425
0.00182588
0.00318509
0.00434226
0.00592632
0.00756634
0.00952459
0.011729
0.0141372
0.0166074
0.0190432
0.0213952
0.0234694
0.0251824
0.026518
0.0273464
0.0278417
0.028213
0.0285565
0.0290736
0.0285974
0.0289333
0.0294074
0.029748
0.0302602
0.0398974
0.0945691
0.19853
0.223118
0.218367
0.217826
0.212069
0.233942
0.225117
0.225342
0.209633
0.220085
0.1958
0.229827
0.196159
0.258551
0.220286
0.299793
0.266442
0.341264
0.315489
0.368765
0.357981
0.373702
0.383162
0.375954
0.259861
0.371184
0.355617
0.0643497
0.19988
0.00319375
0.0233621
-0.000141036
-0.000261161
-0.00031098
-0.000201403
0.000144901
0.000729091
0.00139015
0.0025077
0.00371259
0.00511567
0.0066364
0.00843692
0.010332
0.0129082
0.0151949
0.0176426
0.0199916
0.0221716
0.0240188
0.0255233
0.0266017
0.0272586
0.027795
0.0279835
0.0285558
0.029092
0.0285917
0.0288901
0.0294317
0.0297483
0.0353043
0.082743
0.187385
0.21462
0.210416
0.207767
0.204238
0.180854
0.176821
0.196913
0.187426
0.175459
0.159635
0.165486
0.140367
0.181628
0.14518
0.232135
0.195299
0.28768
0.257978
0.337181
0.314511
0.377167
0.363164
0.396347
0.398277
0.40598
0.324695
0.408944
0.4016
0.122537
0.274779
0.00106059
0.0461441
2.85673e-06
-8.18044e-05
-0.000187484
-0.000198779
1.24781e-05
0.000458477
0.00101475
0.00199326
0.00314303
0.00425314
0.00555619
0.00735631
0.00920749
0.0116132
0.0138245
0.016184
0.0185613
0.0207853
0.0227573
0.0244216
0.0256634
0.0265758
0.0271825
0.0276145
0.0278879
0.0285507
0.028978
0.0285971
0.0287945
0.0292906
0.0318054
0.067187
0.172212
0.203414
0.201888
0.198975
0.174018
0.17293
0.138246
0.136321
0.148626
0.141791
0.122056
0.110044
0.113517
0.0906197
0.154392
0.111442
0.22632
0.189806
0.293619
0.273705
0.350729
0.345647
0.394863
0.396548
0.4196
0.42894
0.437431
0.379644
0.448238
0.447905
0.196244
0.338925
-0.00377819
0.0868033
-2.56775e-05
-9.18846e-05
-0.000149001
-7.42248e-05
0.00020563
0.000690599
0.0015436
0.00249667
0.00345148
0.00465538
0.00620004
0.00806124
0.0101707
0.0124391
0.0147155
0.0170866
0.0193249
0.021392
0.0231952
0.0246634
0.0257461
0.0265534
0.0273149
0.0274606
0.0278518
0.0284873
0.0287159
0.0284042
0.0286032
0.0298335
0.052374
0.150767
0.201139
0.17586
0.177959
0.173301
0.174525
0.136578
0.138479
0.0994602
0.100811
0.103318
0.100442
0.0769683
0.0700675
0.0777783
0.0600229
0.146104
0.0966417
0.248771
0.209241
0.345559
0.34001
0.409476
0.430719
0.446922
0.479723
0.461443
0.496967
0.488052
0.433294
0.505114
0.508799
0.272787
0.403057
0.0150837
0.185379
-9.39938e-05
-0.000130512
-0.000110227
2.51992e-05
0.000491167
0.00109204
0.00188751
0.00274567
0.00379933
0.00511039
0.0070302
0.00883538
0.0109924
0.0132606
0.01557
0.0178264
0.0199483
0.0218438
0.0234975
0.0247871
0.0257837
0.0265399
0.0272464
0.0273794
0.0278223
0.0284095
0.0284301
0.0281771
0.0286628
0.0416285
0.125877
0.195822
0.180312
0.184758
0.149441
0.154128
0.141391
0.145164
0.103679
0.107571
0.0696925
0.0728896
0.0676903
0.0677488
0.0518746
0.0478737
0.0626228
0.0487395
0.152821
0.0924635
0.315237
0.256656
0.444726
0.423532
0.518219
0.539729
0.547968
0.602246
0.541314
0.609822
0.574352
0.499186
0.594591
0.603248
0.550453
0.359367
0.478162
0.0540967
0.302644
-0.000168849
-0.000143908
-8.74422e-05
0.000256717
0.000677707
0.0013602
0.0020596
0.00299761
0.00421865
0.00578759
0.00763465
0.00956847
0.0117626
0.0140131
0.0162473
0.0184106
0.0204199
0.0221865
0.0236766
0.0248456
0.0257433
0.0267148
0.0271506
0.0273426
0.0277899
0.0282159
0.0280941
0.027909
0.0349159
0.0995784
0.188946
0.17978
0.159197
0.161781
0.12367
0.130038
0.11228
0.117709
0.0769955
0.0818821
0.0476896
0.0511619
0.0458094
0.045598
0.043221
0.0400231
0.0585609
0.0463234
0.171234
0.0935154
0.36085
0.272001
0.510678
0.447844
0.614707
0.580465
0.669116
0.675389
0.660614
0.712621
0.685511
0.640317
0.690505
0.60189
0.538327
0.597185
0.65613
0.713805
0.703747
0.659201
0.442647
0.589427
0.576623
0.513108
0.116274
0.384225
-0.000230684
-0.000170074
5.47523e-05
0.000354586
0.000892601
0.00149035
0.00232271
0.00337579
0.00467642
0.0065124
0.00820455
0.0102479
0.0124249
0.0146424
0.0168225
0.0188759
0.0207574
0.0224077
0.0237674
0.0248483
0.0258021
0.0267628
0.027067
0.0273084
0.0277238
0.0279414
0.0277138
0.0310301
0.0770938
0.178683
0.186208
0.149535
0.158129
0.136666
0.142919
0.100497
0.10769
0.0874908
0.0937279
0.055265
0.0601811
0.0342633
0.0346431
0.0372549
0.0352111
0.0416331
0.038509
0.0591834
0.0489942
0.172012
0.0964007
0.361551
0.256128
0.513813
0.419887
0.647479
0.619277
0.585073
0.538381
0.720834
0.711199
0.64146
0.658059
0.692502
0.736265
0.729535
0.758386
0.745259
0.747818
0.657478
0.652226
0.717965
0.771087
0.761273
0.720081
0.562514
0.461205
0.538257
0.642772
0.628706
0.123033
0.504246
0.453248
0.368654
-0.000266465
-9.77461e-05
0.000125429
0.000505341
0.00100126
0.00171414
0.0026029
0.00370012
0.00536187
0.00692045
0.00876662
0.0108406
0.0130077
0.0151788
0.0172692
0.0192302
0.0210243
0.0225651
0.0238444
0.0249007
0.0259934
0.0267285
0.0269932
0.0272658
0.0275902
0.0276684
0.029118
0.0600429
0.16124
0.188886
0.157593
0.130188
0.135497
0.115183
0.122743
0.0791508
0.0865984
0.0658683
0.0721985
0.0369314
0.040806
0.02901
0.0271917
0.035033
0.0316159
0.0451045
0.0411143
0.0692317
0.0632435
0.157783
0.108834
0.312157
0.214969
0.490693
0.434437
0.383665
0.32952
0.603099
0.556039
0.502664
0.735632
0.712254
0.617502
0.630268
0.676377
0.766275
0.777053
0.785547
0.755629
0.793531
0.718344
0.712508
0.777496
0.807563
0.819404
0.78063
0.609525
0.580747
0.701896
0.685295
0.370033
0.0318414
0.206351
0.537836
0.472588
-0.00020459
-2.05339e-05
0.000219694
0.000620445
0.00116979
0.00190675
0.00284407
0.00423397
0.00569984
0.00734077
0.00926069
0.0113447
0.0134806
0.0155852
0.0176054
0.0194911
0.0212026
0.0226868
0.0239384
0.0250151
0.0261985
0.0266779
0.0269379
0.0271952
0.0274531
0.028361
0.0480207
0.137444
0.186254
0.169262
0.126931
0.13705
0.110622
0.118336
0.0944335
0.102497
0.0582653
0.0655622
0.0458991
0.0516392
0.0261574
0.026159
0.0275725
0.0246913
0.0354387
0.0309337
0.0600613
0.0523729
0.100923
0.101161
0.165858
0.163975
0.288894
0.252561
0.23187
0.22526
0.447352
0.392853
0.344551
0.307757
0.568047
0.513028
0.456172
0.729901
0.690726
0.577499
0.584877
0.641552
0.77432
0.803197
0.792185
0.746198
0.819691
0.779924
0.774294
0.82863
0.835133
0.849445
0.834729
0.660512
0.623459
0.762748
0.743218
0.357041
0.026087
0.164049
0.569577
0.486681
-8.64804e-05
5.24748e-05
0.000321337
0.000733947
0.00132009
0.00208662
0.00317022
0.00453842
0.00597932
0.00773009
0.00968205
0.0117428
0.0138306
0.0158766
0.0178368
0.0196912
0.0213621
0.0228191
0.0240549
0.0252328
0.0262593
0.0266503
0.0268717
0.0271248
0.0278423
0.0398287
0.110862
0.180502
0.178151
0.138489
0.10712
0.113898
0.090125
0.0986619
0.0734091
0.0816428
0.0371855
0.0439488
0.0278139
0.0316452
0.022229
0.0202223
0.0274434
0.0241018
0.040149
0.0317863
0.0954868
0.0776167
0.180711
0.181564
0.231622
0.246051
0.263824
0.28017
0.281777
0.27209
0.277035
0.294512
0.402761
0.359906
0.32985
0.317326
0.519941
0.461937
0.411084
0.704122
0.651338
0.523942
0.526583
0.590462
0.762559
0.809778
0.779621
0.71768
0.827376
0.836779
0.832865
0.86274
0.845459
0.863697
0.874193
0.712411
0.665433
0.821338
0.799331
0.345089
0.0172469
0.147202
0.597803
0.493238
-3.46359e-05
0.000116087
0.000393127
0.000831568
0.00142772
0.0022329
0.00346073
0.00469542
0.00625158
0.00804045
0.00998555
0.0120146
0.0140584
0.0160619
0.0180271
0.0198574
0.0215184
0.0229834
0.0242488
0.0255731
0.026307
0.0266063
0.0268424
0.0273131
0.0341041
0.0851881
0.170846
0.183622
0.153054
0.103842
0.114899
0.0856879
0.0942901
0.0680068
0.076814
0.0513728
0.0594771
0.0197811
0.023069
0.0189209
0.0186176
0.0210548
0.0182816
0.0280227
0.0241049
0.0520188
0.0350243
0.162299
0.122558
0.328336
0.310832
0.31884
0.343255
0.361975
0.367511
0.319796
0.338827
0.36834
0.401334
0.375295
0.35735
0.35663
0.375561
0.465162
0.418521
0.392612
0.661137
0.596066
0.46866
0.472682
0.529651
0.732802
0.797561
0.749804
0.672634
0.817063
0.882414
0.883939
0.881496
0.838597
0.862447
0.898095
0.762232
0.704976
0.875065
0.851383
0.329732
0.0148018
0.125118
0.621033
0.49399
-5.20322e-06
0.000157227
0.000450296
0.000889028
0.00147537
0.00249067
0.00352601
0.00485531
0.0064471
0.00823524
0.0101586
0.0121573
0.0141835
0.0161934
0.0181626
0.0200314
0.0217356
0.0232117
0.0245432
0.0257928
0.0263343
0.0266124
0.0270479
0.0305522
0.0647769
0.154692
0.184364
0.1654
0.116036
0.0804008
0.0883948
0.0619699
0.0711676
0.0441878
0.0528773
0.0286375
0.0359752
0.0125297
0.0120623
0.0158419
0.0138783
0.0208098
0.0176
0.0293441
0.0240091
0.0735372
0.0413562
0.260627
0.185967
0.466626
0.451723
0.393388
0.428117
0.431557
0.454773
0.468922
0.472058
0.408987
0.449481
0.489463
0.522936
0.38712
0.401686
0.43662
0.483597
0.427628
0.414386
0.419136
0.60375
0.535652
0.442019
0.45996
0.480924
0.687538
0.769201
0.706223
0.615595
0.791763
0.912796
0.922712
0.887665
0.818153
0.848837
0.912529
0.80892
0.740939
0.921399
0.899246
0.308992
0.0129694
0.103983
0.639264
0.489523
1.16177e-05
0.000183494
0.000478584
0.00088977
0.00165737
0.00248948
0.00358181
0.00493897
0.00652523
0.00829376
0.0101974
0.0121822
0.0142146
0.0162935
0.0183419
0.0202772
0.022007
0.0234954
0.0249688
0.0259343
0.0263753
0.0268943
0.0288217
0.0507128
0.131998
0.180753
0.17407
0.132348
0.0744828
0.0859091
0.0551009
0.0643903
0.0364984
0.0457322
0.0205805
0.0278033
0.0128859
0.0154689
0.0099877
0.00828605
0.0146912
0.012156
0.0204056
0.0171849
0.031535
0.0241078
0.104028
0.0507775
0.355901
0.303416
0.238422
0.533511
0.506841
0.429701
0.472015
0.546573
0.558946
0.559571
0.551373
0.533558
0.57861
0.613469
0.635369
0.450531
0.500114
0.558414
0.615604
0.436952
0.455262
0.500462
0.545221
0.494149
0.461187
0.484345
0.479221
0.632992
0.729145
0.655997
0.560869
0.756694
0.934204
0.951324
0.882871
0.789677
0.8289
0.918737
0.852125
0.773154
0.959085
0.942793
0.283878
0.00884499
0.0752404
0.653677
0.479159
2.11614e-05
0.00019341
0.000460612
0.00098563
0.00160747
0.00246139
0.00356054
0.00489963
0.00645602
0.00820138
0.0100867
0.0120872
0.0142453
0.0164304
0.0185822
0.0205866
0.022357
0.0238766
0.0253358
0.0260373
0.02654
0.0280264
0.0419136
0.108023
0.174052
0.179347
0.146886
0.0872343
0.0474447
0.05667
0.0284108
0.0377325
0.0137583
0.0202284
0.00758056
0.00973956
0.00717644
0.00685331
0.00872329
0.00670917
0.0140293
0.0111627
0.019718
0.0160574
0.0331564
0.0243567
0.128399
0.0574345
0.381741
0.328628
0.274513
0.210422
0.568372
0.52913
0.436842
0.484921
0.643679
0.640051
0.626131
0.601619
0.663859
0.698493
0.717584
0.719849
0.562344
0.629539
0.691615
0.74161
0.491335
0.548213
0.620287
0.511355
0.497916
0.523676
0.551723
0.507638
0.583288
0.684848
0.612065
0.533132
0.719526
0.950906
0.974929
0.873254
0.760406
0.808705
0.920375
0.891698
0.802119
0.990533
0.981844
0.24717
0.00833668
0.0448501
0.663895
0.459386
2.65487e-05
0.000172407
0.000487236
0.000903646
0.00152586
0.00235461
0.00341118
0.00469287
0.00620075
0.0079208
0.00984224
0.011978
0.0142724
0.0166356
0.0189338
0.021012
0.0227498
0.0243927
0.025562
0.0261513
0.0273912
0.0364346
0.0860137
0.163154
0.181638
0.15918
0.105707
0.0408352
0.0528244
0.0211157
0.0299803
0.00905874
0.0139681
0.0040421
0.00585764
0.00335013
0.00331105
0.00512248
0.00399375
0.00758822
0.00540489
0.0130044
0.0102016
0.0193255
0.0151444
0.0336542
0.0254681
0.159759
0.099879
0.0571214
0.384911
0.330255
0.253442
0.197042
0.57055
0.524624
0.42265
0.47545
0.709911
0.687077
0.653173
0.613224
0.775331
0.790884
0.787109
0.770941
0.69406
0.75952
0.810096
0.842833
0.590646
0.671344
0.750548
0.519482
0.52621
0.627162
0.656512
0.576126
0.558141
0.647737
0.588073
0.541128
0.689038
0.965111
0.997906
0.863607
0.737729
0.79521
0.922368
0.928139
0.828125
1.01927
1.0169
0.193906
0.00900541
0.0277991
0.667425
0.425006
1.9562e-05
0.000155955
0.000402853
0.000794164
0.00136926
0.00211422
0.0030666
0.00424931
0.00570675
0.00746325
0.00948084
0.0118459
0.0144078
0.0170036
0.0193947
0.0214694
0.0231803
0.0247968
0.0257957
0.0267669
0.0325514
0.0681775
0.147884
0.179326
0.167739
0.121668
0.0552092
0.0163964
0.0251913
0.00646975
0.0104504
0.00233043
0.00390771
0.00107253
0.00143367
0.00165856
0.00118192
0.00372439
0.00250089
0.00603415
0.00395365
0.0113491
0.00831724
0.0198713
0.0148936
0.0365557
0.0328646
0.0319665
0.14513
0.0982531
0.0426679
0.0592934
0.36762
0.311085
0.220053
0.168908
0.545541
0.492767
0.385442
0.439597
0.737342
0.694254
0.647959
0.598021
0.855111
0.848495
0.825278
0.784972
0.818196
0.869096
0.900865
0.911097
0.71464
0.798162
0.867894
0.545669
0.594482
0.749512
0.775848
0.678761
0.565022
0.626354
0.593259
0.56512
0.672586
0.977589
1.02036
0.860722
0.728426
0.793874
0.927823
0.962249
0.850937
1.0466
1.04825
0.139107
0.0100505
0.0208331
0.661417
0.377908
3.80685e-06
8.45798e-05
0.000301036
0.000623568
0.00107884
0.0016458
0.00241916
0.00348307
0.00492709
0.00680765
0.00913185
0.0118442
0.0147014
0.0174311
0.0198905
0.021862
0.0236996
0.0251336
0.0263016
0.0299511
0.0550284
0.128817
0.174169
0.17176
0.134778
0.0732144
0.0148049
0.024059
0.00578889
0.00934757
0.0020338
0.0035546
0.00032014
0.00100845
-0.000292752
-0.000109342
0.000212794
-0.000183472
0.00217234
0.000970891
0.0034938
0.00174349
0.0101463
0.00637613
0.0253163
0.0182318
0.0429195
0.0396152
0.0557211
0.0522687
0.124382
0.0875599
0.0472209
0.0563406
0.330339
0.274845
0.176718
0.133899
0.490739
0.435601
0.329389
0.382325
0.733507
0.675008
0.611324
0.549627
0.903313
0.878582
0.835129
0.776199
0.918774
0.949982
0.959598
0.952445
0.837302
0.908822
0.960179
0.609219
0.691388
0.867579
0.887517
0.79169
0.586345
0.628214
0.612826
0.619392
0.673969
0.992542
1.04342
0.865478
0.733241
0.80474
0.940663
0.994066
0.868634
1.07297
1.07746
0.0870035
0.0114239
0.0230903
0.646377
0.313897
-2.27762e-05
5.55734e-06
0.00016294
0.000332642
0.000535965
0.000795573
0.00132441
0.00230237
0.0039049
0.00613021
0.00885824
0.0119244
0.0150249
0.0179225
0.0203164
0.0223149
0.0241703
0.0257181
0.0285258
0.0457954
0.108307
0.166643
0.172997
0.145173
0.090051
0.0275041
0.00704352
0.011326
0.00287902
0.00454032
0.000682231
0.00167273
-0.000821982
-0.000151694
-0.00159401
-0.00130993
-0.00139305
-0.00163051
0.000439292
-0.000745869
0.00106773
-0.00120713
0.0102858
0.00459179
0.0462364
0.0398823
0.0344077
0.0585074
0.0580159
0.0907015
0.0871155
0.0989444
0.0725871
0.058716
0.0599766
0.276812
0.225365
0.131829
0.101648
0.415353
0.359969
0.259478
0.308385
0.704383
0.627645
0.550581
0.478771
0.929298
0.889188
0.831528
0.760184
0.990756
1.00038
0.993706
0.977205
0.941875
0.993729
1.02406
0.691213
0.787591
0.965561
0.970019
0.886492
0.629865
0.648978
0.65016
0.686771
0.697471
1.01278
1.06728
0.883158
0.76339
0.843645
0.964801
1.02389
0.880296
1.09913
1.10401
0.0670424
0.0112993
0.0257828
0.619423
0.2662
-4.52381e-05
-7.99874e-05
-6.45029e-05
-0.000197765
-0.000476852
-0.00065689
-0.000325983
0.000779297
0.00271127
0.00536814
0.00858071
0.0120699
0.0154832
0.0184154
0.0208028
0.0229813
0.0248343
0.027458
0.0395857
0.0902942
0.1551
0.172234
0.152983
0.104112
0.0408794
0.00989864
0.00458185
0.00676985
0.00189746
0.00313317
-0.000216951
0.000779256
-0.00187871
-0.0011083
-0.00298907
-0.00251425
-0.00318575
-0.00326419
-0.0022114
-0.00273161
-0.00147161
-0.00416174
0.0170549
0.00455194
0.078252
0.0643115
0.0636656
0.0877072
0.0895017
0.0917736
0.143784
0.139875
0.0805565
0.0672124
0.0843807
0.0793676
0.21318
0.1698
0.0974505
0.0849298
0.328666
0.273925
0.18629
0.22695
0.674306
0.5765
0.480045
0.396276
0.941842
0.894452
0.830784
0.750529
1.03365
1.02828
1.01487
0.988089
1.01959
1.04998
1.05874
0.773348
0.870153
1.02979
1.02731
0.959054
0.689038
0.688991
0.708292
0.759031
0.748274
1.03827
1.09163
0.928747
0.826681
0.910881
1.0044
1.04913
0.884004
1.12316
1.12612
0.0497523
0.00931341
0.0270748
0.592188
0.197176
-4.86068e-05
-0.000192714
-0.000451976
-0.00127263
-0.00225703
-0.00284876
-0.0025782
-0.00123904
0.00120871
0.00457363
0.00848219
0.0124456
0.0160457
0.0190329
0.0214331
0.0237897
0.0262773
0.0351867
0.0743099
0.141406
0.168019
0.157686
0.115723
0.0555523
0.0157919
0.00589414
0.0052338
0.00761239
0.00366779
0.00119393
0.00239447
-0.00105121
3.86971e-05
-0.00300715
-0.00206999
-0.00458263
-0.00385403
-0.00539097
-0.0050668
-0.00551725
-0.00571084
-0.00303266
-0.00749525
0.0441824
0.0113128
0.128944
0.11106
0.107634
0.145148
0.139943
0.144389
0.217698
0.213169
0.0774493
0.0771629
0.129948
0.118611
0.150411
0.119674
0.0869137
0.0885501
0.245251
0.19009
0.122996
0.150695
0.655301
0.545368
0.42952
0.325359
0.948896
0.898288
0.832315
0.748957
1.05381
1.042
1.02021