/*--------------------------------*- C++ -*----------------------------------*\
  =========                 |
  \\      /  F ield         | OpenFOAM: The Open Source CFD Toolbox
   \\    /   O peration     | Website:  https://openfoam.org
    \\  /    A nd           | Version:  dev
     \\/     M anipulation  |
\*---------------------------------------------------------------------------*/
FoamFile
{
    version     2.0;
    format      ascii;
    class       surfaceScalarField;
    location    "2500";
    object      phi;
}
// * * * * * * * * * * * * * * * * * * * * * * * * * * * * * * * * * * * * * //

dimensions      [1 0 -1 0 0 0 0];

internalField   nonuniform List<scalar> 
19503
(
1.60966e-07
1.15975e-07
1.37175e-07
2.90961e-07
4.5371e-07
1.06891e-07
1.10632e-07
4.04006e-07
4.45941e-07
2.98793e-07
6.65578e-07
9.13196e-08
9.08255e-08
4.88943e-07
4.09589e-07
4.40404e-07
6.87272e-07
2.77111e-07
8.37244e-07
7.86208e-08
7.61738e-08
5.57231e-07
3.5477e-07
5.43769e-07
6.8871e-07
4.38967e-07
8.70425e-07
2.43942e-07
9.90299e-07
7.004e-08
6.47324e-08
6.19568e-07
2.9351e-07
6.18604e-07
6.62019e-07
5.70442e-07
9.02519e-07
4.06878e-07
1.01863e-06
2.15628e-07
1.13011e-06
6.34334e-08
5.53055e-08
6.80331e-07
2.39078e-07
6.74122e-07
6.1224e-07
6.68337e-07
9.16802e-07
5.56169e-07
1.06153e-06
3.64005e-07
1.15104e-06
1.94728e-07
1.25902e-06
5.79566e-08
4.85042e-08
7.36684e-07
2.01938e-07
7.17593e-07
5.48268e-07
7.38005e-07
9.03881e-07
6.81252e-07
1.10378e-06
5.13921e-07
1.18714e-06
3.27892e-07
1.27677e-06
1.77078e-07
1.37875e-06
5.31474e-08
4.37687e-08
7.89064e-07
1.78946e-07
7.59702e-07
4.80017e-07
7.85795e-07
8.64322e-07
7.77542e-07
1.12996e-06
6.55048e-07
1.23673e-06
4.64385e-07
1.30692e-06
2.977e-07
1.39421e-06
1.6164e-07
1.48976e-06
4.87586e-08
4.08545e-08
8.38963e-07
1.63824e-07
8.04228e-07
4.17947e-07
8.21742e-07
8.03821e-07
8.46233e-07
1.1308e-06
7.76649e-07
1.28877e-06
6.02965e-07
1.35056e-06
4.20784e-07
1.42019e-06
2.71661e-07
1.50359e-06
1.47834e-07
1.59195e-06
4.48521e-08
3.88346e-08
8.88083e-07
1.53448e-07
8.49339e-07
3.68554e-07
8.53565e-07
7.31584e-07
8.93876e-07
1.10371e-06
8.73316e-07
1.32799e-06
7.37412e-07
1.40558e-06
5.47935e-07
1.45669e-06
3.84351e-07
1.52569e-06
2.49583e-07
1.60411e-06
1.35701e-07
1.68728e-06
4.11156e-08
3.70369e-08
9.37267e-07
1.45849e-07
8.95712e-07
3.31793e-07
8.86094e-07
6.58317e-07
9.26803e-07
1.05177e-06
9.45832e-07
1.34361e-06
8.57672e-07
1.46453e-06
6.78457e-07
1.50504e-06
4.99516e-07
1.55752e-06
3.52542e-07
1.62542e-06
2.28287e-07
1.69908e-06
1.2392e-07
1.77513e-06
3.74417e-08
3.54778e-08
9.86355e-07
1.38082e-07
9.45042e-07
3.04162e-07
9.23394e-07
5.91515e-07
9.52877e-07
9.8367e-07
9.94841e-07
1.33072e-06
9.58723e-07
1.51457e-06
8.07639e-07
1.56548e-06
6.18142e-07
1.60006e-06
4.56916e-07
1.65505e-06
3.22931e-07
1.71874e-06
2.08644e-07
1.78668e-06
1.12389e-07
1.85602e-06
3.38852e-08
3.42487e-08
1.03465e-06
1.31499e-07
9.92991e-07
2.87139e-07
9.61991e-07
5.36915e-07
9.77906e-07
9.08548e-07
1.02797e-06
1.29139e-06
1.03419e-06
1.54442e-06
9.28856e-07
1.63115e-06
7.41884e-07
1.65357e-06
5.64637e-07
1.69321e-06
4.18768e-07
1.74646e-06
2.95215e-07
1.80592e-06
1.89433e-07
1.86722e-06
1.01194e-07
1.9299e-06
3.02067e-08
3.31998e-08
1.08168e-06
1.27684e-07
1.03849e-06
2.73666e-07
1.00631e-06
4.93658e-07
1.0053e-06
8.32824e-07
1.05349e-06
1.23269e-06
1.08668e-06
1.5479e-06
1.03071e-06
1.69147e-06
8.68512e-07
1.71779e-06
6.7759e-07
1.74089e-06
5.1695e-07
1.78197e-06
3.8323e-07
1.83257e-06
2.68531e-07
1.88631e-06
1.70373e-07
1.94123e-06
8.99148e-08
1.99645e-06
2.66211e-08
3.20085e-08
1.1281e-06
1.23349e-07
1.08602e-06
2.5763e-07
1.0544e-06
4.62028e-07
1.03808e-06
7.61787e-07
1.0763e-06
1.16218e-06
1.12405e-06
1.52426e-06
1.1103e-06
1.73601e-06
9.86162e-07
1.78928e-06
7.97129e-07
1.79857e-06
6.19915e-07
1.8262e-06
4.7268e-07
1.86654e-06
3.49324e-07
1.91265e-06
2.4222e-07
1.96019e-06
1.5143e-07
2.00785e-06
7.85457e-08
2.05621e-06
2.28059e-08
3.11114e-08
1.17372e-06
1.1859e-07
1.13288e-06
2.45414e-07
1.09824e-06
4.40717e-07
1.07583e-06
7.02794e-07
1.09718e-06
1.08714e-06
1.15134e-06
1.4782e-06
1.17011e-06
1.75704e-06
1.08927e-06
1.85959e-06
9.15818e-07
1.86702e-06
7.28655e-07
1.87959e-06
5.66612e-07
1.90764e-06
4.3161e-07
1.94635e-06
3.15644e-07
1.98671e-06
2.15726e-07
2.02714e-06
1.32142e-07
2.06783e-06
6.69517e-08
2.10833e-06
1.90868e-08
3.0487e-08
1.21861e-06
1.13953e-07
1.17837e-06
2.36593e-07
1.14163e-06
4.21006e-07
1.11792e-06
6.59081e-07
1.11954e-06
1.01192e-06
1.17219e-06
1.41643e-06
1.21313e-06
1.75111e-06
1.17605e-06
1.91837e-06
1.03052e-06
1.94348e-06
8.39328e-07
1.94216e-06
6.66047e-07
1.95746e-06
5.16721e-07
1.98695e-06
3.90982e-07
2.02053e-06
2.8184e-07
2.05403e-06
1.88891e-07
2.08769e-06
1.12339e-07
2.12068e-06
5.46064e-08
2.1532e-06
1.48899e-08
2.98004e-08
1.26276e-06
1.09403e-07
1.22316e-06
2.29635e-07
1.1853e-06
4.0323e-07
1.15944e-06
6.28011e-07
1.14896e-06
9.41003e-07
1.19015e-06
1.34527e-06
1.2433e-06
1.72011e-06
1.24408e-06
1.95657e-06
1.13786e-06
2.02201e-06
9.5199e-07
2.01541e-06
7.66069e-07
2.01612e-06
6.07407e-07
2.03438e-06
4.69317e-07
2.06154e-06
3.49979e-07
2.0885e-06
2.47421e-07
2.1156e-06
1.61015e-07
2.14132e-06
9.17368e-08
2.16602e-06
4.18176e-08
2.18949e-06
1.06796e-08
2.87122e-08
1.30583e-06
1.06072e-07
1.26611e-06
2.24037e-07
1.22868e-06
3.86921e-07
1.20157e-06
6.01207e-07
1.1862e-06
8.80675e-07
1.20923e-06
1.26985e-06
1.26569e-06
1.6695e-06
1.29391e-06
1.96988e-06
1.23076e-06
2.09394e-06
1.06591e-06
2.0975e-06
8.69844e-07
2.08352e-06
6.98617e-07
2.09005e-06
5.51738e-07
2.10934e-06
4.21515e-07
2.13037e-06
3.08083e-07
2.15064e-06
2.12371e-07
2.16998e-06
1.32362e-07
2.18759e-06
7.01732e-08
2.20285e-06
2.84944e-08
2.21709e-06
6.21697e-09
2.76209e-08
1.34691e-06
1.03668e-07
1.30822e-06
2.16424e-07
1.27369e-06
3.70709e-07
1.24491e-06
5.76185e-07
1.22659e-06
8.35091e-07
1.23159e-06
1.19504e-06
1.28401e-06
1.60567e-06
1.3295e-06
1.95719e-06
1.30657e-06
2.14895e-06
1.17574e-06
2.18371e-06
9.79668e-07
2.16041e-06
7.92825e-07
2.15464e-06
6.33987e-07
2.16385e-06
4.97196e-07
2.17898e-06
3.72906e-07
2.1931e-06
2.65654e-07
2.2068e-06
1.75618e-07
2.21794e-06
1.02076e-07
2.2262e-06
4.68537e-08
2.231e-06
1.46254e-08
2.23613e-06
7.89848e-10
2.66819e-08
1.38603e-06
1.00344e-07
1.35022e-06
2.06858e-07
1.31778e-06
3.57233e-07
1.2871e-06
5.53885e-07
1.2672e-06
8.00878e-07
1.26075e-06
1.12542e-06
1.3013e-06
1.53432e-06
1.35533e-06
1.92167e-06
1.365e-06
2.18127e-06
1.27422e-06
2.26684e-06
1.09257e-06
2.24667e-06
8.93468e-07
2.22701e-06
7.20372e-07
2.22582e-06
5.72014e-07
2.23395e-06
4.4213e-07
2.24277e-06
3.23214e-07
2.25098e-06
2.21478e-07
2.25656e-06
1.37033e-07
2.25831e-06
7.00086e-08
2.25588e-06
2.20205e-08
2.25149e-06
-7.01602e-10
2.24536e-06
-4.51179e-09
2.58212e-08
1.42338e-06
9.60559e-08
1.39031e-06
1.97811e-07
1.35914e-06
3.45996e-07
1.32899e-06
5.33159e-07
1.30785e-06
7.71962e-07
1.29593e-06
1.06625e-06
1.3199e-06
1.46006e-06
1.37543e-06
1.86905e-06
1.40793e-06
2.18822e-06
1.35799e-06
2.33705e-06
1.20394e-06
2.33936e-06
9.99866e-07
2.30819e-06
8.12276e-07
2.29565e-06
6.50542e-07
2.296e-06
5.10006e-07
2.29946e-06
3.85435e-07
2.30244e-06
2.71765e-07
2.30285e-06
1.75204e-07
2.29899e-06
9.63549e-08
2.29007e-06
3.586e-08
2.27701e-06
-3.4484e-09
2.26157e-06
-1.68789e-08
2.24385e-06
-1.0469e-08
2.46482e-08
1.4593e-06
9.10885e-08
1.42827e-06
1.89493e-07
1.39859e-06
3.35408e-07
1.3696e-06
5.14229e-07
1.34785e-06
7.464e-07
1.3333e-06
1.02102e-06
1.34107e-06
1.38767e-06
1.39223e-06
1.80491e-06
1.43961e-06
2.17054e-06
1.42563e-06
2.38772e-06
1.30732e-06
2.43261e-06
1.11062e-06
2.39838e-06
9.09633e-07
2.37349e-06
7.34307e-07
2.36462e-06
5.81921e-07
2.36256e-06
4.46894e-07
2.36074e-06
3.27124e-07
2.35678e-06
2.17836e-07
2.34793e-06
1.26316e-07
2.33333e-06
5.31094e-08
2.31352e-06
-6.02288e-10
2.28871e-06
-3.05305e-08
2.26149e-06
-3.44739e-08
2.23078e-06
-1.65872e-08
2.32758e-08
1.49313e-06
8.59198e-08
1.46456e-06
1.81308e-07
1.43648e-06
3.22992e-07
1.41094e-06
4.96225e-07
1.38761e-06
7.23635e-07
1.3706e-06
9.86193e-07
1.36803e-06
1.31973e-06
1.40903e-06
1.7338e-06
1.46331e-06
2.13196e-06
1.47818e-06
2.41427e-06
1.39907e-06
2.51738e-06
1.22256e-06
2.49613e-06
1.01292e-06
2.45893e-06
8.24226e-07
2.44023e-06
6.58636e-07
2.4319e-06
5.12551e-07
2.42563e-06
3.82016e-07
2.41798e-06
2.65885e-07
2.40505e-06
1.60735e-07
2.38561e-06
7.40939e-08
2.36018e-06
6.49565e-09
2.3281e-06
-3.9933e-08
2.29056e-06
-5.95439e-08
2.25002e-06
-5.36683e-08
2.21367e-06
-2.28629e-08
2.18832e-08
1.5236e-06
8.13129e-08
1.49774e-06
1.74292e-07
1.47157e-06
3.09773e-07
1.44963e-06
4.82515e-07
1.42458e-06
7.02051e-07
1.40917e-06
9.55439e-07
1.40116e-06
1.25912e-06
1.4286e-06
1.65967e-06
1.48315e-06
2.07743e-06
1.51783e-06
2.41608e-06
1.47636e-06
2.58625e-06
1.33025e-06
2.59699e-06
1.12161e-06
2.5524e-06
9.19414e-07
2.52295e-06
7.41475e-07
2.50749e-06
5.83015e-07
2.497e-06
4.41059e-07
2.48654e-06
3.13507e-07
2.46999e-06
2.00945e-07
2.44618e-06
1.00151e-07
2.41632e-06
1.79978e-08
2.37795e-06
-4.33039e-08
2.33239e-06
-8.1703e-08
2.28172e-06
-9.11853e-08
2.234e-06
-7.39457e-08
2.1757e-06
-2.87963e-08
2.00265e-08
1.55119e-06
7.64903e-08
1.52842e-06
1.6654e-07
1.50542e-06
2.97117e-07
1.48398e-06
4.70291e-07
1.46177e-06
6.78661e-07
1.44795e-06
9.26377e-07
1.43811e-06
1.20795e-06
1.45233e-06
1.58678e-06
1.50135e-06
2.01206e-06
1.54846e-06
2.39432e-06
1.53952e-06
2.63308e-06
1.42954e-06
2.69368e-06
1.23354e-06
2.65323e-06
1.02069e-06
2.61288e-06
8.29471e-07
2.5896e-06
6.59332e-07
2.57455e-06
5.05508e-07
2.56052e-06
3.67029e-07
2.5424e-06
2.41128e-07
2.51538e-06
1.31789e-07
2.4819e-06
3.45845e-08
2.43867e-06
-4.26841e-08
2.38676e-06
-9.76195e-08
2.32645e-06
-1.26368e-07
2.26787e-06
-1.24977e-07
2.19741e-06
-9.55908e-08
2.12406e-06
-3.45976e-08
1.802e-08
1.57514e-06
7.15466e-08
1.55616e-06
1.57503e-07
1.53741e-06
2.8497e-07
1.51746e-06
4.55013e-07
1.49929e-06
6.5643e-07
1.4839e-06
8.99302e-07
1.47488e-06
1.16694e-06
1.47924e-06
1.51836e-06
1.52068e-06
1.94061e-06
1.57294e-06
2.35357e-06
1.58922e-06
2.6556e-06
1.51696e-06
2.77797e-06
1.34522e-06
2.75926e-06
1.12747e-06
2.71016e-06
9.23246e-07
2.67787e-06
7.41186e-07
2.65731e-06
5.76517e-07
2.63965e-06
4.26308e-07
2.62037e-06
2.88863e-07
2.59206e-06
1.6445e-07
2.55641e-06
5.72808e-08
2.50935e-06
-3.60699e-08
2.45198e-06
-1.07853e-07
2.38469e-06
-1.55777e-07
2.31589e-06
-1.7432e-07
2.23449e-06
-1.61984e-07
2.14675e-06
-1.18227e-07
2.05628e-06
-4.08396e-08
1.60757e-08
1.59504e-06
6.62457e-08
1.58042e-06
1.48018e-07
1.5656e-06
2.7259e-07
1.54956e-06
4.38422e-07
1.53388e-06
6.3737e-07
1.51823e-06
8.7257e-07
1.51042e-06
1.13237e-06
1.50936e-06
1.45666e-06
1.54081e-06
1.86752e-06
1.59365e-06
2.2988e-06
1.62758e-06
2.65373e-06
1.59108e-06
2.84392e-06
1.45104e-06
2.86536e-06
1.23918e-06
2.814e-06
1.02362e-06
2.77213e-06
8.28915e-07
2.74562e-06
6.52835e-07
2.72466e-06
4.91536e-07
2.7037e-06
3.43071e-07
2.67541e-06
2.05441e-07
2.63871e-06
8.21504e-08
2.58972e-06
-2.30913e-08
2.5284e-06
-1.12442e-07
2.45582e-06
-1.78943e-07
2.3785e-06
-2.18313e-07
2.28664e-06
-2.26394e-07
2.18619e-06
-2.01326e-07
2.08075e-06
-1.42633e-07
1.97384e-06
-4.85817e-08
1.38781e-08
1.61149e-06
6.00961e-08
1.60118e-06
1.37516e-07
1.59088e-06
2.5888e-07
1.57921e-06
4.21549e-07
1.56649e-06
6.18e-07
1.55324e-06
8.44885e-07
1.54561e-06
1.09967e-06
1.54312e-06
1.40283e-06
1.56309e-06
1.79525e-06
1.61303e-06
2.2344e-06
1.65808e-06
2.62963e-06
1.6517e-06
2.88707e-06
1.54787e-06
2.96313e-06
1.35325e-06
2.92342e-06
1.12983e-06
2.87261e-06
9.22969e-07
2.83914e-06
7.35387e-07
2.81461e-06
5.62825e-07
2.79211e-06
4.03067e-07
2.76403e-06
2.54399e-07
2.72734e-06
1.16781e-07
2.67904e-06
-7.27493e-09
2.61623e-06
-1.1091e-07
2.53962e-06
-1.96176e-07
2.45475e-06
-2.55132e-07
2.35438e-06
-2.85958e-07
2.24161e-06
-2.81725e-07
2.1226e-06
-2.43073e-07
1.99831e-06
-1.67018e-07
1.87596e-06
-5.68292e-08
1.24128e-08
1.62486e-06
5.33006e-08
1.61823e-06
1.26201e-07
1.61244e-06
2.44364e-07
1.60531e-06
4.04152e-07
1.59633e-06
5.96586e-07
1.58779e-06
8.18536e-07
1.57943e-06
1.06654e-06
1.57879e-06
1.35752e-06
1.58842e-06
1.72606e-06
1.63218e-06
2.16398e-06
1.68341e-06
2.58733e-06
1.70033e-06
2.90569e-06
1.63309e-06
3.04605e-06
1.46488e-06
3.03527e-06
1.24129e-06
2.97951e-06
1.02305e-06
2.938e-06
8.24078e-07
2.90934e-06
6.40591e-07
2.88448e-06
4.70292e-07
2.85695e-06
3.10196e-07
2.82205e-06
1.59658e-07
2.77509e-06
2.07908e-08
2.71347e-06
-1.0451e-07
2.63487e-06
-2.06147e-07
2.54431e-06
-2.85677e-07
2.43836e-06
-3.39036e-07
2.31428e-06
-3.58522e-07
2.18143e-06
-3.40444e-07
2.04124e-06
-2.85899e-07
1.90006e-06
-1.91029e-07
1.76192e-06
-6.63421e-08
1.04918e-08
1.63387e-06
4.70079e-08
1.63112e-06
1.15857e-07
1.62849e-06
2.30711e-07
1.62601e-06
3.86713e-07
1.62255e-06
5.75851e-07
1.61711e-06
7.94156e-07
1.61198e-06
1.03259e-06
1.61321e-06
1.31848e-06
1.6178e-06
1.66122e-06
1.6531e-06
2.08934e-06
1.70677e-06
2.53092e-06
1.73967e-06
2.90025e-06
1.70575e-06
3.10911e-06
1.57e-06
3.14321e-06
1.35686e-06
3.09193e-06
1.12883e-06
3.04227e-06
9.18679e-07
3.00811e-06
7.25298e-07
2.9806e-06
5.4439e-07
2.95437e-06
3.72798e-07
2.92171e-06
2.10524e-07
2.87729e-06
5.74875e-08
2.81853e-06
-8.42814e-08
2.74134e-06
-2.1097e-07
2.64763e-06
-3.09429e-07
2.53811e-06
-3.85374e-07
2.40465e-06
-4.29325e-07
2.25862e-06
-4.35618e-07
2.10273e-06
-4.01811e-07
1.94254e-06
-3.2826e-07
1.78685e-06
-2.15854e-07
1.6332e-06
-7.62998e-08
8.77747e-09
1.63644e-06
4.17326e-08
1.6391e-06
1.05953e-07
1.64094e-06
2.15104e-07
1.64401e-06
3.67775e-07
1.64474e-06
5.55686e-07
1.64264e-06
7.69058e-07
1.64206e-06
1.00312e-06
1.64133e-06
1.28095e-06
1.6507e-06
1.60335e-06
1.67554e-06
2.01372e-06
1.72869e-06
2.46488e-06
1.77274e-06
2.87233e-06
1.7676e-06
3.14793e-06
1.66692e-06
3.2398e-06
1.47337e-06
3.20772e-06
1.24084e-06
3.15075e-06
1.02031e-06
3.10994e-06
8.16645e-07
3.08051e-06
6.25291e-07
3.05539e-06
4.43289e-07
3.02507e-06
2.69384e-07
2.98469e-06
1.03148e-07
2.92996e-06
-5.39746e-08
2.85632e-06
-1.99335e-07
2.76289e-06
-3.26224e-07
2.65341e-06
-4.24694e-07
2.51331e-06
-4.93963e-07
2.35531e-06
-5.25905e-07
2.18454e-06
-5.17311e-07
2.00521e-06
-4.64349e-07
1.82661e-06
-3.67887e-07
1.6568e-06
-2.39336e-07
1.49086e-06
-2.68828e-08
-5.80551e-08
7.18993e-09
1.63306e-06
3.5987e-08
1.64213e-06
9.53014e-08
1.6497e-06
1.99902e-07
1.65601e-06
3.50266e-07
1.66146e-06
5.35264e-07
1.66505e-06
7.42458e-07
1.66901e-06
9.75723e-07
1.66927e-06
1.24279e-06
1.67946e-06
1.55486e-06
1.69897e-06
1.943e-06
1.74617e-06
2.3934e-06
1.80002e-06
2.8262e-06
1.81883e-06
3.1616e-06
1.75388e-06
3.31881e-06
1.5879e-06
3.32172e-06
1.35949e-06
3.26296e-06
1.12863e-06
3.21599e-06
9.14311e-07
3.18351e-06
7.13658e-07
3.1585e-06
5.22137e-07
3.13133e-06
3.36961e-07
3.09578e-06
1.58159e-07
3.04673e-06
-1.36563e-08
2.97821e-06
-1.75824e-07
2.88768e-06
-3.24153e-07
2.78257e-06
-4.55347e-07
2.64035e-06
-5.51685e-07
2.47334e-06
-6.11908e-07
2.28774e-06
-6.28978e-07
2.08956e-06
-6.01512e-07
1.88777e-06
-5.25353e-07
1.69386e-06
-4.04797e-07
1.5116e-06
-1.18613e-07
-1.41332e-07
6.84829e-07
-2.19216e-08
6.91327e-07
-6.45266e-08
5.32169e-09
1.62447e-06
2.99102e-08
1.63909e-06
8.56358e-08
1.65169e-06
1.86108e-07
1.66332e-06
3.33656e-07
1.67247e-06
5.14847e-07
1.68149e-06
7.16319e-07
1.69088e-06
9.46598e-07
1.69817e-06
1.20794e-06
1.70418e-06
1.50912e-06
1.72502e-06
1.87599e-06
1.76601e-06
2.31937e-06
1.82023e-06
2.77056e-06
1.85564e-06
3.15344e-06
1.82695e-06
3.37634e-06
1.69629e-06
3.4283e-06
1.48125e-06
3.37833e-06
1.24403e-06
3.32594e-06
1.01887e-06
3.28896e-06
8.0905e-07
3.26396e-06
6.08234e-07
3.23984e-06
4.13572e-07
3.20893e-06
2.23752e-07
3.16638e-06
3.84484e-08
3.10579e-06
-1.4121e-07
3.02255e-06
-3.1068e-07
2.92305e-06
-4.6464e-07
2.7838e-06
-5.98749e-07
2.61299e-06
-6.91254e-07
2.41573e-06
-7.39796e-07
2.19894e-06
-7.38224e-07
1.9727e-06
-6.86283e-07
1.74384e-06
-2.69355e-07
-3.05798e-07
7.80183e-07
-2.02753e-07
7.62001e-07
-2.3245e-07
6.82481e-07
-1.09734e-07
6.94566e-07
-1.53375e-07
6.47898e-07
-1.95152e-08
6.48455e-07
-6.50599e-08
2.60911e-09
1.61104e-06
2.3786e-08
1.63053e-06
7.4674e-08
1.64995e-06
1.71541e-07
1.66621e-06
3.16935e-07
1.67992e-06
4.92938e-07
1.69422e-06
6.90684e-07
1.70713e-06
9.17191e-07
1.72034e-06
1.17661e-06
1.72928e-06
1.46273e-06
1.75044e-06
1.8139e-06
1.78705e-06
2.24437e-06
1.84089e-06
2.7038e-06
1.8869e-06
3.12454e-06
1.8845e-06
3.41329e-06
1.78994e-06
3.52283e-06
1.60179e-06
3.49425e-06
1.36535e-06
3.43878e-06
1.13093e-06
3.3962e-06
9.1141e-07
3.37047e-06
7.02244e-07
3.34905e-06
4.98993e-07
3.32338e-06
2.99083e-07
3.28845e-06
1.01655e-07
3.23673e-06
-9.26528e-08
3.16318e-06
-2.81791e-07
3.07086e-06
-4.58472e-07
2.94072e-06
-6.21539e-07
2.77182e-06
-7.57523e-07
2.56936e-06
-8.4479e-07
2.3385e-06
-8.79219e-07
2.08699e-06
-8.5235e-07
1.82806e-06
-3.67821e-07
-4.02509e-07
7.91399e-07
-2.80522e-07
8.1373e-07
-3.2808e-07
6.89895e-07
-1.98032e-07
7.69061e-07
-2.87531e-07
7.02507e-07
-2.45009e-07
6.48874e-07
-1.10116e-07
6.50761e-07
-1.55216e-07
6.11191e-07
-1.73653e-08
6.10519e-07
-6.43607e-08
-7.12035e-10
1.59198e-06
1.7254e-08
1.6175e-06
6.29921e-08
1.64212e-06
1.5838e-07
1.66284e-06
2.99991e-07
1.68296e-06
4.69578e-07
1.70303e-06
6.65863e-07
1.71893e-06
8.87155e-07
1.73709e-06
1.14438e-06
1.75243e-06
1.42086e-06
1.77103e-06
1.75776e-06
1.80641e-06
2.17152e-06
1.85985e-06
2.63199e-06
1.91269e-06
3.0784e-06
1.93295e-06
3.42482e-06
1.87298e-06
3.59931e-06
1.7134e-06
3.61012e-06
1.48592e-06
3.55565e-06
1.24843e-06
3.5069e-06
1.02043e-06
3.47844e-06
8.03518e-07
3.45856e-06
5.92672e-07
3.43843e-06
3.83909e-07
3.41034e-06
1.7712e-07
3.36881e-06
-3.05303e-08
3.30747e-06
-2.37152e-07
3.22512e-06
-4.36198e-07
3.10865e-06
-6.26395e-07
2.94867e-06
-7.98357e-07
2.74746e-06
-9.35543e-07
2.50799e-06
-1.01416e-06
2.23667e-06
-1.02875e-06
1.94483e-06
-4.65018e-07
-5.03916e-07
8.24845e-07
-3.78884e-07
8.53495e-07
-4.31104e-07
7.78309e-07
-3.37273e-07
6.53503e-07
-2.00722e-07
7.08751e-07
-2.93717e-07
6.57788e-07
-2.49236e-07
6.106e-07
-1.10158e-07
6.10913e-07
-1.55481e-07
5.74458e-07
-1.65304e-08
5.73351e-07
-6.32245e-08
-4.4307e-09
1.56742e-06
1.0858e-08
1.5983e-06
5.27974e-08
1.62759e-06
1.44761e-07
1.6556e-06
2.81383e-07
1.68146e-06
4.46991e-07
1.70536e-06
6.41115e-07
1.72768e-06
8.56818e-07
1.74914e-06
1.11058e-06
1.77077e-06
1.38366e-06
1.78954e-06
1.70433e-06
1.82435e-06
2.10092e-06
1.87682e-06
2.55801e-06
1.93371e-06
3.02039e-06
1.97063e-06
3.4142e-06
1.94346e-06
3.65314e-06
1.81902e-06
3.71516e-06
1.60828e-06
3.67417e-06
1.36737e-06
3.62193e-06
1.1332e-06
3.58802e-06
9.10851e-07
3.56811e-06
6.93906e-07
3.55286e-06
4.78004e-07
3.53213e-06
2.61958e-07
3.50129e-06
4.45342e-08
3.4533e-06
-1.76217e-07
3.38232e-06
-3.9429e-07
3.28403e-06
-6.1157e-07
3.13803e-06
-8.15727e-07
2.94821e-06
-9.99047e-07
2.71e-06
-1.13744e-06
2.42598e-06
-1.2033e-06
2.10488e-06
-5.70641e-07
-6.17913e-07
8.72059e-07
-4.83523e-07
9.10271e-07
-5.42058e-07
7.90787e-07
-3.91302e-07
8.0755e-07
-4.47803e-07
7.18682e-07
-3.47143e-07
6.1218e-07
-2.01932e-07
6.64429e-07
-3.00296e-07
6.13925e-07
-2.50919e-07
5.72383e-07
-1.09148e-07
5.71207e-07
-1.54252e-07
5.39672e-07
-1.69675e-08
5.37552e-07
-6.10729e-08
-8.06103e-09
1.53597e-06
5.42219e-09
1.57279e-06
4.35378e-08
1.60745e-06
1.29805e-07
1.6422e-06
2.63345e-07
1.6733e-06
4.25647e-07
1.70264e-06
6.14e-07
1.73232e-06
8.26941e-07
1.75736e-06
1.07463e-06
1.7849e-06
1.34633e-06
1.80788e-06
1.65312e-06
1.84061e-06
2.03203e-06
1.89311e-06
2.48215e-06
1.95252e-06
2.95248e-06
2.00154e-06
3.38316e-06
2.00169e-06
3.68469e-06
1.912e-06
3.80717e-06
1.72691e-06
3.79051e-06
1.49183e-06
3.73693e-06
1.25224e-06
3.69818e-06
1.02297e-06
3.67833e-06
8.00501e-07
3.66664e-06
5.8025e-07
3.65334e-06
3.56855e-07
3.63302e-06
1.30168e-07
3.59832e-06
-1.00737e-07
3.53941e-06
-3.33269e-07
3.46261e-06
-5.72784e-07
3.33775e-06
-8.11283e-07
3.16421e-06
-1.03167e-06
2.94213e-06
-1.23104e-06
2.66699e-06
-1.3781e-06
2.34446e-06
-6.90446e-07
-7.51843e-07
9.43393e-07
-6.03658e-07
1.00356e-06
-6.77872e-07
8.3149e-07
-5.07382e-07
8.64856e-07
-5.75287e-07
7.32665e-07
-4.05218e-07
7.51934e-07
-4.66984e-07
6.72507e-07
-3.55153e-07
5.7023e-07
-2.00895e-07
6.17743e-07
-3.04046e-07
5.69741e-07
-2.50363e-07
5.35133e-07
-1.06683e-07
5.32151e-07
-1.51213e-07
5.05039e-07
-1.74121e-08
5.03376e-07
-5.93775e-08
-1.17155e-08
1.49801e-06
-3.87098e-15
1.54133e-06
3.53562e-08
1.58084e-06
1.15455e-07
1.62164e-06
2.46176e-07
1.65941e-06
4.03575e-07
1.6954e-06
5.86429e-07
1.72993e-06
7.9802e-07
1.76107e-06
1.03723e-06
1.79454e-06
1.30677e-06
1.82432e-06
1.60469e-06
1.85614e-06
1.96516e-06
1.90716e-06
2.40527e-06
1.96986e-06
2.87823e-06
2.02677e-06
3.33475e-06
2.04989e-06
3.69129e-06
1.99499e-06
3.87806e-06
1.84109e-06
3.90144e-06
1.616e-06
3.85584e-06
1.37294e-06
3.81025e-06
1.14006e-06
3.78755e-06
9.13798e-07
3.77708e-06
6.89989e-07
3.77138e-06
4.62121e-07
3.76122e-06
2.28549e-07
3.74073e-06
-1.23709e-08
3.69765e-06
-2.59119e-07
3.64107e-06
-5.11758e-07
3.54178e-06
-7.76769e-07
3.39556e-06
-1.04266e-06
3.1959e-06
-1.28515e-06
2.96357e-06
-1.52677e-06
2.71006e-06
-8.29709e-07
-9.11739e-07
1.07554e-06
-7.61962e-07
1.19107e-06
-8.66316e-07
9.18449e-07
-6.56944e-07
1.00499e-06
-7.63688e-07
7.8212e-07
-5.37407e-07
8.3637e-07
-6.29143e-07
6.85762e-07
-4.18381e-07
7.09869e-07
-4.90914e-07
6.24568e-07
-3.61887e-07
5.28741e-07
-1.9742e-07
5.70927e-07
-3.05144e-07
5.2508e-07
-2.4662e-07
4.99423e-07
-1.0268e-07
4.9438e-07
-1.46109e-07
4.7408e-07
-1.76796e-08
4.72306e-07
-5.75691e-08
-1.49793e-08
1.4535e-06
-5.61483e-09
1.50352e-06
2.66947e-08
1.54988e-06
1.01205e-07
1.59495e-06
2.28185e-07
1.63948e-06
3.80878e-07
1.68182e-06
5.60751e-07
1.72096e-06
7.67641e-07
1.76023e-06
9.99356e-07
1.79881e-06
1.26487e-06
1.83631e-06
1.55865e-06
1.8701e-06
1.90263e-06
1.91848e-06
2.32759e-06
1.98477e-06
2.8005e-06
2.04745e-06
3.27274e-06
2.08868e-06
3.67454e-06
2.06658e-06
3.9249e-06
1.94806e-06
4.00022e-06
1.7422e-06
3.97067e-06
1.50095e-06
3.9237e-06
1.25943e-06
3.89918e-06
1.02825e-06
3.88608e-06
8.04793e-07
3.88417e-06
5.77136e-07
3.88274e-06
3.40666e-07
3.87588e-06
9.33139e-08
3.85258e-06
-1.67409e-07
3.81343e-06
-4.31689e-07
3.74456e-06
-7.1462e-07
3.63118e-06
-1.01236e-06
3.47422e-06
-1.3204e-06
3.31482e-06
-1.63436e-06
3.2278e-06
-9.78395e-07
-1.05996e-06
1.34546e-06
-9.82159e-07
1.54274e-06
-1.10565e-06
1.14778e-06
-9.03112e-07
1.34995e-06
-1.06528e-06
9.39274e-07
-7.58844e-07
1.11508e-06
-9.37181e-07
7.63835e-07
-5.90906e-07
8.83054e-07
-7.47085e-07
6.41797e-07
-4.3543e-07
6.94636e-07
-5.4325e-07
5.81827e-07
-3.72618e-07
4.88321e-07
-1.91285e-07
5.30374e-07
-3.10289e-07
4.8801e-07
-2.46185e-07
4.66057e-07
-9.63777e-08
4.58677e-07
-1.38661e-07
4.46858e-07
-1.72687e-08
4.43119e-07
-5.37943e-08
-1.80766e-08
1.40241e-06
-1.17821e-08
1.4596e-06
1.71352e-08
1.51299e-06
8.82426e-08
1.56264e-06
2.09115e-07
1.61389e-06
3.58383e-07
1.66186e-06
5.36293e-07
1.70627e-06
7.35342e-07
1.75309e-06
9.62389e-07
1.79711e-06
1.22153e-06
1.84201e-06
1.51359e-06
1.8813e-06
1.84346e-06
1.92918e-06
2.24953e-06
1.99647e-06
2.71993e-06
2.06524e-06
3.20064e-06
2.11954e-06
3.63844e-06
2.12468e-06
3.94838e-06
2.04303e-06
4.08259e-06
1.86565e-06
4.08019e-06
1.63265e-06
4.03492e-06
1.3896e-06
4.00492e-06
1.1536e-06
3.99432e-06
9.19548e-07
3.99514e-06
6.93743e-07
4.00027e-06
4.59426e-07
4.00266e-06
2.13812e-07
3.99643e-06
-5.06276e-08
3.97659e-06
-3.30489e-07
3.9409e-06
-6.28039e-07
3.86317e-06
-9.46544e-07
3.7533e-06
-1.29073e-06
3.70863e-06
-1.70998e-06
3.87165e-06
-1.09831e-06
-1.16794e-06
1.77779e-06
-1.20894e-06
2.02204e-06
-1.2984e-06
1.60889e-06
-1.23634e-06
1.89385e-06
-1.38456e-06
1.3658e-06
-1.14958e-06
1.66259e-06
-1.35638e-06
1.09221e-06
-9.6506e-07
1.37558e-06
-1.21573e-06
8.28231e-07
-7.23043e-07
1.06399e-06
-9.79535e-07
6.29021e-07
-4.82135e-07
7.70105e-07
-6.82828e-07
5.71006e-07
-4.12824e-07
4.52507e-07
-1.85011e-07
5.17983e-07
-3.39917e-07
4.69979e-07
-2.63398e-07
4.35947e-07
-8.91473e-08
4.25544e-07
-1.2817e-07
4.25181e-07
-1.59557e-08
4.19318e-07
-4.78949e-08
-2.22769e-08
1.34438e-06
-1.93194e-08
1.40991e-06
7.7685e-09
1.46886e-06
7.51882e-08
1.52579e-06
1.9001e-07
1.58173e-06
3.3822e-07
1.63392e-06
5.12371e-07
1.68557e-06
7.02646e-07
1.73885e-06
9.25968e-07
1.78939e-06
1.1772e-06
1.84139e-06
1.46706e-06
1.88837e-06
1.78692e-06
1.93771e-06
2.17362e-06
2.00494e-06
2.63671e-06
2.07948e-06
3.1222e-06
2.1434e-06
3.586e-06
2.17184e-06
3.94822e-06
2.12478e-06
4.14518e-06
1.98026e-06
4.1826e-06
1.76295e-06
4.14484e-06
1.52257e-06
4.10862e-06
1.28582e-06
4.09646e-06
1.05158e-06
4.10024e-06
8.14481e-07
4.1173e-06
5.76882e-07
4.12505e-06
3.3697e-07
4.13227e-06
7.78976e-08
4.12935e-06
-2.03567e-07
4.1218e-06
-5.11385e-07
4.08231e-06
-8.47e-07
4.03067e-06
-1.22305e-06
4.0742e-06
-1.65095e-06
4.56823e-06
-1.17263e-06
-1.21583e-06
2.28649e-06
-1.35636e-06
2.52626e-06
-1.4009e-06
2.18206e-06
-1.49085e-06
2.44005e-06
-1.54968e-06
1.95736e-06
-1.52509e-06
2.21641e-06
-1.63787e-06
1.67091e-06
-1.43952e-06
1.92746e-06
-1.60776e-06
1.35416e-06
-1.25044e-06
1.61967e-06
-1.47643e-06
1.02137e-06
-9.70936e-07
1.29786e-06
-1.25182e-06
7.0532e-07
-6.15065e-07
9.55955e-07
-9.30282e-07
6.36861e-07
-5.30551e-07
4.31364e-07
-1.90642e-07
5.6413e-07
-4.33182e-07
4.96697e-07
-3.28116e-07
4.09622e-07
-7.93821e-08
4.04678e-07
-1.23095e-07
4.10618e-07
-1.33027e-08
4.024e-07
-3.96382e-08
-2.8261e-08
1.27748e-06
-2.98692e-08
1.35493e-06
-2.97512e-09
1.42063e-06
5.9889e-08
1.4841e-06
1.74029e-07
1.54173e-06
3.19699e-07
1.60011e-06
4.85646e-07
1.66048e-06
6.69566e-07
1.71854e-06
8.88888e-07
1.77573e-06
1.13417e-06
1.8323e-06
1.41942e-06
1.88877e-06
1.73278e-06
1.94234e-06
2.10076e-06
2.01044e-06
2.55122e-06
2.09014e-06
3.03911e-06
2.16245e-06
3.51914e-06
2.21033e-06
3.92593e-06
2.19406e-06
4.18444e-06
2.08549e-06
4.27297e-06
1.88989e-06
4.253e-06
1.65477e-06
4.21377e-06
1.41736e-06
4.19601e-06
1.18626e-06
4.19956e-06
9.51947e-07
4.21987e-06
7.11953e-07
4.24146e-06
4.60434e-07
4.26161e-06
2.07551e-07
4.27895e-06
-7.1832e-08
4.29021e-06
-3.7195e-07
4.28115e-06
-7.10055e-07
4.27948e-06
-1.09465e-06
4.43889e-06
-1.58084e-06
5.27434e-06
-1.17877e-06
-1.15692e-06
2.77058e-06
-1.40962e-06
2.97324e-06
-1.41138e-06
2.67186e-06
-1.58245e-06
2.86837e-06
-1.59294e-06
2.43019e-06
-1.70031e-06
2.61334e-06
-1.73096e-06
2.13211e-06
-1.72635e-06
2.30124e-06
-1.80611e-06
1.82216e-06
-1.63873e-06
1.978e-06
-1.76271e-06
1.52117e-06
-1.47033e-06
1.68155e-06
-1.6355e-06
1.21292e-06
-1.22441e-06
1.39603e-06
-1.43279e-06
8.72678e-07
-8.48126e-07
1.11004e-06
-1.16482e-06
7.79334e-07
-7.43554e-07
4.40655e-07
-2.26233e-07
6.79393e-07
-6.1424e-07
5.82237e-07
-4.68464e-07
3.90221e-07
-6.71128e-08
4.01059e-07
-1.33698e-07
4.05011e-07
-8.45917e-09
3.90827e-07
-2.54118e-08
-3.67596e-08
1.19923e-06
-4.50574e-08
1.29263e-06
-1.59074e-08
1.36777e-06
4.35384e-08
1.43674e-06
1.58472e-07
1.49948e-06
2.98537e-07
1.56278e-06
4.57781e-07
1.62781e-06
6.38773e-07
1.6911e-06
8.52202e-07
1.7551e-06
1.09304e-06
1.81679e-06
1.3694e-06
1.88206e-06
1.67916e-06
1.94216e-06
2.03121e-06
2.01175e-06
2.46496e-06
2.09643e-06
2.95227e-06
2.17695e-06
3.44209e-06
2.23941e-06
3.88472e-06
2.25144e-06
4.19981e-06
2.17863e-06
4.34657e-06
2.01198e-06
4.3556e-06
1.78718e-06
4.31868e-06
1.54975e-06
4.29531e-06
1.31798e-06
4.29682e-06
1.08897e-06
4.3154e-06
8.55951e-07
4.34427e-06
6.09294e-07
4.37723e-06
3.44755e-07
4.4186e-06
6.7791e-08
4.44742e-06
-2.29238e-07
4.46718e-06
-5.57898e-07
4.50026e-06
-9.29649e-07
4.74705e-06
-1.39524e-06
5.85198e-06
-2.13332e-06
3.17733e-06
-1.37645e-06
3.35016e-06
-1.32338e-06
3.05054e-06
-1.58903e-06
3.22079e-06
-1.58021e-06
2.77536e-06
-1.74406e-06
2.92123e-06
-1.73946e-06
2.44137e-06
-1.84088e-06
2.55833e-06
-1.84964e-06
2.09443e-06
-1.84329e-06
2.17428e-06
-1.8877e-06
1.78418e-06
-1.74167e-06
1.83677e-06
-1.81681e-06
1.51281e-06
-1.58687e-06
1.56865e-06
-1.69224e-06
1.26297e-06
-1.3762e-06
1.34102e-06
-1.51116e-06
9.97361e-07
-1.0638e-06
1.12882e-06
-1.2959e-06
8.81687e-07
-9.43726e-07
4.92626e-07
-3.17001e-07
7.66657e-07
-7.96835e-07
6.55698e-07
-6.29954e-07
3.82402e-07
-5.85505e-08
4.23035e-07
-1.73893e-07
4.12204e-07
1.31418e-09
3.89363e-07
-2.51628e-09
-4.86938e-08
1.10383e-06
-6.59095e-08
1.22004e-06
-3.31717e-08
1.3098e-06
2.55989e-08
1.38559e-06
1.398e-07
1.45529e-06
2.78218e-07
1.51971e-06
4.31183e-07
1.58929e-06
6.09576e-07
1.65682e-06
8.16748e-07
1.72643e-06
1.05238e-06
1.7954e-06
1.31853e-06
1.86735e-06
1.62494e-06
1.93607e-06
1.96435e-06
2.00881e-06
2.37891e-06
2.09754e-06
2.86151e-06
2.18706e-06
3.35737e-06
2.26157e-06
3.82629e-06
2.29773e-06
4.19219e-06
2.25897e-06
4.3988e-06
2.12634e-06
4.44939e-06
1.91808e-06
4.42225e-06
1.68354e-06
4.39415e-06
1.45073e-06
4.39107e-06
1.22363e-06
4.40875e-06
9.95594e-07
4.44042e-06
7.59912e-07
4.48029e-06
5.06214e-07
4.53083e-06
2.32437e-07
4.58442e-06
-6.936e-08
4.64164e-06
-4.03728e-07
4.69948e-06
-7.55988e-07
4.99325e-06
-1.16851e-06
6.26303e-06
-1.78087e-06
-3.47383e-06
7.28859e-06
-1.32985e-06
-1.26126e-06
3.36213e-06
-1.51705e-06
-1.4355e-06
3.05795e-06
-1.72742e-06
3.1877e-06
-1.71174e-06
2.65581e-06
-1.84358e-06
2.73972e-06
-1.82616e-06
2.22728e-06
-1.89616e-06
2.26197e-06
-1.88755e-06
1.84775e-06
-1.8562e-06
1.8299e-06
-1.87269e-06
1.55985e-06
-1.73447e-06
1.50323e-06
-1.76235e-06
1.34704e-06
-1.59395e-06
1.28805e-06
-1.63474e-06
1.17896e-06
-1.42718e-06
1.14914e-06
-1.48229e-06
9.98189e-07
-1.1801e-06
1.0269e-06
-1.32554e-06
8.73004e-07
-1.04999e-06
5.50145e-07
-4.43172e-07
7.55935e-07
-8.96973e-07
6.46552e-07
-7.25871e-07
3.88616e-07
-5.75948e-08
4.57984e-07
-2.42603e-07
4.35965e-07
2.34454e-08
3.9925e-07
3.42753e-08
-6.52936e-08
9.81221e-07
-9.45583e-08
1.13244e-06
-5.71166e-08
1.24391e-06
5.78606e-09
1.32953e-06
1.20106e-07
1.40516e-06
2.60272e-07
1.47314e-06
4.04511e-07
1.54623e-06
5.82226e-07
1.61636e-06
7.82512e-07
1.69091e-06
1.01131e-06
1.76739e-06
1.26875e-06
1.84514e-06
1.56942e-06
1.92261e-06
1.89877e-06
2.00152e-06
2.29384e-06
2.09368e-06
2.76735e-06
2.19154e-06
3.26691e-06
2.27739e-06
3.75321e-06
2.33452e-06
4.16346e-06
2.32637e-06
4.42744e-06
2.23025e-06
4.52976e-06
2.04582e-06
4.52146e-06
1.8188e-06
4.49239e-06
1.5852e-06
4.4837e-06
1.35797e-06
4.49966e-06
1.1326e-06
4.53151e-06
9.03858e-07