/*--------------------------------*- C++ -*----------------------------------*\
  =========                 |
  \\      /  F ield         | OpenFOAM: The Open Source CFD Toolbox
   \\    /   O peration     | Website:  https://openfoam.org
    \\  /    A nd           | Version:  dev
     \\/     M anipulation  |
\*---------------------------------------------------------------------------*/
FoamFile
{
    version     2.0;
    format      ascii;
    class       volScalarField;
    location    "2500";
    object      qr;
}
// * * * * * * * * * * * * * * * * * * * * * * * * * * * * * * * * * * * * * //

dimensions      [1 0 -3 0 0 0 0];

internalField   uniform 0;

boundaryField
{
    lowerOutlet
    {
        type            calculated;
        value           nonuniform List<scalar> 
144
(
1104.93
1108.6
1112.64
1117.06
1121.86
1127.05
1132.64
1138.65
1145.08
1151.96
1159.3
1167.12
1175.46
1184.34
1193.79
1203.86
1214.59
1226.03
1238.23
1251.28
1265.25
1280.23
1296.33
1313.69
1332.5
1352.95
1375.25
1399.67
1426.55
1456.32
1489.52
1526.81
1569.02
1605.73
1659.65
1722.68
1797.11
1886.13
1994.45
2129.02
2300.68
2524.13
2808.09
3369.83
4027.5
4671.93
5241.54
5825.76
-9417.43
3526.77
2916.73
2538.71
2280.72
2073.66
1937.56
1831.47
1745.92
1675.53
1616.35
1565.71
1521.71
1483.04
1448.77
1410.51
1383.61
1359.14
1336.75
1316.18
1297.2
1279.59
1263.22
1247.96
1233.71
1220.37
1207.84
1196.04
1184.92
1174.42
1164.51
1155.13
1146.27
1137.88
1129.94
1122.42
1115.31
1108.59
1102.24
1096.24
1090.59
1085.28
1080.29
1075.61
1071.25
1067.19
1063.43
1059.98
2057.89
2209.35
2404.95
2650.75
3047.96
3849.21
4520.47
5099.93
5675.81
4962.5
3757.66
3039.6
2619.24
2337.08
2156.1
2001.03
1881.5
1786.51
1709.11
1644.74
1839.55
1937.5
4198.39
4816.36
5384.53
5983.17
4320.12
3338.76
2807.08
2465.45
2228.88
1590.1
1542.97
3669.93
4362.42
4958.67
5529.21
6156.02
4028.69
3178.89
2708.3
2398.46
1631.67
1689.9
1758.31
1501.77
1465.4
1433.06
)
;
    }
    top
    {
        type            calculated;
        value           nonuniform List<scalar> 
100
(
1013.23
1016.19
1019.18
1022.15
1025.1
1028.02
1021.14
1023.54
1026.11
1028.6
1031.01
1033.23
1035.27
1037.16
1038.64
1039.87
1041.02
1042.12
1043.21
1043.89
1041.74
1029.68
1004.96
977.762
956.945
947.054
945.09
947.854
956.205
967.401
979.042
988.757
994.738
992.47
975.909
946.543
914.069
894.976
890.141
900.042
926.267
968.16
1021.27
1064.66
1080.26
1083.54
1084.7
1085.39
1085.79
1085.95
1085.91
1085.73
1085.44
1085
1084.37
1083.63
1082.79
1081.84
1080.8
1079.68
1078.51
1077.26
1075.95
1074.59
1073.18
1071.67
1070.02
1068.26
1066.34
1064.3
1062.1
1059.76
1057.31
1054.79
1052.36
1050.16
1048.02
1046.91
1056.35
1053.48
1050.57
1047.63
1044.66
1041.67
1038.66
1035.64
1032.6
1029.56
1026.51
1023.45
1020.4
1017.34
1011.62
1007.26
1003.09
999.175
995.952
993.42
991.791
991.29
)
;
    }
    sides
    {
        type            calculated;
        value           nonuniform List<scalar> 
100
(
1104.94
1107.89
1110.48
1112.72
1114.6
1116.13
1117.33
1118.19
1118.73
1118.96
1118.89
1118.53
1117.89
1116.99
1115.85
1114.48
1112.88
1111.09
1109.1
1106.95
1104.63
1102.16
1099.57
1096.85
1094.02
1091.1
1088.09
1085.01
1081.87
1078.67
1075.42
1072.13
1068.81
1065.47
1062.12
1058.75
1055.39
1052.02
1048.66
1045.32
1041.99
1038.68
1035.39
1032.13
1028.9
1025.7
1022.52
1019.39
1016.28
1013.25
1059.98
1062.87
1065.48
1067.8
1069.83
1071.59
1073.08
1074.3
1075.25
1075.95
1076.4
1076.61
1076.59
1076.35
1075.89
1075.23
1074.38
1073.34
1072.13
1070.76
1069.24
1067.57
1065.77
1063.85
1061.81
1059.67
1057.43
1055.1
1052.69
1050.21
1047.66
1045.05
1042.38
1039.66
1036.91
1034.11
1031.29
1028.44
1025.56
1022.66
1019.75
1016.82
1013.88
1010.94
1007.99
1005.03
1002.07
999.105
996.14
993.211
)
;
    }
    front
    {
        type            empty;
    }
    back
    {
        type            empty;
    }
    roller
    {
        type            calculated;
        value           nonuniform List<scalar> 
144
(
5746.97
4297.39
3250.87
1661.71
1361.3
1328.4
1270.35
1239.89
1233.38
7962.06
8459.7
6421.15
6421.35
2883.59
2144.45
2324.13
1699.3
1479.44
1346.92
1293.35
1282.28
1263.35
1247.21
1241.04
5414.77
5713.03
5176.14
2643.94
2491.49
2031.77
2612.22
2497.23
1636.74
1396.78
1441.84
1392.94
1238.18
7601.67
6947.47
5130.82
6049.09
4212.79
3807.14
3474.16
3657.8
2420.71
1823.04
1772.57
1739.93
2080.9
1498.75
1424.42
1408.12
1348.25
1337.18
1326.66
1245.33
1238.75
6863.25
8404.15
7926.48
2227.85
1554.48
1476.31
1414.24
1461.88
1232.47
1227.6
1227.62
9139.75
9163.76
3810.61
2766.89
1998.41
1575.94
1937.87
1770.56
1494.46
1721.37
1597.94
1428.21
1565.38
1527.89
1371.76
1284.78
1257.26
1241.17
1243.08
1231.74
1236
1234.18
1228.42
1227.1
7225.87
7462.34
4649.8
4610.49
4012
3040.93
1895.56
2162.34
1533.61
1459.17
1317.49
1308.67
1311.44
1277.01
1263.01
1249.28
1244.5
1230.9
1227.09
1228.48
1229.95
8788.62
9008.19
9071.4
8867.99
4870.94
3485.86
3188.54
2274.99
2393.27
2894.48
1958.61
1605.47
1879.15
1823.11
1513.53
1675.98
1634.77
1443.14
1382.26
1377.23
1362.78
1300.91
1296.01
1269.91
1256.95
1250.52
1253.1
1235.94
1229.53
1226.93
)
;
    }
    burner
    {
        type            calculated;
        value           nonuniform List<scalar> 
16
(
-125477
-119746
-116813
-117537
-120941
-117271
-116868
-123634
-123894
-118743
-116568
-118707
-122356
-117919
-116569
-120594
)
;
    }
}


// ************************************************************************* //
