/*--------------------------------*- C++ -*----------------------------------*\
  =========                 |
  \\      /  F ield         | OpenFOAM: The Open Source CFD Toolbox
   \\    /   O peration     | Website:  https://openfoam.org
    \\  /    A nd           | Version:  dev
     \\/     M anipulation  |
\*---------------------------------------------------------------------------*/
FoamFile
{
    version     2.0;
    format      ascii;
    class       volScalarField;
    location    "2500";
    object      rAU;
}
// * * * * * * * * * * * * * * * * * * * * * * * * * * * * * * * * * * * * * //

dimensions      [-1 3 1 0 0 0 0];

internalField   nonuniform List<scalar> 
9836
(
0.00821426
0.00828093
0.00823305
0.00826151
0.00839372
0.00816708
0.00822688
0.00838811
0.00839808
0.00811054
0.00820161
0.00838421
0.0083824
0.00841107
0.0080569
0.00818421
0.0083906
0.00837476
0.00839264
0.00842101
0.00800782
0.00816809
0.00840324
0.00837564
0.00837729
0.00840801
0.00842587
0.00796282
0.00815005
0.00841629
0.00838239
0.00836863
0.00839149
0.00841857
0.00842838
0.00792136
0.0081296
0.00842545
0.00839421
0.00836524
0.0083765
0.00840769
0.00842421
0.00843006
0.00788317
0.0081093
0.00842779
0.00840757
0.00836832
0.0083659
0.0083932
0.00841857
0.00842727
0.00843118
0.00784809
0.00809122
0.00842862
0.00841767
0.00837696
0.00836006
0.00837813
0.00840941
0.00842419
0.00842922
0.00843185
0.00781561
0.00807458
0.00842909
0.00842498
0.00839095
0.00835944
0.00836568
0.00839654
0.00841935
0.00842705
0.0084306
0.00843252
0.00778574
0.00805903
0.00843093
0.00842885
0.00840545
0.00836389
0.00835828
0.00838118
0.00841179
0.00842449
0.00842917
0.00843171
0.00843293
0.00775831
0.00804224
0.00843274
0.00843113
0.00841601
0.00837449
0.00835413
0.00836769
0.00839983
0.00842098
0.00842764
0.00843061
0.00843274
0.00843331
0.00773336
0.008026
0.0084337
0.00843321
0.00842367
0.00838923
0.00835472
0.00835755
0.00838594
0.00841399
0.0084259
0.00842954
0.00843178
0.00843354
0.00843361
0.00771085
0.00801073
0.00843402
0.0084341
0.00842741
0.00840426
0.00836092
0.0083517
0.00837093
0.00840429
0.00842243
0.00842858
0.00843113
0.00843284
0.00843423
0.00843377
0.00769081
0.00799501
0.00843557
0.0084345
0.00843053
0.00841392
0.00837285
0.00834868
0.00835915
0.00839084
0.00841685
0.00842713
0.00843025
0.0084323
0.00843374
0.00843476
0.00843389
0.00767324
0.0079793
0.00843599
0.00843508
0.00843257
0.00842158
0.0083886
0.00835069
0.00835016
0.00837579
0.00840822
0.00842456
0.00842953
0.00843178
0.00843337
0.00843449
0.00843518
0.00843392
0.00765822
0.00796415
0.00843622
0.00843537
0.00843382
0.00842648
0.00840331
0.00835841
0.00834559
0.00836112
0.00839549
0.00841986
0.00842866
0.00843108
0.00843293
0.00843419
0.00843512
0.00843558
0.0084341
0.00764581
0.00794947
0.0084363
0.00843583
0.00843488
0.00842988
0.00841358
0.0083717
0.00834401
0.00835077
0.00838075
0.00841169
0.00842662
0.0084309
0.00843243
0.00843397
0.00843505
0.00843571
0.00843586
0.00843425
0.0076362
0.00793532
0.00843657
0.00843654
0.00843563
0.00843204
0.00842097
0.00838759
0.00834728
0.00834406
0.00836597
0.00840041
0.00842162
0.0084305
0.00843257
0.00843361
0.00843478
0.00843568
0.0084362
0.00843611
0.00838279
0.0075884
0.00792202
0.00843669
0.0084369
0.00843592
0.00843346
0.0084259
0.0084026
0.00835587
0.00834007
0.00835319
0.00838696
0.00841425
0.00842793
0.00843287
0.0084339
0.00843455
0.00843551
0.00843628
0.00843661
0.00838489
0.00830975
0.00759803
0.0079093
0.00843679
0.00843713
0.00843641
0.00843435
0.00842903
0.00841285
0.00837003
0.00833958
0.00834415
0.00837213
0.0084047
0.00842329
0.00843142
0.00843443
0.00843496
0.00843527
0.00843609
0.00843681
0.00843695
0.00836081
0.00833981
0.00762578
0.00789725
0.00843678
0.00843747
0.00843702
0.00843534
0.00843167
0.00842039
0.00838654
0.00834371
0.00833841
0.00835789
0.00839305
0.00841747
0.00842872
0.00843367
0.0084357
0.00843584
0.00843591
0.00843667
0.00843723
0.0084372
0.00837532
0.00843437
0.00762926
0.00788586
0.00843674
0.00843776
0.00843756
0.00843599
0.0084331
0.00842558
0.00840192
0.00835298
0.00833482
0.00834644
0.00837917
0.00840919
0.00842519
0.00843206
0.00843521
0.0084367
0.00843648
0.00843642
0.00843712
0.00843755
0.00843744
0.00843696
0.00843434
0.00763703
0.00787576
0.00843695
0.00843791
0.00843804
0.00843638
0.00843465
0.00842946
0.00841216
0.00836794
0.00833486
0.00833782
0.00836448
0.00839891
0.0084201
0.00842982
0.00843409
0.00843621
0.00843766
0.00843723
0.00843684
0.00843751
0.00843781
0.00843761
0.00843706
0.00843449
0.0076485
0.00786667
0.00843707
0.00843822
0.00843841
0.00843743
0.00843558
0.00843135
0.00841989
0.00838466
0.00833923
0.00833286
0.00835048
0.00838624
0.00841354
0.00842677
0.00843269
0.00843543
0.00843739
0.0084384
0.00843773
0.00843727
0.00843775
0.00843801
0.00843774
0.00843724
0.00843435
0.00766337
0.00785888
0.00843728
0.00843835
0.00843849
0.00843812
0.00843602
0.00843369
0.00842511
0.00839991
0.00834875
0.0083294
0.00834002
0.00837203
0.00840424
0.00842281
0.0084308
0.00843463
0.00843649
0.00843834
0.00843911
0.00843819
0.00843763
0.0084381
0.00843815
0.0084379
0.00843711
0.00843395
0.00768306
0.00785226
0.00843735
0.00843858
0.00843902
0.00843835
0.00843692
0.00843486
0.00842908
0.00841077
0.00836377
0.00832982
0.00833189
0.00835734
0.00839309
0.00841714
0.00842839
0.00843346
0.00843572
0.0084373
0.0084388
0.00843965
0.00843844
0.00843776
0.00843821
0.00843835
0.00843772
0.00843686
0.00843337
0.00770822
0.00784708
0.00843747
0.00843867
0.00843952
0.00843905
0.00843794
0.00843625
0.00843216
0.00841888
0.00838123
0.00833446
0.00832753
0.00834399
0.00838002
0.00840944
0.00842494
0.00843177
0.00843509
0.0084367
0.00843805
0.00843951
0.00844008
0.00843875
0.00843797
0.00843843
0.00843812
0.00843726
0.00843632
0.00843262
0.00773722
0.00784263
0.00843738
0.00843893
0.00843988
0.00843973
0.00843878
0.00843719
0.00843421
0.00842415
0.00839723
0.00834417
0.00832416
0.00833395
0.00836592
0.00839954
0.0084203
0.00842961
0.00843406
0.00843603
0.00843724
0.00843845
0.00843968
0.00844023
0.0084389
0.0084381
0.00843818
0.00843756
0.00843644
0.0084355
0.00843141
0.00777272
0.00783417
0.00843742
0.00843899
0.00844019
0.00844032
0.00843965
0.00843859
0.00843544
0.00842816
0.00840847
0.00835902
0.00832464
0.00832635
0.00835116
0.00838821
0.00841395
0.00842688
0.00843256
0.0084354
0.00843691
0.00843764
0.00843867
0.00843994
0.0084403
0.00843885
0.00843779
0.00843753
0.00843663
0.00843519
0.00843534
0.00843262
0.00782411
0.00782114
0.00843176
0.00843943
0.00844063
0.00844097
0.00844034
0.00843949
0.00843644
0.00843168
0.00841657
0.00837615
0.00832928
0.00832224
0.00833804
0.00837438
0.00840575
0.00842308
0.00843076
0.00843454
0.0084364
0.00843726
0.00843777
0.00843866
0.00843978
0.00844018
0.00843849
0.00843707
0.00843648
0.00843596
0.00843648
0.00844106
0.00844352
0.00787612
0.00780855
0.00842007
0.0084396
0.0084407
0.00844121
0.00844102
0.00844019
0.00843783
0.00843332
0.00842247
0.00839251
0.0083394
0.00831975
0.00832863
0.00836016
0.00839542
0.00841768
0.00842819
0.0084331
0.0084356
0.00843682
0.00843747
0.00843783
0.0084383
0.00843939
0.00843968
0.00843751
0.00843663
0.00843764
0.00844137
0.00844742
0.00845266
0.00843993
0.00725616
0.00826287
0.007791
0.00840624
0.00843964
0.00844126
0.008442
0.00844157
0.00844103
0.00843919
0.00843469
0.0084269
0.00840484
0.00835307
0.00832053
0.00832241
0.00834635
0.00838369
0.00841078
0.00842462
0.00843109
0.00843429
0.00843613
0.00843697
0.00843725
0.00843726
0.00843773
0.00843863
0.00843922
0.00843867
0.0084422
0.00844805
0.00845422
0.00843586
0.00848254
0.0082614
0.0082579
0.00730375
0.00825521
0.00775747
0.00838287
0.00844018
0.00844138
0.00844226
0.00844222
0.00844195
0.00844055
0.00843681
0.00842965
0.00841341
0.0083692
0.00832412
0.00831826
0.00833446
0.00837083
0.00840249
0.00842119
0.00842892
0.00843289
0.00843504
0.00843611
0.00843657
0.00843663
0.00843635
0.00843719
0.00843917
0.00844432
0.00844893
0.00845451
0.00846052
0.0084366
0.00835262
0.00824436
0.00825962
0.00837159
0.00826827
0.00826039
0.00826151
0.00735557
0.00826333
0.00773655
0.00832377
0.00843939
0.00844158
0.00844276
0.00844228
0.00844226
0.00844132
0.00843841
0.00843129
0.00841987
0.00838592
0.0083322
0.00831535
0.00832467
0.00835722
0.00839297
0.00841621
0.00842699
0.0084316
0.00843381
0.00843517
0.00843576
0.00843559
0.00843546
0.00843614
0.00844005
0.00844837
0.00845616
0.00846076
0.00846507
0.00843504
0.00824856
0.00825192
0.00827515
0.00826786
0.00828513
0.00827783
0.00827029
0.00827167
0.00740561
0.00827022
0.00773352
0.00828703
0.00841726
0.00844203
0.00844296
0.0084431
0.00844296
0.00844196
0.00843947
0.00843342
0.00842431
0.00839976
0.00834543
0.00831562
0.00831838
0.00834279
0.00838078
0.00840989
0.00842494
0.00843089
0.00843336
0.00843433
0.00843447
0.00843478
0.00843411
0.0084355
0.00844215
0.0084512
0.00845954
0.00846568
0.00846734
0.00842728
0.00824843
0.00824079
0.00828331
0.00828773
0.00829166
0.00827707
0.00828712
0.0082859
0.00827751
0.00827851
0.00745185
0.00827378
0.00774506
0.00826766
0.00840665
0.00843748
0.00844329
0.00844353
0.00844334
0.00844247
0.00844054
0.00843542
0.00842661
0.0084088
0.00836049
0.0083189
0.00831483
0.00833153
0.0083677
0.00840063
0.00842064
0.00842938
0.00843292
0.00843468
0.00843477
0.00843406
0.00843295
0.0084339
0.00844299
0.00845321
0.0084607
0.00846392
0.00846256
0.00840785
0.00820845
0.00816934
0.00827719
0.00824212
0.00829282
0.00827984
0.00828934
0.0082839
0.00829064
0.00829023
0.00828152
0.00828315
0.00749284
0.00827294
0.00775936
0.00826356
0.00839614
0.00843443
0.00844371
0.00844389
0.00844331
0.00844345
0.0084415
0.00843678
0.00842888
0.00841449
0.00837625
0.00832452
0.00831184
0.00832232
0.00835551
0.00839098
0.00841503
0.00842673
0.00843144
0.00843406
0.00843519
0.00843476
0.00843334
0.00843271
0.00844313
0.0084534
0.00845917
0.00845763
0.00844836
0.00837815
0.00811604
0.00808177
0.0081839
0.00815383
0.00823914
0.00818561
0.00827582
0.00823638
0.00827445
0.00828808
0.00827905
0.00828232
0.00828249
0.00828524
0.00752913
0.00826764
0.00777643
0.00825274
0.00838448
0.00843261
0.00844406
0.00844393
0.00844401
0.00844428
0.00844242
0.00843788
0.00843054
0.00841937
0.00839084
0.00833545
0.00831011
0.00831503
0.00834179
0.00837986
0.00840921
0.00842465
0.00843054
0.00843212
0.00843379
0.0084347
0.00843404
0.00843377
0.00844287
0.0084527
0.00845688
0.00844731
0.00842765
0.0083464
0.0080179
0.00794109
0.0081077
0.00803147
0.00814099
0.00807802
0.00818738
0.00813441
0.00823589
0.00819289
0.00820814
0.0082849
0.00815876
0.00817342
0.00827962
0.00828218
0.00755638
0.00825648
0.00779657
0.00825827
0.00836218
0.00842732
0.00844424
0.00844443
0.00844462
0.00844454
0.00844328
0.00843906
0.00843286
0.00842323
0.00840164
0.00834956
0.00831174
0.00830953
0.00832871
0.00836665
0.00840052
0.00842141
0.00843033
0.00843281
0.00843236
0.00843266
0.0084329
0.00843384
0.00844367
0.00845318
0.00845348
0.00843752
0.00841092
0.00831063
0.00784701
0.00774541
0.00791887
0.0077836
0.00796492
0.00781118
0.00804149
0.00788719
0.00813102
0.00800693
0.00818744
0.00811729
0.00814369
0.00823538
0.0080887
0.00810383
0.00826992
0.00826668
0.0075687
0.0082368
0.00791095
0.00825084
0.00836084
0.00841978
0.00844416
0.00844431
0.00844492
0.00844491
0.00844389
0.00843999
0.00843434
0.00842593
0.00840939
0.00836498
0.00831705
0.00830723
0.00831813
0.00835279
0.00838945
0.0084151
0.00842817
0.00843323
0.00843346
0.00843239
0.00843104
0.00843143
0.00844212
0.00845293
0.00845321
0.00842778
0.00840122
0.00828169
0.00759549
0.00743518
0.00753262
0.00734669
0.00751966
0.00731486
0.00759204
0.00736377
0.00776142
0.00746921
0.00797915
0.00767423
0.0080873
0.00796249
0.00807792
0.00818312
0.00808756
0.0081179
0.00825156
0.00820438
0.00754592
0.00820537
0.00794891
0.00834619
0.00834642
0.00841704
0.00844416
0.00844482
0.00844536
0.00844531
0.00844458
0.00844096
0.00843572
0.00842829
0.00841484
0.00837964
0.00832637
0.00830564
0.00831152
0.00833972
0.00837762
0.00840736
0.00842422
0.00843119
0.00843379
0.00843372
0.0084322
0.00842982
0.00843793
0.0084504
0.00845271
0.00842492
0.0083933
0.00825045
0.00729209
0.00719881
0.00714815
0.00697618
0.00708505
0.00711178
0.00715178
0.0071026
0.00717967
0.0071608
0.00733096
0.00718005
0.00764313
0.00725632
0.00795668
0.00764368
0.00797641
0.00814565
0.00801113
0.00803049
0.00821184
0.0081231
0.00750256
0.00817625
0.00797653
0.008364
0.00833809
0.00841432
0.00844444
0.0084453
0.00844542
0.00844505
0.0084449
0.00844174
0.00843681
0.00843042
0.00841919
0.0083925
0.00833874
0.00830692
0.00830662
0.00832732
0.00836555
0.00839852
0.0084198
0.00842905
0.00843278
0.00843355
0.0084335
0.00843121
0.00843495
0.0084464
0.00845003
0.00842413
0.00839008
0.00817246
0.00709222
0.00680862
0.00691519
0.0069951
0.00697057
0.00686922
0.00698801
0.00707679
0.00708595
0.00711336
0.0071044
0.00716802
0.00719957
0.00716637
0.00722245
0.0071761
0.00767976
0.00731359
0.00773705
0.0080597
0.00778979
0.0078576
0.00813667
0.00810806
0.00750787
0.00817276
0.00801057
0.00839272
0.00834292
0.008407
0.00844412
0.00844467
0.00844553
0.00844532
0.00844556
0.00844248
0.00843717
0.00843202
0.00842285
0.00840234
0.00835249
0.00831075
0.00830424
0.0083169
0.00835271
0.00838889
0.00841425
0.00842726
0.00843166
0.00843268
0.00843216
0.00843194
0.00843306
0.00844401
0.00844901
0.00842354
0.00838903
0.00818896
0.00771336
0.00692417
0.00661954
0.00686985
0.00697977
0.00699668
0.0069299
0.00702886
0.00695718
0.00708496
0.00684034
0.00714846
0.00708612
0.00723772
0.00709989
0.00716807
0.00724429
0.00748933
0.00727258
0.00754806
0.00794091
0.00761604
0.00771544
0.00810293
0.00801546
0.00744771
0.00800763
0.00805408
0.00843162
0.00838075
0.00840591
0.0084367
0.00844455
0.00844481
0.00844567
0.00844573
0.00844314
0.00843814
0.00843328
0.00842547
0.00840916
0.00836629
0.00831778
0.00830272
0.00830992
0.00834016
0.00837796
0.00840729
0.00842449
0.00843098
0.00843234
0.0084316
0.00843056
0.00843053
0.00843986
0.00844919
0.00842826
0.00839119
0.00821582
0.0079469
0.00682995
0.00660975
0.00692555
0.00685872
0.00687529
0.00683311
0.00689774
0.00684488
0.00678852
0.00691816
0.00704548
0.00700851
0.00704885
0.00707995
0.00717368
0.0071488
0.00718933
0.00711962
0.00743386
0.00726199
0.00747707
0.00783613
0.00753292
0.00761779
0.00803203
0.00794324
0.00747015
0.00803705
0.00811272
0.00843225
0.0084326
0.00841568
0.00843332
0.00844466
0.00844477
0.00844626
0.00844524
0.00844352
0.00843902
0.00843409
0.00842771
0.00841432
0.00837918
0.00832751
0.00830317
0.00830506
0.0083278
0.00836645
0.00839918
0.00842043
0.00842991
0.00843238
0.00843234
0.00843019
0.00842817
0.00843317
0.00844559
0.00843707
0.00840085
0.00824907
0.00799227
0.00677038
0.00659286
0.00664423
0.00659213
0.00677083
0.00670251
0.00679758
0.00675601
0.00686943
0.00682399
0.00697886
0.00695899
0.00707526
0.00709666
0.00713882
0.00716309
0.00718902
0.00718244
0.00720215
0.00724332
0.00733116
0.00728077
0.00737857
0.00772967
0.00742364
0.00748964
0.00798472
0.00785384
0.00729755
0.00804936
0.00819627
0.00842411
0.00843485
0.00843117
0.0084336
0.00844465
0.0084447
0.0084457
0.00844542
0.00844369
0.00843955
0.00843488
0.00842896
0.00841851
0.00839026
0.00833907
0.00830549
0.00830229
0.00831726
0.00835402
0.00838978
0.00841506
0.00842835
0.00843209
0.00843232
0.00843159
0.00842816
0.00842698
0.00843767
0.00844236
0.00841559
0.00829127
0.00816192
0.00674267
0.00645239
0.00654497
0.00650252
0.00654731
0.00648282
0.00668912
0.00661494
0.00678433
0.0067453
0.00694558
0.00693082
0.00713638
0.00718022
0.00719682
0.00730493
0.00717245
0.00726365
0.00716248
0.00715726
0.00730255
0.00723515
0.00731808
0.00733821
0.00734798
0.00757942
0.00737528
0.00742031
0.00794996
0.00768607
0.00688654
0.00795177
0.00820483
0.00841193
0.00841979
0.00843184
0.00843627
0.00844459
0.00844469
0.00844552
0.00844546
0.00844333
0.0084393
0.00843536
0.00843046
0.00842189
0.00839929
0.0083511
0.00831009
0.00830084
0.0083096
0.0083417
0.00837923
0.00840825
0.00842553
0.00843197
0.00843238
0.00843182
0.00842974
0.00842582
0.00842887
0.00843929
0.00842725
0.00834488
0.0081456
0.00773431
0.00647058
0.00633301
0.0064196
0.00636161
0.00652893
0.00645469
0.00667814
0.00660222
0.00691338
0.00663175
0.0072151
0.00723186
0.00743077
0.00753219
0.00739288
0.00761564
0.00718288
0.00750827
0.00707343
0.00734279
0.00735285
0.00739741
0.00736682
0.00744992
0.00738376
0.00747428
0.0073958
0.0074132
0.00785128
0.00754267
0.005995
0.00783744
0.0082863
0.00839775
0.00841301
0.00843554
0.00844395
0.00844466
0.00844539
0.00844488
0.00844272
0.00843927
0.00843532
0.00843156
0.00842411
0.00840619
0.00836263
0.00831735
0.00830042
0.0083045
0.00832985
0.00836806
0.00840025
0.00842147
0.00843153
0.00843292
0.00843199
0.00843052
0.00842722
0.008425
0.00843135
0.00843003
0.00836879
0.00822883
0.00794825
0.00633141
0.00629814
0.00631737
0.00627871
0.00638048
0.00631296
0.0066443
0.0065515
0.00651403
0.00667592
0.00722909
0.0071569
0.00759543
0.00761518
0.00773943
0.00783737
0.00766093
0.00785364
0.00748163
0.00781888
0.00737072
0.00772839
0.00750639
0.00770583
0.00747405
0.00760295
0.00748259
0.00743001
0.00747902
0.00733587
0.00780193
0.00748519
0.00720169
0.0079922
0.00826735
0.00838418
0.00842443
0.00844237
0.00844505
0.0084449
0.0084441
0.00844209
0.00843897
0.00843512
0.00843266
0.00842591
0.00841105
0.00837331
0.00832614
0.00830157
0.00830134
0.00831892
0.00835632
0.00839119
0.00841602
0.00842975
0.00843358
0.00843264
0.0084311
0.0084285
0.00842513
0.00842674
0.00842879
0.00838089
0.00825708
0.00808668
0.00628322
0.00617676
0.00612214
0.0060513
0.00625498
0.00619255
0.00645711
0.00636899
0.00691605
0.00679628
0.00705803
0.00699993
0.00760409
0.00756826
0.00789285
0.00789905
0.00793272
0.0080128
0.00789509
0.00794882
0.00785616
0.00790265
0.00780751
0.00783713
0.00773729
0.00782461
0.00762642
0.00757505
0.00746911
0.00720866
0.00735218
0.00529527
0.00536994
0.00785858
0.00729053
0.00691858
0.00809005
0.00823655
0.00840564
0.00843825
0.00844431
0.00844427
0.00844343
0.0084411
0.00843832
0.00843519
0.00843247
0.0084275
0.0084146
0.00838274
0.00833559
0.00830427
0.00829962
0.00831053
0.00834405
0.00838109
0.00840926
0.00842671
0.00843355
0.00843355
0.00843193
0.00842951
0.00842608
0.00842578
0.00843013
0.00838831
0.00827945
0.00811825
0.00753959
0.00599435
0.00591407
0.00608778
0.00599445
0.00628233
0.00618544
0.00667515
0.00655569
0.00733433
0.00718848
0.00750904
0.0074354
0.00788677
0.00787515
0.00806982
0.00808478
0.00799947
0.00806171
0.00792742
0.007955
0.00783465
0.00785551
0.00764596
0.00762315
0.0076422
0.00750438
0.00750801
0.00554127
0.00575095
0.00557666
0.00546683
0.00526389
0.00531262
0.00524123
0.00539435
0.00547788
0.00553298
0.00522985
0.00760077
0.0051735
0.00523965
0.00542196
0.00632035
0.00739207
0.00825973
0.00842956
0.00844195
0.00844377
0.00844285
0.00844036
0.00843776
0.00843482
0.00843225
0.00842886
0.00841733
0.00839055
0.00834501
0.00830898
0.00829911
0.00830475
0.00833238
0.0083697
0.00840136
0.0084221
0.0084325
0.008434
0.00843299
0.00843069
0.00842714
0.00842568
0.00843208
0.00839018
0.00830005
0.0081205
0.00790154
0.00593066
0.00589738
0.00591549
0.00584813
0.00616126
0.00603706
0.00642763
0.00629296
0.00703576
0.00687377
0.00774432
0.00760646
0.00786292
0.00783237
0.00808843
0.0080931
0.00810638
0.00811732
0.00801078
0.00796712
0.00787122
0.00791772
0.00760422
0.00762254
0.00563092
0.00544314
0.00543673
0.00544357
0.00550604
0.00545689
0.00543307
0.0053523
0.00540536
0.00560488
0.00555139
0.00553845
0.00537275
0.00541389
0.00518587
0.0051443
0.00532534
0.00538201
0.00540278
0.00530717
0.00515006
0.00602241
0.00562607
0.0051077
0.00507382
0.00615189
0.00562435
0.00620715
0.00651684
0.0083345
0.00843645
0.00844272
0.00844269
0.0084399
0.00843714
0.00843415
0.00843186
0.00842933
0.00841941
0.00839649
0.00835365
0.00831496
0.00829931
0.00830126
0.00832123
0.00835781
0.00839216
0.00841631
0.00843053
0.00843402
0.00843365
0.0084318
0.0084283
0.00842608
0.00843022
0.00838863
0.00830828
0.00811654
0.00790257
0.00740312
0.00575959
0.00572496
0.00592845
0.00583631
0.00635402
0.00619474
0.00669916
0.00652448
0.00745804
0.00731302
0.00798709
0.00791484
0.00809424
0.00806335
0.0081228
0.00813665
0.00781479
0.00812004
0.00783516
0.00761969
0.0075249
0.00755898
0.00547494
0.00555019
0.00559498
0.00552774
0.00524438
0.00526008
0.00529822
0.00529694
0.00523636
0.00520102
0.005197
0.00519459
0.00536827
0.00540121
0.00534639
0.00527085
0.00539175
0.00526425
0.00514517
0.0053837
0.00538921
0.00539132
0.0053601
0.00510786
0.00522758
0.00506696
0.00503928
0.00638709
0.00547833
0.00637719
0.00536464
0.00589353
0.00844581
0.00843982
0.00844268
0.00844034
0.00843682
0.00843362
0.00843158
0.00842921
0.00842071
0.00840077
0.00836085
0.00832148
0.00830054
0.00829896
0.00831185
0.00834523
0.00838118
0.00840885
0.00842693
0.0084335
0.00843374
0.00843223
0.00842922
0.00842645
0.00842887
0.00838607
0.00828994
0.00765373
0.00787298
0.00773275
0.00577278
0.0055344
0.00581314
0.00571771
0.00605159
0.00592433
0.00668638
0.00648548
0.00711381
0.00689953
0.00782409
0.00770196
0.00814894
0.00812603
0.00815534
0.00815973
0.00812966
0.00815193
0.00743564
0.00809344
0.00765575
0.00752018
0.00539475
0.00567981
0.0061456
0.00614049
0.00535987
0.00546958
0.00541174
0.00554205
0.00521535
0.00527461
0.00533582
0.00518713
0.00517395
0.00527203
0.00535663
0.00522519
0.00526752
0.00533097
0.00525243
0.00517734
0.0053334
0.00524943
0.00496438
0.00540493
0.00534102
0.00537239
0.00539218
0.00509046
0.0051247
0.00485198
0.00483579
0.00649325
0.00634622
0.00674038
0.00516059
0.00572996
0.00843249
0.00844153
0.00844107
0.00843725
0.00843364
0.00843158
0.00842927
0.00842167
0.00840397
0.00836683
0.00832812
0.00830369
0.00829862
0.00830532
0.00833338
0.00836878
0.00839947
0.00842115
0.00843184
0.00843304
0.0084321
0.0084295
0.00842651
0.00842779
0.00839038
0.0082842
0.00763727
0.00796721
0.00771788
0.00724561
0.0057432
0.00572255
0.00598071
0.00585109
0.00630104
0.00613197
0.00708856
0.00693388
0.00749916
0.00728265
0.0080636
0.0079509
0.00818966
0.00817799
0.00818182
0.00819429
0.00811144
0.00814408
0.0073276
0.00805963
0.00625863
0.00627988
0.00616578
0.00607678
0.00586887
0.00597512
0.00604743
0.0060855
0.00540565
0.00553838
0.00568477
0.00580272
0.00537826
0.00545005
0.00545456
0.00516495
0.00529048
0.00549677
0.00558623
0.00544771
0.00519863
0.00524252
0.00519143
0.00521336
0.00525723
0.00516261
0.00504967
0.00538951
0.00528136
0.00533026
0.00540732
0.00517197
0.00508899
0.00497992
0.00532561
0.00621062
0.00687244
0.00669985
0.00512939
0.00556227
0.00841737
0.00844078
0.00843746
0.00843363
0.00843121
0.00842875
0.00842281
0.00840629
0.00837196
0.00833446
0.00830847
0.00829979
0.00830262
0.00832364
0.0083576
0.00838954
0.00841417
0.00842886
0.00843255
0.00843244
0.00843015
0.00842698
0.00842765
0.00839737
0.0083029
0.00819816
0.00798654
0.00772511
0.00760932
0.00581177
0.00564007
0.00596538
0.00582311
0.00628798
0.00611724
0.00670233
0.00648397
0.00743172
0.00726544
0.00776035
0.00759197
0.00816051
0.00813944
0.00820924
0.00819376
0.00819119
0.0082187
0.00808464
0.00812355
0.00725195
0.00784713
0.00609988
0.00611187
0.00599144
0.0059449
0.00589132
0.00594328
0.0059627
0.00595761
0.00551658
0.0056518
0.00575827
0.00582909
0.00556428
0.00555726
0.00555245
0.0053444
0.00552465
0.00564768
0.00568791
0.00565389
0.00525487
0.00518636
0.00524086
0.00540399
0.00519538
0.00542839
0.00543327
0.00536118
0.0052247
0.00528556
0.00540532
0.005098
0.00511317
0.00541878
0.00537966
0.00604182
0.00716909
0.00664255
0.00511591
0.00541896
0.00840099
0.00843737
0.00843278
0.00842988
0.00842705
0.00842217
0.00840735
0.00837513
0.00833942
0.00831334
0.0083012
0.00830119
0.00831554
0.00834704
0.00838029
0.00840744
0.00842527
0.00843212
0.00843349
0.00843236
0.008429
0.00842909
0.00841248
0.0083173
0.00823587
0.00787055
0.00773459
0.00760903
0.00729934
0.00594829
0.0059006
0.00632493
0.00612486
0.00673088
0.00654151
0.00705604
0.00688275
0.00766829
0.0073546
0.00803876
0.00792344
0.00818511
0.00817724
0.00822249
0.00820437
0.00818302
0.00823117
0.00787651
0.00809896
0.0058123
0.00604506
0.00613569
0.0060947
0.00594884
0.00595092
0.00579047
0.00561634
0.00586239
0.00586459
0.00584677
0.00582374
0.00562802
0.00572902
0.00578691
0.00580378
0.00560601
0.00558042
0.00563023
0.00556765
0.00568015
0.00563263
0.00563247
0.00569348
0.00541377
0.00521596
0.00537343
0.00558763
0.00517417
0.00544789
0.00546567
0.00533051
0.00520086
0.00524555
0.00540066
0.00515134
0.00515281
0.00547178
0.00540746
0.00589963
0.00736205
0.00675155
0.00509622
0.0053438
0.00838284
0.00843249
0.00842792
0.00842456
0.00841957
0.00840586
0.00837536
0.00834142
0.0083162
0.00830212
0.00829889
0.00830717
0.00833412
0.0083682
0.00839914
0.00841994
0.00843013
0.00843374
0.00843418
0.00843156
0.00843073
0.00843586
0.00833645
0.00824535
0.00733013
0.00770841
0.00760588
0.00755911
0.00609711
0.00596359
0.00638716
0.00618714
0.00675627
0.00658327
0.00705085
0.00690256
0.00718587
0.00710545
0.00797532
0.00761131
0.00816313
0.00813807
0.00819547
0.00818808
0.00822765
0.00821459
0.00816349
0.00822918
0.0062085
0.00658437
0.00795726
0.00588168
0.00591095
0.00601297
0.00595928
0.00581649
0.00582048
0.00583001
0.00586125
0.0057937
0.00576933
0.00574047
0.00572182
0.00570503
0.00575889
0.00576795
0.00575062
0.0055865
0.00563876
0.00570698
0.00567821
0.00566624
0.00559397
0.0055884
0.00560338
0.00555212
0.00530336
0.00547196
0.00565538
0.00521505
0.00545456
0.00549582
0.00531378
0.00519137
0.00523434
0.00539683
0.0052921
0.00515821
0.00550544
0.00542934
0.00588615
0.00753875
0.00702586
0.00509495
0.00533852
0.00836236
0.00842759
0.00842215
0.00841633
0.00840247
0.00837296
0.00834046
0.00831636
0.00830193
0.00829545
0.00829894
0.00831903
0.00835098
0.00838551
0.00841066
0.008424
0.00843064
0.00843284
0.00843182
0.00843078
0.00843431
0.00836794
0.00823164
0.00723551
0.00786456
0.00758132
0.00751747
0.00745191
0.00650063
0.00636953
0.00680397
0.00667344
0.00708432
0.00693803
0.00712499
0.0070967
0.00723395
0.00709957
0.00815864
0.00797713
0.0081801
0.00817153
0.00820585
0.00819816
0.00822593
0.00821988
0.00796301
0.00821636
0.00603806
0.00645638
0.00631653
0.00645916
0.00580223
0.00582938
0.00593089
0.00587806
0.00572653
0.00573474
0.00574888
0.00578304
0.00572463
0.00569802
0.00567507
0.0056648
0.00573786
0.00575091
0.0057367
0.00571277
0.00563819
0.0057183
0.00574655
0.00563695
0.00555973
0.0056519
0.00565362
0.00556402
0.00557573
0.00536649
0.0054715
0.0055815
0.00524486
0.00546875
0.0055266
0.00531604
0.00519889
0.00525155
0.00540765
0.00531679
0.00515678
0.00552508
0.00546207
0.00611472
0.00729226
0.00738468
0.00512509
0.00546692
0.00834103
0.00842187
0.0084132
0.00839822
0.00836862
0.00833714
0.00831456
0.00829998
0.00829074
0.00828944
0.00830283
0.00833052
0.00836465
0.00839611
0.00841383
0.00842365
0.00842849
0.00842912
0.00842913
0.00843117
0.008374
0.00823957
0.00790606
0.00790665
0.00759165
0.00750505
0.00760348
0.00666798
0.00656477
0.00698923
0.00678675
0.00708558
0.00708114
0.00708891
0.00703794
0.0075925
0.00727363
0.00768148
0.00757194
0.00817707
0.00816135
0.00819316
0.00818702
0.00821384
0.00821057
0.00798429
0.0082164
0.00664306
0.00725702
0.00817475
0.00600041
0.0061203
0.00628325
0.00645462
0.00576221
0.00579129
0.00589738
0.00583901
0.00567736
0.00569
0.00570488
0.00573977
0.00569051
0.00567259
0.00565707
0.00565138
0.00574469
0.00574512
0.00573294
0.00571747
0.00572604
0.00577053
0.00577438
0.00553019
0.00553578
0.00574651
0.0057527
0.00564383
0.00548933
0.00534943
0.00538953
0.00547373
0.0052392
0.00549582
0.00555763
0.00534217
0.00521902
0.00529455
0.0054417
0.00533403
0.00516439
0.00555305
0.00550563
0.00646276
0.00758249
0.00769168
0.00523254
0.00570356
0.00831893
0.00841203
0.00839387
0.00836233
0.00833134
0.00830996
0.00829586
0.00828429
0.00827646
0.00828289
0.00830591
0.00833874
0.00837237
0.00839919
0.00841385
0.00842152
0.00842429
0.0084259
0.00842908
0.00839454
0.0082563
0.00814831
0.00793179
0.00761657
0.00750855
0.00752721
0.00769235
0.00711271
0.00695962
0.00721307
0.00717783
0.00757751
0.00734948
0.00752257
0.00753236
0.0080992
0.00772842
0.00814141
0.00812023
0.00819311
0.00817415
0.00821006
0.00820482
0.00821373
0.00821764
0.00709231
0.00748099
0.00806982
0.00666278
0.00736527
0.00707078
0.00698336
0.0059842
0.00611898
0.00645132
0.00659036
0.00575703
0.00578295
0.00595563
0.00585048
0.00566735
0.00567829
0.00569668
0.00573511
0.00570432
0.00568837
0.00560455
0.00560289
0.00576816
0.005778
0.00577852
0.00577441
0.00580009
0.00582542
0.00583082
0.00551224
0.00562715
0.00582685
0.00585195
0.00575807
0.00539961
0.0052884
0.00532974
0.00546649
0.00523892
0.00553893
0.00559765
0.00539672
0.00527499
0.00536779
0.00549215
0.00534961
0.00522558
0.0056064
0.00555295
0.00683732
0.00686123
0.00782815
0.00544766
0.00599775
0.00829225
0.00839103
0.00835549
0.00832215
0.00830195
0.008288
0.0082755
0.00826225
0.00826172
0.00827644
0.00830558
0.00834083
0.00837341
0.00839912
0.0084116
0.00841729
0.00841925
0.00842608
0.00841044
0.0082797
0.00816743
0.00733531
0.00762153
0.00750569
0.0074719
0.00770292
0.00717695
0.00715768
0.00735098
0.00722539
0.00763336
0.00761515
0.00803246
0.00777764
0.00803074
0.00806041
0.00812947
0.00811277
0.00815535
0.00814111
0.00820461
0.00818921
0.00822329
0.00821829
0.00788419
0.00820874
0.0072255
0.0076952
0.00675569
0.00675392
0.00675317
0.00694128
0.0071607
0.00707868
0.00611228
0.00629063
0.00671259
0.00683198
0.00577899
0.00584574
0.00612983
0.00594148
0.00568828
0.00569906
0.0057184
0.00575565
0.005767
0.0053806
0.00518378
0.00552539
0.0058406
0.00586878
0.00588299
0.00588629
0.00588346
0.00591807
0.00594584
0.00560573
0.00574842
0.00593112
0.00598158
0.00587038
0.00541411
0.00528871
0.0053877
0.00556146
0.00530997
0.00560609
0.00566392
0.00545903
0.00536153
0.00544629
0.00558966
0.00539295
0.00542599
0.0056883
0.00560831
0.00721343
0.00575475
0.00772131
0.00567994
0.00632636
0.00825353
0.00834918
0.00831156
0.0082888
0.00827663
0.00826134
0.00824659
0.0082403
0.00824657
0.00826715
0.00829933
0.00833677
0.00837189
0.00839614
0.00840741
0.00841046
0.00841878