/*--------------------------------*- C++ -*----------------------------------*\
  =========                 |
  \\      /  F ield         | OpenFOAM: The Open Source CFD Toolbox
   \\    /   O peration     | Website:  https://openfoam.org
    \\  /    A nd           | Version:  dev
     \\/     M anipulation  |
\*---------------------------------------------------------------------------*/
FoamFile
{
    version     2.0;
    format      ascii;
    class       volScalarField;
    location    "2500";
    object      rDeltaT;
}
// * * * * * * * * * * * * * * * * * * * * * * * * * * * * * * * * * * * * * //

dimensions      [0 0 -1 0 0 0 0];

internalField   nonuniform List<scalar> 
9836
(
100
100
100
100
100
100
100
100
100
100
100
100
100
100
100
100
100
100
100
100
100
100
100
100
100
100
100
100
100
100
100
100
100
100
100
100
100
100
100
100
100
100
100
100
100
100
100
100
100
100
100
100
100
100
100
100
100
100
100
100
100
100
100
100
100
100
100
100
100
100
100
100
100
100
100
100
100
100
100
100
100
100
100
100
100
100
100
100
100
100
100
100
100
100
100
100
100
100
100
100
100
100
100
100
100
100
100
100
100
100
100
100
100
100
100
100
100
100
100
100
100
100
100
100
100
100
100
100
100
100
100
100
100
100
100
100
100
100
100
100
100
100
100
100
100
100
100
100
100
100
100
100
100
100
100
100
100
100
100
100
100
100
100
100
100
100
100
100
100
100
100
100
100
100
100
100
100
100
100
100
100
100
100
100
100
100
100
100
100
100
100
100
100
100
100
100
100
100
100
100
100
100
100
100
100
100
100
100
100
100
100
100
100
100
100
100
100
100
100
100
100
100
100
100
100
100
100
100
100
100
100
100
100
100
100
100
100
100
100
100
100
100
100
100
100
100
100
100
100
100
100
100
100
100
100
100
100
100
100
100
100
100
100
100
100
100
100
100
100
100
100
100
100
100
100
100
100
100
100
100
100
100
100
100
100
100
100
100
100
100
100
100
100
100
100
100
100
100
100
100
100
100
100
100
100
100
100
100
100
100
100
100
100
100
100
100
100
100
100
100
100
100
100
100
100
100
100
100
100
100
100
100
100
100
100
100
100
100
100
100
100
100
100
100
100
100
100
100
100
100
100
100
100
100
100
100
100
100
100
100
100
100
100
100
100
100
100
100
100
100
100
100
100
100
100
100
100
100
100
100
100
100
100
100
100
100
100
100
100
100
100
100
100
100
100
100
100
100
100
100
100
100
100
100
100
100
100
100
100
100
100
100
100
100
100
100
100
100
100
100
100
100
100
100
100
100
100
100
100
100
100
100
100
100
100
100
100
100
100
100
100
100
100
100
100
100
100
100
100
100
100
100
100
100
100
100
100
100
100
100
100
100
100
100
100
100
100
100
100
100
100
100
100
100
100
100
100
100
100
100
100
100
100
100
100
100
100
100
100
100
100
100
100
100
100
100
100
100
100
100
100
100
100
100
100
100
100
100
100
100
100
100
100
100
100
100
100
100
100
100
100
100
100
100
100
100
100
100
100
100
100
100
100
100
100
100
100
100
100
100
100
100
100
100
100
100
100
100
100
100
100
100
100
100
100
100
100
100
100
100
100
100
100
100
100
100
100
100
100
100
100
100
100
100
100
100
100
100
100
100
100
100
100
100
100
100
100
100
100
100
100
100
100
100
100
100
100
100
100
100
100
100
100
100
100
100
100
100
100
100
100
100
100
100
100
100
100
100
100
100
100
100
100
100
100
100
100
100
100
100
100
100
100
100
100
100
100
100
100
100
100
100
100
100
100
100
100
100
100
100
100
100
100
100
100
100
100
100
100
100
100
100
100
100
100
100
100
100
100
100
100
100
100
100
100
100
100
100
100
100
100
100
100
100
100
100
100
100
100
100
100
100
100
100
100
100
100
100
100
100
100
100
100
100
100
100
100
100
100
100
100
100
100
100
100
100
100
100
100
100
100
100
100
100
100
100
100
100
100
100
100
100
100
100
100
100
100
100
100
100
100
100
100
100
100
100
100
100
100
100
100
100
100
100
100
100
100
100
100
100
100
100
100
100
100
100
100
100
100
100
100
100
100
100
100
100
100
100
100
100
100
100
100
100
100
100
100
100
100
100
100
100
100
100
100
100
100
100
100
100
100
100
100
100
100
100
100
100
100
100
100
100
100
100
100
100
100
100
100
100
100
100
100
100
100
100
100
100
100
100
100
100
100
100
100
100
100
100
100
100
100
100
100
100
100
100
100
100
100
100
100
100
100
100
100
100
100
100
100
100
100
100
100
100
100
100
100
100
100
100
100
100
100
100
100
100
100
100
100
100
100
100
100
100
100
100
100
100
100
100
100
100
100
100
100
100
100
100
100
100
100
100
100
100
100
100
100
100
100
100
100
100
100
100
100
100
100
100
100
100
100
100
100
100
100
100
100
100
100
100
100
100
100
100
100
100
100
100
100
100
100
100
100
100
100
100
100
100
100
100
100
100
100
100
100
100
100
100
100
100
100
100
100
100
100
100
100
100
100
100
100
100
100
100
100
100
100
100
100
100
100
100
100
100
100
100
100
100
100
100
100
100
100
100
100
100
100
100
100
100
100
100
100
100
100
100
100
100
100
100
100
100
100
100
100
100
100
100
100
100
100
100
100
100
100
100
100
100
100
100
100
100
100
100
100
100
100
100
100
100
100
100
100
100
100
100
100
100
100
100
100
100
100
100
100
100
100
100
100
100
100
100
100
100
100
100
100
100
100
100
100
100
100
100
100
100
100
100
100
100
100
100
100
100
100
100
100
100
100
100
100
100
100
100
100
100
100
100
100
100
100
100
100
100
100
100
100
100
100
100
100
100
100
100
100
100
100
100
100
100
100
100
100
100
100
100
100
100
100
100
100
100
100
100
100
100
100
100
100
100
100
100
100
100
100
100
100
100
100
100
100
100
100
100
100
100
100
100
100
100
100
100
100
100
100
100
100
100
100
100
100
100
100
100
100
100
100
100
100
100
100
100
100
100
100
100
100
100
100
100
100
100
100
100
100
100
100
100
100
100
100
100
100
100
100
100
100
100
100
100
100
100
100
100
100
100
100
100
100
100
100
100
100
100
100
100
100
100
100
100
100
100
100
100
100
100
100
100
100
100
100
100
100
100
100
100
100
100
100
100
100
100
100
100
100
100
100
100
100
100
100
100
100
100
100
100
100
100
100
100
100
100
100
100
100
100
100
100
100
100
100
100
100
100
100
100
100
100
100
100
100
100
100
100
100
100
100
100
100
100
100
100
100
100
100
100
100
100
100
100
100
100
100
100
100
100
100
100
100
100
100
100
100
100
100
100
100
100
100
100
100
100
100
100
100
100
100
100
100
100
100
100
100
100
100
100
100
100
100
100
100
100
100
100
100
100
100
100
100
100
100
100
100
100
100
100
100
100
100
100
100
100
100
100
100
100
100
100
100
100
100
100
100
100
100
100
100
100
100
100
100
100
100
100
100
100
100
100
100
100
100
100
100
100
100
100
100
100
100
100
100
100
100
100
100
100
100
100
100
100
100
100
100
100
100
100
100
100
100
100
100
100
100
100
100
100
100
100
100
100
100
100
100
100
100
100
100
100
100
100
100
100
100
100
100
100
100
100
100
100
100
100
100
100
100
100
100
100
100
100
100
100
100
100
100
100
100
100
100
100
100
100
100
100
100
100
100
100
100
100
100
100
100
100
100
100
100
100
100
100
100
100
100
100
100
100
100
100
100
100
100
100
100
100
100
100
100
100
100
100
100
100
100
100
100
100
100
100
100
100
100
100
100
100
100
100
100
100
100
100
100
100
100
100
100
100
100
100
100
100
100
100
100
100
100
100
100
100
100
100
100
100
100
100
100
100
100
100
100
100
100
100
100
100
100
100
100
100
100
100
100
100
100
100
100
100
100
100
100
100
100
100
100
100
100
100
100
100
100
100
100
100
100
100
100
100
100
100
100
100
100
100
100
100
100
100
100
100
100
100
100
100
100
100
100
100
100
100
100
100
100
100
100
100
100
100
100
100
100
100
100
100
100
100
100
100
100
100
100
100
100
100
100
100
100
100
100
100
100
100
100
100
100
100
100
100
100
100
100
100
100
100
100
100
100
100
100
100
100
100
100
100
100
100
100
100
100
100
100
100
100
100
100
100
100
100
100
100
100
100
100
100
100
100
100
100
100
100
100
100
100
100
100
100
100
100
100
100
100
100
100
100
100
100
100
100
100
100
100
100
100
100
100
100
100
100
100
100
100
100
100
100
100
100
100
100
100
100
100
100
100
100
100
100
100
100
100
100
100
100
100
100
100
100
100
100
100
100
100
100
100
100
100
100
100
100
100
100
100
100
100
100
100
100
100
100
100
100
100
100
100
100
100
100
100
100
100
100
100
100
100
100
100
100
100
100
100
100
100
100
100
100
100
100
100
100
100
100
100
100
100
100
100
100
100
100
100
100
100
100
100
100
100
100
100
100
100
100
100
100
100
100
100
100
100
100
100
100
100
100
100
100
100
100
100
100
100
100
100
100
100
100
100
100
100
100
100
100
100
100
100
100
100
100
100
100
100
100
100
100
100
100
100
100
100
100
100
100
100
100
100
100
100
100
100
100
100
100
100
100
100
100
100
100
100
100
100
100
100
100
100
100
100
100
100
100
100
100
100
100
100
100
100
100
100
100
100
100
100
100
100
100
100
100
100
100
100
100
100
100
100
100
100
100
100
100
100
100
100
100
100
100
100
100
100
100
100
100
100
100
100
100
100
100
100
100
100
100
100
100
100
100
100
100
100
100
100
100
100
100
100
100
100
100
100
100
100
100
100
100
100
100
100
100
100
100
100
100
100
100
100
100
100
100
100
100
100
100
100
100
100
100
100
100
100
100
100
100
100
100
100
100
100
100
100
100
100
100
100
100
100
100
100
100
100
100
100
100
100
100
100
100
100
100
100
100
100
100
100
100
100
100
100
100
100
100
100
100
100
100
100
100
100
100
100
100
100
100
100
100
100
100
100
100
100
100
100
100
100
100
100
100
100
100
100
100
100
100
100
100
100
100
100
100
100
100
100
100
100
100
100
100
100
100
100
100
100
100
100
100
100
100
100
100
100
100
100
100
100
100
100
100
100
100
100
100
100
100
100
100
100
100
100
100
100
100
100
100
100
100
100
100
100
100
100
100
100
100
100
100
100
100
100
100
100
100
100
100
100
100
100
100
100
100
100
100
100
100
100
100
100
100
100
100
100
100
100
100
100
100
100
100
100
100
100
100
100
100
100
100
100
100
100
100
100
100
100
100
100
100
100
100
100
100
100
100
100
100
100
100
100
100
100
100
100
100
100
100
100
100
100
100
100
100
100
100
100
100
100
100
100
100
100
100
100
100
100
100
100
100
100
100
100
100
100
100
100
100
100
100
100
100
100
100
100
100
100
100
100
100
100
100
100
100
100
100
100
100
100
100
100
100
100
100
100
100
100
100
100
100
100
100
100
100
100
100
100
100
100
100
100
100
100
100
100
100
100
100
100
100
100
100
100
100
100
100
100
100
100
100
100
100
100
100
100
100
100
100
100
100
100
100
100
100
100
100
100
100
100
100
100
100
100
100
100
100
100
100
100
100
100
100
100
100
100
100
100
100
100
100
100
100
100
100
100
100
100
100
100
100
100
100
100
100
100
100
100
100
100
100
100
100
100
100
100
100
100
100
100
100
100
100
100
100
100
100
100
100
100
100
100
100
100
100
100
100
100
100
100
100
100
100
100
100
100
100
100
100
100
100
100
100
100
100
100
100
100
100
100
100
100
100
100
100
100
100
100
100
100
100
100
100
100
100
100
100
100
100
100
100
100
100
100
100
100
100
100
100
100
100
100
100
100
100
100
100
100
100
100
100
100
100
100
100
100
100
100
100
100
100
100
100
100
100
100
100
100
100
100
100
100
100
100
100
100
100
100
100
100
100
100
100
100
100
100
100
100
100
100
100
100
100
100
100
100
100
100
100
100
100
100
100
100
100
100
100
100
100
100
100
100
100
100
100
100
100
100
100
100
100
100
100
100
100
100
100
100
100
100
100
100
100
100
100
100
100
100
100
100
100
100
100
100
100
100
100
100
100
100
100
100
100
100
100
100
100
100
100
100
100
100
100
100
100
100
100
100
100
100
100
100
100
100
100
100
100
100
100
100
100
100
100
100
100
100
100
100
100
100
100
100
100
100
100
100
100
100
100
100
100
100
100
100
100
100
100
100
100
100
100
100
100
100
100
100
100
100
100
100
100
100
100
100
100
100
100
100
100
100
100
100
100
100
100
100
100
100
100
100
100
100
100
100
100
100
100
100
100
100
100
100
100
100
100
100
100
100
100
100
100
100
100
100
100
100
100
100
100
100
100
100
100
100
100
100
100
100
100
100
100
100
100
100
100
100
100
100
100
100
100
100
100
100
100
100
100
100
100
100
100
100
100
100
100
100
100
100
100
100
100
100
100
100
100
100
100
100
100
100
100
100
100
100
100
100
100
100
100
100
100
100
100
100
100
100
100
100
100
100
100
102.147
104.248
100
107.776
106.23
105.054
100
108.742
110.237
100.3
100
100
100
100.086
101.086
100
100
100
100
100
100
100
100
100
100
100
100
100
100
100
100
100
100
100
100
100
100
100
100
100
100
100
100
100
100
100
100
100
100
100
100
100
100
100
100
100
100
100
100
100
100
100
100
100
100
100
100
100
100
100
100
100
100
100
100
100
100
100
100
100
100
100
100
100
100
100
100
100
100
100
100
100
100
104.724
109.072
112.075
112.885
100
100
105.315
112.261
100
100
100
113.996
117.282
109.989
124.66
120.774
115.84
110.26
119.721
121.616
112.048
100
100
101.189
115.949
118.238
100.266
100
100
100
100
100
100
100
100
100
100
100
100
100
100
100
100
100
100
100
100
100
100
100
100
100
100
100
100
100
100
100
100
100
100
100
100
100
100
100
100
100
100
100
100
100
100
100
100
100
100
100
100
100
100
100
100
100
100
100
100
100
100
100
100
100
100
100
100
100
100
100
100
100
100
111.822
107.371
101.087
100
118.555
124.042
128.235
130.071
101.701
109.409
117.993
126.134
112.918
116.918
118.801
126.356
130.922
129.327
142.817
136.198
128.08
123.739
136.125
136.429
131.354
100
100
119.348
136.741
139.418
114.8
100
100
100
100
100
100
100
100
100
100
100
100
100
100
100
100
100
100
100
100
100
100
100
100
100
100
100
100
100
100
100
100
100
100
100
100
100
100
100
100
100
100
100
100
100
100
100
100
100
100
100
100
100
100
100
100
100
100
100
100
100
100
100
100
100
100
100
100
100
100.964
100
101.272
100
100
100
129.473
125.106
117.12
108.872
133.726
140.565
146.177
149.522
119.283
123.21
132.472
141.776
134.996
141.202
144.247
145.534
155.402
150.671
179.091
166.782
149.612
148.477
167.708
166.268
156.534
105.712
100
135.714
160.888
157.97
127.632
100
100
100
100
100
100
100
100
100
100
100
100
100
100
100
100
100
100
100
100
100
100
100
100
100
100
100
100
100
100
100
100
100
100
100
100
100
100
100
100
100
100
100
100
100
100
100
100
100
100
100
100
100
100
100
100
100
100
100
100
101.871
100
100.336
100
100
100
103.703
104.965
100
100.303
109.768
108.456
115.921
109.752
107.235
107.659
150.08
146.629
137.529
126.743
150.488
158.749
166.156
171.664
144.684
144.202
149.515
159.691
160.384
170.847
175.4
184.322
197.381
192.084
216.571
207.967
188.314
178.808
202.027
210.601
184.424
120.28
110.323
153.287
183.633
182.212
147.973
100
100
100
100
100
100
100
100
100
100
100
100
100
100
100
100
100
100
100
100
100
100
100
100
100
100
100
100
100
100
100
100
100
100
100
100
100
100
100
100
100
100
100
100
100
100
100
100
100
100
100
100
100
100
100
100
100
100
100
100
100
108.621
104.552
107.101
100.766
108.419
107.094
111.548
113.362
108.521
109.917
118.742
118.067
136.116
124.769
117.71
119.446
174.11
172.006
163.045
150.337
168.958
178.358
187.918
196.438
173.289
171.549
172.399
179.9
203.167
214.728
210.803
230.073
226.148
221.118
249.995
240.068
224.602
210.218
234.912
241.722
210.906
136.888
123.897
178.039
211.575
212.849
164.714
100
100
109.157
100
100
100
100
100
100
100
100
100
100
100
100
100
100
100
100
100
100
100
100
100
100
100
100
100
100
100
100
100
100
100
100
100
100
100
100
100
100
100
100
100
100
100
100
100
100
100
100
100
100
100
100
100
100
100
100
100
100
100
100
116.6
112.135
114.492
107.318
117.811
115.327
120.147
123.075
118.764
119.576
128.836
128.824
163.54
146.851
130.637
135.341
201.457
200.833
193.851
180.086
189.381
198.477
210.202
222.867
208.054
201.212
201.996
203.749
236.57
251.234
251.979
244.815
265.898
263.3
160.393
291.186
245.644
237.254
242.186
260.116
233.465
151.216
137.894
194.439
225.623
213.359
181.059
100
100
126.173
110.323
100
136.857
123.066
100
100
100
100
100
100
100
100
100
100
100
100
100
100
100
100
100
100
100
100
100
100
100
100
100
100
100
100
100
100
100
100
100
100
100
100
100
100
100
100
100
100
100
100
100
100
100
100
100
100
100
100
100
100
100
100
100
125.885
120.609
122.91
115.025
127.794
124.884
129.7
133.415
130.195
129.666
140.252
139.719
199.801
180.631
149.665
161.227
232.989
233.079
228.371
215.107
212.118
219.2
230.578
244.09
256.601
240.714
245.235
242.818
294.602
161.828
292.399
155.912
313.654
309.146
188.404
342.114
290.316
247.548
154.035
163.565
243.027
170.4
159.173
211.778
289.036
233.862
268.074
205.202
101.278
100
140.718
127.671
117.109
421.392
148.051
100
112.661
100
100
100
100
100
100
100
100
100
100
100
100
100
100
100
100
100
100
100
100
100
100
100
100
100
100
100
100
100
100
100
100
100
100
100
100
100
100
100
100
100
100
100
100
100
100
100
100
100
100
106.668
100
100
100
136.147
129.848
133.242
124.675
137.775
135.573
140.615
144.934
144.447
141.123
154.572
152.227
242.993
226.707
180.944
202.152
258.16
262.034
260.876
251.024
249.826
253.366
262.432
270.144
292.517
277.941
279.223
276.305
341.553
189.175
338.092
184.702
369.981
359.186
217.604
396.813
342.906
159.491
181.99
194.373
159.051
196.482
175.207
223.15
341.837
156.478
323.244
211.101
116.629
113.399
160.494
143.706
115.413
178.001
100
115.556
116.757
100
100
100
100
100
100
100
100
100
100
100
100
100
100
100
100
100
100
100
100
100
100
100
100
100
100
100
100
100
100
100
100
100
100
100
100
100
100
100
100
100
100
100
100
100
100
100
100
100
100
115.194
104.592
100
100.623
147.856
140.756
145.565
135.704
149.522
148.156
153.551
158.35
166.417
157.931
174.663
169.008
272.946
276.323
227.032
254.488
293.422
307.941
295.379
278.213
280.992
284.459
292.819
301.953
335.466
320.844
320.227
316.972
390.25
216.582
383.751
216.233
420.61
407.84
243.155
446.273
402.014
188.901
214.414
229.072
191.312
202.564
194.5
147.804
399.472
187.978
387.193
144.01
134.687
127.403
177.57
163.942
103.267
100
100
122.679
111.762
100
100
100
100
100
100
100
100
100
100
100
100
100
100
100
100
100
100
100
100
100
100
100
100
100
100
100
100
100
100
100
100
100
100
100
100
100
100
100
100
100
100
100
100
100
100
100
100
100
100
100
100
124.654
113.104
100
108.639
161.363
153.71
159.728
147.757
163.808
162.268
168.227
174.313
200.739
184.809
206.866
195.089
293.534
316.687
276.494
292.141
321.415
176.154
311.909
298.048
318.681
323.033
330.781
341.093
378.655
362.929
362.016
357.744
436.856
241.256
243.569
453.661
222.231
243.775
259.417
225.894
217.722
258.264
206.072
178.846
455.448
223.331
446.476
174.029
149.363
136.366
197.768
181.714
100
100
100
122.716
100.159
100
100
100
100
100
100
100
100
100
100
100
100
100
100
100
100
100
100
100
100
100
100
100
100
100
100
100
100
100
100
100
100
100
100
100
100
100
100
100
100
100
100
100
100
100
100
100
100
100
100
100
100
135.157
122.476
101.618
117.255
178.144
169.404
175.673
161.414
183.626
179.382
186.125
193.819
248.611
227.115
249.912
233.006
186.741
324.454
316.283
314.318
355.805
195.411
346.324
332.746
357.29
361.68
368.899
379.352
251.887
257.632
146.095
315.462
226.764
256.456
215.144
257.307
208.501
160.765
139.77
212.387
195.159
100
100
100
119.603
100
100
100
100
100
100
100
100
100
100
100
100
100
100
100
100
100
100
100
100
100
100
100
100
100
100
100
100
100
100
100
100
100
100
100
100
100
100
100
100
100
100
100
100
100
100
100
100
100
100
100
100
100
100
100
100
146.836
132.242
109.683
126.482
199.402
188.151
194.216
177.199
213.256
201.933
209.067
219.441
286.153
273.852
282.694
279.379
203.265
368.388
186.884
350.82
388.428
218.609
390.264
375.896
176.079
381.827
152.46
312.128
249.247
241.515
166.277
140.221
227.562
264.298
192.832
100
108.425
121.163
116.361
100
100
100
100
100
100
100
100
100
100
100
100
100
100
100
100
100
100
100
100
100
100
100
100
100
100
100
100
100
100
100
100
100
100
100
100
100
100
100
100
100
100
100
100
100
100
100
100
100
100
100
100
100
102.02
100
100
159.594
142.476
118.683
137.044
224.862
209.991
217.008
196.405
252.175
232.252
237.182
250.422
315.302
306.218
317.684
296.755
226.111
405.08
205.937
398.017
239.209
430.286
410.797
212.294
443.823
180.793
378.382
166.812
140.595
153.202
317.255
192.74
247.241
100
111.713
150.452
117.615
101.632
100
100
100
100
100
100
100
100
100
100
100
100
100
100
100
100
100
100
100
100
100
100
100
100
100
100
100
100
100
100
100
100
100
100
100
100
100
100
100
100
100
100
100
100
100
100
100
100
100
100
100
100
100
100
109.586
100
100
175.009
154.469
127.044
147.15
252.649
235.383
243.567
218.622
291.967
268.079
267.929
283.179
352.915
181.995
183.915
355.158
247.139
230.989
440.021
246.277
215.693
439.833
166.991
144.091
179.872
381.431
195.782
235.731
292.014
120.519
111.807
172.5
120.533
111.791
100
100
100
100
100
100
100
100
100
100
100
100
100
100
100
100
100
100
100
100
100
100
100
100
100
100
100
100
100
100
100
100
100
100
100
100
100
100
100
100
100
100
100
100
100
100
100
100
100
100
100
100
100
100
100
100
118.609
106.928
105.137
192.25
167.062
136.438
156.996
281.23
264.055
273.343
244.947
304.19
300.038
296.793
310.835
398.65
203.834
185.215
205.288
398.572
253.694
247.828
174.847
150.742
212.372
439.413
213.613
242.985
282.267
345.756
142.323
107.908
189.859
125.289
127.252
100
100
100
100
100
100
100
100
100
100
100
100
100
100
100
100
100
100
100
100
100
100
100
100
100
100
100
100
100
100
100
100
100
100
100
100
100
100
100
100
100
100
100
100
100
100
100
100
100
100
100
100
105.143
104.316
102.494
101.293
126.996
114.982
113.048
212.5
180.449
146.395
167.114
308.671
293.377
303.509
272.607
312.57
320.773
323.049
441.823
229.75
207.415
196.789
226.878
443.092
187.02
157.341
241.508
237.795
253.321
289.362
339.338
393.629
165.236
100.76
200.618
132.473
143.921
100
100
100
100
100
100
100
100
100
100
100
100
100
100
100
100
100
100
100
100
100
100
100
100
100
100
100
100
100
100
100
100
100
100
100
100
100
100
100
100
100
100
100
100
100
100
100
100
100
100
100
100
100
100
111.887
109.593
107.855
103.779
134.178
122.714
120.414
233.6
193.996
155.479
178.04
332.358
319.826
329.386
300.154
332.336
204.168
253.699
230.455
215.464
249.438
191.968
156.376
153.099
303.635
345.706
391.063
188.088
100
204.755
143.14
161.128
100
100
100
100
100
100
100
100
100
100
100
100
100
100
100
100
100
100
100
100
100
100
100
100
100
100
100
100
100
100
100
100
100
100
100
100
100
100
100
100
100
100
100
100
100
100
100
100
100
100
100
100
100
117.36
115.027
110.868
105.071
141.602
130.463
126.66
258.262
211.5
163.732
187.068
339.064
341.795
353.989
328.927
209.482
221.554
252.596
232.297
191.557
243.893
156.769
179.226
362.694
396.402
207.159
100
204.402
156.458
178.242
100
100
100
100
100
100
100
100
100
100
100
100
100
100
100
100
100
100
100
100
100
100
100
100
100
100
100
100
100
100
100
100
100
100
100
100
100
100
100
100
100
100
100
100
100
100
100
100
100
100
100
100
100
100
100
122.551
118.937
111.992
105.365
148.644
137.278
131.434
285.562
229.913
171.514
195.96
212.062
357.199
370.1
355.243
225.675
237.133
251.725
186.484
249.489
288.445
168.698
210.532
417.02
222.126
100
201.782
169.845
193.16
100
100
100
100
100
100
100
100
100
100
100
100
100
100
100
100
100
100
100
100
100
100
100
100
100
100
100
100
100
100
100
100
100
100
100
100
100
100
100
100
100
100
100
100
100
100
100
100
100
105.037
100
100
100
100
100
100
127.43
120.086
112.131
153.85
141.964
136.625
312.669
249.084
177.257
204.583
226.505
404.175
377.654
375.037
370.076
238.923
254.765
196.756
243.311
290.951
341.717
180.482
238.621
229.643
100
196.455
180.476
203.453
100
100
100
100
100
100
100
100
100
100
100
100
100
100
100
100
100
100
100
100
100
100
100
100
100
100
100
100
100
100
100
100
100
100
100
100
100
100
100
100
100
100
100
100
100
100
100
100
100
103.812
111.569
100
100
100
100
100
100
100
100
129.065
119.917
158.71
147.077
138.874
336.317
269.436
180.805
212.214
237.377
433.014
230.008
225.935
363.264
253.892
207.662
244.581
284.209
342.113
390.515
190.09
229.776
100
181.768
186.528
207.336
100
100
100
100
100
100
100
100
100
100
100
100
100
100
100
100
100
100
100
100
100
100
100
100
100
100
100
100
100
100
100
100
100
100
100
100
100
100
100
100
100
100
100
100
100.317
100
100
100
110.176
118.991
100
100
100
100
100
100
100
100
100
100
128.798
163.212
150.146
138.939
348.459
286.475
185.192
221.089
249.411
452.37
245.297
379.386
239.096
384.202
214.37
250.454
284.937
335.143
388.719
193.971
211.552
142.972
182.824
187.731
200.707
100
100
100
100
100
100
100
100
100
100
100
100
100
100
100
100
100
100
100
100
100
100
100
100
100
100
100
100
100
100
100
100
100
100
100
100
100
100
100
100
100
100
100
100
100
106.223
100
100
100
117.328
127.621
100
100
100
100
100
100
100
100
100
100
100
100
164.676
150.478
137.933
352.51
299.229
188.09
231.947
470.205
256.367
410.193
415.132
247.53
399.975
215.88
255.362
292.674
335.626
380.226
190.122
196.141
339.738
225.053
181.075
182.246
100
100
100
100
100
100
100
100
100
100
100
100
100
100
100
100
100
100
100
100
100
100
100
100
100
100
100
100
100
100
100
100
100
100
100
100
100
100
100
100
100
100
100
100
100
113.236
102.22
100
100
125.76
100
100
100
100
100
100
100
100
100
100
100
100
100
165.032
149.797
135.751
356.748
314.141
190.813
241.652
265.767
433.161
440.203
227.926
252.131
258.057
205.934
159.051
297.679
344.69
380.421
182.131
193.531
808.19
297.442
170.468
163.306
100
100
100
100
100
100
100
100
100
100
100
100
100
100
100
100
100
100
100
100
100
100
100
100
100
100
100
100
100
100
100
100
100
100
100
100
100
100
100
100
100
100
100
100
100
121.95
109.214
100
100
100
100
100
100
100
100
100
100
100
100
100
100
100
100
100
164.995
147.931
132.628
354.697
323.425
194.951
252.353
444.058
458.412
241.32
368.212
237.671
194.349
186.492
283.496
348.382
389.983
174.966
155.947
169.343
100
160.223
136.634
100
100
100
100
100
100
100
100
100
100
100
100
100
100
100
100
100
100
100
100
100
100
100
100
100
100
100
100
100
100
100
100
100
100
100
100
100
100
100
100
100
100
100
100
100
118.262
106.057
100
100
100
100
100
100
100
100
100
100
100
100
100
100
100
100
100
100
166.059
146.298
129.809
368.546
330.514
200.619
264.096
468.835
249.834
392.399
388.789
217.986
187.657
216.532
331.119
257.202
393.034
169.184
100
100
100
143.414
107.044
100
100
100
100
100
100
100
100
100
100
100
100
100
100
100
100
100
100
100
100
100
100
100
100
100
100
100
100
100
100
100
100
100
100
100
100
100
100
100
100
100
100
100
100
100
115.502
103.39
100
100
100
100
100
100
100
100
100
100
100
100
100
100
100
100
100
100
100
166.62
144.964
127.933
392.317
333.639
203.278
263.512
253.949
416.723
415.982
226.697
210.68
184.727
241.559
382.625
302.744
256.085
162.332
100
100
100
127.046
100
100
100
100
100
100
100
100
100
100
100
100
100
100
100
100
100
100
100
100
100
100
100
100
100
100
100
100
100
100
100
100
100
100
100
100
100
100
100
100
100
100
100
100
100
100
113.034
100
100
100
100
100
100
100
100
100
100
100
100
100
100
100
100
100.997
100.436
104.064
109.207
167.23
144.411
125.645
315.468
203.25
256.717
431.087
440.864
237.542
333.127
206.143
179.823
425.541
355.544
299.391
247.372
153.738
100
100
100
130.341
100
100
100
100
100
100
100
100
100
100
100
100
100
100
100
100
100
100
100
100
100
100
100
100
100
100
100
100
100
100
100
100
100
100
100
100
100
100
100
100
100
100
100
100
100
100
100
100
100
100
100
100
100
100
100
100
100
100
100
100
102.784
104.332
107.291
109.866
109.706
114.153
122.567
166.101
142.634
305.546
200.828
249.673
456.64
245.582
354.638
328.889
209.841
173.274
400.792
349.643
292.197
156.115
152.141
100
100
100
124.658
100
100
100
100
100
100
100
100
100
100
100
100
100
100
100
100
100
100
100
100
100
100
100
100
100
100
100
100
100
100
100
100
100
100
100
100
100
100
100
100
100
100
100
100
100
100
100
100
100
100
100
100
100
100
100
100
100
100
100
100
103.781
103.153
111.967
113.687
118.249
121.669
121.379
126.994
140.318
164.295
293.545
198.443
242.908
250.144
378.359
350.248
315.543
233.586
203.915
167.675
393.464
345.358
182.044
268.699
158.806
100
100
100
108.428
100
100
100
100
100
100
100
100
100
100
100
100
100
100
100
100
100
100
100
100
100
100
100
100
100
100
100
100
100
100
100
100
100
100
100
100
100
100
100
100
100
100
100
100
100
102.423
101.549
100
100
100
102.294
100
100.946
101.755
101.787
102.019
100.536
102.002
100
103.059
103.291
112.927
111.716
124.435
126.644
132.144
136.607
138.116
143.109
162.468
281.715
196.12
238.557
397.286
373.3
336.568
306.116
225.956
192.09
168.864
391.521
212.399
319.792
153.713
152.27
100
100
100
100
100
100
100
100
100
100
100
100
100
100
100
100
100
100
100
100
100
100
100
100
100
100
100
100
100
100
100
100
100
100
100
100
100
100
100
100
100
100
100
100
100
100
100
100
100
100
107.636
103.656
100
102.527
102.27
100
102.378
102.425
100
103.335
104.555
103.755
104.548
103.007
106.38
110.773
109.84
126.178
124.591
140.311
143.354
149.309
154.909
164.306
274.614
194.99
235.355
391.454
359.992
327.758
298.695
218.667
185.877
170.792
239.56
380.753
181.887
237.84
268.647
138.698
100
100
100
100
100
100
100
100
100
100
100
100
100
100
100
100
100
100
100
100
100
100
100
100
100
100
100
100
100
100
100
100
100
100
100
100
100
100
100
100
100
100
100
100
100
100
100
100
100
100
100
116.652
105.661
102.792
100
102.802
105.066
104.833
100
105.366
105.396
105.886
107.275
105.44
107.963
106.752
113.867
122.743
120.39
144.159
142.606
159.789
164.104
171.345
177.84
269.374
200.884
237.654
379.801
350.684
320.178
293.609
212.587
184.014
169.315
435.89
214.952
321.194
232.139
157.233
117.353
100
100
100
100
100
100
100
100
100
100
100
100
100
100
100
100
100
100
100
100
100
100
100
100
100
100
100
100
100
100
100
100
100
100
100
100
100
100
100
100
100
100
100
100
100
100
100
100
100
100
100
100
100
131.293
108.152
104.501
100
100
104.283
107.738
107.924
108.236
108.067
109.091
110.193
107.978
112.348
112.592
126.239
140.033
136.276
166.786
166.05
183.94
189.698
207.439
269.669
243.049
370.49
343.736
316.237
294.665
204.312
182.754
157.302
245.825
382.429
184.407
229.787
250.115
277.902
100
100
100
100
100
100
100
100
100
100
100
100
100
100
100
100
100
100
100
100
100
100
100
100
100
100
100
100
100
100
100
100
100
100
100
100
100
100
100
100
100
100
100
100
100
100
100
100
100
100
100
100
100
100
100
152.863
111.254
106.038
100
105.055
104.879
105.673
110.472
110.977
110.777
110.66
112.684
113.37
111.617
119.335
122.3
145.718
163.487
158.778
194.349
195.537
214.453
221.954
273.541
249.459
364.646
340.645
316.464
296.364
197.046
182.115
139.847
439.237
216.946
328.554
221.485
239.47
152.278
100
100
100
100
100
100
100
100
100
100
100
100
100
100
100
100
100
100
100
100
100
100
100
100
100
100
100
100
100
100
100
100
100
100
100
100
100
100
100
100
100
100
100
100
100
100
100
100
100
100
100
100
100
100
100
100
100