/*--------------------------------*- C++ -*----------------------------------*\
  =========                 |
  \\      /  F ield         | OpenFOAM: The Open Source CFD Toolbox
   \\    /   O peration     | Website:  https://openfoam.org
    \\  /    A nd           | Version:  dev
     \\/     M anipulation  |
\*---------------------------------------------------------------------------*/
FoamFile
{
    version     2.0;
    format      ascii;
    class       volScalarField;
    location    "2500";
    object      rho;
}
// * * * * * * * * * * * * * * * * * * * * * * * * * * * * * * * * * * * * * //

dimensions      [1 -3 0 0 0 0 0];

internalField   nonuniform List<scalar> 
9836
(
1.17174
1.17157
1.17166
1.17159
1.1713
1.17173
1.17164
1.1711
1.17126
1.17179
1.17168
1.171
1.17089
1.17135
1.1718
1.17166
1.17105
1.17072
1.17092
1.17147
1.17184
1.17169
1.17119
1.17066
1.17063
1.17104
1.17154
1.17187
1.1717
1.17127
1.17063
1.17042
1.17069
1.17123
1.1716
1.17188
1.17173
1.17126
1.17068
1.17033
1.1704
1.17085
1.17131
1.17163
1.17189
1.17178
1.1713
1.17073
1.17027
1.1702
1.17051
1.17097
1.17137
1.17167
1.17191
1.17176
1.1713
1.17078
1.17031
1.17006
1.17019
1.17064
1.17107
1.17143
1.17171
1.17192
1.1718
1.17138
1.17085
1.17032
1.16997
1.16999
1.17031
1.17079
1.17119
1.17149
1.17172
1.17192
1.17179
1.1714
1.17098
1.17039
1.16999
1.16985
1.17004
1.17048
1.17094
1.17124
1.17153
1.17174
1.17193
1.17182
1.17147
1.1711
1.17046
1.17
1.16974
1.16984
1.17019
1.17063
1.171
1.1713
1.17154
1.17175
1.17194
1.1718
1.17145
1.17108
1.17051
1.17006
1.16973
1.16966
1.1699
1.17035
1.17074
1.17109
1.17135
1.17156
1.17176
1.17195
1.17182
1.17148
1.17113
1.17069
1.1701
1.16969
1.16958
1.16969
1.17004
1.17048
1.17085
1.17113
1.17138
1.17158
1.17177
1.17195
1.17183
1.17149
1.17121
1.17074
1.17029
1.16973
1.1695
1.16949
1.16979
1.17022
1.17058
1.17094
1.17119
1.1714
1.1716
1.17178
1.17195
1.17184
1.17152
1.17121
1.17077
1.17035
1.16976
1.16949
1.16939
1.16954
1.16994
1.17032
1.1707
1.17098
1.17122
1.17143
1.17162
1.17179
1.17195
1.17182
1.17153
1.17125
1.17081
1.17039
1.16985
1.16946
1.1693
1.16938
1.16971
1.17007
1.17045
1.17078
1.17103
1.17126
1.17145
1.17162
1.17179
1.17195
1.17182
1.17156
1.17128
1.17084
1.17044
1.16995
1.16948
1.16927
1.16924
1.16946
1.16981
1.17021
1.17056
1.17083
1.17106
1.17127
1.17147
1.17163
1.17179
1.17196
1.17184
1.17156
1.17126
1.17088
1.17051
1.17006
1.16955
1.16925
1.16914
1.16925
1.16957
1.16999
1.17032
1.17062
1.17088
1.1711
1.1713
1.17148
1.17164
1.1718
1.17196
1.17183
1.17157
1.17128
1.17095
1.17056
1.17013
1.16961
1.16926
1.16908
1.16911
1.16932
1.16976
1.17008
1.17041
1.17068
1.17092
1.17113
1.17132
1.17148
1.17165
1.1718
1.17195
1.17183
1.17157
1.1713
1.17098
1.17062
1.17024
1.16972
1.16931
1.16904
1.16898
1.16914
1.16952
1.16988
1.1702
1.17048
1.17073
1.17096
1.17115
1.17133
1.17149
1.17164
1.1718
1.17195
1.17184
1.17159
1.1713
1.17098
1.17065
1.17025
1.16982
1.16935
1.16902
1.16891
1.16897
1.16924
1.16963
1.16998
1.17029
1.17054
1.17078
1.17098
1.17117
1.17134
1.1715
1.17165
1.17179
1.17195
1.17185
1.17161
1.17131
1.171
1.1707
1.17032
1.16986
1.16936
1.16905
1.16886
1.16886
1.16903
1.16942
1.16975
1.17007
1.17036
1.17061
1.17083
1.17101
1.17119
1.17135
1.1715
1.17165
1.17179
1.17195
1.17183
1.1716
1.17133
1.17102
1.17077
1.17032
1.1699
1.16947
1.16908
1.16884
1.16878
1.16887
1.16919
1.16956
1.16987
1.17016
1.17044
1.17065
1.17084
1.17103
1.1712
1.17136
1.1715
1.17164
1.17179
1.17195
1.17185
1.1716
1.17133
1.17104
1.17073
1.17037
1.17005
1.16956
1.16914
1.16885
1.16871
1.16876
1.16896
1.16933
1.16967
1.16996
1.17022
1.17047
1.17069
1.17087
1.17104
1.17122
1.17135
1.1715
1.17164
1.17178
1.17194
1.17183
1.17159
1.17134
1.17108
1.17072
1.17047
1.17003
1.16963
1.16921
1.1689
1.16867
1.16864
1.1688
1.16914
1.16946
1.16978
1.17003
1.17028
1.1705
1.17071
1.17088
1.17105
1.17121
1.17136
1.1715
1.17163
1.17177
1.17193
1.17184
1.1716
1.17134
1.17106
1.17078
1.17048
1.17011
1.16968
1.16925
1.16895
1.16865
1.16857
1.16867
1.16894
1.16925
1.16957
1.16986
1.17012
1.17034
1.17057
1.17073
1.17091
1.17108
1.17122
1.17135
1.17148
1.17162
1.17176
1.17193
1.17183
1.1716
1.17135
1.17105
1.17077
1.17046
1.17012
1.16968
1.1693
1.16896
1.16864
1.16849
1.16854
1.16873
1.16908
1.16938
1.16968
1.16994
1.17016
1.17037
1.17057
1.17074
1.17091
1.17107
1.1712
1.17134
1.17147
1.1716
1.17175
1.17191
1.17183
1.17162
1.17135
1.17107
1.17078
1.17047
1.17017
1.16972
1.16938
1.16899
1.16867
1.16848
1.16845
1.16856
1.16888
1.16919
1.16949
1.16976
1.17003
1.17022
1.17041
1.17061
1.17076
1.17091
1.17106
1.1712
1.17133
1.17145
1.17159
1.17173
1.1719
1.17183
1.17163
1.17136
1.17107
1.17078
1.17046
1.17014
1.16982
1.16942
1.16902
1.1687
1.16847
1.16837
1.16846
1.16866
1.16899
1.16929
1.16959
1.16984
1.17005
1.17026
1.17044
1.17061
1.17077
1.17093
1.17106
1.17119
1.17131
1.17144
1.17156
1.17171
1.17189
1.17184
1.17159
1.17133
1.17105
1.17075
1.17045
1.17015
1.16992
1.16941
1.16907
1.16876
1.16846
1.16831
1.16833
1.16851
1.16881
1.16911
1.1694
1.16965
1.16988
1.1701
1.1703
1.17045
1.17063
1.17078
1.17092
1.17105
1.17117
1.17129
1.17141
1.17153
1.17168
1.17187
1.17184
1.17158
1.17135
1.17108
1.17078
1.17045
1.17016
1.16991
1.16951
1.16913
1.16878
1.16844
1.16829
1.16825
1.16837
1.16859
1.16894
1.16925
1.16949
1.16973
1.16994
1.17012
1.1703
1.17048
1.17065
1.17078
1.17091
1.17103
1.17115
1.17126
1.17137
1.1715
1.17165
1.17197
1.17183
1.17182
1.17157
1.17137
1.17104
1.17073
1.17046
1.17017
1.16989
1.16958
1.16912
1.16878
1.1685
1.16827
1.16819
1.16826
1.16843
1.16877
1.16909
1.16936
1.16959
1.16978
1.16997
1.17015
1.17034
1.17048
1.17066
1.17078
1.1709
1.17101
1.17111
1.17122
1.17134
1.1715
1.17171
1.17159
1.17197
1.17182
1.17182
1.17157
1.17131
1.17105
1.17075
1.17044
1.17013
1.16987
1.16957
1.1692
1.16882
1.16854
1.16827
1.16814
1.16816
1.1683
1.16862
1.16886
1.16919
1.16943
1.16964
1.16984
1.17001
1.17018
1.17036
1.17049
1.17066
1.17076
1.17087
1.17097
1.17107
1.17118
1.17135
1.17128
1.17149
1.17139
1.17139
1.17169
1.17157
1.17196
1.1718
1.17183
1.17157
1.17133
1.17105
1.17072
1.17049
1.17015
1.16987
1.16957
1.16935
1.16886
1.16856
1.16831
1.1681
1.16808
1.16817
1.16842
1.16875
1.16903
1.16925
1.16949
1.16969
1.16987
1.17008
1.17021
1.17037
1.17049
1.17065
1.17074
1.17083
1.17093
1.17103
1.1712
1.17112
1.17129
1.17146
1.1713
1.17136
1.17166
1.17154
1.17195
1.17178
1.17182
1.17161
1.17133
1.171
1.17073
1.17042
1.17011
1.16987
1.16958
1.16933
1.16887
1.16856
1.16835
1.16809
1.16801
1.16808
1.16826
1.16852
1.16883
1.16912
1.16934
1.16956
1.16978
1.1699
1.1701
1.1702
1.17035
1.17048
1.17063
1.1707
1.17078
1.17088
1.17105
1.17095
1.17119
1.17109
1.1712
1.17142
1.17126
1.17132
1.17163
1.1715
1.17194
1.17175
1.17181
1.1716
1.17133
1.17099
1.17072
1.17041
1.17012
1.16989
1.16956
1.16928
1.16896
1.16857
1.16834
1.16809
1.16794
1.16798
1.16814
1.16835
1.16864
1.16895
1.16922
1.16941
1.16959
1.16978
1.16997
1.17012
1.17025
1.17034
1.17047
1.17058
1.17061
1.17064
1.17084
1.17064
1.17098
1.17083
1.1711
1.17099
1.17116
1.17138
1.17121
1.17126
1.1716
1.17146
1.17193
1.17172
1.17181
1.17154
1.17131
1.17095
1.17068
1.1704
1.17018
1.16984
1.16956
1.16928
1.16898
1.16866
1.16833
1.16813
1.16791
1.16789
1.168
1.16822
1.16851
1.16877
1.16905
1.16927
1.16945
1.16964
1.1698
1.17
1.17013
1.17023
1.17037
1.1704
1.17037
1.17008
1.17029
1.16956
1.17054
1.16993
1.1708
1.1704
1.17103
1.17081
1.17107
1.17133
1.17113
1.17119
1.17156
1.17141
1.17191
1.17169
1.17181
1.17157
1.17125
1.17093
1.17065
1.17043
1.17013
1.16979
1.16956
1.1693
1.16905
1.16867
1.16831
1.16812
1.16787
1.16781
1.16788
1.16809
1.16834
1.16861
1.16886
1.16914
1.16932
1.16949
1.16967
1.16986
1.17001
1.17016
1.17019
1.17027
1.16993
1.1688
1.16831
1.1661
1.16866
1.16624
1.16945
1.16738
1.17027
1.1689
1.17082
1.17017
1.17087
1.17127
1.17094
1.17104
1.17152
1.17136
1.17189
1.17166
1.17178
1.17151
1.17126
1.17101
1.17063
1.17038
1.17008
1.16981
1.16954
1.16928
1.16898
1.16864
1.16836
1.1681
1.1679
1.16777
1.16779
1.16793
1.16814
1.16844
1.16871
1.16896
1.16919
1.16938
1.16954
1.16973
1.16988
1.16997
1.17011
1.17008
1.1693
1.16658
1.1637
1.16047
1.1627
1.15849
1.16352
1.15836
1.1658
1.16033
1.16834
1.16412
1.17014
1.16795
1.17021
1.17115
1.17038
1.1706
1.17147
1.17127
1.17187
1.17162
1.17178
1.17152
1.17127
1.17093
1.17064
1.17041
1.17007
1.1698
1.16954
1.16929
1.16898
1.16868
1.16837
1.16809
1.16789
1.16771
1.16771
1.1678
1.168
1.16827
1.16855
1.1688
1.16907
1.16926
1.16942
1.1696
1.16979
1.16991
1.16993
1.1699
1.16881
1.16376
1.1578
1.15474
1.15426
1.15028
1.15296
1.14778
1.15378
1.14743
1.15706
1.14955
1.16269
1.15427
1.16784
1.16183
1.16804
1.17085
1.16854
1.16922
1.1714
1.17109
1.17185
1.17157
1.17177
1.17149
1.17126
1.17093
1.17064
1.17034
1.17002
1.16978
1.16951
1.16928
1.16896
1.16869
1.16839
1.16811
1.16787
1.1677
1.16764
1.1677
1.16786
1.16811
1.1684
1.16867
1.16895
1.16916
1.16931
1.16948
1.16965
1.1698
1.16987
1.16965
1.16822
1.16207
1.15247
1.1502
1.14707
1.14473
1.14392
1.14173
1.14255
1.14003
1.14299
1.13923
1.14602
1.13984
1.15227
1.14352
1.1617
1.15122
1.16234
1.16994
1.16361
1.16538
1.17129
1.17056
1.17183
1.17151
1.17177
1.17151
1.17125
1.17095
1.17059
1.17027
1.17002
1.16984
1.1695
1.16927
1.16895
1.16866
1.16841
1.16809
1.16785
1.16769
1.1676
1.16761
1.16774
1.16798
1.16823
1.16852
1.16873
1.16901
1.1692
1.16936
1.16952
1.16969
1.1698
1.1696
1.16778
1.15979
1.14858
1.14799
1.14337
1.14256
1.1407
1.1403
1.139
1.13893
1.13774
1.13766
1.13705
1.13633
1.13776
1.13546
1.14196
1.13628
1.15118
1.14132
1.15224
1.16734
1.15446
1.15774
1.17104
1.16909
1.1718
1.17139
1.17175
1.17149
1.17122
1.17096
1.17062
1.17034
1.17001
1.16981
1.16943
1.16923
1.16901
1.16865
1.16838
1.16809
1.16785
1.16767
1.16755
1.16754
1.16763
1.16782
1.16808
1.16834
1.16859
1.16881
1.16912
1.16925
1.1694
1.16956
1.1697
1.16958
1.1678
1.15901
1.14395
1.14223
1.14149
1.14033
1.14042
1.13914
1.13965
1.13802
1.13896
1.13666
1.13776
1.13531
1.13602
1.13422
1.13432
1.13528
1.13313
1.14149
1.13472
1.14247
1.16169
1.14443
1.14766
1.17035
1.16548
1.17177
1.17113
1.17173
1.17146
1.17119
1.17095
1.17064
1.17034
1.1701
1.16976
1.16941
1.16918
1.16896
1.16864
1.16839
1.1681
1.16784
1.16765
1.16752
1.16748
1.16753
1.16769
1.16793
1.16819
1.16844
1.16867
1.16895
1.16916
1.16929
1.16944
1.16959
1.16957
1.16793
1.15927
1.14399
1.14103
1.14129
1.14062
1.14074
1.14036
1.14118
1.14053
1.14234
1.13998
1.1428
1.13806
1.14146
1.13545
1.13836
1.1333
1.13478
1.13217
1.13219
1.13467
1.13125
1.13527
1.15268
1.1368
1.1395
1.16858
1.15897
1.17171
1.17051
1.17168
1.1714
1.17113
1.17089
1.17059
1.17031
1.17009
1.16965
1.16945
1.16915
1.16892
1.16865
1.16837
1.16808
1.16784
1.16764
1.16748
1.16742
1.16745
1.16756
1.16778
1.16804
1.1683
1.16853
1.1687
1.16904
1.1692
1.16932
1.16947
1.16955
1.16824
1.15993
1.14428
1.14143
1.1415
1.14302
1.14323
1.14197
1.14259
1.1441
1.14565
1.14573
1.14843
1.14534
1.14925
1.14248
1.14693
1.13801
1.14182
1.13357
1.1364
1.13082
1.13186
1.13068
1.12941
1.13063
1.14374
1.13134
1.1332
1.16477
1.15024
1.17162
1.16914
1.17162
1.17129
1.17105
1.17083
1.17057
1.17028
1.17007
1.16969
1.1694
1.16912
1.16889
1.16863
1.16843
1.16804
1.16784
1.16762
1.16746
1.16737
1.16737
1.16746
1.16764
1.16789
1.16814
1.16843
1.16861
1.16877
1.16909
1.16925
1.16935
1.16947
1.16874
1.16136
1.14498
1.1415
1.14153
1.14323
1.14314
1.14791
1.14791
1.14682
1.14756
1.15064
1.15227
1.1528
1.15568
1.15148
1.1558
1.14579
1.15011
1.13951
1.14289
1.13407
1.13652
1.12987
1.13126
1.12815
1.1277
1.12729
1.13668
1.12716
1.12813
1.1585
1.14213
1.17148
1.16649
1.17163
1.17119
1.1709
1.17071
1.17049
1.17023
1.17003
1.16966
1.16932
1.16913
1.16894
1.16862
1.16839
1.16802
1.16781
1.16761
1.16743
1.16733
1.16731
1.16737
1.16753
1.16774
1.168
1.16827
1.16853
1.16868
1.16884
1.16913
1.16929
1.16938
1.1691
1.16349
1.14643
1.14138
1.14289
1.14262
1.14774
1.14731
1.15369
1.15344
1.15327
1.15371
1.15769
1.15889
1.15955
1.16221
1.15498
1.16015
1.14654
1.15083
1.1388
1.14098
1.13247
1.13283
1.12784
1.12739
1.12553
1.12423
1.12377
1.13063
1.12278
1.12298
1.15053
1.13509
1.17125
1.16181
1.1714
1.17084
1.17052
1.17036
1.17019
1.16997
1.1696
1.16931
1.16914
1.16893
1.16866
1.16836
1.16806
1.16779
1.16759
1.1674
1.16729
1.16725
1.16728
1.1674
1.1676
1.16785
1.16807
1.16839
1.16861
1.16875
1.16893
1.16918
1.16932
1.16923
1.16561
1.14912
1.14073
1.14514
1.14422
1.14667
1.14589
1.15287
1.15205
1.15903
1.15836
1.15939
1.15935
1.16367
1.16426
1.16419
1.16622
1.15604
1.16203
1.14378
1.1484
1.13256
1.13293
1.1256
1.12276
1.12191
1.11781
1.12085
1.11657
1.11814
1.12465
1.11647
1.1162
1.1421
1.12791
1.16811
1.15044
1.17125
1.17046
1.17014
1.17007
1.1698
1.16957
1.16931
1.16913
1.16893
1.1687
1.16828
1.16806
1.16779
1.16756
1.16737
1.16725
1.16719
1.16721
1.1673
1.16747
1.1677
1.16795
1.16817
1.16848
1.16868
1.1688
1.16899
1.16921
1.16924
1.16714
1.15268
1.14061
1.14337
1.14221
1.14874
1.14746
1.15106
1.14994
1.15745
1.15637
1.16315
1.16227
1.16422
1.16383
1.167
1.16724
1.16612
1.16766
1.15517
1.16252
1.13561
1.14248
1.1207
1.12281
1.11295
1.10993
1.11044
1.10378
1.11194
1.10391
1.10858
1.11727
1.10658
1.10572
1.11155
1.13208
1.11926
1.15595
1.13456
1.17099
1.16994
1.16985
1.16966
1.16956
1.16929
1.16914
1.16893
1.16866
1.16834
1.16802
1.16778
1.16753
1.16735
1.16722
1.16715
1.16714
1.16721
1.16735
1.16756
1.16781
1.168
1.16828
1.16856
1.16873
1.16886
1.16905
1.16919
1.16804
1.15674
1.14085
1.14189
1.14616
1.14509
1.15235
1.15084
1.15514
1.15379
1.16121
1.16001
1.16621
1.16532
1.16719
1.16688
1.16813
1.16828
1.16659
1.16793
1.1528
1.16231
1.12999
1.14051
1.11284
1.11984
1.1018
1.10521
1.09676
1.09553
1.09868
1.09229
1.09557
1.10133
1.09563
1.10591
1.11274
1.10636
1.09982
1.09334
1.09432
1.09954
1.12155
1.1071
1.1081
1.11467
1.14395
1.12255
1.17041
1.16953
1.16947
1.16949
1.16928
1.16912
1.16889
1.16863
1.16836
1.16794
1.16775
1.16752
1.16732
1.16718
1.1671
1.16708
1.16712
1.16724
1.16743
1.16767
1.1679
1.16809
1.16838
1.16862
1.16878
1.16891
1.16907
1.16849
1.16028
1.14181
1.13988
1.14632
1.14454
1.1493
1.14779
1.15567
1.15405
1.15867
1.15722
1.1643
1.16312
1.16811
1.16766
1.16837
1.16833
1.1683
1.16847
1.16642
1.16751
1.15259
1.1618
1.12982
1.14233
1.11249
1.12316
1.09827
1.10124
1.10493
1.1101
1.09113
1.09194
1.09907
1.09749
1.09383
1.0899
1.09113
1.08768
1.08866
1.08927
1.09973
1.10023
1.09298
1.08699
1.08794
1.0928
1.10906
1.11753
1.11058
1.10106
1.10218
1.14263
1.11258
1.11626
1.12247
1.16943
1.16919
1.16933
1.16924
1.16909
1.16885
1.1686
1.16835
1.16791
1.16771
1.16749
1.16729
1.16714
1.16705
1.16701
1.16704
1.16713
1.1673
1.16752
1.16777
1.16796
1.16819
1.16847
1.16868
1.16882
1.16894
1.16868
1.16289
1.14421
1.13861
1.14362
1.14904
1.14754
1.15239
1.1507
1.1588
1.15716
1.16179
1.16035
1.16691
1.16591
1.16886
1.16875
1.16867
1.16884
1.1678
1.16811
1.16499
1.16553
1.15416
1.15996
1.1357
1.14716
1.11544
1.12185
1.12762
1.1339
1.10321
1.10842
1.11439
1.08951
1.09191
1.10191
1.1008
1.09576
1.08658
1.08584
1.08467
1.08755
1.08419
1.09298
1.09352
1.08638
1.08279
1.08161
1.08608
1.10361
1.10567
1.09445
1.09586
1.12302
1.15559
1.13954
1.10905
1.11477
1.16887
1.16907
1.16915
1.16902
1.16882
1.16857
1.16832
1.16791
1.16765
1.16746
1.16726
1.1671
1.167
1.16695
1.16697
1.16704
1.16718
1.16737
1.16761
1.16786
1.16802
1.16829
1.16855
1.16873
1.16885
1.16874
1.16487
1.14779
1.13842
1.14086
1.14847
1.1465
1.15194
1.1502
1.15545
1.1537
1.1619
1.16031
1.16471
1.16338
1.16849
1.16806
1.16911
1.16914
1.16863
1.16897
1.16576
1.1666
1.16068
1.16043
1.1528
1.15259
1.13852
1.14272
1.14493
1.14546
1.12065
1.12685
1.13235
1.1365
1.10739
1.11355
1.11996
1.09023
1.09445
1.10665
1.10614
1.09984
1.08571
1.08292
1.08394
1.08866
1.08125
1.08615
1.08667
1.08068
1.07968
1.07821
1.08007
1.09792
1.10114
1.08773
1.08952
1.1261
1.15935
1.14664
1.1061
1.11435
1.16871
1.16893
1.16891
1.16877
1.16853
1.16828
1.16795
1.1676
1.16742
1.16722
1.16706
1.16695
1.16689
1.16689
1.16695
1.16707
1.16724
1.16747
1.16771
1.16792
1.16811
1.16838
1.16861
1.16876
1.16875
1.16638
1.15233
1.13875
1.13859
1.14539
1.15147
1.14979
1.15508
1.15327
1.15863
1.15688
1.16506
1.1636
1.16737
1.16635
1.16909
1.16895
1.16919
1.16928
1.16803
1.16891
1.16101
1.16323
1.15009
1.14974
1.14434
1.14222
1.13967
1.13732
1.13933
1.14018
1.13918
1.13662
1.126
1.13082
1.13412
1.13529
1.1131
1.11963
1.12535
1.09321
1.09902
1.11297
1.11295
1.10579
1.08706
1.08215
1.08533
1.09192
1.08034
1.07984
1.08021
1.07683
1.07844
1.07653
1.07564
1.0924
1.09699
1.08135
1.08355
1.12931
1.16354
1.15089
1.10389
1.11502
1.16863
1.16875
1.1687
1.1685
1.16826
1.16799
1.16756
1.16737
1.16717
1.16701
1.16689
1.16683
1.16682
1.16687
1.16696
1.16712
1.16732
1.16756
1.16781
1.16797
1.16821
1.16847
1.16866
1.16872
1.16741
1.15718
1.13981
1.13688
1.14219
1.15124
1.14916
1.15491
1.15308
1.15856
1.15674
1.16202
1.16033
1.16774
1.16683
1.1687
1.16833
1.1693
1.16927
1.16919
1.16935
1.16648
1.16855
1.1521
1.15724
1.13067
1.1326
1.13316
1.12969
1.12694
1.12589
1.1346
1.13183
1.12769
1.12307
1.12931
1.13115
1.13087
1.12816
1.11957
1.12478
1.12756
1.09815
1.10539
1.11944
1.11918
1.11282
1.09041
1.08346
1.08862
1.09703
1.08138
1.07479
1.07465
1.07466
1.07907
1.07653
1.07294
1.08735
1.09339
1.07563
1.07821
1.13277
1.16629
1.15521
1.10246
1.11637
1.16854
1.16859
1.16846
1.16824
1.168
1.16754
1.16732
1.16712
1.16695
1.16684
1.16677
1.16676
1.16679
1.16687
1.167
1.16719
1.16741
1.16766
1.16788
1.16804
1.1683
1.16853
1.16864
1.16798
1.16094
1.14234
1.13603
1.13932
1.14831
1.1551
1.15331
1.15879
1.15695
1.16235
1.16061
1.16555
1.16401
1.16885
1.16853
1.16919
1.16906
1.16939
1.1694
1.16911
1.16944
1.16366
1.1678
1.139
1.14878
1.11258
1.11419
1.12144
1.11708
1.11875
1.11531
1.11304
1.11222
1.12359
1.11806
1.11248
1.10765
1.12791
1.12582
1.12118
1.11496
1.12397
1.12527
1.12442
1.10469
1.11229
1.1225
1.12057
1.11837
1.09547
1.08653
1.09342
1.10345
1.08406
1.07145
1.07052
1.07387
1.08119
1.0779
1.07131
1.08288
1.09041
1.07087
1.07354
1.1366
1.16836
1.15908
1.1017
1.11822
1.16844
1.16839
1.16821
1.16799
1.16752
1.16728
1.16707
1.1669
1.16678
1.16671
1.16669
1.16671
1.16678
1.16689
1.16706
1.16727
1.16751
1.16775
1.16792
1.16814
1.16839
1.16853
1.16822
1.16351
1.14612
1.13607
1.13705
1.14484
1.15573
1.15363
1.15943
1.15759
1.16301
1.16124
1.16618
1.16471
1.16805
1.16731
1.16924
1.16912
1.16938
1.16932
1.16949
1.16948
1.16892
1.1695
1.15964
1.16664
1.1263
1.13318
1.14169
1.10356
1.10671
1.11644
1.11104
1.10401
1.10179
1.10112
1.10167
1.10824
1.10199
1.09688
1.09332
1.12034
1.11397
1.10642
1.09883
1.12285
1.12043
1.11475
1.11128
1.11692
1.1202
1.11763
1.11844
1.10152
1.09087
1.09892
1.10952
1.0878
1.06917
1.06762
1.07431
1.08418
1.07997
1.07064
1.079
1.08799
1.06721
1.06951
1.14068
1.17027
1.16345
1.10138
1.12061
1.1683
1.16817
1.16797
1.16752
1.16725
1.16701
1.16683
1.16671
1.16664
1.16661
1.16663
1.1667
1.16679
1.16694
1.16713
1.16736
1.1676
1.16783
1.16798
1.16823
1.16843
1.1683
1.16521
1.15052
1.13662
1.13541
1.14163
1.15299
1.16048
1.15862
1.16404
1.16229
1.16688
1.16561
1.16831
1.16773
1.16895
1.1687
1.1694
1.16934
1.16947
1.16945
1.16961
1.16962
1.16879
1.1695
1.15641
1.16585
1.12266
1.12961
1.13673
1.14537
1.09859
1.10339
1.11521
1.10899
1.09144
1.0911
1.09217
1.09474
1.09217
1.08703
1.0837
1.0824
1.10696
1.09839
1.09026
1.0834
1.11641
1.10941
1.10047
1.11497
1.11631
1.11281
1.10965
1.11499
1.10695
1.09564
1.10363
1.11245
1.09174
1.0675
1.0654
1.07533
1.08725
1.08209
1.07054
1.07567
1.08601
1.06439
1.06613
1.1458
1.1715
1.1677
1.10151
1.1239
1.16812
1.16794
1.16754
1.16724
1.16697
1.16678
1.16664
1.16657
1.16654
1.16655
1.16661
1.1667
1.16682
1.167
1.16721
1.16745
1.1677
1.16787
1.16807
1.16831
1.1683
1.16634
1.15515
1.13802
1.13423
1.13878
1.14922
1.16164
1.15947
1.16524
1.16357
1.16747
1.16656
1.16853
1.1681
1.16901
1.16882
1.16926
1.16915
1.16949
1.16946
1.16957
1.16952
1.16966
1.1697
1.16875
1.16932
1.15218
1.16029
1.16596
1.12203
1.12927
1.13944
1.1471
1.09775
1.10347
1.11671
1.10979
1.08265
1.08462
1.08815
1.09266
1.07837
1.07543
1.07474
1.07558
1.09118
1.08271
1.07584
1.07097
1.10466
1.09478
1.08492
1.11382
1.11284
1.10058
1.09728
1.10686
1.10953
1.09955
1.10604
1.11127
1.09491
1.06622
1.0634
1.07639
1.0896
1.08351
1.0705
1.07279
1.08439
1.062
1.0633
1.15243
1.17185
1.17017
1.10231
1.12859
1.16791
1.16756
1.16724
1.16694
1.16672
1.16658
1.16649
1.16646
1.16647
1.16652
1.16661
1.16672
1.16687
1.16707
1.1673
1.16754
1.16778
1.16793
1.16815
1.16827
1.16707
1.15893
1.14061
1.13382
1.13645
1.14582
1.1589
1.16617
1.1645
1.16793
1.16724
1.1687
1.16839
1.16904
1.1689
1.16925
1.16915
1.1694
1.16933
1.16959
1.16953
1.16972
1.16968
1.1695
1.1696
1.1684
1.16864
1.16828
1.15415
1.16049
1.16781
1.16567
1.12405
1.13165
1.14376
1.15079
1.10032
1.10702
1.1212
1.11397
1.07866
1.08308
1.08813
1.09392
1.06844
1.06807
1.06963
1.07333
1.07627
1.06944
1.06474
1.0625
1.08997
1.07968
1.07085
1.11054
1.10471
1.08609
1.08314
1.09473
1.10844
1.10166
1.10514
1.1082
1.0965
1.06524
1.06159
1.07679
1.09047
1.08363
1.07017
1.07023
1.0831
1.0599
1.06096
1.15901
1.17196
1.17145
1.10402
1.13447
1.16759
1.16724
1.16691
1.16667
1.16651
1.16642
1.16638
1.16639
1.16643
1.1665
1.16662
1.16676
1.16693
1.16715
1.16738
1.16765
1.16782
1.16801
1.16817
1.16752
1.16158
1.14406
1.13396
1.13479
1.14277
1.15528
1.16673
1.16505
1.1682
1.16761
1.16878
1.16856
1.16905
1.16893
1.16923
1.16914
1.16938
1.1693
1.1695
1.16945
1.16976
1.16966
1.16972
1.16977
1.16854
1.16889
1.16747
1.16765
1.16489
1.16502
1.15691
1.16192
1.16709
1.166
1.12866
1.13624
1.14935
1.15534
1.10667
1.11381
1.12812
1.12091
1.07853
1.0848
1.09202
1.09935
1.06232
1.06407
1.06798
1.07387
1.0641
1.05954
1.05744
1.05722
1.07538
1.06641
1.05966
1.10293
1.09323
1.07202
1.06978
1.08132
1.10565
1.10114
1.10255
1.10163
1.0961
1.06413
1.05985
1.07641
1.0898
1.08244
1.06916
1.06793
1.0823
1.05801
1.05888
1.16519
1.172
1.17175
1.10658
1.14199
1.16724
1.16689
1.16662
1.16644
1.16634
1.1663
1.1663
1.16634
1.16641
1.16651
1.16664
1.1668
1.16701
1.16723
1.16749
1.16774
1.16789
1.16803
1.16772
1.16348
1.14792
1.13455
1.13358
1.14003
1.15175
1.16448
1.16823
1.16749
1.16879
1.16859
1.16903
1.16893
1.16919
1.16911
1.16934
1.16927
1.16948
1.16941
1.16957
1.16954
1.16982
1.16982
1.16943
1.16974
1.16552
1.16604
1.16619
1.16514
1.16492
1.15975
1.15988
1.16021
1.16385
1.16532
1.16529
1.13538
1.14255
1.15508
1.15943
1.11563
1.12297
1.13682
1.13
1.08151
1.09003
1.09894
1.10762
1.05882
1.06237
1.06793
1.07526
1.05524
1.0532
1.05296
1.05376
1.0628
1.05604
1.05169
1.09314
1.08172
1.06016
1.05963
1.06986
1.1003
1.09847
1.09791
1.09349
1.09324
1.06257
1.05812
1.07472
1.08634
1.07826
1.06703
1.06581
1.08205
1.0562
1.05705
1.16799
1.17203
1.17191
1.11027
1.14773
1.16688
1.16658
1.16638
1.16627
1.16621
1.1662
1.16623
1.16629
1.16638
1.16651
1.16667
1.16687
1.16709
1.16734
1.16761
1.16777
1.16792
1.16776
1.16483
1.15178
1.13599
1.13269
1.13763
1.14856
1.1619
1.1681
1.16873
1.16844
1.16898
1.16888
1.16914
1.16907
1.16929
1.16922
1.16943
1.16936
1.16956
1.1695
1.16971
1.16961
1.16979
1.16988
1.16804
1.16933
1.16077
1.1624
1.16134
1.1583
1.16054
1.15993
1.15195
1.15211
1.16246
1.16435
1.16148
1.16231
1.1434
1.14961
1.15929
1.16129
1.12602
1.13343
1.14592
1.14001
1.08461
1.09574
1.1071
1.11735
1.05678
1.06113
1.06745
1.07579
1.04969
1.04933
1.04978
1.05175
1.05319
1.04885
1.04695
1.08321
1.07163
1.05202
1.0522
1.06079
1.09309
1.09362
1.09086
1.08465
1.0873
1.06054
1.05641
1.0701
1.07927
1.07107
1.06334
1.0641
1.0825
1.05456
1.05561
1.17038
1.17205
1.17196
1.11386
1.15553
1.16655
1.16633
1.16618
1.1661
1.16606
1.16606
1.16611
1.16621
1.16634
1.1665
1.16669
1.16692
1.16717
1.16744
1.16769
1.1678
1.16774
1.1657
1.15544
1.13812
1.1324
1.13567
1.14563
1.15885
1.16718
1.16882
1.16878
1.16866
1.16891
1.16908
1.169
1.16924
1.16916
1.16938
1.16931
1.16952
1.16945
1.16965
1.16958
1.16987
1.16977
1.16947
1.16988
1.1635
1.16775
1.15325
1.15539
1.15465
1.14964
1.15315
1.15223
1.14112
1.14132
1.16251
1.16265
1.15477
1.15647
1.15124
1.15587
1.16013
1.16027
1.13597
1.14358
1.15361
1.14928
1.08628
1.09891
1.11271
1.12557
1.05517
1.05985
1.06644
1.07513
1.04654
1.0468
1.04818
1.05057
1.04718
1.04509
1.04456
1.07386
1.06264
1.04637
1.04635
1.0529
1.08431
1.08568
1.08079
1.07465
1.07843
1.05801
1.05458
1.06451
1.07105
1.06506
1.0597
1.06307
1.08317
1.05337
1.05456
1.17106
1.17206
1.17199
1.11842
1.15981
1.16627
1.16609
1.16592
1.16575
1.16563
1.16564
1.16578
1.166
1.16623
1.16647
1.16672
1.16698
1.16726
1.16757
1.1677
1.1677
1.16621
1.15828
1.14054
1.13247
1.13424
1.14299
1.1557
1.16603
1.16855
1.16892
1.16893
1.16883
1.16901
1.16917
1.16909
1.16932
1.16925
1.16946
1.16939
1.16958
1.16953
1.1698
1.16967
1.16994
1.1699
1.16839
1.16975
1.15122
1.15813
1.16299
1.14282
1.14573
1.14444
1.13853
1.14284
1.14152
1.12802
1.12819
1.15969
1.15816
1.14512
1.14781
1.15686
1.15897
1.15752
1.15565
1.14162
1.15
1.15714
1.15472
1.08623
1.09968
1.11464
1.12927
1.05399
1.05855
1.06484
1.07312
1.04473
1.04582
1.04758
1.04998
1.0439
1.04324
1.04339
1.06325
1.05298
1.04391
1.04554
1.04752
1.0724
1.07478
1.06857
1.06226
1.069
1.05598
1.05349
1.0609
1.06461
1.0613
1.05743
1.06209
1.08425
1.05256
1.05358
1.17142
1.17208
1.17198
1.12252
1.16245
1.16592
1.16558
1.16505
1.16445
1.16425
1.16443
1.16495
1.16552
1.166
1.1664
1.16673
1.16705
1.1674
1.16762
1.1676
1.16648
1.1602
1.14333
1.13279
1.13324
1.14068
1.15262
1.16451
1.16824
1.16883
1.16902
1.16901
1.16892
1.16909
1.16925
1.16917
1.1694
1.16933
1.16953
1.16947
1.1697
1.16959
1.16991
1.16982
1.16996
1.16996
1.16566
1.16936
1.14153
1.15056
1.15998
1.15061
1.12998
1.13359
1.13338
1.12614
1.13058
1.12864
1.11388
1.11402
1.15327
1.15054
1.13363
1.137
1.15827
1.15821
1.15122
1.14798
1.14261
1.15142
1.15611
1.15504
1.08392
1.09743
1.11312
1.12901
1.05303
1.05692
1.06225
1.06935
1.04399
1.04584
1.04761
1.04974
1.04324
1.04333
1.04381
1.05347
1.0498
1.04501
1.04783
1.04821
1.06139
1.06524
1.06102
1.05577
1.06316
1.05502
1.053
1.05845
1.0615
1.05996
1.05625
1.06159
1.08461
1.05178
1.05287
1.17148
1.17203
1.17188
1.12465
1.16295
1.16477
1.16345
1.16186
1.16062
1.16054
1.16152
1.16317
1.16461
1.16565
1.16628
1.16677
1.16716
1.16747
1.1675
1.16658
1.16144
1.14619
1.13355
1.13251
1.13867
1.14989
1.16257
1.16782
1.16868
1.16896
1.169
1.16909
1.16909
1.16917
1.16932
1.16925
1.16947
1.1694
1.16959
1.16953
1.16983
1.16972
1.16996
1.1699
1.16996
1.17001
1.15447
1.15819
1.16548
1.16857
1.13106
1.14067
1.14339
1.11607
1.12023
1.12184
1.11369
1.11735
1.11487
1.09995
1.10014
1.14448
1.14069
1.12067
1.12438
1.15581
1.15389
1.14166
1.13738
1.13802
1.14753
1.15035
1.15019
1.07881
1.09117
1.10632
1.12273
1.05238
1.05541
1.05899
1.06372
1.04527
1.04722
1.0489
1.05067
1.0454
1.04731
1.05082
1.05317
1.05242
1.04956
1.05179
1.05189
1.05782
1.06146
1.06009
1.0559
1.06169
1.05434
1.05219
1.05866
1.06137
1.06103
1.05637
1.06077
1.08444
1.05121
1.05245
1.17122
1.17093
1.17115
1.12453
1.16087
1.16069
1.15765
1.15538
1.15467
1.15557
1.15774
1.16074
1.16355
1.16521
1.16626
1.16685
1.16729
1.16742
1.16664
1.16224
1.14875
1.13474
1.13199
1.13695
1.14743
1.16019
1.16722
1.16851
1.16883
1.16911
1.16907
1.16913
1.16903
1.16916
1.16915
1.16924
1.16939
1.16931
1.16953
1.16947
1.16973
1.1696
1.16989
1.16982
1.17002
1.16995
1.16991
1.17006
1.14767
1.15454
1.1633
1.16741
1.12153
1.13236
1.13635
1.1025
1.10711
1.11152
1.10272
1.10276
1.10077
1.08615
1.08741
1.13293
1.1286
1.10581
1.10945
1.14918
1.14551
1.12837
1.12344
1.12387
1.1363
1.13952
1.13933
1.07073
1.08055
1.09357
1.10856
1.05263
1.05481
1.05724
1.05992
1.05169
1.05394
1.05488
1.05567
1.05032
1.05029
1.07594
1.05526
1.07394
1.07395
1.07144
1.07301
1.05951
1.06165
1.06158
1.0589
1.0624
1.05445
1.05221
1.05817
1.06301
1.05945
1.05653
1.06014
1.08311
1.05132
1.05211
1.16926
1.17039
1.16713
1.12026
1.15239
1.15318
1.15015
1.14888
1.14944
1.1515
1.15474
1.15864
1.1624
1.16507
1.16634
1.16701
1.16726
1.16665
1.16277
1.15085
1.1361
1.13172
1.13551
1.14515
1.15762
1.16638
1.16833
1.16868
1.16894
1.16918
1.16916
1.16921
1.16908
1.16923
1.1693
1.16946
1.16938
1.16959
1.16952
1.1698
1.16972
1.16994
1.16987
1.17009
1.17002
1.16979
1.17008
1.14316
1.15094
1.16082
1.15946
1.16514
1.16852
1.11367
1.12474
1.13104
1.09034
1.0955
1.10337
1.09404
1.08737
1.08626
1.07298
1.07574
1.1184
1.11377
1.08981
1.09303
1.13723
1.13323
1.11152
1.10654
1.09884
1.11379
1.12152
1.12032
1.06287
1.06775
1.07549
1.08692
1.05633
1.05711
1.058
1.05894
1.07607
1.07492
1.07551
1.07508
1.07431
1.0721
1.09803
1.0743
1.09673
1.09753
1.09639
1.09674
1.07625
1.06334
1.07785
1.07444
1.06357
1.05522
1.05337
1.05994
1.0814
1.06432
1.0825
1.05812
1.05883
1.07953
1.05128
1.05191
1.15723
0.930998
1.14087
1.10966
1.13024
1.14533
1.14382
1.14406
1.14583
1.14882
1.15285
1.15753
1.16216
1.1652
1.16649
1.16702
1.1666
1.16311
1.15246
1.13747
1.13163
1.13433
1.14308
1.15496
1.16527
1.16811
1.16855
1.16878
1.16903
1.16926
1.16923
1.16921
1.16929
1.16913
1.16937
1.16951
1.16944
1.16971
1.16958
1.16985
1.16978
1.17001
1.16993
1.17014
1.17009
1.16971
1.17012
1.13935
1.14895
1.15796
1.16518
1.16823
1.10848
1.11941
1.12808
1.08009
1.08609
1.09804
1.08807
1.07223
1.07198
1.06108
1.0654
1.1015
1.097
1.07361
1.07596
1.12046
1.11635
1.09152
1.08743
1.07
1.07859
1.09628
1.09144
1.06005
1.0618
1.06276
1.06609
1.07516
1.0743
1.07419
1.07287
1.09819
1.09672
1.0972
1.09617
1.09829
1.09625
1.12666
1.09672
1.12643
1.12671
1.12618
1.12641
1.09798
1.07928
1.09892
1.09717
1.07852
1.0565
1.05299
1.0616
1.10255
1.08274
1.10315
1.05913
1.05759
1.07439
1.05156
1.0516
1.12976
0.499642
1.07062
1.09625
1.10851
1.1394
1.13991
1.14139
1.14401
1.14774
1.15247
1.15763
1.16242
1.16548
1.16665
1.16649
1.16332
1.15356
1.13874
1.13166
1.13334
1.14118
1.15235
1.16379
1.16781
1.16842
1.16865
1.16887
1.16911
1.16917
1.16934
1.16932
1.16928
1.16925
1.16942
1.16957
1.1695
1.16975
1.16968
1.16991
1.16983
1.17007
1.16999
1.17019
1.17014
1.16971
1.17015
1.13825
1.14857
1.15813
1.16527
1.16821
1.1067
1.11727
1.12768
1.07144
1.07906
1.09586
1.08462
1.05778
1.05859
1.05054
1.05645
1.08314
1.07925
1.05814
1.05921
1.09683
1.09513
1.06886
1.06645
1.05855
1.05645
1.06418
1.05853
1.07181
1.06145
1.06001
1.05991
1.09606
1.09415
1.09382