/*--------------------------------*- C++ -*----------------------------------*\
  =========                 |
  \\      /  F ield         | OpenFOAM: The Open Source CFD Toolbox
   \\    /   O peration     | Website:  https://openfoam.org
    \\  /    A nd           | Version:  dev
     \\/     M anipulation  |
\*---------------------------------------------------------------------------*/
FoamFile
{
    version     2.0;
    format      ascii;
    class       volScalarField;
    location    "2500";
    object      T;
}
// * * * * * * * * * * * * * * * * * * * * * * * * * * * * * * * * * * * * * //

dimensions      [0 0 0 1 0 0 0];

internalField   nonuniform List<scalar> 
9836
(
300.094
300.135
300.112
300.13
300.205
300.096
300.116
300.256
300.214
300.081
300.106
300.281
300.309
300.192
300.076
300.11
300.268
300.353
300.302
300.162
300.068
300.103
300.231
300.368
300.375
300.27
300.142
300.06
300.098
300.209
300.374
300.429
300.359
300.223
300.129
300.056
300.091
300.212
300.361
300.452
300.433
300.32
300.202
300.12
300.053
300.077
300.2
300.347
300.466
300.484
300.406
300.289
300.186
300.111
300.05
300.081
300.199
300.334
300.455
300.521
300.487
300.372
300.262
300.17
300.1
300.048
300.07
300.178
300.315
300.451
300.542
300.538
300.456
300.333
300.232
300.156
300.098
300.046
300.072
300.173
300.281
300.433
300.536
300.574
300.525
300.413
300.296
300.219
300.146
300.092
300.043
300.063
300.154
300.25
300.415
300.533
300.6
300.575
300.485
300.375
300.279
300.205
300.143
300.089
300.041
300.069
300.157
300.255
300.4
300.517
300.603
300.621
300.559
300.445
300.344
300.257
300.192
300.137
300.087
300.039
300.061
300.149
300.239
300.354
300.507
300.612
300.642
300.613
300.524
300.411
300.318
300.246
300.184
300.132
300.085
300.038
300.058
300.148
300.22
300.341
300.457
300.601
300.661
300.663
300.587
300.478
300.386
300.294
300.231
300.177
300.127
300.083
300.038
300.056
300.139
300.217
300.332
300.439
300.593
300.663
300.689
300.652
300.55
300.451
300.355
300.285
300.223
300.171
300.122
300.079
300.039
300.06
300.136
300.206
300.321
300.429
300.57
300.669
300.711
300.692
300.608
300.516
300.419
300.335
300.271
300.213
300.164
300.122
300.079
300.039
300.059
300.128
300.2
300.312
300.416
300.543
300.663
300.719
300.726
300.67
300.583
300.48
300.391
300.321
300.262
300.21
300.16
300.119
300.078
300.037
300.055
300.127
300.204
300.301
300.398
300.513
300.645
300.724
300.753
300.725
300.644
300.535
300.452
300.375
300.31
300.253
300.203
300.158
300.116
300.076
300.036
300.056
300.123
300.198
300.282
300.384
300.494
300.63
300.72
300.765
300.758
300.707
300.593
300.513
300.429
300.36
300.3
300.247
300.199
300.156
300.115
300.078
300.039
300.054
300.121
300.191
300.276
300.367
300.466
300.599
300.707
300.775
300.791
300.751
300.656
300.563
300.481
300.409
300.346
300.29
300.24
300.195
300.155
300.116
300.078
300.039
300.052
300.115
300.191
300.273
300.36
300.463
300.574
300.695
300.781
300.809
300.794
300.725
300.627
300.537
300.458
300.394
300.334
300.283
300.236
300.192
300.153
300.115
300.078
300.039
300.048
300.11
300.188
300.268
300.346
300.444
300.562
300.691
300.774
300.821
300.823
300.779
300.68
300.596
300.513
300.441
300.378
300.321
300.276
300.231
300.19
300.152
300.114
300.079
300.04
300.052
300.112
300.182
300.263
300.327
300.444
300.553
300.662
300.765
300.827
300.843
300.82
300.74
300.644
300.566
300.491
300.42
300.368
300.318
300.27
300.228
300.189
300.152
300.116
300.08
300.04
300.048
300.111
300.182
300.257
300.337
300.43
300.513
300.639
300.747
300.823
300.859
300.849
300.796
300.702
300.616
300.541
300.475
300.413
300.356
300.311
300.267
300.222
300.189
300.153
300.118
300.082
300.042
300.051
300.113
300.178
300.246
300.339
300.404
300.517
300.62
300.728
300.811
300.869
300.878
300.837
300.751
300.668
300.588
300.523
300.46
300.404
300.351
300.308
300.265
300.225
300.189
300.153
300.12
300.084
300.043
300.047
300.11
300.178
300.25
300.322
300.4
300.495
300.608
300.717
300.796
300.874
300.895
300.87
300.801
300.723
300.64
300.568
300.5
300.446
300.386
300.347
300.3
300.258
300.224
300.191
300.157
300.123
300.086
300.045
300.049
300.11
300.173
300.251
300.323
300.404
300.493
300.606
300.704
300.792
300.876
300.915
300.904
300.856
300.766
300.689
300.613
300.547
300.49
300.437
300.387
300.344
300.301
300.261
300.227
300.192
300.159
300.127
300.09
300.048
300.049
300.103
300.175
300.247
300.322
300.402
300.48
300.595
300.683
300.785
300.866
300.917
300.926
300.897
300.817
300.738
300.66
300.593
300.524
300.475
300.427
300.377
300.339
300.3
300.262
300.228
300.195
300.164
300.131
300.095
300.051
300.05
300.101
300.17
300.245
300.321
300.404
300.486
300.569
300.671
300.775
300.86
300.92
300.946
300.924
300.872
300.787
300.711
300.635
300.57
300.518
300.465
300.42
300.378
300.337
300.296
300.262
300.23
300.2
300.169
300.137
300.101
300.055
300.046
300.109
300.176
300.25
300.327
300.404
300.484
300.543
300.675
300.762
300.843
300.921
300.96
300.955
300.911
300.834
300.756
300.682
300.618
300.56
300.506
300.455
300.416
300.372
300.333
300.298
300.265
300.235
300.206
300.176
300.145
300.107
300.06
300.045
300.111
300.172
300.241
300.318
300.405
300.478
300.544
300.648
300.745
300.838
300.925
300.965
300.975
300.945
300.89
300.799
300.721
300.659
300.6
300.547
300.501
300.454
300.41
300.366
300.333
300.3
300.27
300.241
300.214
300.185
300.152
300.114
300.033
300.069
300.05
300.113
300.166
300.251
300.33
300.4
300.477
300.548
300.628
300.749
300.835
300.908
300.97
300.992
300.974
300.93
300.844
300.76
300.694
300.633
300.585
300.538
300.492
300.444
300.409
300.364
300.334
300.304
300.276
300.25
300.224
300.194
300.153
300.101
300.13
300.034
300.073
300.048
300.112
300.181
300.248
300.326
300.407
300.486
300.553
300.632
300.727
300.827
300.898
300.968
301.002
300.997
300.963
300.881
300.819
300.736
300.675
300.62
300.57
300.527
300.484
300.44
300.407
300.365
300.338
300.311
300.285
300.261
300.233
300.191
300.209
300.155
300.182
300.18
300.106
300.136
300.037
300.078
300.046
300.113
300.174
300.248
300.332
300.393
300.48
300.552
300.629
300.687
300.814
300.893
300.958
301.011
301.018
300.995
300.932
300.847
300.776
300.72
300.658
300.608
300.563
300.511
300.477
300.436
300.408
300.367
300.344
300.32
300.297
300.27
300.228
300.248
300.207
300.163
300.204
300.189
300.113
300.144
300.039
300.083
300.046
300.102
300.174
300.258
300.33
300.409
300.49
300.551
300.626
300.691
300.811
300.892
300.947
301.015
301.035
301.019
300.973
300.905
300.827
300.754
300.696
300.641
300.586
300.555
300.504
300.481
300.442
300.409
300.372
300.353
300.334
300.31
300.267
300.292
300.231
300.256
300.228
300.172
300.214
300.2
300.12
300.153
300.042
300.09
300.048
300.104
300.174
300.261
300.331
300.41
300.486
300.545
300.631
300.705
300.787
300.888
300.948
301.015
301.053
301.042
301.003
300.949
300.874
300.796
300.726
300.68
300.633
300.586
300.538
300.499
300.467
300.443
300.413
300.384
300.376
300.369
300.32
300.37
300.284
300.323
300.253
300.283
300.24
300.183
300.228
300.213
300.129
300.163
300.046
300.097
300.048
300.119
300.177
300.27
300.341
300.414
300.47
300.558
300.631
300.703
300.781
300.865
300.951
301.003
301.059
301.066
301.039
300.982
300.908
300.842
300.771
300.715
300.668
300.62
300.579
300.528
300.498
300.471
300.438
300.43
300.436
300.512
300.458
300.643
300.396
300.549
300.33
300.432
300.272
300.328
300.262
300.196
300.248
300.232
300.139
300.175
300.049
300.105
300.049
300.109
300.192
300.276
300.348
300.405
300.483
300.57
300.631
300.698
300.764
300.862
300.956
301.005
301.068
301.086
301.068
301.015
300.95
300.881
300.818
300.747
300.702
300.659
300.612
300.565
300.528
300.49
300.481
300.461
300.549
300.834
300.956
301.517
300.87
301.481
300.67
301.193
300.464
300.809
300.324
300.49
300.313
300.213
300.294
300.27
300.149
300.19
300.054
300.114
300.054
300.125
300.188
300.254
300.352
300.417
300.495
300.564
300.634
300.701
300.781
300.868
300.941
301.008
301.061
301.096
301.091
301.056
301.002
300.924
300.857
300.793
300.735
300.686
300.645
300.599
300.559
300.538
300.502
300.509
300.705
301.395
302.125
302.951
302.381
303.458
302.171
303.491
301.594
302.987
300.95
302.02
300.497
301.049
300.479
300.242
300.437
300.381
300.162
300.212
300.059
300.124
300.053
300.121
300.187
300.274
300.348
300.409
300.497
300.565
300.634
300.698
300.779
300.859
300.939
301.011
301.063
301.11
301.11
301.087
301.036
300.967
300.896
300.834
300.763
300.716
300.676
300.631
300.583
300.551
300.547
300.555
300.83
302.109
303.635
304.422
304.546
305.58
304.885
306.233
304.671
306.324
303.826
305.771
302.385
304.546
301.078
302.604
301.027
300.318
300.901
300.729
300.179
300.259
300.065
300.136
300.056
300.127
300.187
300.273
300.349
300.426
300.508
300.571
300.642
300.7
300.783
300.855
300.932
301.004
301.066
301.113
301.127
301.114
301.072
301.008
300.935
300.867
300.794
300.742
300.704
300.661
300.618
300.58
300.562
300.617
300.98
302.541
305.01
305.599
306.418
307.03
307.243
307.822
307.607
308.273
307.491
308.484
306.694
308.324
305.065
307.352
302.637
305.336
302.475
300.548
302.151
301.701
300.207
300.391
300.07
300.153
300.056
300.122
300.188
300.266
300.36
300.443
300.507
300.556
300.643
300.704
300.786
300.86
300.927
301.008
301.072
301.115
301.139
301.135
301.102
301.042
300.977
300.905
300.85
300.779
300.731
300.691
300.65
300.607
300.578
300.631
301.09
303.123
306.022
306.175
307.389
307.602
308.094
308.2
308.544
308.564
308.881
308.903
309.065
309.255
308.877
309.488
307.763
309.269
305.348
307.932
305.073
301.205
304.498
303.653
300.271
300.762
300.077
300.181
300.059
300.127
300.198
300.265
300.353
300.423
300.511
300.563
300.661
300.711
300.77
300.863
300.932
301.009
301.071
301.118
301.149
301.154
301.13
301.082
301.015
300.95
300.885
300.829
300.752
300.718
300.68
300.641
300.604
300.635
301.085
303.322
307.236
307.69
307.884
308.193
308.168
308.508
308.373
308.805
308.557
309.169
308.877
309.529
309.34
309.82
309.795
309.536
310.112
307.888
309.687
307.629
302.64
307.111
306.265
300.444
301.676
300.086
300.246
300.065
300.135
300.204
300.266
300.347
300.423
300.487
300.575
300.666
300.724
300.781
300.866
300.931
301.005
301.072
301.122
301.158
301.169
301.155
301.116
301.053
300.988
300.924
300.865
300.795
300.741
300.707
300.671
300.633
300.638
301.052
303.255
307.224
308.007
307.938
308.115
308.082
308.185
307.967
308.14
307.664
308.287
307.544
308.798
307.899
309.494
308.72
310.067
309.672
310.371
310.365
309.701
310.617
309.539
304.959
309.131
308.414
300.892
303.337
300.101
300.403
300.075
300.15
300.217
300.281
300.358
300.432
300.489
300.601
300.653
300.732
300.792
300.862
300.934
301.009
301.073
301.126
301.166
301.183
301.176
301.147
301.093
301.026
300.96
300.9
300.856
300.771
300.73
300.699
300.663
300.642
300.973
303.086
307.147
307.899
307.882
307.483
307.427
307.759
307.594
307.2
306.793
306.772
306.067
306.875
305.855
307.63
306.461
308.812
307.803
309.996
309.241
310.734
310.456
310.77
311.114
310.784
307.293
310.593
310.093
301.854
305.592
300.124
300.748
300.091
300.177
300.239
300.294
300.363
300.439
300.492
300.59
300.667
300.739
300.799
300.866
300.919
301.018
301.073
301.13
301.171
301.195
301.195
301.173
301.127
301.063
301
300.925
300.88
300.84
300.757
300.717
300.691
300.662
300.846
302.72
306.962
307.881
307.872
307.425
307.451
306.199
306.199
306.487
306.292
305.491
305.068
304.93
304.186
305.274
304.156
306.758
305.63
308.415
307.523
309.863
309.208
310.99
310.617
311.455
311.576
311.687
309.164
311.722
311.459
303.458
307.718
300.157
301.42
300.087
300.202
300.276
300.325
300.383
300.45
300.501
300.599
300.686
300.735
300.784
300.868
300.929
301.023
301.078
301.132
301.178
301.205
301.211
301.196
301.156
301.101
301.034
300.967
300.9
300.862
300.82
300.748
300.707
300.685
300.756
302.177
306.581
307.911
307.515
307.586
306.245
306.356
304.697
304.762
304.808
304.693
303.667
303.359
303.192
302.512
304.368
303.038
306.563
305.444
308.603
308.025
310.29
310.194
311.537
311.658
312.162
312.515
312.64
310.783
312.909
312.856
305.516
309.587
300.215
302.609
300.147
300.29
300.373
300.416
300.46
300.516
300.613
300.688
300.732
300.786
300.856
300.936
301.013
301.083
301.136
301.185
301.214
301.226
301.217
301.187
301.136
301.074
301.018
300.937
300.879
300.845
300.799
300.735
300.7
300.722
301.637
305.878
308.081
306.923
307.166
306.522
306.727
304.909
305.122
303.324
303.494
303.232
303.242
302.138
301.989
302.007
301.492
304.094
302.557
307.286
306.076
310.264
310.167
312.141
312.912
313.146
314.266
313.437
314.607
314.177
312.399
314.636
314.711
307.726
311.517
301.008
305.539
300.184
300.387
300.472
300.489
300.559
300.619
300.687
300.735
300.787
300.846
300.954
301.012
301.083
301.144
301.192
301.224
301.24
301.236
301.214
301.17
301.112
301.048
300.991
300.912
300.862
300.831
300.782
300.727
300.719
301.25
304.952
308.114
307.388
307.694
305.983
306.315
305.378
305.67
303.727
304.005
302.269
302.494
301.998
302.096
301.293
301.233
301.516
301.126
304.319
302.433
309.45
307.628
313.476
312.9
315.609
316.447
316.304
318.166
315.886
318.13
316.822
314.418
317.38
317.621
315.996
310.394
313.87
304.113
309.728
300.252
300.522
300.545
300.595
300.623
300.691
300.73
300.786
300.855
300.939
301.023
301.085
301.149
301.198
301.232
301.251
301.254
301.237
301.201
301.147
301.083
301.034
300.964
300.892
300.848
300.816
300.769
300.731
301.023
303.903
308.048
307.776
306.655
306.936
305.043
305.434
304.321
304.67
302.763
303.07
301.491
301.717
301.244
301.324
301.008
300.968
301.397
301.059
304.93
302.486
310.955
308.148
315.64
313.71
318.728
317.768
320.156
320.506
319.607
321.433
320.492
318.856
320.475
317.568
315.667
317.443
319.284
321.13
320.848
319.363
313.243
317.236
316.955
315.132
307.237
312.97
300.4
300.627
300.642
300.639
300.695
300.734
300.796
300.863
300.932
301.041
301.09
301.152
301.203
301.24
301.263
301.268
301.257
301.228
301.18
301.119
301.06
301.013
300.938
300.875
300.836
300.803
300.763
300.909
302.994
307.794
308.306
306.614
307.079
305.835
306.229
304.184
304.601
303.413
303.786
301.976
302.277
301.011
301.123
300.946
300.955
300.964
300.921
301.439
301.165
304.983
302.614
311.002
307.667
315.738
312.804
319.727
318.886
317.845
316.399
321.766
321.533
319.498
319.947
320.991
322.118
321.763
322.76
322.477
322.298
319.308
319.167
321.232
322.957
322.681
321.284
316.686
314.343
316.265
318.931
318.615
307.583
315.709
314.689
312.989
300.653
300.715
300.679
300.703
300.741
300.805
300.87
300.934
301.049
301.102
301.157
301.21
301.25
301.275
301.284
301.277
301.254
301.213
301.157
301.094
301.045
300.986
300.915
300.861
300.826
300.795
300.861
302.326
307.161
308.643
307.32
305.903
306.295
305.032
305.469
303.381
303.802
302.614
302.983
301.313
301.567
300.821
300.85
300.87
300.827
301.091
301.011
301.803
301.664
304.577
303.084
309.423
306.397
314.92
313.161
311.592
309.904
318.327
316.868
315.207
322.232
321.54
318.694
319.007
320.44
323.078
323.292
323.63
322.797
323.77
321.232
321.076
323.133
324.177
324.522
323.219
318.213
317.633
320.809
320.406
312.838
304.203
308.398
316.687
315.099
300.797
300.745
300.726
300.76
300.812
300.876
300.942
301.047
301.115
301.166
301.217
301.259
301.287
301.299
301.296
301.277
301.243
301.193
301.132
301.07
301.03
300.96
300.895
300.848
300.818
300.845
301.825
306.222
308.691
308.048
306.051
306.565
305.149
305.598
304.241
304.692
302.586
302.992
301.872
302.209
300.914
301.022
300.759
300.75
300.879
300.794
301.605
301.393
302.9
302.962
304.928
304.981
308.672
307.562
306.979
306.84
313.489
311.8
310.319
309.209
317.155
315.439
313.674
322.024
320.813
317.36
317.503
319.278
323.327
324.141
323.842
322.473
324.626
323.2
323.049
324.792
325.086
325.517
324.972
319.82
318.908
322.741
322.223
311.999
303.237
306.528
317.51
315.216
300.836
300.783
300.786
300.824
300.885
300.951
301.038
301.127
301.176
301.228
301.27
301.299
301.314
301.314
301.299
301.271
301.226
301.17
301.106
301.053
301.006
300.936
300.877
300.839
300.843
301.44
305.039
308.604
308.647
306.854
305.268
305.705
304.335
304.803
303.422
303.873
301.781
302.153
301.196
301.455
300.764
300.798
300.738
300.714
301.031
300.809
302.814
302.248
305.63
305.72
307.133
307.691
308.362
308.987
308.455
308.23
308.493
309.173
312.029
310.727
309.843
309.529
315.564
313.764
312.205
321.164
319.509
315.599
315.604
317.599
322.936
324.362
323.436
321.533
324.893
325.037
324.928
325.922
325.448
326.011
326.272
321.395
320.083
324.595
323.953
311.131
302.166
305.42
318.131
315.028
300.858
300.826
300.842
300.894
300.956
301.026
301.137
301.187
301.24
301.282
301.312
301.329
301.332
301.32
301.297
301.258
301.206
301.145
301.083
301.042
300.981
300.914
300.865
300.849
301.18
303.787
308.32
309.101
307.696
305.328
305.869
304.38
304.851
303.441
303.907
302.554
302.987
301.102
301.333
300.859
300.955
300.709
300.717
300.736
300.696
301.421
300.898
305.106
303.778
310.764
310.247
310.095
311.028
311.771
312.053
309.712
310.453
311.565
312.818
311.134
310.639
310.711
311.44
313.78
312.36
311.605
319.755
317.71
313.816
313.886
315.638
321.968
323.98
322.48
320.071
324.584
326.524
326.565
326.562
325.259
326.007
327.072
322.848
321.109
326.275
325.513
310.199
301.467
304.3
318.53
314.654
300.881
300.869
300.904
300.961
301.022
301.143
301.199
301.252
301.296
301.326
301.344
301.349
301.341
301.32
301.287
301.24
301.183
301.12
301.064
301.023
300.956
300.897
300.87
301.037
302.823
307.651
309.326
308.454
306.089
304.328
304.79
303.38
303.852
302.471
302.915
301.656
302.047
300.822
300.902
300.737
300.77
300.687
300.683
300.755
300.673
302.137
301.088
308.541
305.97
315.705
315.259
313.268
314.465
313.998
314.947
315.577
315.804
312.676
314.188
315.726
317.074
311.508
312.073
313.334
315.04
312.578
312.224
312.453
317.906
315.784
312.976
313.502
314.107
320.515
323.085
321.098
318.252
323.8
327.513
327.789
326.793
324.637
325.602
327.554
324.144
321.963
327.685
326.89
309.176
300.944
303.305
318.744
314.142
300.907
300.92
300.968
301.024
301.145
301.209
301.265
301.31
301.342
301.36
301.366
301.36
301.343
301.314
301.272
301.219
301.159
301.096
301.053
300.998
300.934
300.898
300.976
302.169
306.656
309.314
309.056
306.997
304.166
304.708
303.214
303.686
302.301
302.752
301.496
301.869
301.025
301.21
300.724
300.754
300.689
300.703
300.66
300.664
300.804
300.658
303.164
301.381
311.948
310.094
307.832
318.226
317.344
314.642
316.136
318.096
318.721
318.912
318.76
316.905
318.661
320.111
321.131
313.563
315.312
317.414
319.553
312.881
313.539
315.098
316.062
314.502
313.603
314.307
314.085
318.794
321.83
319.531
316.55
322.714
328.191
328.654
326.659
323.762
324.991
327.75
325.278
322.659
328.775
328.084
308.092
300.463
302.188
318.83
313.486
300.943
300.977
301.029
301.145
301.215
301.278
301.325
301.358
301.377
301.384
301.38
301.363
301.34
301.303
301.254
301.197
301.134
301.075
301.037
300.973
300.923
300.956
301.736
305.508
309.168
309.491
307.841
304.872
302.947
303.423
302.039
302.485
301.32
301.641
300.957
301.104
300.796
300.86
300.682
300.698
300.666
300.671
300.628
300.626
300.837
300.656
303.992
301.581
312.937
311.053
309.146
306.861
319.632
318.276
314.982
316.708
321.672
321.77
321.463
320.73
321.456
322.94
323.91
324.29
317.261
319.677
322.003
323.99
314.639
316.578
319.085
315.039
314.668
315.634
316.509
315.031
317.268
320.462
318.197
315.735
321.576
328.687
329.316
326.356
322.868
324.366
327.775
326.256
323.23
329.619
329.093
306.744
300.151
301.111
318.792
312.589
300.99
301.036
301.141
301.218
301.288
301.34
301.374
301.395
301.403
301.4
301.385
301.363
301.332
301.288
301.234
301.173
301.109
301.065
301.015
300.952
300.955
301.45
304.31
308.794
309.804
308.595
305.851
302.649
303.203
301.734
302.157
301.17
301.398
300.901
301.011
300.78
300.829
300.719
300.745
300.658
300.667
300.639
300.652
300.617
300.607
300.847
300.701
305.084
302.997
301.552
313.11
311.144
308.425
306.409
319.873
318.255
314.566
316.485
324.218
323.647
322.624
321.326
325.465
326.336
326.539
326.292
321.735
324.189
326.206
327.654
317.903
320.701
323.542
315.355
315.626
319.053
319.988
317.286
316.546
319.347
317.518
316.06
320.666
329.068
329.914
326.038
322.188
323.951
327.785
327.104
323.698
330.333
329.939
305.015
300.065
300.487
318.566
311.318
301.043
301.134
301.218
301.297
301.354
301.391
301.413
301.422
301.42
301.409
301.385
301.358
301.319
301.27
301.211
301.149
301.087
301.05
300.994
300.962
301.266
303.337
308.106
309.914
309.213
306.74
303.35
301.497
301.922
301.052
301.227
300.859
300.935
300.771
300.808
300.72
300.744
300.681
300.699
300.635
300.648
300.602
300.612
300.656
300.63
300.933
300.873
300.964
304.576
302.946
301.085
301.626
312.56
310.505
307.286
305.446
319.143
317.258
313.336
315.324
325.386
324.094
322.628
320.965
328.411
328.521
328.056
326.955
326.078
328.107
329.516
330.192
322.079
325.071
327.68
316.262
317.888
323.198
324.056
320.712
316.847
318.75
317.771
316.913
320.21
329.357
330.455
325.919
321.935
323.914
327.878
327.861
324.07
330.964
330.642
303.321
300.036
300.165
318.08
309.739
301.125
301.218
301.302
301.366
301.408
301.432
301.442
301.441
301.431
301.412
301.383
301.349
301.305
301.249
301.189
301.121
301.077
301.029
300.989
301.151
302.66
307.197
309.877
309.655
307.541
304.281
301.355
301.782
300.983
301.133
300.837
300.893
300.77
300.799
300.725
300.746
300.687
300.706
300.655
300.669
300.591
300.615
300.599
300.588
300.898
300.809
301.169
301.122
301.822
301.788
303.864
302.58
301.266
301.543
311.309
309.276
305.822
304.268
317.354
315.367
311.456
313.413
325.423
323.589
321.503
319.415
330.248
329.719
328.545
326.79
329.705
331.085
331.725
331.792
326.336
329.007
331.044
318.388
321.14
327.327
327.993
324.586
317.626
318.894
318.496
318.753
320.324
329.685
330.977
326.027
322.128
324.259
328.175
328.543
324.3
331.532
331.265
301.746
300.025
300.091
317.36
307.741
301.217
301.306
301.378
301.424
301.451
301.462
301.462
301.453
301.437
301.412
301.377
301.337
301.284
301.227
301.16
301.098
301.059
301.023
301.102
302.174
306.185
309.716
309.979
308.263
305.193
301.927
300.975
301.163
300.834
300.884
300.775
300.8
300.733
300.753
300.696
300.714
300.66
300.678
300.637
300.646
300.574
300.574
300.672
300.595
301.662
301.53
301.49
301.76
301.813
303.132
303.098
303.015
302.089
301.712
301.721
309.504
307.605
304.335
303.217
314.86
312.851
309.123
310.947
324.543
322.072
319.526
317.085
331.304
330.228
328.555
326.375
332.393
333.018
333.092
332.843
330.092
332.144
333.478
321.165
324.468
330.887
331.044
327.967
319.128
319.648
319.807
321.064
321.142
330.147
331.493
326.521
323.128
325.477
328.8
329.175
324.37
332.076
331.815
301.037
300.018
300.048
316.33
306.237
301.308
301.387
301.439
301.469
301.484
301.487
301.48
301.465
301.442
301.411
301.369
301.32
301.264
301.2
301.131
301.09
301.051
301.092
301.831
305.178
309.332
310.214
308.9
306.021
302.581
301.01
300.85
300.924
300.786
300.812
300.745
300.765
300.707
300.726
300.672
300.689
300.64
300.654
300.601
300.627
300.581
300.558
301.022
300.697
302.869
302.454
302.725
303.502
302.929
303.085
305.141
305.1
302.442
301.961
302.691
302.478
307.38
305.753
303.253
302.741
312.018
310.025
306.717
308.274
323.636
320.432
317.225
314.384
331.919
330.594
328.693
326.212
334.094
334.203
334.064
333.453
333.014
334.35
334.936
324.029
327.439
333.369
333.313
330.689
321.181
321.033
321.825
323.615
322.851
330.748
332.001
327.882
325.181
327.588
329.893
329.686
324.236
332.567
332.25
300.435
300.014
300.037
315.333
304.212
301.393
301.453
301.49
301.512
301.524
301.525
301.512
301.486
301.454
301.413
301.364
301.305
301.242
301.173
301.11
301.081
301.095
301.612
304.233
308.765
310.293
309.42
306.789
303.361
301.24
300.825
300.837
300.868
300.803
300.76
300.78
300.721
300.74
300.685
300.703
300.649
300.667
300.617
300.635
300.561
300.587
300.662
300.558
302.174
301.096
304.804
304.252
304.443
305.743
304.83
305.069
307.976
307.924
302.428
302.392
304.412
303.973
305.33
304.13
303.037
303
309.346
307.331
304.714
305.839
323.145
319.524
315.659
312.139
332.403
330.974
328.986
326.399
335.061
334.979
334.548
333.806
334.863
335.51
335.671
326.777
330.133
335.11
335.105
333.094
323.719
323.318
324.741
326.548
325.425
331.503
332.549
329.534
327.591
329.359
330.975
329.993
324.039
332.921
332.564
300.263
300.011
300.03
314.075
303.115
301.467
301.514
301.557
301.602
301.633
301.631
301.595
301.539
301.48
301.421
301.357
301.289
301.218
301.14
301.106
301.107
301.482
303.502
308.122
310.272
309.8
307.482
304.171
301.531
300.895
300.8
300.797
300.823
300.778
300.737
300.757
300.699
300.718
300.664
300.682
300.633
300.647
300.579
300.612
300.544
300.554
300.933
300.589
305.332
303.547
302.303
307.529
306.764
307.102
308.663
307.522
307.87
311.476
311.432
303.149
303.539
306.922
306.219
303.875
303.333
303.706
304.184
307.847
305.651
303.803
304.429
323.152
319.302
315.122
311.137
332.753
331.359
329.459
326.986
335.617
335.274
334.722
333.978
335.875
336.076
336.024
329.946
333.05
335.849
335.31
334.712
327.204
326.491
328.32
330.221
328.188
332.1
332.868
330.596
329.477
330.454
331.639
330.283
323.72
333.161
332.856
300.172
300.006
300.032
312.954
302.439
301.555
301.645
301.78
301.93
301.983
301.936
301.805
301.66
301.538
301.437
301.353
301.273
301.183
301.127
301.131
301.413
303.011
307.387
310.185
310.067
308.089
304.966
301.917
300.972
300.823
300.776
300.776
300.799
300.756
300.717
300.737
300.68
300.698
300.645
300.662
300.603
300.632
300.551
300.572
300.539
300.537
301.625
300.689
307.869
305.502
303.073
305.489
310.948
309.98
310.037
311.989
310.786
311.31
315.345
315.305
304.8
305.508
309.966
309.069
303.514
303.527
305.331
306.175
307.586
305.283
304.068
304.344
323.815
319.934
315.539
311.202
333.035
331.843
330.224
328.095
335.831
335.248
334.698
334.036
336.05
336.017
335.862
332.865
333.966
335.468
334.558
334.45
330.45
329.291
330.534
332.122
329.886
332.372
332.999
331.306
330.368
330.83
331.977
330.429
323.615
333.391
333.066
300.157
300.017
300.056
312.373
302.312
301.848
302.184
302.589
302.907
302.928
302.678
302.257
301.891
301.628
301.469
301.344
301.243
301.164
301.156
301.388
302.693
306.634
309.982
310.263
308.62
305.673
302.41
301.079
300.861
300.788
300.778
300.756
300.758
300.737
300.698
300.718
300.661
300.679
300.63
300.645
300.57
300.597
300.537
300.552
300.538
300.525
304.488
303.529
301.67
300.887
310.659
308.096
307.38
314.742
313.596
313.159
315.399
314.386
315.071
319.248
319.196
307.091
308.091
313.473
312.462
304.145
304.64
307.833
308.967
308.795
306.294
305.559
305.601
325.299
321.714
317.424
312.901
333.22
332.287
331.194
329.766
335.399
334.784
334.262
333.713
335.336
334.714
333.593
332.896
333.118
333.988
333.296
333.272
331.478
330.371
330.768
332.057
330.291
332.567
333.238
331.219
330.384
330.472
331.929
330.673
323.662
333.555
333.188
300.224
300.296
300.24
312.407
302.843
302.888
303.665
304.252
304.434
304.204
303.644
302.876
302.161
301.738
301.471
301.322
301.211
301.178
301.374
302.488
305.966
309.661
310.399
309.077
306.316
303.018
301.23
300.904
300.822
300.751
300.762
300.746
300.772
300.738
300.741
300.719
300.68
300.7
300.646
300.662
300.595
300.629
300.555
300.573
300.521
300.538
300.549
300.513
306.258
304.47
302.222
301.179
313.242
310.311
309.244
318.53
317.232
316.002
318.469
318.453
319.016
323.213
322.847
310.155
311.318
317.591
316.574
305.862
306.82
311.378
312.715
312.589
309.251
308.398
308.449
327.671
324.781
321.021
316.797
333.108
332.445
331.705
330.892
333.327
332.627
332.341
332.105
333.746
333.752
325.734
332.241
326.362
326.343
327.116
326.642
330.934
330.289
330.293
331.109
330.054
332.518
333.217
331.362
329.855
330.966
331.858
330.858
324.044
333.508
333.285
300.715
300.426
301.254
313.567
305.024
304.817
305.606
305.935
305.791
305.257
304.417
303.415
302.452
301.773
301.451
301.281
301.217
301.371
302.355
305.418
309.3
310.473
309.459
306.91
303.676
301.442
300.95
300.861
300.794
300.732
300.739
300.726
300.759
300.722
300.702
300.664
300.683
300.63
300.648
300.577
300.596
300.541
300.56
300.504
300.52
300.579
300.506
307.441
305.403
302.857
303.204
301.755
300.899
315.405
312.369
310.665
322.002
320.519
318.285
320.938
322.856
323.181
327.089
326.269
314.095
315.372
322.148
321.221
309.004
310.071
315.988
317.379
319.526
315.349
313.233
313.561
330.001
328.547
326.258
322.925
331.906
331.678
331.417
331.144
325.7
326.058
325.879
326.019
326.232
326.91
319.142
326.264
319.534
319.292
319.627
319.529
325.688
329.752
325.213
326.234
329.677
332.26
332.833
330.79
324.154
329.416
323.82
331.348
331.251
325.087
333.511
333.339
303.777
376.069
308.039
316.486
310.861
306.863
307.259
307.197
306.733
305.953
304.906
303.699
302.515
301.74
301.413
301.277
301.384
302.268
305.002
308.935
310.494
309.775
307.455
304.36
301.724
301.005
300.893
300.834
300.771
300.712
300.719
300.726
300.706
300.746
300.687
300.65
300.667
300.6
300.632
300.564
300.582
300.523
300.543
300.49
300.504
300.6
300.496
308.448
305.921
303.589
301.745
300.973
316.852
313.824
311.463
324.986
323.234
319.795
322.659
327.305
327.382
330.67
329.362
318.8
320.08
326.894
326.193
313.521
314.652
321.638
322.822
327.889
325.355
320.261
321.646
330.817
330.309
330.043
329.035
325.996
326.267
326.302
326.712
319.096
319.527
319.384
319.686
319.069
319.664
311.002
319.544
311.078
310.995
311.143
311.081
319.187
324.788
318.92
319.417
325.025
331.839
332.945
330.258
317.879
323.747
317.706
331.017
331.621
326.593
333.413
333.421
310.989
687.915
327.817
320.259
316.807
308.425
308.291
307.9
307.211
306.234
305.003
303.672
302.447
301.668
301.371
301.41
302.215
304.717
308.596
310.488
310.039
307.955
305.033
302.098
301.079
300.924
300.867
300.812
300.751
300.736
300.692
300.699
300.707
300.715
300.671
300.636
300.653
300.588
300.606
300.547
300.568
300.509
300.528
300.478
300.489
300.6
300.488
308.738
306.022
303.545
301.722
300.979
317.349
314.412
311.572
327.55
325.292
320.418
323.662
331.666
331.425
333.907
332.086
324.075
325.219
331.552
331.221
320.11
320.598
328.272
329.005
331.309
331.957
329.648
331.355
327.038
330.35
330.857
330.878
319.717
320.273
320.367
320.75
311.022
311.201
311.256
311.395