/*--------------------------------*- C++ -*----------------------------------*\
  =========                 |
  \\      /  F ield         | OpenFOAM: The Open Source CFD Toolbox
   \\    /   O peration     | Website:  https://openfoam.org
    \\  /    A nd           | Version:  dev
     \\/     M anipulation  |
\*---------------------------------------------------------------------------*/
FoamFile
{
    version     2.0;
    format      ascii;
    class       volVectorField;
    location    "2500";
    object      U;
}
// * * * * * * * * * * * * * * * * * * * * * * * * * * * * * * * * * * * * * //

dimensions      [0 1 -1 0 0 0 0];

internalField   nonuniform List<vector> 
9836
(
(0.00474615 0.00713964 0)
(0.0114246 0.00635005 2.40073e-30)
(0.00479023 0.0190694 0)
(0.016126 0.00513154 0)
(0.0127828 0.0192619 -3.37241e-29)
(0.00418551 0.0278651 0)
(0.0200308 0.00428157 0)
(0.0181577 0.0185364 0)
(0.0124179 0.0288555 0)
(0.00354106 0.0353355 -8.75112e-29)
(0.0231619 0.00354519 7.95194e-28)
(0.0218429 0.0163899 1.0467e-27)
(0.0190507 0.0296275 0)
(0.0110309 0.0363302 1.20413e-28)
(0.00313621 0.0420622 -2.81559e-28)
(0.0259547 0.00295898 8.2366e-28)
(0.0246587 0.0137481 1.12026e-27)
(0.0240617 0.0291412 -1.10922e-29)
(0.018216 0.0379602 -4.44928e-28)
(0.00961491 0.0428133 0)
(0.00283038 0.0481315 -3.89183e-28)
(0.0286312 0.00250865 0)
(0.0271683 0.0112481 0)
(0.0276178 0.0274202 0)
(0.0243898 0.0391429 -5.50542e-29)
(0.0163591 0.0443952 -5.78961e-29)
(0.00863302 0.048699 -8.30581e-29)
(0.00257916 0.0537018 -1.41036e-35)
(0.0311458 0.00218381 0)
(0.0295439 0.00930296 0)
(0.0300832 0.024884 0)
(0.0292248 0.0392498 0)
(0.0229873 0.0463892 -3.7875e-29)
(0.0146002 0.049944 0)
(0.00785667 0.0541685 -8.60272e-29)
(0.00236531 0.0588558 2.16956e-27)
(0.0334671 0.00197025 0)
(0.0317609 0.0080273 2.07903e-28)
(0.0318322 0.0219764 -5.96524e-28)
(0.0326962 0.0380834 1.48761e-29)
(0.0288607 0.0480409 7.67648e-28)
(0.02079 0.0518105 0)
(0.0132358 0.0552383 -6.76474e-29)
(0.00717381 0.0592579 3.30411e-27)
(0.00216945 0.0636252 0)
(0.0356728 0.0018252 0)
(0.033894 0.00727714 -1.2166e-28)
(0.0334174 0.0191324 -4.98134e-28)
(0.0349832 0.0358715 3.68438e-29)
(0.0335938 0.0487144 1.05261e-27)
(0.0269691 0.0541182 3.56059e-28)
(0.0187499 0.0568069 -5.15186e-28)
(0.0120806 0.0602015 1.21685e-27)
(0.00655677 0.0639796 0)
(0.00199263 0.0680258 0)
(0.0378058 0.00172639 0)
(0.0359766 0.00677995 0)
(0.0351202 0.0167035 -1.02231e-28)
(0.0364982 0.0329826 8.80227e-29)
(0.0370976 0.048158 0)
(0.0326334 0.056235 7.2981e-28)
(0.0244698 0.0589582 -8.91796e-29)
(0.0170771 0.061541 0)
(0.0110613 0.0648283 0)
(0.00600657 0.0683247 2.66055e-27)
(0.00182852 0.072113 3.63907e-28)
(0.0399138 0.00164584 0)
(0.038039 0.0064187 0)
(0.0368762 0.0148647 0)
(0.0376904 0.0297876 6.51492e-28)
(0.0394983 0.0463955 8.8307e-29)
(0.0373493 0.0575335 -4.57413e-28)
(0.0302853 0.0615085 0)
(0.0222219 0.0633583 0)
(0.0156504 0.0659914 -4.84886e-29)
(0.010148 0.0691243 3.98709e-27)
(0.00549834 0.0723858 2.9681e-27)
(0.00166891 0.0758829 3.54506e-27)
(0.0420185 0.00157174 4.2331e-28)
(0.0401192 0.00609675 0)
(0.0387369 0.0135779 1.39462e-28)
(0.0389311 0.0267038 7.4207e-28)
(0.0410849 0.0437666 9.36809e-29)
(0.0410142 0.057634 -5.53209e-28)
(0.0357886 0.0640004 6.89603e-29)
(0.0275699 0.0657168 -1.23586e-29)
(0.0203172 0.0675646 0)
(0.0143647 0.0702179 1.6431e-27)
(0.00928507 0.0731652 2.32853e-27)
(0.00500329 0.0761307 2.68877e-27)
(0.00151252 0.0793492 0)
(0.0440943 0.00151504 8.67419e-28)
(0.0421803 0.00579243 1.80636e-28)
(0.0406903 0.0126797 0)
(0.0403348 0.0240364 1.21968e-28)
(0.0421969 0.0406512 -7.78903e-28)
(0.0436446 0.0564984 1.93201e-28)
(0.0405927 0.0658413 1.08978e-28)
(0.0330563 0.0685085 2.31993e-29)
(0.0251279 0.0696333 -1.17914e-29)
(0.0186235 0.0716624 -1.36433e-27)
(0.013152 0.074195 -2.05034e-27)
(0.00845386 0.0769108 2.87244e-27)
(0.00451727 0.0795762 -4.14463e-32)
(0.00135555 0.0825107 0)
(0.0461079 0.00146941 8.87945e-28)
(0.0441989 0.00557721 0)
(0.0426945 0.0120227 1.71027e-28)
(0.0418165 0.0219496 0)
(0.043134 0.0373501 -8.06292e-28)
(0.045411 0.0543225 2.76287e-28)
(0.0444505 0.066635 -1.80694e-28)
(0.0384416 0.0713566 -5.93109e-29)
(0.0301496 0.0721921 1.10181e-28)
(0.0229917 0.073523 -1.02026e-27)
(0.0170681 0.0755371 -1.74354e-27)
(0.0119886 0.0779118 2.39757e-27)
(0.00764019 0.0803651 1.90427e-28)
(0.00403466 0.0827208 3.88644e-27)
(0.00119737 0.0853658 0)
(0.0480835 0.00141941 9.06039e-28)
(0.0462135 0.00540758 0)
(0.044671 0.0113964 1.83217e-28)
(0.0435259 0.0204443 7.62698e-28)
(0.0441538 0.0341164 0)
(0.0466065 0.0514906 0)
(0.0473452 0.066206 -4.8464e-28)
(0.0433245 0.0737473 -1.09265e-28)
(0.0353884 0.0751828 -2.72046e-28)
(0.0275412 0.0757966 3.39452e-29)
(0.0210579 0.0772606 -4.19033e-30)
(0.0155944 0.0791963 0)
(0.0108592 0.081357 -1.12671e-28)
(0.00682732 0.0835301 3.47721e-27)
(0.00355137 0.0855589 3.99119e-27)
(0.00103622 0.0879172 0)
(0.050041 0.00137737 6.83321e-28)
(0.0482033 0.00520858 0)
(0.0466238 0.0107962 1.94389e-28)
(0.0454256 0.0193525 1.8864e-27)
(0.0453406 0.0312614 1.38214e-28)
(0.0475016 0.0483087 0)
(0.0493855 0.0646495 8.29548e-28)
(0.0474112 0.0752402 2.37825e-28)
(0.040639 0.0783397 2.04474e-28)
(0.0323182 0.0785262 -1.69568e-29)
(0.0251966 0.0793651 9.74457e-36)
(0.0192603 0.0808261 5.36348e-30)
(0.0141536 0.0826196 0)
(0.00973582 0.084535 -7.99963e-29)
(0.00601164 0.0863902 3.89886e-27)
(0.00305572 0.088099 0)
(0.000870025 0.09015 4.8855e-27)
(0.0519678 0.00134665 4.69955e-28)
(0.0501456 0.00499847 1.04092e-27)
(0.048562 0.0103357 6.62612e-28)
(0.0472996 0.0184713 1.15628e-27)
(0.0466969 0.0290652 3.12552e-28)
(0.0482529 0.0450161 1.07409e-27)
(0.0507665 0.0622555 1.82342e-27)
(0.0505991 0.0755864 -6.94871e-28)
(0.0455747 0.081244 2.36296e-28)
(0.0373115 0.0816927 1.81347e-28)
(0.0295213 0.0818707 -4.18495e-29)
(0.0230228 0.0827943 6.38291e-28)
(0.0175212 0.0842304 1.78048e-29)
(0.0127151 0.0857959 -3.41715e-30)
(0.00859817 0.087421 -3.36983e-27)
(0.00517789 0.0889687 3.99231e-27)
(0.00254138 0.0903235 9.38881e-27)
(0.000694517 0.0920586 -5.24616e-27)
(0.0538496 0.00132253 7.13809e-28)
(0.0520581 0.00479908 1.22403e-27)
(0.0504727 0.0100039 1.10843e-27)
(0.0491075 0.0176711 1.95824e-28)
(0.048281 0.0275364 1.06134e-27)
(0.0490661 0.0418091 2.24489e-27)
(0.0516928 0.0593577 0)
(0.0529426 0.0747636 -1.76696e-27)
(0.049886 0.0834193 7.46322e-29)
(0.0424002 0.0851246 0)
(0.0340559 0.0848151 -2.02422e-28)
(0.0269485 0.0851292 2.51538e-28)
(0.0209632 0.0861552 0)
(0.0157753 0.0874104 0)
(0.0112639 0.0886988 -6.22847e-27)
(0.00743103 0.0900426 3.74466e-27)
(0.00431151 0.0912396 4.29435e-27)
(0.002003 0.0922282 -4.9289e-27)
(0.000510393 0.0936097 5.61646e-27)
(0.0556708 0.00128384 0)
(0.0539295 0.00463043 1.71764e-27)
(0.0523614 0.00974399 2.20217e-28)
(0.0509141 0.0169363 6.30237e-28)
(0.0500182 0.0263633 1.103e-27)
(0.050138 0.0389574 1.006e-27)
(0.0523844 0.0561741 1.28752e-27)
(0.0545671 0.0729466 -7.6574e-28)
(0.0533765 0.0845725 0)
(0.0473482 0.0884635 0)
(0.0388126 0.0881954 8.44318e-29)
(0.0310654 0.0878557 -2.08115e-28)
(0.0245279 0.0883832 -4.36894e-28)
(0.0189279 0.0893563 1.06115e-27)
(0.0140133 0.0903351 -2.79424e-27)
(0.00978114 0.0913469 0)
(0.00622316 0.0923696 -5.12494e-29)
(0.00340649 0.093192 4.71794e-27)
(0.00143555 0.0937666 5.4239e-27)
(0.00031971 0.0947807 -5.99767e-27)
(0.057423 0.00123531 4.89607e-28)
(0.0557558 0.00451626 8.75758e-28)
(0.05422 0.00946733 4.52239e-28)
(0.0527554 0.0162608 1.28487e-27)
(0.0518133 0.0252793 -3.91324e-28)
(0.0514616 0.036688 0)
(0.0530579 0.052883 1.10063e-27)
(0.0556816 0.0704234 -1.17484e-28)
(0.0560518 0.0845816 1.14492e-27)
(0.0518471 0.0912934 0)
(0.0437329 0.0918821 2.24772e-28)
(0.0353883 0.0909831 1.38815e-28)
(0.0282718 0.0909705 -6.58798e-29)
(0.0221909 0.0915774 7.77104e-28)
(0.0168671 0.0923168 0)
(0.012219 0.0930136 0)
(0.00824965 0.0937198 1.31988e-28)
(0.00496741 0.0943877 8.84147e-27)
(0.00245082 0.0947904 5.01024e-27)
(0.000860414 0.0949625 -1.15482e-26)
(0.000108032 0.0955547 4.85122e-29)
(0.0590988 0.00119282 7.31211e-28)
(0.0575164 0.00440195 0)
(0.0560443 0.00911315 9.94291e-28)
(0.054638 0.0156395 -2.1992e-28)
(0.0536064 0.0242301 1.3878e-27)
(0.0530219 0.0350156 1.06793e-27)
(0.0538817 0.0497034 -6.1822e-28)
(0.0564792 0.0674728 0)
(0.0580106 0.0835044 1.88405e-27)
(0.0556622 0.0932344 6.40102e-28)
(0.0486612 0.0956186 -1.86977e-28)
(0.0399411 0.0945117 -3.30938e-28)
(0.0322114 0.0939323 6.15779e-28)
(0.0255993 0.0940906 4.64318e-28)
(0.0198542 0.0945734 -1.32224e-28)
(0.0147739 0.095037 0)
(0.0103727 0.0954445 1.05347e-28)
(0.00664897 0.0958064 8.66143e-27)
(0.00363598 0.0960843 5.07617e-27)
(0.00141751 0.0959885 -2.92559e-28)
(0.000243191 0.095841 0)
(-0.000136402 0.0959586 1.81552e-28)
(0.0606952 0.00115642 0)
(0.0592002 0.00424137 4.82106e-28)
(0.0578344 0.00870105 1.01842e-27)
(0.0564914 0.0150854 2.24613e-28)
(0.0553735 0.0232836 -2.55831e-28)
(0.0547076 0.0337176 1.68201e-27)
(0.0549349 0.0469056 1.53829e-27)
(0.0571234 0.0643115 3.57469e-28)
(0.0593895 0.081543 2.59934e-27)
(0.0587078 0.0941022 1.00583e-27)
(0.0533212 0.0990165 9.05927e-37)
(0.0447081 0.0984079 -7.39293e-29)
(0.0363575 0.097249 1.81311e-29)
(0.0291982 0.0969327 6.69721e-28)
(0.0229745 0.0971065 5.26061e-28)
(0.0174795 0.0973384 1.20977e-27)
(0.0126233 0.0975444 2.12203e-27)
(0.00844116 0.0976163 4.19345e-27)
(0.00495265 0.0975949 4.90507e-28)
(0.00222028 0.0974098 5.07933e-27)
(0.000330948 0.0968083 0)
(-0.000432882 0.0962498 -6.48315e-27)
(-0.000377518 0.095864 7.11579e-27)
(0.0622182 0.00111612 -4.82104e-28)
(0.0608086 0.00404184 -4.20065e-28)
(0.0595419 0.00830261 2.33626e-28)
(0.058258 0.0146127 1.16776e-27)
(0.0571301 0.0224503 1.69674e-27)
(0.0563985 0.0325822 3.36781e-28)
(0.0561666 0.0446695 8.88269e-28)
(0.0577647 0.0611126 2.88974e-27)
(0.0603707 0.0789837 9.93999e-28)
(0.0610401 0.0938513 1.41156e-27)
(0.0574508 0.101693 0)
(0.0495862 0.102485 7.74948e-28)
(0.0407343 0.100952 -1.30864e-28)
(0.0329813 0.10011 0)
(0.026264 0.0999207 -1.22065e-35)
(0.0203259 0.0999238 -7.27818e-28)
(0.015037 0.0999329 2.61632e-27)
(0.0103772 0.099821 6.81802e-28)
(0.00640466 0.0994945 3.26108e-28)
(0.00315913 0.0990095 3.11442e-28)
(0.000707727 0.0983839 -6.31278e-27)
(-0.000780201 0.0972311 -5.98169e-27)
(-0.00116667 0.0961631 6.92019e-27)
(-0.000647592 0.095297 8.44086e-27)
(0.0636496 0.00106182 -4.68592e-28)
(0.0623514 0.003819 -4.28686e-28)
(0.0611657 0.00795942 2.32918e-28)
(0.0599732 0.0141361 5.1423e-28)
(0.058847 0.021684 1.07499e-27)
(0.0580526 0.0315365 1.61024e-27)
(0.0575986 0.0429829 0)
(0.0585451 0.0580362 1.39961e-27)
(0.0611031 0.0760457 0)
(0.0627766 0.092598 2.01405e-27)
(0.0609113 0.10339 -5.29695e-28)
(0.0543637 0.106407 7.81773e-28)
(0.0453582 0.105016 3.67127e-28)
(0.036989 0.103635 -8.19634e-44)
(0.0297246 0.103029 -4.3252e-28)
(0.0233352 0.102782 -4.23626e-28)
(0.0176123 0.102601 -1.32246e-27)
(0.0124929 0.102322 0)
(0.00801315 0.101814 -8.06146e-28)
(0.00425242 0.10102 0)
(0.00125223 0.100098 -5.53985e-27)
(-0.000915508 0.0989398 4.31303e-36)
(-0.00197522 0.097261 -7.13397e-28)
(-0.00195339 0.0955569 7.25809e-27)
(-0.000928525 0.0942113 1.24859e-27)
(0.0649498 0.00100111 -4.5662e-28)
(0.0638005 0.00360317 -2.34887e-28)
(0.0627089 0.00764392 -6.12261e-28)
(0.0615925 0.0135819 0)
(0.0605366 0.021009 -1.5549e-27)
(0.0597047 0.0305543 4.0328e-28)
(0.0591522 0.0416279 0)
(0.0595586 0.0552482 3.59915e-27)
(0.061742 0.0729058 -6.30211e-28)
(0.0640443 0.0905309 2.80411e-27)
(0.0636756 0.104005 6.9606e-28)
(0.0587859 0.1098 9.30746e-28)
(0.0501725 0.109344 1.23779e-27)
(0.041233 0.107499 2.03409e-28)
(0.0334163 0.106441 -2.99418e-43)
(0.0265081 0.105915 -2.39572e-28)
(0.0203519 0.105534 -1.90994e-27)
(0.0147869 0.105117 1.89667e-27)
(0.00981457 0.104466 1.68055e-27)
(0.0055106 0.103493 1.55535e-28)
(0.00194914 0.102246 0)
(-0.000808641 0.100796 -9.04976e-28)
(-0.00264453 0.0990521 8.85272e-28)
(-0.00327495 0.0968255 -8.58437e-28)
(-0.00280962 0.0944453 1.69362e-27)
(-0.00122616 0.092558 -3.10441e-27)
(0.0661092 0.000932624 -4.39656e-28)
(0.0651187 0.00340433 -6.68885e-28)
(0.0641434 0.00732379 -2.39371e-27)
(0.0630816 0.0130218 9.11814e-28)
(0.0621665 0.0204357 -1.85436e-27)
(0.0613031 0.0295939 2.58059e-27)
(0.0607854 0.0404063 -1.62892e-27)
(0.0607872 0.0528564 7.48545e-28)
(0.0624449 0.0696959 6.66668e-28)
(0.0650069 0.0879085 1.50505e-27)
(0.0658321 0.103547 1.41608e-27)
(0.0626571 0.112342 1.21481e-27)
(0.0550124 0.113685 8.71349e-28)
(0.0457482 0.1117 8.98784e-28)
(0.0373275 0.110163 0)
(0.029916 0.109315 2.62791e-28)
(0.0232532 0.108742 2.64518e-28)
(0.0172592 0.108189 -1.06764e-27)
(0.0118058 0.10743 8.91627e-28)
(0.00697666 0.106326 6.13907e-27)
(0.00282338 0.104907 -1.07711e-27)
(-0.000536 0.103104 0)
(-0.00303931 0.101078 -5.23868e-28)
(-0.00448622 0.0987112 0)
(-0.0046871 0.0958503 2.87613e-27)
(-0.00372012 0.0927812 7.9855e-30)
(-0.00154101 0.0903093 -3.36517e-26)
(0.0671224 0.000851289 0)
(0.0662992 0.00320221 -6.61646e-28)
(0.0654702 0.00697329 -8.5856e-28)
(0.0645075 0.012503 -1.48334e-27)
(0.0636704 0.0198547 -3.07101e-28)
(0.0628672 0.0286561 4.33891e-28)
(0.0624032 0.0392013 0)
(0.0621963 0.0508929 7.91414e-28)
(0.0633422 0.0665878 -1.406e-27)
(0.0658048 0.0849333 0)
(0.0674873 0.102159 2.18073e-27)
(0.065901 0.113859 0)
(0.0596837 0.117667 0)
(0.0504938 0.116184 1.9699e-27)
(0.0415032 0.114191 -5.67241e-28)
(0.0335488 0.112987 0)
(0.0264048 0.112197 -4.62125e-28)
(0.0199198 0.111506 0)
(0.0140144 0.110671 1.19708e-27)
(0.00866023 0.109469 1.20988e-27)
(0.00393569 0.10796 2.19613e-27)
(-7.00175e-05 0.105968 0)
(-0.00322052 0.103568 -6.05677e-28)
(-0.00543349 0.100908 -1.1847e-27)
(-0.00647555 0.0978711 8.41407e-28)
(-0.00621449 0.0943055 -4.15824e-29)
(-0.00467942 0.0905254 -2.79933e-26)
(-0.00187248 0.0874206 2.13829e-26)
(0.0679744 0.000773707 -4.10422e-28)
(0.0673255 0.00299183 -1.73052e-27)
(0.0666552 0.00659516 0)
(0.0658622 0.0119841 -1.05242e-27)
(0.0650937 0.0191907 0)
(0.0644068 0.0277883 -1.36318e-27)
(0.0639203 0.0380016 -2.3428e-27)
(0.063697 0.0492906 -7.97971e-32)
(0.0643853 0.0637489 0)
(0.0665446 0.0818006 1.69507e-27)
(0.068745 0.100036 1.69322e-27)
(0.0685182 0.114295 4.35608e-42)
(0.0639613 0.120971 0)
(0.0553872 0.120802 2.55407e-27)
(0.0459492 0.118533 1.15855e-27)
(0.0374272 0.116912 -1.21285e-27)
(0.0297939 0.115889 -4.25091e-28)
(0.0228364 0.11504 0)
(0.0164624 0.114156 -6.4783e-28)
(0.0105909 0.1129 1.33084e-27)
(0.00530523 0.11134 1.1331e-27)
(0.000661959 0.109262 -2.64219e-28)
(-0.00319083 0.106657 2.49831e-27)
(-0.00612215 0.103603 -6.75372e-28)
(-0.0080205 0.100264 -1.31087e-27)
(-0.00863079 0.0964771 4.39164e-28)
(-0.00784232 0.0921515 0)
(-0.00570647 0.0876224 2.13387e-26)
(-0.00220799 0.0838681 0)
(0.0686651 0.000702312 1.94752e-28)
(0.0681803 0.00277601 -1.67808e-27)
(0.067685 0.00619704 -4.17624e-28)
(0.0670626 0.0114412 2.1302e-27)
(0.0664531 0.0184971 1.72148e-27)
(0.0658764 0.0269686 -5.6732e-27)
(0.0653837 0.0368337 -2.99543e-27)
(0.0652134 0.0478951 -2.51244e-27)
(0.0655203 0.0612771 4.35206e-27)
(0.0672983 0.0786346 1.80287e-27)
(0.0697372 0.0974281 -1.15261e-27)
(0.0705883 0.113707 0)
(0.0676807 0.123346 2.19728e-27)
(0.0602435 0.125279 2.49321e-27)
(0.0506446 0.123149 2.31056e-27)
(0.0415815 0.121116 1.06079e-27)
(0.0334307 0.119802 -6.03069e-28)
(0.0260014 0.118805 0)
(0.0191579 0.117854 1.39937e-27)
(0.012805 0.116604 -1.43164e-27)
(0.00694771 0.115017 -1.47678e-27)
(0.00168287 0.112914 -2.34708e-28)
(-0.00288224 0.110231 1.97998e-27)
(-0.00658427 0.106956 0)
(-0.00928015 0.103191 0)
(-0.0108197 0.0990526 4.5293e-27)
(-0.0109294 0.094485 0)
(-0.00957365 0.0893444 9.68034e-28)
(-0.00678276 0.0840498 -8.31296e-27)
(-0.00254952 0.0796357 0)
(0.0691861 0.00062281 -5.87857e-27)
(0.0688911 0.00252978 1.95401e-28)
(0.0685692 0.00575411 3.39305e-27)
(0.0681233 0.0108709 6.46783e-27)
(0.0676979 0.0177935 6.81185e-27)
(0.0672561 0.0261243 -4.20729e-27)
(0.0668097 0.0357261 3.23724e-27)
(0.0667055 0.0465085 1.62628e-27)
(0.0667957 0.0591889 3.73161e-27)
(0.0681325 0.0755676 7.18009e-28)
(0.0705725 0.0945155 1.91643e-27)
(0.072214 0.112231 0)
(0.0708041 0.12469 3.9501e-28)
(0.0648519 0.12925 2.828e-27)
(0.0555542 0.127958 1.11972e-27)
(0.0459925 0.12558 7.09263e-28)
(0.0373428 0.123949 0)
(0.0294322 0.12278 0)
(0.0221169 0.121747 -7.23659e-28)
(0.015299 0.120535 -8.47153e-28)
(0.00890436 0.118964 -1.19286e-27)
(0.003031 0.116891 -1.64591e-27)
(-0.00224701 0.114209 1.41208e-27)
(-0.00674266 0.110859 -3.0079e-28)
(-0.0102825 0.106816 -3.30735e-27)
(-0.0127101 0.102209 8.04231e-28)
(-0.0138192 0.097242 2.97116e-27)
(-0.0133483 0.0918361 2.73067e-27)
(-0.0114042 0.0858343 -7.85812e-27)
(-0.00785558 0.0798065 -3.28221e-26)
(-0.00291325 0.0747634 -1.01402e-26)
(0.0694985 0.000542763 -4.91389e-27)
(0.0694235 0.00225966 -8.16164e-27)
(0.0692881 0.00529916 3.3386e-27)
(0.0690429 0.0102814 4.33054e-27)
(0.0688061 0.0170539 5.23787e-27)
(0.068519 0.0252447 1.09509e-26)
(0.0682141 0.0346739 6.71534e-27)
(0.0680935 0.0450946 -3.25153e-27)
(0.0681743 0.0574388 -7.78191e-27)
(0.0690769 0.0727045 -2.96822e-27)
(0.0713227 0.0914156 4.0286e-27)
(0.0734742 0.110069 0)
(0.0733561 0.124973 1.36237e-27)
(0.0690336 0.132452 1.71141e-31)
(0.0605413 0.132753 0)
(0.0506768 0.130309 0)
(0.0415038 0.128312 0)
(0.033143 0.126948 2.29153e-28)
(0.025375 0.125812 -2.82904e-28)
(0.0180796 0.124644 -1.01583e-27)
(0.011195 0.123154 -1.7207e-27)
(0.00472182 0.121159 4.3117e-27)
(-0.00122678 0.11855 1.71149e-27)
(-0.00652989 0.115205 -5.87432e-28)
(-0.0109519 0.111064 0)
(-0.0143194 0.106146 -3.54002e-27)
(-0.0164235 0.100622 -4.16958e-27)
(-0.0169962 0.0947676 3.75693e-33)
(-0.0159106 0.088418 2.63733e-27)
(-0.0132414 0.0816395 -3.93226e-26)
(-0.00885942 0.0749258 0)
(-0.00327256 0.0692744 1.99483e-26)
(0.0695924 0.000461989 4.90411e-28)
(0.069725 0.00199885 -7.66292e-27)
(0.0698094 0.00487106 -1.77619e-28)
(0.069759 0.00967943 0)
(0.0697311 0.0162939 3.06967e-27)
(0.0696321 0.0243718 6.17965e-27)
(0.0695243 0.0336078 3.20784e-27)
(0.0693845 0.0437687 0)
(0.0695804 0.0558397 -3.13742e-27)
(0.0701428 0.0701245 1.39174e-26)
(0.0720669 0.0882303 -2.78638e-27)
(0.0745056 0.107438 0)
(0.0754021 0.124262 0)
(0.0726871 0.134675 1.38834e-27)
(0.0654198 0.137242 -8.25728e-32)
(0.0555953 0.13525 -1.41275e-27)
(0.0459368 0.132894 -1.42838e-27)
(0.0371166 0.131277 1.01798e-27)
(0.0289223 0.130034 1.54687e-28)
(0.0211835 0.128906 0)
(0.0138112 0.127532 8.5568e-28)
(0.00679282 0.125682 7.91647e-29)
(0.000186363 0.123212 3.71294e-27)
(-0.00588957 0.119945 1.10312e-28)
(-0.0112181 0.115831 -2.28072e-27)
(-0.0155739 0.110812 0)
(-0.0187403 0.104872 -7.92896e-28)
(-0.0204088 0.0983656 -5.84486e-27)
(-0.0203681 0.0914815 0)
(-0.0185439 0.0842428 -1.26024e-26)
(-0.0149743 0.0767542 7.65116e-27)
(-0.00975553 0.0693506 2.92752e-26)
(-0.00370176 0.0632668 0)
(0.0694714 0.000380893 -4.64078e-27)
(0.0698182 0.00173444 5.03896e-27)
(0.0701096 0.00444264 -2.63522e-27)
(0.0702716 0.00905901 1.21784e-27)
(0.0704525 0.0155329 0)
(0.0705617 0.0235225 -9.52599e-27)
(0.070622 0.0325114 0)
(0.0706665 0.0425693 0)
(0.0708502 0.0542293 1.66803e-26)
(0.0713496 0.0678496 1.76542e-26)
(0.0728881 0.0850657 -2.85431e-27)
(0.0753934 0.104493 0)
(0.0770353 0.122691 0)
(0.0757668 0.135862 0)
(0.0700249 0.141124 -7.58783e-27)
(0.0606845 0.140257 -1.41359e-27)
(0.0506555 0.137677 -1.45398e-27)
(0.0413727 0.135754 -2.17531e-27)
(0.0327672 0.134397 0)
(0.0246086 0.133297 0)
(0.0167747 0.132049 0)
(0.00924913 0.130394 0)
(0.00203312 0.128138 1.0445e-27)
(-0.00477713 0.12504 -1.01847e-27)
(-0.0109925 0.121037 -4.22492e-31)
(-0.0163857 0.116072 -5.67858e-28)
(-0.0206764 0.109984 0)
(-0.0235505 0.102941 0)
(-0.0246421 0.0953227 -3.27446e-27)
(-0.0238865 0.0873444 -1.99441e-27)
(-0.0211011 0.0792826 -1.15456e-26)
(-0.0165114 0.0711609 -7.42705e-30)
(-0.0106442 0.0631912 0)
(-0.00203958 0.0588537 0)
(-0.00563312 0.0580906 0)
(0.0691112 0.00029911 -7.66601e-29)
(0.0696823 0.00146442 -3.62498e-27)
(0.0702244 0.00399815 1.81029e-27)
(0.0705982 0.00841443 3.14781e-31)
(0.0709615 0.0147876 -6.67869e-32)
(0.071297 0.0226669 -2.53987e-26)
(0.0715366 0.0314103 5.93568e-27)
(0.0718211 0.0413805 1.57954e-26)
(0.0719914 0.0526845 2.56971e-26)
(0.072577 0.065829 0)
(0.0738318 0.0820574 -2.47531e-26)
(0.0761894 0.101339 -5.4201e-27)
(0.0783456 0.120459 0)
(0.0783027 0.135995 -1.27747e-26)
(0.0741841 0.144179 -8.47031e-27)
(0.0657826 0.145121 0)
(0.0556504 0.142612 -8.9012e-27)
(0.0459085 0.140401 0)
(0.0369005 0.138881 -3.04288e-27)
(0.028349 0.137792 0)
(0.0201017 0.136669 6.42334e-29)
(0.0121076 0.135222 -2.17036e-27)
(0.00433741 0.133235 -6.91241e-28)
(-0.00314899 0.130427 0)
(-0.0102203 0.126644 1.56662e-27)
(-0.0166419 0.12184 -7.74734e-28)
(-0.0221189 0.115804 -2.81353e-28)
(-0.0262725 0.108535 0)
(-0.0287161 0.100255 0)
(-0.0291214 0.0913654 3.31949e-32)
(-0.0274773 0.0823228 -4.35592e-27)
(-0.0235718 0.073348 -8.84162e-28)
(-0.0178596 0.0647777 -1.10916e-28)
(-0.00942278 0.0580546 0)
(-0.0131863 0.058755 -8.85624e-30)
(-0.00212385 0.0553981 -2.18947e-27)
(-0.00563492 0.0547925 -5.00531e-28)
(0.0685176 0.000208874 3.67166e-27)
(0.0693249 0.00119619 8.51891e-28)
(0.0701156 0.00350571 -2.90538e-27)
(0.0707049 0.00776391 -4.12949e-27)
(0.0712953 0.0140588 7.83176e-27)
(0.0718423 0.0217418 -1.3475e-26)
(0.0722947 0.0303047 0)
(0.0727734 0.0401214 2.20359e-26)
(0.0731205 0.0512944 -1.77959e-30)
(0.0736644 0.0638978 2.48379e-26)
(0.0748533 0.079289 -2.56218e-26)
(0.0769736 0.0981082 -1.0926e-26)
(0.0794319 0.11776 2.97652e-30)
(0.0803596 0.135158 -1.96787e-26)
(0.0778169 0.146238 -7.27819e-27)
(0.0707377 0.149543 5.73497e-27)
(0.0608295 0.147687 7.06213e-27)
(0.0507282 0.145223 -2.99293e-27)
(0.0412854 0.143482 -1.07611e-26)
(0.0323864 0.142364 -3.79516e-28)
(0.0237762 0.141361 3.90682e-28)
(0.0153682 0.140121 5.03835e-29)
(0.00710689 0.13844 -4.28406e-27)
(-0.000984497 0.135997 0)
(-0.00884345 0.132588 -1.15815e-27)
(-0.0162616 0.128075 3.1326e-27)
(-0.0229446 0.122232 -1.09724e-27)
(-0.0284396 0.114954 3.46998e-28)
(-0.0323684 0.106364 0)
(-0.0343371 0.0966845 1.92157e-27)
(-0.033866 0.0864658 0)
(-0.0311387 0.0762227 2.63221e-27)
(-0.0233466 0.0670342 -2.78528e-29)
(-0.0276605 0.0689436 0)
(-0.0168018 0.0590862 0)
(-0.0239743 0.0654753 4.08985e-28)
(-0.0209663 0.0596156 2.41722e-27)
(-0.00954849 0.0549342 -5.51742e-28)
(-0.0131788 0.0554359 -9.37575e-28)
(-0.00197553 0.0521193 -1.8987e-27)
(-0.00564046 0.051604 6.20015e-29)
(0.0676876 6.23066e-05 0)
(0.0687487 0.000909715 3.54359e-27)
(0.0697555 0.00299377 5.24659e-27)
(0.0706065 0.00716456 -4.04205e-27)
(0.0714111 0.0133181 5.24296e-27)
(0.0721755 0.0207458 0)
(0.0728806 0.0292068 6.61573e-28)
(0.0735355 0.0388055 0)
(0.0741547 0.0499323 -1.52828e-26)
(0.0746721 0.0620179 2.50846e-26)
(0.0758475 0.0767378 2.63406e-26)
(0.0777885 0.0949132 1.54593e-26)
(0.0803468 0.114755 -5.34224e-27)
(0.0820104 0.133487 -6.72369e-30)
(0.0808812 0.147247 -4.02387e-26)
(0.0753483 0.153274 5.71139e-27)
(0.0661023 0.152715 1.63589e-26)
(0.0558041 0.150202 0)
(0.0459569 0.148205 2.27961e-29)
(0.03671 0.146992 4.16345e-27)
(0.0277885 0.146074 2.3007e-27)
(0.0190174 0.145059 0)
(0.0103432 0.143689 3.91968e-27)
(0.00171353 0.141663 -1.60008e-32)
(-0.00682854 0.138739 -2.99786e-27)
(-0.0151564 0.134676 0)
(-0.0230019 0.129192 3.33734e-27)
(-0.0299541 0.122124 -4.02988e-28)
(-0.0354233 0.113464 1.20356e-27)
(-0.039118 0.103392 0)
(-0.0404788 0.0921136 9.81248e-27)
(-0.0388804 0.0803944 6.12034e-28)
(-0.0314698 0.069774 8.00497e-27)
(-0.0361689 0.0721376 8.4907e-27)
(-0.028094 0.0660909 9.99646e-28)
(-0.0171926 0.0557994 -3.0329e-32)
(-0.0250007 0.0601626 -1.79325e-27)
(-0.0211593 0.0560525 1.12879e-26)
(-0.0094569 0.0517221 -4.56851e-28)
(-0.0133207 0.0521249 4.08358e-28)
(-0.00194834 0.0489289 3.33787e-27)
(-0.00562941 0.0484632 2.58907e-28)
(0.0666333 -8.8721e-05 7.492e-30)
(0.0679464 0.000639464 0)
(0.0691824 0.00253204 1.27394e-27)
(0.0702778 0.0065781 -9.87062e-31)
(0.0712902 0.0125467 5.19448e-27)
(0.0722768 0.0197525 -4.07138e-27)
(0.0732455 0.0281261 0)
(0.0740666 0.037497 -8.37771e-27)
(0.0749629 0.0484868 1.35516e-27)
(0.0756563 0.060276 2.83248e-27)
(0.076724 0.0743509 2.97517e-26)
(0.0786296 0.0917948 2.18846e-26)
(0.0811507 0.111589 -2.18609e-26)
(0.0833436 0.131201 0)
(0.083402 0.147225 -5.48507e-27)
(0.0794995 0.156108 2.03496e-26)
(0.0713135 0.157509 0)
(0.0610496 0.155274 -5.85308e-27)
(0.050917 0.153066 1.34295e-26)
(0.0413109 0.151662 0)
(0.0321201 0.150801 8.32544e-27)
(0.0230449 0.149993 0)
(0.0140158 0.148926 3.28088e-27)
(0.00495706 0.147349 3.80656e-27)
(-0.00417495 0.144974 -2.23579e-27)
(-0.0132799 0.141497 -3.12681e-27)
(-0.0221827 0.136573 -1.21419e-27)
(-0.030535 0.129965 5.83633e-27)
(-0.0378191 0.121563 -5.2153e-27)
(-0.0432456 0.111264 1.15912e-27)
(-0.0465559 0.0993701 3.8826e-27)
(-0.047054 0.0862789 3.65587e-27)
(-0.0401046 0.0732523 2.20197e-27)
(-0.0452207 0.0766766 2.30082e-27)
(-0.032745 0.0671244 -4.03802e-27)
(-0.037186 0.0681654 -4.27514e-27)
(-0.029412 0.0609526 4.18239e-27)
(-0.0172966 0.0523587 3.07582e-27)
(-0.0254231 0.0564284 -3.45943e-27)
(-0.0214483 0.0524012 4.41887e-27)
(-0.00945503 0.0485117 -1.90443e-28)
(-0.0133088 0.0488277 2.61414e-28)
(-0.00192424 0.0458682 2.77891e-27)
(-0.00556449 0.0454132 0)
(0.0652971 -0.000254188 2.34899e-27)
(0.0669013 0.000382846 0)
(0.0683566 0.00211247 2.88256e-27)
(0.0696749 0.00593133 -3.31399e-27)
(0.0709606 0.0117618 1.01265e-26)
(0.0721725 0.0187949 -8.3029e-27)
(0.0733651 0.0269988 2.24047e-27)
(0.0744126 0.0362164 -7.84539e-27)
(0.0754953 0.0469648 0)
(0.0764997 0.0586597 2.71442e-27)
(0.0775256 0.0720991 1.08533e-26)
(0.0794082 0.0887651 1.40268e-26)
(0.0818959 0.108339 -2.28372e-26)
(0.0844291 0.128448 -2.3008e-26)
(0.0854417 0.146283 3.3515e-26)
(0.083103 0.157947 1.1103e-26)
(0.0762831 0.161767 4.07675e-26)
(0.0664383 0.160352 1.15244e-26)
(0.0560735 0.157991 1.574e-26)
(0.046186 0.156385 0)
(0.0367242 0.155516 -1.07626e-26)
(0.0274205 0.154896 6.8771e-27)
(0.0180974 0.154132 1.35025e-26)
(0.0086928 0.152996 1.90646e-27)
(-0.000897741 0.151199 4.32901e-27)
(-0.0106278 0.148376 -5.43489e-27)
(-0.0204302 0.144199 -6.38549e-32)
(-0.0300928 0.138337 0)
(-0.0389871 0.13047 8.79312e-28)
(-0.0467479 0.120595 -2.565e-27)
(-0.052295 0.108294 0)
(-0.055116 0.0943587 2.09338e-27)
(-0.0494063 0.0785147 0)
(-0.0552632 0.0836664 -8.9594e-28)
(-0.0423075 0.0701143 -1.11323e-27)
(-0.047346 0.0721739 1.08631e-32)
(-0.0339981 0.0620007 -9.81994e-28)
(-0.0390388 0.0634164 4.89789e-32)
(-0.0299451 0.0570778 3.33187e-27)
(-0.0173053 0.0489008 5.8907e-27)
(-0.0258677 0.0525975 -6.91715e-27)
(-0.0214882 0.0487322 -1.91413e-27)
(-0.00934109 0.0453931 0)
(-0.0131296 0.0456082 0)
(-0.00189733 0.0429977 0)
(-0.00544081 0.0425293 0)
(0.0636876 -0.000414416 3.79002e-29)
(0.0655757 0.000145395 2.13049e-28)
(0.0672705 0.0017297 0)
(0.0688079 0.00527658 4.60642e-27)
(0.0703772 0.0109814 -1.57001e-27)
(0.0718503 0.0178432 3.62599e-27)
(0.07324 0.0258114 -2.02529e-27)
(0.0745796 0.0349434 0)
(0.0758279 0.045378 2.9859e-28)
(0.0771533 0.0570301 1.03036e-26)
(0.0782779 0.0699907 1.23649e-26)
(0.0800521 0.0858336 5.28561e-31)
(0.0825925 0.105033 -1.19121e-26)
(0.0853061 0.125355 -2.65303e-26)
(0.087081 0.144525 0)
(0.0861327 0.158747 -1.26401e-26)
(0.0808884 0.165305 6.64754e-26)
(0.0718461 0.165284 -1.12217e-26)
(0.0614382 0.162977 -6.51553e-27)
(0.0513032 0.161141 -1.19222e-26)
(0.0415854 0.160196 4.35853e-30)
(0.0320889 0.159718 0)
(0.0225738 0.15925 7.0434e-27)
(0.012892 0.158562 7.55468e-27)
(0.00295306 0.157341 0)
(-0.00725574 0.155195 4.93593e-27)
(-0.0177415 0.15188 7.55526e-29)
(-0.0284966 0.14702 1.33555e-27)
(-0.0390569 0.140098 -3.4213e-27)
(-0.0485206 0.130831 0)
(-0.0572062 0.119954 2.1587e-27)
(-0.0636671 0.10659 2.42968e-26)
(-0.0600576 0.0877991 1.5626e-27)
(-0.0672572 0.0971729 0)
(-0.053453 0.0760431 2.40679e-27)
(-0.0599389 0.0814577 9.97691e-28)
(-0.0445354 0.0653265 1.10168e-27)
(-0.0509552 0.0687322 0)
(-0.0349202 0.0580329 -9.41483e-28)
(-0.0405877 0.059421 3.71072e-27)
(-0.0305721 0.0530469 -4.70834e-27)
(-0.0170991 0.0454871 4.23529e-28)
(-0.0260163 0.0487308 -2.05587e-26)
(-0.0212759 0.0451402 6.84831e-27)
(-0.00910187 0.0424392 -5.97708e-27)
(-0.0127907 0.0425024 0)
(-0.00185825 0.0403914 -5.61613e-27)
(-0.00524673 0.0398995 -8.25847e-27)
(0.0618062 -0.000564643 -1.42882e-27)
(0.0639704 -8.73872e-05 1.61544e-28)
(0.0659394 0.00136069 9.70352e-28)
(0.0676651 0.00466944 1.68222e-27)
(0.0695176 0.0102098 -2.71889e-27)
(0.0712744 0.0168721 1.20789e-30)
(0.0728845 0.0246578 7.2946e-27)
(0.0744873 0.03365 -1.98616e-27)
(0.0759815 0.0437665 1.06634e-26)
(0.0775867 0.055281 1.0144e-26)
(0.0789507 0.0679779 0)
(0.0806157 0.0830478 -1.19816e-26)
(0.0831923 0.101688 -1.23846e-26)
(0.0860462 0.122066 1.37076e-26)
(0.0884004 0.14212 1.00087e-26)
(0.0886136 0.158517 -1.23434e-26)
(0.0850033 0.167894 5.28705e-26)
(0.0770876 0.169835 -1.11198e-26)
(0.0669334 0.167985 -4.0018e-26)
(0.0566012 0.165951 -1.78287e-26)
(0.0466944 0.164859 3.76884e-27)
(0.0370241 0.164423 1.25506e-26)
(0.0273634 0.164225 -6.62155e-27)
(0.0175267 0.163941 -1.92139e-26)
(0.00734907 0.163301 -7.60585e-27)
(-0.00322339 0.161875 0)
(-0.0141934 0.159439 0)
(-0.0257443 0.155718 0)
(-0.0376254 0.150126 2.38634e-27)
(-0.0492342 0.142492 -2.60933e-27)
(-0.0599998 0.133207 0)
(-0.0718886 0.125688 1.37493e-26)
(-0.073365 0.106885 -1.9497e-34)
(-0.0830405 0.124461 3.98886e-28)
(-0.0686064 0.0913499 8.20144e-28)
(-0.0791059 0.10605 0)
(-0.0588329 0.0749716 6.78892e-28)
(-0.0700808 0.0868138 5.93988e-28)
(-0.04739 0.0623575 0)
(-0.0567541 0.0691688 0)
(-0.0361267 0.0539297 0)
(-0.0431228 0.0563834 9.7361e-27)
(-0.0311833 0.0490418 -6.14868e-27)
(-0.0166858 0.0422388 -6.39469e-27)
(-0.0261686 0.0447825 -2.80842e-26)
(-0.0210081 0.0415008 7.92102e-27)
(-0.00871879 0.0396992 -8.17765e-27)
(-0.0122646 0.0396302 -1.23434e-26)
(-0.00179918 0.0381328 -3.05982e-28)
(-0.00495313 0.0376275 -1.27725e-26)
(0.0596407 -0.000704025 -1.11385e-27)
(0.0620868 -0.000345742 -1.27253e-27)
(0.0643221 0.000968812 1.51021e-27)
(0.0663315 0.00412238 3.40563e-27)