/*--------------------------------*- C++ -*----------------------------------*\
  =========                 |
  \\      /  F ield         | OpenFOAM: The Open Source CFD Toolbox
   \\    /   O peration     | Website:  https://openfoam.org
    \\  /    A nd           | Version:  dev
     \\/     M anipulation  |
\*---------------------------------------------------------------------------*/
FoamFile
{
    version     2.0;
    format      ascii;
    class       volScalarField;
    location    "2500";
    object      a;
}
// * * * * * * * * * * * * * * * * * * * * * * * * * * * * * * * * * * * * * //

dimensions      [0 -1 0 0 0 0 0];

internalField   nonuniform List<scalar> 
9841
(
0.100011
0.100011
0.100011
0.100011
0.100011
0.100011
0.100011
0.100011
0.100011
0.100011
0.10001
0.100011
0.100011
0.100011
0.100011
0.10001
0.10001
0.100011
0.100011
0.100011
0.100011
0.10001
0.10001
0.10001
0.100011
0.100011
0.100011
0.100011
0.10001
0.10001
0.10001
0.10001
0.100011
0.100011
0.100011
0.100011
0.100009
0.10001
0.10001
0.10001
0.10001
0.100011
0.100011
0.100011
0.100011
0.100009
0.100009
0.10001
0.10001
0.10001
0.10001
0.100011
0.100011
0.100011
0.100011
0.100009
0.100009
0.100009
0.10001
0.10001
0.10001
0.10001
0.100011
0.100011
0.100011
0.100011
0.100009
0.100009
0.100009
0.100009
0.10001
0.10001
0.10001
0.10001
0.100011
0.100011
0.100011
0.100011
0.100009
0.100009
0.100009
0.100009
0.100009
0.10001
0.10001
0.10001
0.10001
0.100011
0.100011
0.100011
0.100011
0.100008
0.100009
0.100009
0.100009
0.100009
0.100009
0.10001
0.10001
0.10001
0.10001
0.100011
0.100011
0.100011
0.100011
0.100008
0.100008
0.100009
0.100009
0.100009
0.100009
0.100009
0.10001
0.10001
0.10001
0.10001
0.100011
0.100011
0.100011
0.100011
0.100008
0.100008
0.100008
0.100009
0.100009
0.100009
0.100009
0.100009
0.10001
0.10001
0.10001
0.10001
0.100011
0.100011
0.100011
0.100011
0.100008
0.100008
0.100008
0.100008
0.100009
0.100009
0.100009
0.100009
0.100009
0.10001
0.10001
0.10001
0.10001
0.100011
0.100011
0.100011
0.100011
0.100007
0.100008
0.100008
0.100008
0.100008
0.100009
0.100009
0.100009
0.100009
0.100009
0.10001
0.10001
0.10001
0.10001
0.100011
0.100011
0.100011
0.100011
0.100007
0.100007
0.100008
0.100008
0.100008
0.100008
0.100009
0.100009
0.100009
0.100009
0.100009
0.10001
0.10001
0.10001
0.10001
0.100011
0.100011
0.100011
0.100011
0.100007
0.100007
0.100007
0.100008
0.100008
0.100008
0.100008
0.100009
0.100009
0.100009
0.100009
0.100009
0.10001
0.10001
0.10001
0.10001
0.100011
0.100011
0.100011
0.100011
0.100007
0.100007
0.100007
0.100007
0.100008
0.100008
0.100008
0.100008
0.100009
0.100009
0.100009
0.100009
0.100009
0.10001
0.10001
0.10001
0.10001
0.100011
0.100011
0.100011
0.100011
0.100006
0.100007
0.100007
0.100007
0.100007
0.100008
0.100008
0.100008
0.100008
0.100009
0.100009
0.100009
0.100009
0.100009
0.10001
0.10001
0.10001
0.10001
0.100011
0.100011
0.100011
0.100011
0.100006
0.100006
0.100007
0.100007
0.100007
0.100007
0.100008
0.100008
0.100008
0.100008
0.100009
0.100009
0.100009
0.100009
0.100009
0.10001
0.10001
0.10001
0.10001
0.100011
0.100011
0.100011
0.100011
0.100006
0.100006
0.100006
0.100007
0.100007
0.100007
0.100007
0.100008
0.100008
0.100008
0.100008
0.100009
0.100009
0.100009
0.100009
0.100009
0.10001
0.10001
0.10001
0.10001
0.100011
0.100011
0.100011
0.100011
0.100006
0.100006
0.100006
0.100006
0.100007
0.100007
0.100007
0.100007
0.100008
0.100008
0.100008
0.100008
0.100009
0.100009
0.100009
0.100009
0.100009
0.10001
0.10001
0.10001
0.10001
0.100011
0.100011
0.100011
0.100011
0.100006
0.100006
0.100006
0.100006
0.100006
0.100007
0.100007
0.100007
0.100007
0.100008
0.100008
0.100008
0.100008
0.100009
0.100009
0.100009
0.100009
0.100009
0.10001
0.10001
0.10001
0.10001
0.100011
0.100011
0.100011
0.100011
0.100005
0.100006
0.100006
0.100006
0.100006
0.100006
0.100007
0.100007
0.100007
0.100007
0.100008
0.100008
0.100008
0.100008
0.100009
0.100009
0.100009
0.100009
0.100009
0.10001
0.10001
0.10001
0.10001
0.100011
0.100011
0.100011
0.100011
0.100005
0.100005
0.100006
0.100006
0.100006
0.100006
0.100006
0.100007
0.100007
0.100007
0.100007
0.100008
0.100008
0.100008
0.100008
0.100009
0.100009
0.100009
0.100009
0.100009
0.10001
0.10001
0.10001
0.10001
0.100011
0.100011
0.100011
0.100011
0.100005
0.100005
0.100005
0.100006
0.100006
0.100006
0.100006
0.100006
0.100007
0.100007
0.100007
0.100007
0.100008
0.100008
0.100008
0.100008
0.100009
0.100009
0.100009
0.100009
0.100009
0.10001
0.10001
0.10001
0.10001
0.100011
0.100011
0.100011
0.100011
0.100005
0.100005
0.100005
0.100005
0.100006
0.100006
0.100006
0.100006
0.100006
0.100007
0.100007
0.100007
0.100007
0.100008
0.100008
0.100008
0.100008
0.100009
0.100009
0.100009
0.100009
0.100009
0.10001
0.10001
0.10001
0.10001
0.100011
0.100011
0.100011
0.100011
0.100004
0.100005
0.100005
0.100005
0.100005
0.100006
0.100006
0.100006
0.100006
0.100006
0.100007
0.100007
0.100007
0.100007
0.100008
0.100008
0.100008
0.100008
0.100009
0.100009
0.100009
0.100009
0.100009
0.10001
0.10001
0.10001
0.10001
0.100011
0.100011
0.100011
0.100011
0.100004
0.100004
0.100005
0.100005
0.100005
0.100005
0.100006
0.100006
0.100006
0.100006
0.100006
0.100007
0.100007
0.100007
0.100007
0.100008
0.100008
0.100008
0.100008
0.100009
0.100009
0.100009
0.100009
0.100009
0.10001
0.10001
0.10001
0.10001
0.100011
0.100011
0.100011
0.100011
0.100004
0.100004
0.100004
0.100005
0.100005
0.100005
0.100005
0.100006
0.100006
0.100006
0.100006
0.100006
0.100007
0.100007
0.100007
0.100007
0.100008
0.100008
0.100008
0.100008
0.100009
0.100009
0.100009
0.100009
0.100009
0.10001
0.10001
0.10001
0.10001
0.100011
0.100011
0.100011
0.100011
0.100004
0.100004
0.100004
0.100004
0.100005
0.100005
0.100005
0.100005
0.100006
0.100006
0.100006
0.100006
0.100006
0.100007
0.100007
0.100007
0.100007
0.100008
0.100008
0.100008
0.100008
0.100009
0.100009
0.100009
0.100009
0.100009
0.10001
0.10001
0.10001
0.10001
0.100011
0.100011
0.100011
0.100011
0.100011
0.100004
0.100004
0.100004
0.100004
0.100004
0.100005
0.100005
0.100005
0.100005
0.100006
0.100006
0.100006
0.100006
0.100006
0.100007
0.100007
0.100007
0.100007
0.100008
0.100008
0.100008
0.100008
0.100009
0.100009
0.100009
0.100009
0.100009
0.10001
0.10001
0.10001
0.10001
0.100011
0.100011
0.100011
0.100011
0.100011
0.100011
0.100003
0.100004
0.100004
0.100004
0.100004
0.100004
0.100005
0.100005
0.100005
0.100005
0.100006
0.100006
0.100006
0.100006
0.100006
0.100007
0.100007
0.100007
0.100007
0.100008
0.100008
0.100008
0.100008
0.100009
0.100009
0.100009
0.100009
0.100009
0.10001
0.10001
0.10001
0.10001
0.100011
0.10001
0.100011
0.100011
0.100011
0.100011
0.100011
0.100011
0.100011
0.100003
0.100003
0.100004
0.100004
0.100004
0.100004
0.100004
0.100005
0.100005
0.100005
0.100005
0.100006
0.100006
0.100006
0.100006
0.100006
0.100007
0.100007
0.100007
0.100007
0.100008
0.100008
0.100008
0.100008
0.100009
0.100009
0.100009
0.100009
0.100009
0.10001
0.10001
0.10001
0.10001
0.10001
0.10001
0.100011
0.100011
0.100011
0.100011
0.100011
0.100011
0.100011
0.100003
0.100003
0.100003
0.100004
0.100004
0.100004
0.100004
0.100004
0.100005
0.100005
0.100005
0.100005
0.100006
0.100006
0.100006
0.100006
0.100006
0.100007
0.100007
0.100007
0.100007
0.100008
0.100008
0.100008
0.100008
0.100009
0.100009
0.100009
0.100009
0.100009
0.10001
0.10001
0.10001
0.10001
0.10001
0.10001
0.10001
0.100011
0.100011
0.100011
0.100011
0.100011
0.100011
0.100011
0.100003
0.100003
0.100003
0.100003
0.100004
0.100004
0.100004
0.100004
0.100004
0.100005
0.100005
0.100005
0.100005
0.100006
0.100006
0.100006
0.100006
0.100006
0.100007
0.100007
0.100007
0.100007
0.100008
0.100008
0.100008
0.100008
0.100009
0.100009
0.100009
0.100009
0.10001
0.10001
0.10001
0.10001
0.10001
0.10001
0.10001
0.10001
0.100011
0.100011
0.100011
0.100011
0.100011
0.100011
0.100011
0.100011
0.100002
0.100003
0.100003
0.100003
0.100003
0.100004
0.100004
0.100004
0.100004
0.100004
0.100005
0.100005
0.100005
0.100005
0.100006
0.100006
0.100006
0.100006
0.100006
0.100007
0.100007
0.100007
0.100007
0.100008
0.100008
0.100008
0.100008
0.100009
0.10001
0.10001
0.10001
0.100011
0.10001
0.100011
0.10001
0.10001
0.10001
0.10001
0.10001
0.10001
0.100011
0.100011
0.100011
0.100011
0.100011
0.100011
0.100011
0.100011
0.100002
0.100002
0.100003
0.100003
0.100003
0.100003
0.100004
0.100004
0.100004
0.100004
0.100004
0.100005
0.100005
0.100005
0.100005
0.100006
0.100006
0.100006
0.100006
0.100006
0.100007
0.100007
0.100007
0.100007
0.100008
0.100008
0.100009
0.100011
0.100014
0.100018
0.10002
0.10002
0.100014
0.100021
0.100012
0.100015
0.100011
0.100012
0.10001
0.100011
0.10001
0.100011
0.100011
0.100011
0.100011
0.100011
0.100011
0.100011
0.100011
0.100011
0.100002
0.100002
0.100002
0.100003
0.100003
0.100003
0.100003
0.100004
0.100004
0.100004
0.100004
0.100004
0.100005
0.100005
0.100005
0.100005
0.100006
0.100006
0.100006
0.100006
0.100006
0.100007
0.100007
0.100007
0.100008
0.100009
0.100011
0.100021
0.100044
0.100077
0.100105
0.100101
0.100043
0.100105
0.100025
0.100054
0.100017
0.100032
0.100014
0.100021
0.100012
0.100015
0.100011
0.100012
0.100011
0.100011
0.100011
0.100011
0.100011
0.100011
0.100011
0.100011
0.100002
0.100002
0.100002
0.100002
0.100003
0.100003
0.100003
0.100003
0.100004
0.100004
0.100004
0.100004
0.100004
0.100005
0.100005
0.100005
0.100005
0.100006
0.100006
0.100006
0.100006
0.100006
0.100007
0.100007
0.100007
0.10001
0.100018
0.100056
0.100174
0.100398
0.100674
0.100843
0.100272
0.1008
0.100134
0.100355
0.100072
0.10018
0.10004
0.100095
0.100025
0.100052
0.100017
0.10003
0.100013
0.100019
0.100013
0.100011
0.100014
0.100014
0.100011
0.100011
0.100011
0.100011
0.100001
0.100002
0.100002
0.100002
0.100002
0.100003
0.100003
0.100003
0.100003
0.100004
0.100004
0.100004
0.100004
0.100004
0.100005
0.100005
0.100005
0.100005
0.100006
0.100006
0.100006
0.100006
0.100006
0.100007
0.100007
0.100009
0.10003
0.10015
0.10056
0.101607
0.103243
0.105051
0.102333
0.106775
0.100994
0.102952
0.100473
0.101304
0.100241
0.100633
0.100128
0.100327
0.100069
0.100175
0.100038
0.100093
0.100021
0.100046
0.100023
0.100013
0.100023
0.100023
0.100011
0.100013
0.100011
0.100011
0.100001
0.100001
0.100002
0.100002
0.100002
0.100002
0.100003
0.100003
0.100003
0.100003
0.100004
0.100004
0.100004
0.100004
0.100004
0.100005
0.100005
0.100005
0.100005
0.100006
0.100006
0.100006
0.100006
0.100006
0.100007
0.100009
0.10004
0.100303
0.10141
0.104432
0.110724
0.118363
0.114973
0.125608
0.10802
0.118699
0.103752
0.110012
0.101728
0.104763
0.10086
0.102337
0.100458
0.101213
0.100246
0.100659
0.100124
0.100348
0.100055
0.100161
0.100061
0.100021
0.100063
0.100059
0.100012
0.100017
0.100011
0.100012
0.100001
0.100001
0.100001
0.100002
0.100002
0.100002
0.100002
0.100003
0.100003
0.100003
0.100003
0.100004
0.100004
0.100004
0.100004
0.100004
0.100005
0.100005
0.100005
0.100005
0.100006
0.100006
0.100006
0.100006
0.100007
0.10001
0.100043
0.1004
0.102517
0.108861
0.121818
0.140856
0.158598
0.130776
0.149092
0.121015
0.134802
0.112091
0.123572
0.106165
0.114682
0.103269
0.10838
0.101798
0.104772
0.10098
0.10276
0.100487
0.101457
0.100199
0.100654
0.100224
0.100048
0.100231
0.100205
0.100014
0.100034
0.100011
0.100012
0.100001
0.100001
0.100001
0.100001
0.100002
0.100002
0.100002
0.100002
0.100003
0.100003
0.100003
0.100003
0.100004
0.100004
0.100004
0.100004
0.100004
0.100005
0.100005
0.100005
0.100005
0.100006
0.100006
0.100006
0.100006
0.100009
0.100038
0.100405
0.103129
0.113609
0.13413
0.161044
0.185115
0.180074
0.196826
0.149935
0.165871
0.137307
0.152851
0.126392
0.140174
0.11804
0.130129
0.11182
0.122605
0.107288
0.11685
0.104268
0.111363
0.102108
0.106411
0.100828
0.102876
0.100938
0.100153
0.100937
0.100808
0.100022
0.100095
0.100011
0.100014
0.100001
0.100001
0.100001
0.100001
0.100001
0.100002
0.100002
0.100002
0.100002
0.100003
0.100003
0.100003
0.100003
0.100004
0.100004
0.100004
0.100004
0.100004
0.100005
0.100005
0.100005
0.100005
0.100006
0.100006
0.100006
0.100007
0.100029
0.100372
0.103136
0.116047
0.145135
0.178383
0.207505
0.208641
0.220715
0.201233
0.215425
0.169166
0.185483
0.155455
0.171966
0.143958
0.159082
0.135387
0.149483
0.128998
0.142709
0.123492
0.137538
0.116939
0.131861
0.108979
0.123222
0.103527
0.111344
0.103801
0.100588
0.103689
0.103136
0.100047
0.100343
0.100012
0.100021
0.1
0.100001
0.100001
0.100001
0.100001
0.100001
0.100002
0.100002
0.100002
0.100002
0.100003
0.100003
0.100003
0.100003
0.100004
0.100004
0.100004
0.100004
0.100004
0.100005
0.100005
0.100005
0.100005
0.100006
0.100006
0.100006
0.10002
0.100279
0.102883
0.115973
0.150486
0.186969
0.211545
0.227083
0.230027
0.227441
0.235757
0.220119
0.233214
0.188784
0.205057
0.175166
0.191997
0.164511
0.180243
0.157381
0.172559
0.152593
0.168068
0.14824
0.164961
0.141568
0.160588
0.129452
0.151669
0.112926
0.134701
0.113524
0.102243
0.112949
0.110931
0.100143
0.10125
0.100012
0.100043
0.1
0.1
0.100001
0.100001
0.100001
0.100001
0.100001
0.100002
0.100002
0.100002
0.100002
0.100003
0.100003
0.100003
0.100003
0.100004
0.100004
0.100004
0.100004
0.100004
0.100005
0.100005
0.100005
0.100005
0.100006
0.100006
0.100014
0.100163
0.102332
0.115096
0.150019
0.184175
0.203609
0.224581
0.239529
0.23979
0.243164
0.248514
0.23806
0.24939
0.208631
0.22419
0.19651
0.212975
0.188019
0.203693
0.183631
0.199028
0.181574
0.19767
0.179402
0.197195
0.173916
0.194712
0.161316
0.186808
0.138256
0.169552
0.139545
0.107661
0.137501
0.131067
0.100484
0.104197
0.100015
0.100123
0.1
0.1
0.100001
0.100001
0.100001
0.100001
0.100001
0.100002
0.100002
0.100002
0.100002
0.100003
0.100003
0.100003
0.100003
0.100004
0.100004
0.100004
0.100004
0.100004
0.100005
0.100005
0.100005
0.100005
0.100006
0.100009
0.100087
0.101438
0.112602
0.147601
0.178639
0.190416
0.197888
0.232174
0.20698
0.248668
0.244412
0.256753
0.25874
0.255019
0.264057
0.228701
0.242896
0.219501
0.234846
0.214161
0.229045
0.213085
0.227711
0.213808
0.229
0.213571
0.230063
0.209286
0.228292
0.197668
0.221088
0.174984
0.205564
0.177186
0.121894
0.174865
0.165749
0.101579
0.112246
0.100024
0.100311
0.1
0.1
0.100001
0.100001
0.100001
0.100001
0.100001
0.100002
0.100002
0.100002
0.100002
0.100003
0.100003
0.100003
0.100003
0.100004
0.100004
0.100004
0.100004
0.100004
0.100005
0.100005
0.100005
0.100005
0.100007
0.100044
0.10085
0.108913
0.142075
0.174106
0.181629
0.172945
0.184445
0.160109
0.223852
0.194209
0.256842
0.246744
0.268322
0.267964
0.270933
0.2771
0.248919
0.26114
0.243509
0.256874
0.241482
0.254508
0.242756
0.255279
0.244505
0.257179
0.244252
0.257524
0.239838
0.254701
0.229288
0.247237
0.209646
0.233828
0.209985
0.150015
0.205492
0.197702
0.177318
0.104143
0.127319
0.100032
0.100578
0.1
0.1
0.100001
0.100001
0.100001
0.100001
0.100001
0.100002
0.100002
0.100002
0.100002
0.100003
0.100003
0.100003
0.100003
0.100004
0.100004
0.100004
0.100004
0.100004
0.100005
0.100005
0.100005
0.100007
0.100023
0.100472
0.105657
0.133495
0.170189
0.177007
0.161937
0.127537
0.163892
0.135701
0.214495
0.178736
0.26148
0.244032
0.278352
0.274788
0.285211
0.287944
0.268605
0.27829
0.266629
0.277434
0.266759
0.277352
0.268317
0.278271
0.268819
0.278688
0.266812
0.276927
0.261273
0.272448
0.251138
0.264223
0.234683
0.251396
0.243839
0.22081
0.232327
0.190389
0.158754
0.183038
0.213722
0.227192
0.229633
0.20894
0.108138
0.171509
0.15829
0.130262
0.100023
0.100479
0.1
0.1
0.100001
0.100001
0.100001
0.100001
0.100001
0.100002
0.100002
0.100002
0.100002
0.100003
0.100003
0.100003
0.100003
0.100004
0.100004
0.100004
0.100004
0.100004
0.100005
0.100005
0.100007
0.100017
0.100221
0.103263
0.124551
0.165382
0.174655
0.160518
0.124899
0.112371
0.106866
0.144857
0.121845
0.202922
0.163274
0.262978
0.237898
0.285487
0.277137
0.295793
0.293723
0.286574
0.293265
0.286865
0.295088
0.287329
0.295597
0.287425
0.295326
0.285772
0.293824
0.281871
0.290246
0.269442
0.274373
0.278991
0.283572
0.257997
0.264103
0.274737
0.274692
0.26949
0.250608
0.241636
0.24974
0.257573
0.239932
0.20268
0.194427
0.223357
0.234605
0.23754
0.218587
0.139461
0.10675
0.12364
0.183483
0.16909
0.100011
0.109185
0.102364
0.100247
0.1
0.1
0.100001
0.100001
0.100001
0.100001
0.100001
0.100002
0.100002
0.100002
0.100002
0.100003
0.100003
0.100003
0.100003
0.100004
0.100004
0.100004
0.100004
0.100005
0.100006
0.100008
0.100018
0.100125
0.101828
0.117029
0.158293
0.173355
0.162212
0.128979
0.105638
0.105504
0.10293
0.130752
0.112901
0.189274
0.150017
0.258356
0.228238
0.287273
0.272609
0.299902
0.293813
0.300561
0.301805
0.302488
0.306039
0.30242
0.307344
0.301078
0.306722
0.297756
0.303875
0.287729
0.291763
0.295375
0.29869
0.279566
0.284024
0.288284
0.263552
0.268945
0.279487
0.27874
0.273954
0.256493
0.248101
0.254931
0.26243
0.245981
0.212429
0.204345
0.230867
0.243344
0.240236
0.226205
0.151984
0.131822
0.193634
0.179865
0.10038
0.100012
0.100036
0.113889
0.10397
0.1
0.1
0.100001
0.100001
0.100001
0.100001
0.100001
0.100002
0.100002
0.100002
0.100002
0.100003
0.100003
0.100003
0.100003
0.100004
0.100004
0.100004
0.100005
0.100008
0.100014
0.100026
0.100106
0.101162
0.111468
0.148932
0.171993
0.166251
0.138636
0.111092
0.101176
0.101528
0.103214
0.10148
0.122522
0.108637
0.17357
0.138678
0.24747
0.213286
0.280333
0.257912
0.296224
0.281417
0.305939
0.3035
0.309341
0.308444
0.309982
0.310717
0.308165
0.31019
0.301423
0.303604
0.305199
0.305831
0.292124
0.295583
0.298456
0.300788
0.283944
0.288042
0.291668
0.267768
0.272723
0.283109
0.281509
0.277345
0.260784
0.252867
0.258665
0.266056
0.250351
0.220324
0.212659
0.236519
0.247449
0.244206
0.232078
0.162617
0.141989
0.202615
0.189518
0.100608
0.100012
0.100065
0.120574
0.106423
0.1
0.1
0.100001
0.100001
0.100001
0.100001
0.100001
0.100002
0.100002
0.100002
0.100002
0.100003
0.100003
0.100003
0.100003
0.100004
0.100005
0.100008
0.100016
0.100029
0.100053
0.10013
0.100898
0.108086
0.139735
0.169984
0.170052
0.148471
0.120773
0.102101
0.100579
0.100462
0.102117
0.100908
0.116578
0.106063
0.154248
0.125808
0.227712
0.191156
0.259339
0.230623
0.275454
0.251317
0.303943
0.293484
0.307804
0.29937
0.308124
0.300587
0.305799
0.304434
0.302268
0.298214
0.302405
0.303152
0.30295
0.301571
0.29473
0.297159
0.298831
0.299529
0.286986
0.290273
0.292831
0.270918
0.275339
0.285072
0.282251
0.279186
0.263826
0.256144
0.26117
0.268542
0.253248
0.226616
0.219601
0.240554
0.250108
0.246784
0.236426
0.172698
0.152038
0.210385
0.198204
0.101111
0.100014
0.100162
0.128231
0.109556
0.1
0.1
0.100001
0.100001
0.100001
0.100001
0.100001
0.100002
0.100002
0.100002
0.100002
0.100003
0.100003
0.100003
0.100004
0.100007
0.100016
0.100039
0.100072
0.100129
0.100238
0.100884
0.106748
0.132954
0.166882
0.172546
0.156875
0.130784
0.105772
0.100287
0.100435
0.100431
0.100328
0.101599
0.100759
0.110234
0.103838
0.130879
0.113978
0.196988
0.160752
0.222207
0.189003
0.23349
0.203281
0.283744
0.261691
0.285824
0.263059
0.282758
0.260678
0.299052
0.295112
0.289933
0.284308
0.299255
0.297776
0.294961
0.290684
0.294554
0.295245
0.294951
0.29335
0.287847
0.289749
0.290539
0.272693
0.276095
0.284463
0.280041
0.278694
0.26564
0.258153
0.262337
0.269432
0.254867
0.231531
0.225412
0.243309
0.251499
0.248164
0.239659
0.182278
0.161942
0.217384
0.206686
0.102325
0.100033
0.100665
0.137197
0.115682
0.1
0.1
0.100001
0.100001
0.100001
0.100001
0.100001
0.100002
0.100002
0.100002
0.100002
0.100003
0.100003
0.100005
0.100013
0.100044
0.10011
0.100209
0.100359
0.100569
0.10121
0.106634
0.129859
0.163559
0.173987
0.163584
0.13976
0.111476
0.100676
0.10021
0.100127
0.100483
0.100324
0.101543
0.100856
0.1064
0.103078
0.118616
0.110521
0.156588
0.13287
0.175324
0.153586
0.18777
0.172208
0.234981
0.208215
0.232809
0.208518
0.245881
0.233229
0.210957
0.221744
0.284913
0.27757
0.26863
0.25806
0.290325
0.285761
0.279581
0.27181
0.290292
0.288601
0.2854
0.280569
0.285456
0.285376
0.283701
0.272423
0.274305
0.28025
0.273935
0.274905
0.265705
0.258713
0.261762
0.268193
0.255022
0.235612
0.23072
0.245025
0.251469
0.248135
0.241986
0.192451
0.173745
0.224238
0.215344
0.105915
0.100251
0.102988
0.150898
0.129216
0.1
0.1
0.100001
0.100001
0.100001
0.100001
0.100001
0.100002
0.100002
0.100002
0.100002
0.100003
0.100008
0.100033
0.100128
0.100328
0.100661
0.101075
0.101537
0.102406
0.107368
0.129428
0.161846
0.174793
0.168601
0.147449
0.118316
0.102157
0.100098
0.100117
0.100281
0.100134
0.100753
0.100471
0.102234
0.101291
0.106049
0.10367
0.118461
0.11408
0.137742
0.125974
0.159089
0.149176
0.181868
0.180586
0.195297
0.186828
0.203894
0.19926
0.200353
0.219599
0.211817
0.203221
0.2066
0.262599
0.252208
0.240911
0.229627
0.274098
0.266097
0.256798
0.246661
0.280395
0.27537
0.268729
0.260657
0.278803
0.275548
0.270488
0.2693
0.269061
0.271018
0.262631
0.266764
0.26348
0.257509
0.258641
0.263944
0.253371
0.23895
0.235407
0.245283
0.249657
0.246687
0.243101
0.203289
0.187465
0.230517
0.223477
0.116232
0.103094
0.111616
0.1693
0.153561
0.1
0.1
0.100001
0.100001
0.100001
0.100001
0.100001
0.100002
0.100002
0.100002
0.100004
0.100016
0.100088
0.100365
0.101032
0.102103
0.103229
0.104201
0.105649
0.110373
0.130167
0.161741
0.175533
0.172126
0.153525
0.124732
0.104177
0.100172
0.100111
0.100049
0.100448
0.100259
0.101766
0.100853
0.105546
0.103332
0.111045
0.108226
0.137876
0.134078
0.142904
0.139905
0.183621
0.188445
0.241409
0.257585
0.209151
0.224421
0.202553
0.20354
0.251162
0.264377
0.21118
0.211158
0.21987
0.214036
0.236391
0.2269
0.219217
0.213882
0.251539
0.242055
0.233104
0.225522
0.263845
0.255932
0.247423
0.239183
0.266226
0.259831
0.252443
0.262631
0.259554
0.256924
0.249735
0.254936
0.258428
0.254007
0.253342
0.256557
0.249961
0.241176
0.238915
0.244616
0.24693
0.245046
0.243453
0.213698
0.2013
0.23562
0.230435
0.141996
0.133782
0.143233
0.18874
0.180825
0.1
0.1
0.100001
0.100001
0.100001
0.100001
0.100002
0.100002
0.100002
0.100005
0.100034
0.100221
0.101023
0.103069
0.106242
0.109118
0.110912
0.112931
0.118182
0.133375
0.162387
0.17605
0.174394
0.157763
0.12995
0.106279
0.100517
0.100043
0.100033
0.100235
0.100092
0.100976
0.100434
0.104823
0.102293
0.114561
0.108886
0.128272
0.121366
0.189281
0.17986
0.192354
0.192579
0.272077
0.281826
0.355865
0.37111
0.276743
0.290414
0.333188
0.22836
0.238718
0.305633
0.32033
0.227982
0.236935
0.261245
0.248129
0.220107
0.218028
0.218417
0.221623
0.232084
0.22704
0.225116
0.225381
0.244984
0.238456
0.233999
0.232476
0.250455
0.244393
0.240329
0.253331
0.249632
0.245577
0.246954
0.247502
0.25155
0.249267
0.248206
0.249305
0.246544
0.24263
0.241538
0.244284
0.245105
0.244651
0.243995
0.222827
0.213718
0.239575
0.236169
0.182327
0.186787
0.193912
0.205889
0.204083
0.100001
0.100001
0.100001
0.100001
0.100001
0.100001
0.100002
0.100002
0.100006
0.10006
0.100515
0.102595
0.107799
0.114062
0.118185
0.120341
0.122707
0.128288
0.141945
0.164876
0.17667
0.175368
0.159977
0.133432
0.108139
0.100859
0.100036
0.100075
0.100025
0.100404
0.100202
0.102592
0.100996
0.112212
0.106005
0.135013
0.12192
0.165932
0.150331
0.272586
0.253731
0.284409
0.28163
0.382886
0.390051
0.42613
0.433625
0.459204
0.333623
0.342306
0.41983
0.409326
0.275596
0.290419
0.361752
0.375657
0.268622
0.283606
0.315455
0.299341
0.228399
0.234742
0.243733
0.255049
0.232656
0.235039
0.240656
0.249434
0.238898
0.238893
0.240624
0.245329
0.243956
0.243772
0.244673
0.248474
0.248506
0.247456
0.253691
0.250115
0.248003
0.246592
0.247303
0.248513
0.245641
0.243966
0.243749
0.244856
0.245393
0.245547
0.24507
0.230714
0.22449
0.243161
0.241518
0.210965
0.201502
0.221072
0.220375
0.221466
0.100003
0.100002
0.100001
0.100001
0.100001
0.100002
0.100002
0.100007
0.100087
0.10088
0.10477
0.113514
0.122425
0.127779
0.130759
0.134026
0.14038
0.153994
0.169495
0.177522
0.175333
0.160304
0.134824
0.109425
0.101123
0.10007
0.100021
0.100012
0.100164
0.100054
0.100909
0.100343
0.10644
0.10255
0.128047
0.114315
0.173908
0.148313
0.229652
0.20209
0.369621
0.344508
0.389366
0.384124
0.463544
0.463022
0.461249
0.466261
0.48836
0.489517
0.388105
0.399452
0.455793
0.449413
0.331427
0.346822
0.411242
0.42261
0.321798
0.33842
0.370071
0.354594
0.260896
0.27424
0.289198
0.305151
0.253198
0.264324
0.278427
0.293891
0.248674
0.255494
0.265662
0.279676
0.250156
0.255654
0.264446
0.250956
0.254721
0.26028
0.274264
0.262024
0.249823
0.247551
0.250702
0.253393
0.247613
0.245814
0.24677
0.246113
0.247897
0.248796
0.247458
0.23808
0.234564
0.247697
0.247399
0.22859
0.181308
0.221419
0.233033
0.234764
0.10001
0.100004
0.100003
0.100002
0.100002
0.100003
0.100007
0.1001
0.101161
0.106783
0.119076
0.130528
0.13731
0.141379
0.145805
0.153857
0.164116
0.173372
0.177551
0.174496
0.159401
0.134438
0.109853
0.101265
0.100092
0.10001
0.100039
0.100014
0.100291
0.100126
0.102192
0.100734
0.11453
0.106009
0.15709
0.130831
0.233909
0.192742
0.313119
0.275384
0.442814
0.424672
0.460072
0.453931
0.489026
0.488213
0.4864
0.485312
0.487558
0.496982
0.496104
0.432646
0.441633
0.48223
0.478278
0.384749
0.398476
0.451343
0.459701
0.37556
0.390874
0.418332
0.405182
0.31
0.326421
0.343081
0.359501
0.295741
0.312761
0.330085
0.347314
0.277596
0.294132
0.312147
0.330687
0.271344
0.287019
0.306249
0.260579
0.272499
0.291917
0.31444
0.290648
0.256837
0.251963
0.260094
0.267376
0.253096
0.249262
0.251721
0.250289
0.25446
0.256182
0.25254
0.246007
0.244632
0.253823
0.255138
0.23716
0.151648
0.19941
0.244117
0.245402
0.10003
0.100011
0.100005
0.100004
0.100004
0.100009
0.1001
0.10126
0.108133
0.123693
0.137986
0.146204
0.151616
0.157343
0.163932
0.17026
0.174871
0.17678
0.171821
0.156247
0.13161
0.109432
0.10126
0.100099
0.10001
0.100011
0.100085
0.100024
0.100531
0.100233
0.104847
0.101617
0.129578
0.112834
0.20132
0.158841
0.306302
0.252921
0.39528
0.354738
0.465676
0.456518
0.480052
0.473012
0.494723
0.492983
0.486158
0.489905
0.496995
0.497294
0.499453
0.497783
0.467033
0.473266
0.496145
0.494746
0.4304
0.441472
0.480651
0.485852
0.423387
0.435853
0.457211
0.447121
0.364016
0.380015
0.395424
0.409901
0.349119
0.367045
0.384102
0.400091
0.326742
0.346965
0.366673
0.385407
0.313917
0.33709
0.360208
0.283934
0.306899
0.340134
0.361588
0.333167
0.273563
0.262678
0.278563
0.293549
0.265165
0.256082
0.259747
0.258848
0.267224
0.269616
0.262512
0.255307
0.254424
0.263383
0.265484
0.23605
0.11912
0.17048
0.254106
0.252215
0.100077
0.100022
0.100012
0.100009
0.100012
0.100087
0.101238
0.108541
0.126941
0.144205
0.154223
0.160509
0.165408
0.169163
0.172396
0.174415
0.174005
0.165668
0.149199
0.125231
0.107628
0.101089
0.100095
0.10001
0.100006
0.100029
0.100048
0.100011
0.100159
0.101044
0.100366
0.10975
0.103378
0.153271
0.124613
0.255766
0.19823
0.372543
0.316955
0.442489
0.416293
0.466463
0.461579
0.479375
0.471865
0.495731
0.493102
0.480785
0.485294
0.50147
0.500714
0.499757
0.497353
0.489742
0.492686
0.501779
0.50174
0.46615
0.474053
0.496494
0.498728
0.462025
0.470857
0.484583
0.478402
0.414812
0.42826
0.44075
0.45205
0.402849
0.418909
0.433446
0.446338
0.382154
0.402039
0.41989
0.435731
0.366713
0.392178
0.415008
0.318377
0.347608
0.390323
0.414123
0.380356
0.30057
0.282488
0.30711
0.329152
0.285108
0.267012
0.272326
0.273107
0.288071
0.292689
0.278066
0.265534
0.265073
0.276193
0.277971
0.224233
0.106708
0.143222
0.262889
0.253764
0.100174
0.100047
0.100025
0.100021
0.100072
0.101057
0.108398
0.128303
0.149134
0.160865
0.166629
0.169335
0.171326
0.171989
0.171785
0.167173
0.155719
0.138516
0.11819
0.105053
0.100802
0.100076
0.10001
0.100006
0.100007
0.100094
0.100048
0.100016
0.100236
0.102016
0.100602
0.117496
0.106325
0.184198
0.141732
0.309132
0.243279
0.416242
0.369684
0.454858
0.442435
0.4451
0.448024
0.466257
0.460828
0.4466
0.493956
0.489891
0.471025
0.477007
0.502769
0.50149
0.498028
0.494104
0.500332
0.501295
0.503598
0.504135
0.48952
0.493475
0.503595
0.504306
0.487186
0.4918
0.49848
0.495545
0.45747
0.466972
0.474998
0.481662
0.449625
0.461705
0.471411
0.47893
0.434474
0.450347
0.463163
0.473423
0.417507
0.441645
0.460634
0.364902
0.405259
0.444637
0.470234
0.443116
0.342161
0.313621
0.358151
0.386301
0.321223
0.284211
0.289462
0.298264
0.33011
0.336341
0.304615
0.278777
0.275957
0.293546
0.296264
0.205678
0.101133
0.119598
0.271064
0.251653
0.100348
0.100089
0.100049
0.100075
0.100706
0.107658
0.128255
0.151995
0.165682
0.170402
0.171627
0.171085
0.169453
0.164673
0.15507
0.141868
0.125882
0.111446
0.102992
0.10042
0.10005
0.100008
0.100005
0.100005
0.100009
0.100147
0.100077
0.100024
0.100333
0.103483
0.101047
0.127955
0.110584
0.217463
0.162638
0.351087
0.285106
0.433896
0.403556
0.450166
0.446914
0.399332
0.412103
0.450188
0.44241
0.410095
0.414676
0.489181
0.483187
0.458075
0.46622
0.502939
0.500981
0.494697
0.489366
0.504659
0.504385
0.504101
0.505226
0.500789
0.502428
0.506827
0.506952
0.499562
0.501761
0.504489
0.503486
0.484774
0.48955
0.493498
0.496804
0.481519
0.487738
0.492141
0.495211
0.474106
0.483779
0.490738
0.495175
0.468689
0.482842
0.491039
0.429445
0.457278
0.48199
0.482599
0.475308
0.408618
0.376253
0.42436
0.443842
0.387195
0.31083
0.316833
0.34229
0.389393
0.390264
0.348623
0.293448
0.2887
0.320588
0.317831
0.183541
0.100171
0.107257
0.277667
0.244223
0.100598
0.100149
0.100106
0.100463
0.105659
0.127104
0.152605
0.168701
0.172698
0.172648
0.16963
0.162869
0.152285
0.139707
0.1266
0.114888
0.106036
0.101543
0.10026
0.100029
0.100007
0.100005
0.100005
0.100006
0.100017
0.100034
0.100008
0.100194
0.100107
0.100491
0.105411
0.101645
0.139699
0.11579
0.246748
0.183713
0.377424
0.316515
0.434099
0.417855
0.428866
0.43691
0.378661
0.352974
0.36116
0.367525
0.430888
0.421465
0.384266
0.482531
0.474496
0.441737
0.453135
0.501918
0.498761
0.490947
0.483925
0.506693
0.506363
0.503863
0.505217
0.505658
0.506327
0.509779
0.509196
0.505903
0.507195
0.509447
0.508231
0.497874
0.500312
0.502462
0.504339
0.498848
0.501837
0.504494
0.506978
0.497988
0.501095
0.504612
0.507162
0.489148
0.495297
0.504063
0.465364
0.474564
0.487603
0.48262
0.478356
0.452971
0.427309
0.451979
0.464263
0.42431
0.354201
0.356448
0.391488
0.421012
0.41868
0.392961
0.312846
0.300767
0.352311
0.345314
0.158099
0.100046
0.103047
0.281364
0.2336
0.100904
0.100241
0.100405
0.103506
0.123481
0.15202
0.170225
0.174605
0.172825