/*--------------------------------*- C++ -*----------------------------------*\
  =========                 |
  \\      /  F ield         | OpenFOAM: The Open Source CFD Toolbox
   \\    /   O peration     | Website:  https://openfoam.org
    \\  /    A nd           | Version:  dev
     \\/     M anipulation  |
\*---------------------------------------------------------------------------*/
FoamFile
{
    version     2.0;
    format      ascii;
    class       volScalarField;
    location    "2500";
    object      alphat;
}
// * * * * * * * * * * * * * * * * * * * * * * * * * * * * * * * * * * * * * //

dimensions      [1 -1 -1 0 0 0 0];

internalField   nonuniform List<scalar> 
9841
(
0.000148485
0.00015307
0.00014509
0.00014116
0.000182543
0.000130308
0.000130802
0.000192836
0.000173027
0.000123922
0.000125978
0.000186677
0.000198237
0.000149374
0.000121539
0.000122475
0.000169266
0.000212891
0.000183864
0.00013583
0.000120333
0.000120641
0.00015152
0.000212571
0.000208388
0.000157846
0.000129662
0.000119426
0.000120031
0.000140312
0.000204187
0.000222751
0.000187572
0.000142095
0.000126214
0.000118867
0.000119766
0.000131949
0.000184055
0.000230158
0.000213207
0.000161414
0.00013436
0.000123811
0.00011855
0.00011956
0.00012716
0.000161227
0.000227097
0.000228753
0.000186677
0.000145466
0.000129985
0.000122092
0.000118313
0.000119229
0.0001243
0.000148195
0.000215701
0.000239653
0.000213739
0.000161996
0.000137236
0.000126857
0.000121018
0.00011812
0.000118705
0.000122769
0.000138148
0.000192178
0.000243382
0.000233212
0.000183503
0.000147205
0.000132353
0.000124467
0.000120103
0.000117947
0.000118247
0.000122094
0.000132084
0.000167647
0.000238448
0.0002439
0.000210065
0.000160627
0.000139111
0.000128743
0.000122958
0.000119482
0.000117708
0.000117932
0.000121615
0.000128474
0.000154014
0.000224209
0.000253461
0.000232689
0.000180244
0.000147406
0.000133918
0.000126107
0.000121607
0.000119078
0.000117505
0.00011776
0.000121274
0.00012632
0.000143437
0.000198744
0.000254004
0.000248918
0.000203724
0.000159293
0.000139907
0.000129966
0.000124231
0.000120596
0.000118665
0.000117396
0.000117678
0.000120919
0.00012496
0.000136957
0.00017327
0.00024776
0.000256927
0.000229649
0.000175844
0.000147186
0.000134749
0.000127145
0.000122664
0.000119965
0.000118186
0.000117342
0.000117656
0.000120494
0.000124066
0.000132794
0.00015982
0.000231585
0.000264789
0.000248336
0.000197594
0.000157117
0.000139923
0.000130794
0.000125053
0.000121439
0.000119407
0.000117882
0.000117262
0.000117651
0.000120106
0.000123496
0.000130119
0.000149123
0.000205551
0.000264106
0.000261741
0.000221707
0.000171431
0.000146337
0.000134835
0.000127909
0.00012334
0.000120675
0.000118695
0.000117694
0.000117209
0.000117644
0.000119815
0.000123069
0.000128349
0.000142156
0.000179759
0.000256955
0.000269004
0.000245864
0.000190438
0.000154594
0.000139689
0.000131059
0.00012564
0.000122028
0.000119879
0.000118247
0.000117502
0.000117172
0.000117697
0.000119637
0.00012272
0.000127058
0.000137445
0.000166408
0.000239956
0.00027619
0.000261828
0.000212954
0.000166802
0.000144909
0.000134878
0.000128249
0.000123715
0.000121068
0.000119015
0.00011794
0.000117346
0.000117141
0.000117705
0.000119412
0.000122277
0.000126058
0.000134191
0.000155385
0.000214231
0.000274598
0.000274003
0.00023664
0.000183325
0.000152324
0.000138837
0.000131194
0.000125896
0.000122305
0.000120146
0.000118404
0.000117654
0.000117231
0.00011712
0.000117629
0.000119182
0.00012171
0.00012515
0.000131812
0.000147642
0.000188416
0.000267558
0.000280669
0.000259824
0.00020375
0.00016224
0.000143868
0.000134449
0.000128321
0.000123924
0.000121236
0.000119208
0.000117975
0.000117406
0.000117138
0.000117106
0.000117503
0.000119032
0.000121124
0.000124493
0.000130235
0.000142107
0.000173618
0.000251396
0.000288245
0.000274282
0.000226405
0.0001767
0.00014967
0.00013826
0.000131044
0.000125989
0.000122432
0.000120271
0.00011844
0.000117608
0.000117216
0.000117071
0.000117098
0.000117371
0.000118997
0.000120641
0.000123912
0.000129077
0.000138185
0.000162378
0.000225997
0.00028644
0.000286306
0.000249688
0.000194432
0.000158583
0.000142338
0.000134009
0.000128299
0.000124119
0.000121309
0.000119332
0.000117877
0.000117285
0.000117068
0.000117026
0.00011709
0.000117265
0.000119011
0.000120237
0.000123418
0.000127897
0.000135491
0.000153704
0.000200507
0.000280422
0.000292559
0.000272435
0.000215653
0.000169961
0.000147731
0.00013731
0.000130815
0.000126112
0.00012261
0.000120326
0.00011849
0.00011744
0.00011703
0.000116962
0.000116993
0.000117088
0.000117205
0.000118974
0.000119774
0.000122865
0.000126518
0.000133455
0.000147693
0.000182081
0.000265984
0.000300079
0.000286363
0.000237795
0.00018602
0.00015454
0.000141085
0.000133504
0.000128288
0.000124326
0.000121392
0.000119454
0.000117825
0.000117086
0.000116842
0.000116885
0.000116962
0.000117087
0.000117159
0.000118862
0.000119326
0.000122151
0.000125456
0.00013197
0.000143411
0.000171542
0.000242601
0.000300485
0.000297986
0.000261183
0.00020399
0.000164685
0.000145595
0.000136487
0.000130567
0.000126196
0.000122842
0.000120405
0.000118662
0.000117311
0.000116801
0.000116699
0.000116823
0.000116943
0.000117088
0.000117111
0.000118709
0.000118924
0.000121448
0.000124709
0.000130526
0.000140243
0.000162667
0.000217623
0.000295885
0.000303991
0.000283012
0.000225724
0.000177214
0.00015157
0.00013994
0.000133044
0.000128205
0.000124476
0.000121601
0.000119576
0.000117981
0.000116911
0.000116582
0.000116621
0.00011678
0.000116933
0.00011709
0.000117068
0.000118547
0.000118686
0.0001208
0.00012402
0.000129178
0.000137815
0.000156004
0.000196009
0.000284318
0.000311545
0.000297458
0.000246762
0.00019377
0.000159465
0.000143875
0.000135817
0.000130325
0.00012625
0.000123087
0.000120595
0.000118865
0.000117448
0.000116608
0.000116458
0.000116601
0.000116747
0.000116922
0.000117105
0.000117047
0.000118401
0.000118406
0.000120031
0.000123356
0.000127847
0.000136139
0.000151213
0.000183289
0.000265678
0.000316045
0.000308159
0.000270356
0.000211834
0.000170034
0.000148821
0.000138856
0.000132673
0.000128137
0.000124663
0.000121944
0.000119796
0.00011831
0.000117059
0.000116428
0.000116454
0.000116641
0.000116729
0.000116878
0.000117117
0.000117051
0.000118266
0.000118013
0.000119288
0.000122694
0.000126751
0.00013511
0.000147682
0.000175464
0.000243248
0.000312549
0.000317026
0.000289954
0.000232722
0.000183337
0.00015515
0.000142357
0.000135141
0.000130216
0.000126376
0.0001234
0.000121013
0.000119181
0.000117901
0.000116834
0.00011641
0.000116569
0.000116769
0.000116755
0.000116817
0.000117072
0.00011708
0.000118122
0.000117527
0.000118602
0.000122098
0.000125803
0.000133769
0.000145338
0.000168562
0.000221546
0.000306356
0.000323197
0.000307454
0.000253347
0.000199191
0.000163606
0.000146428
0.000137942
0.000132325
0.000128273
0.000124984
0.000122417
0.000120317
0.000118732
0.000117669
0.000116794
0.000116568
0.000116844
0.000117009
0.000116873
0.000116851
0.000117002
0.000117107
0.000117952
0.000116981
0.000118001
0.000121556
0.000125001
0.000132295
0.000144499
0.000163337
0.000203979
0.00029313
0.000329253
0.000318615
0.000274227
0.000217284
0.000174161
0.000151592
0.000141008
0.000134706
0.000130233
0.000126734
0.000123956
0.0001217
0.000119827
0.000118477
0.000117644
0.000117019
0.000116977
0.000117329
0.000117415
0.000117323
0.000117078
0.000116995
0.000117138
0.000117761
0.000116473
0.000117523
0.000121049
0.000124366
0.000131119
0.000143813
0.000160037
0.000192348
0.000276749
0.000331569
0.000327803
0.000295148
0.000235996
0.000187361
0.000158114
0.00014448
0.000137272
0.000132362
0.00012864
0.00012565
0.000123233
0.000121246
0.000119571
0.000118447
0.000117914
0.000117622
0.000117762
0.000118146
0.000118201
0.000117901
0.000117318
0.000117172
0.00011709
0.000117197
0.000117549
0.000116091
0.000117188
0.000120628
0.000123897
0.000130363
0.000142773
0.000159121
0.000185507
0.00025834
0.000328226
0.000334345
0.000312575
0.000255898
0.00020225
0.000166501
0.00014861
0.000139998
0.000134576
0.000130677
0.000127525
0.000124954
0.000122847
0.000121068
0.000119517
0.000118743
0.00011858
0.000118729
0.000119069
0.000119068
0.000118676
0.000117998
0.000117163
0.000117402
0.000117178
0.000117132
0.000117272
0.000117297
0.000115659
0.000116973
0.000120262
0.000123604
0.000129962
0.000141936
0.00015967
0.000181592
0.000240351
0.000323093
0.000340002
0.000326721
0.000274645
0.000218436
0.000176649
0.000153748
0.000142955
0.000136975
0.00013276
0.000129574
0.00012689
0.000124649
0.000122741
0.000121161
0.000119807
0.000119463
0.000119793
0.000120273
0.00012082
0.00012046
0.000118376
0.000118929
0.000117743
0.000118343
0.000117949
0.000117199
0.000117437
0.000117175
0.000117137
0.00011734
0.000116971
0.000115266
0.000117023
0.000120024
0.000123465
0.000129899
0.000141673
0.000160298
0.000180048
0.000225343
0.00031278
0.000345528
0.000336016
0.000293825
0.000235658
0.000188179
0.00015999
0.000146351
0.000139405
0.000134941
0.000131669
0.000129008
0.000126728
0.000124783
0.000123142
0.000121713
0.000120618
0.000120642
0.000121437
0.000122423
0.00012303
0.000120448
0.000121992
0.000119042
0.000117726
0.000118339
0.00011788
0.000117224
0.000117476
0.000117169
0.000117128
0.000117386
0.000116609
0.000115109
0.000117342
0.000119986
0.000123504
0.000130147
0.000141903
0.000160901
0.00017978
0.000214448
0.000299874
0.000348137
0.000343701
0.000312321
0.000253048
0.000201447
0.000167291
0.000150216
0.000141942
0.000137088
0.000133775
0.000131198
0.000128993
0.000127142
0.000125627
0.000124244
0.000122977
0.000122209
0.000122708
0.000123758
0.000124676
0.000123314
0.000124271
0.000120678
0.000122135
0.000119409
0.00011771
0.000118297
0.000117847
0.000117232
0.000117485
0.00011716
0.000117108
0.000117396
0.000116273
0.000115221
0.000117811
0.000120081
0.000123841
0.00013081
0.000142751
0.000161985
0.000181093
0.00020785
0.000287175
0.000346613
0.000349827
0.000326903
0.000270742
0.000215666
0.000176018
0.000154648
0.000144645
0.000139282
0.000135853
0.000133393
0.000131439
0.000129832
0.000128572
0.000127416
0.000126299
0.000125267
0.000124922
0.00012539
0.0001259
0.000125217
0.000125806
0.000123423
0.000124403
0.000120819
0.000122091
0.000119385
0.000117651
0.000118257
0.00011779
0.000117221
0.000117459
0.000117151
0.000117083
0.000117348
0.00011598
0.000115635
0.00011842
0.00012036
0.000124553
0.000132244
0.000145015
0.000164002
0.000182774
0.000205275
0.000275444
0.000344095
0.000353411
0.000339771
0.00028754
0.000230789
0.000185914
0.000159888
0.000147457
0.000141459
0.00013786
0.000135508
0.000133998
0.000132823
0.000132035
0.000131368
0.000130456
0.000129511
0.000128316
0.000127673
0.000127153
0.00012649
0.000126916
0.000125305
0.000125907
0.000123249
0.000124193
0.000120568
0.000121703
0.000119202
0.000117559
0.000118159
0.000117707
0.000117195
0.000117397
0.000117146
0.000117063
0.000117251
0.000115844
0.000116402
0.000119121
0.00012096
0.000125898
0.000135097
0.000148467
0.000166796
0.000185168
0.000204735
0.000264708
0.000338948
0.000357264
0.000348156
0.000302433
0.000246096
0.000197217
0.00016589
0.000150538
0.000143465
0.000139718
0.000137485
0.000136492
0.000135972
0.000135951
0.000136052
0.000135832
0.000134844
0.000132988
0.000130251
0.000128677
0.000127653
0.000127915
0.000126596
0.000127106
0.000124972
0.000125653
0.00012274
0.000123622
0.000120096
0.000120965
0.000118866
0.000117468
0.000117984
0.000117597
0.000117171
0.000117329
0.000117156
0.000117067
0.000117073
0.000115996
0.000117444
0.000119776
0.000121988
0.000127944
0.000139138
0.000152789
0.000170261
0.000188385
0.0002056
0.000256259
0.000331878
0.000361082
0.000353828
0.000318059
0.000260627
0.000209292
0.000173074
0.00015398
0.000145409
0.000141309
0.000139194
0.000138735
0.000139033
0.000139976
0.000131864
0.00012498
0.000124055
0.000130426
0.000131291
0.000127265
0.000127561
0.000125125
0.000127279
0.000126209
0.000126321
0.000126175
0.000124469
0.000125089
0.000121867
0.000122794
0.000119349
0.000120021
0.000118283
0.000117396
0.000117709
0.000117498
0.000117184
0.000117308
0.000117189
0.000117131
0.000116912
0.000116457
0.000118526
0.000120402
0.000123548
0.000131185
0.000144415
0.000158113
0.000174276
0.000191743
0.000207834
0.000250401
0.000324771
0.000362461
0.000359193
0.000330877
0.000274895
0.000221716
0.00018116
0.000158008
0.000147285
0.000142627
0.000140485
0.000140436
0.000141749
0.000137684
0.000125252
0.000120293
0.000126821
0.00014002
0.000130213
0.000115722
0.000118634
0.00010594
0.000122753
0.000114007
0.00012463
0.000119942
0.000124856
0.000122593
0.00012343
0.000122882
0.000120927
0.000121336
0.000118505
0.000119155
0.000117653
0.000117393
0.000117488
0.000117496
0.000117314
0.000117414
0.000117272
0.000117335
0.000116823
0.000117207
0.000119602
0.000121289
0.000125853
0.000136099
0.000150694
0.00016399
0.000178706
0.000195038
0.000210217
0.000247293
0.00031794
0.000362259
0.000362915
0.000341675
0.000288051
0.000234181
0.000190073
0.000162646
0.000149183
0.000143685
0.00014142
0.000141467
0.000143665
0.000135347
0.000123113
0.000125246
0.00015403
0.000149206
0.000145097
0.000136326
9.8941e-05
0.00011437
9.96352e-05
9.1456e-05
0.000109335
9.51125e-05
0.000116688
0.000104654
0.000119946
0.00011272
0.000120423
0.000116464
0.000119208
0.000117341
0.000117861
0.000117241
0.000117367
0.00011754
0.000115713
0.00010658
0.000117625
0.000114384
0.000117381
0.000112536
0.000116931
0.000118228
0.000120563
0.000122688
0.000129313
0.000142763
0.000157604
0.000170018
0.000183207
0.00019826
0.000213137
0.000246222
0.000312229
0.00036156
0.000365457
0.00035021
0.000300363
0.000246113
0.000199574
0.000167993
0.000151399
0.000144539
0.000142217
0.000142379
0.000144584
0.000136127
0.000124154
0.000139724
0.000174661
0.000182923
0.000189494
0.000205536
0.000166844
0.000242494
0.000112898
0.000181718
8.97265e-05
0.000122556
9.16761e-05
9.21984e-05
0.000100105
8.85813e-05
0.000107595
9.56901e-05
0.000112241
0.000101876
0.000114309
0.000107487
0.000115804
0.000111729
0.00011384
9.88932e-05
9.88095e-05
8.96162e-05
9.45458e-05
8.3666e-05
8.6976e-05
8.21543e-05
0.000117304
0.000119339
0.000121422
0.000124914
0.000134576
0.000151024
0.000164933
0.000175904
0.000187518
0.000201246
0.000216081
0.000246826
0.000308055
0.000359698
0.000366909
0.000356904
0.000310918
0.000257564
0.000209192
0.000173953
0.000154197
0.00014533
0.000142399
0.000142789
0.000145494
0.000139545
0.000126712
0.000154965
0.000200898
0.00023284
0.000275562
0.000356503
0.000400951
0.000259462
0.00034644
0.000193627
0.00026861
0.000136427
0.000206185
9.97549e-05
0.000154588
8.85185e-05
0.000114716
9.09411e-05
9.36873e-05
9.63348e-05
8.80871e-05
0.000102601
9.1949e-05
0.00011014
9.87542e-05
9.50553e-05
7.95811e-05
8.39569e-05
7.70187e-05
7.04316e-05
6.67772e-05
6.6527e-05
6.16332e-05
0.00011811
0.000120489
0.000122466
0.000128207
0.000142424
0.000160292
0.000172302
0.000181342
0.000191371
0.000203912
0.00021894
0.000248486
0.000305557
0.000357624
0.000367941
0.000361021
0.000320682
0.000268169
0.000218882
0.000180484
0.000157388
0.000146168
0.000142199
0.000142189
0.000145713
0.000144328
0.000131037
0.000161566
0.000219952
0.000285359
0.000381764
0.000483769
0.000500902
0.000433531
0.000486546
0.000338465
0.000395255
0.000275218
0.000337809
0.000221578
0.000285054
0.000177013
0.000241152
0.000138358
0.000203308
0.000107141
0.000168866
9.013e-05
0.000131017
8.90694e-05
9.73201e-05
9.57401e-05
8.84251e-05
8.22295e-05
6.70518e-05
7.33188e-05
6.73829e-05
5.52896e-05
5.6729e-05
5.35546e-05
4.85033e-05
0.000120129
0.000121929
0.000124156
0.000133154
0.000152379
0.00016944
0.000179232
0.000186084
0.000194387
0.000206151
0.000221677
0.000251057
0.000304612
0.000355883
0.000369635
0.000363363
0.000329603
0.000277775
0.000228347
0.000187518
0.000161271
0.000147227
0.000141985
0.000141309
0.000144363
0.000148703
0.000134485
0.000165011
0.000224643
0.000321389
0.000483576
0.000581704
0.000582922
0.000512765
0.000556963
0.000469237
0.000500744
0.000390081
0.000431805
0.000340797
0.000387188
0.000299635
0.000349439
0.000265226
0.00031926
0.000233722
0.000292619
0.000200563
0.000265471
0.000158766
0.000231805
0.000107087
0.000183238
8.96187e-05
0.000113833
9.10699e-05
6.01848e-05
9.27941e-05
9.19269e-05
4.57623e-05
5.20199e-05
4.57637e-05
4.04601e-05
0.000128587
0.000124623
0.000126822
0.000140333
0.000163406
0.000178155
0.000185423
0.000190039
0.000196759
0.000207935
0.000224321
0.000253941
0.000305011
0.000354772
0.000370972
0.000365557
0.000336598
0.00028647
0.000237368
0.000194831
0.000165351
0.000148943
0.000141881
0.000140259
0.000142719
0.000149158
0.000138469
0.000166172
0.000222939
0.000328644
0.000552057
0.000632283
0.000633572
0.000582945
0.00061748
0.000534478
0.000565947
0.000486064
0.000517843
0.000424594
0.000455959
0.000389787
0.00042195
0.000363569
0.00039865
0.000342205
0.000381565
0.000321241
0.000366123
0.000295729
0.000347831
0.000259304
0.000321931
0.000200818
0.000280526
0.000115306
0.000209301
0.000113842
8.4738e-05
0.000111763
0.000107024
4.12026e-05
6.69243e-05
4.3428e-05
3.76708e-05
0.000143465
0.000132973
0.000131041
0.00014939
0.000174088
0.000185634
0.000190282
0.000193375
0.000198751
0.000209625
0.000226974
0.000257282
0.0003065
0.000354449
0.000372164
0.000367097
0.000341919
0.000293826
0.000245758
0.000202351
0.000170033
0.000150956
0.000142138
0.000139216
0.00014092
0.000146611
0.00014446
0.000158828
0.00021621
0.000324253
0.00056777
0.000664036
0.000646734
0.000617119
0.000596051
0.000613496
0.000549376
0.000580449
0.000505357
0.000535631
0.000448875
0.000475708
0.000425411
0.000447905
0.000411617
0.000433969
0.000400543
0.000426979
0.000389111
0.000421634
0.000373147
0.00041469
0.000346898
0.000401607
0.000298862
0.000373596
0.000210963
0.000315551
0.000207279
0.000100335
0.000197573
0.000172424
4.54342e-05
9.25417e-05
4.8973e-05
4.27929e-05
0.000157505
0.000140113
0.000158628
0.00018214
0.000191781
0.000193618
0.000196394
0.000200847
0.000211554
0.000229849
0.000261333
0.000308826
0.000354912
0.000373396
0.000368704
0.000346014
0.000299971
0.000253182
0.000209813
0.000175357
0.00015382
0.000142796
0.000138489
0.000139129
0.000143852
0.00015291
0.00015394
0.000202542
0.000308131
0.000560389
0.000682463
0.000662917
0.000603308
0.000598118
0.000573388
0.000603222
0.000608109
0.000566856
0.000592998
0.000526589
0.000556705
0.000471498
0.000498311
0.00045377
0.000475024
0.000447956
0.00046724
0.0004477
0.000470589
0.000449457
0.000480195
0.000449279
0.000491753
0.000439773
0.0004963
0.000406276
0.00048404
0.000331936
0.00043875
0.000341531
0.000147898
0.00034278
0.000317099
8.07355e-05
0.000119228
7.98858e-05
6.11227e-05
0.000163221
0.000167811
0.000189132
0.000195716
0.000196532
0.000199467
0.000203236
0.000213469
0.000232859
0.000265714
0.000311809
0.000356076
0.000374769
0.000370414
0.000349334
0.000305438
0.000259604
0.000217057
0.000181147
0.000157367
0.000143772
0.000138295
0.000137637
0.000141352
0.000150095
0.000154465
0.000189578
0.000277644
0.00053071
0.000698638
0.000685391
0.000596689
0.000520575
0.000475538
0.000572934
0.000510094
0.000603424
0.000594866
0.000584276
0.000600953
0.000553453
0.000580301
0.000499183
0.000525335
0.000488426
0.000510786
0.000492257
0.000514077
0.000507886
0.000533163
0.000528622
0.000564226
0.000548828
0.000597682
0.00055655
0.000620763
0.000535355
0.000620067
0.000470729
0.000581277
0.000490918
0.000269015
0.000493794
0.000481475
0.000391493
9.21358e-05
0.000186101
0.000109647
6.96881e-05
0.000190766
0.000193064
0.000200013
0.000198979
0.000201945
0.000205285
0.000215106
0.000235401
0.000269866
0.000315133
0.000357754
0.000376379
0.000372036
0.000351784
0.000309749
0.000265654
0.000223632
0.00018745
0.000161272
0.000145756
0.000138778
0.000136867
0.000139391
0.000146602
0.000159456
0.000178028
0.000248243
0.000474137
0.000707023
0.000717863
0.000623022
0.000395328
0.000422382
0.000341132
0.000532515
0.000426754
0.000598495
0.00058241
0.000599852
0.000603214
0.00058647
0.000605327
0.000535295
0.000561408
0.000536629
0.000561189
0.000558352
0.000585048
0.000597665
0.000627912
0.000640699
0.000678856
0.000676981
0.000722912
0.000691773
0.00074969
0.000674873
0.000750116
0.000615417
0.000706312
0.00066206
0.000568236
0.000628718
0.000460571
0.000327682
0.000435607
0.000559512
0.000627433
0.00062786
0.000547403
0.000111606
0.000393289
0.000346698
0.000218412
5.98749e-05
5.61123e-05
0.000208656
0.000201139
0.000202323
0.000203425
0.000206814
0.000216286
0.000237346
0.000273404
0.000318319
0.000359637
0.000378234
0.00037382
0.000353867
0.000312806
0.000270772
0.000229884
0.000193537
0.000166214
0.000149183
0.000139716
0.000137033
0.000138192
0.000143883
0.000154865
0.000168891
0.000219287
0.000411385
0.000695789
0.000762307
0.000682892
0.000447725
0.000212213
0.000199764
0.000318885
0.000243785
0.000468279
0.000344935
0.000591783
0.00055529
0.000611973
0.000604127
0.000623862
0.000628908
0.000586105
0.00060816
0.000609363
0.000631236
0.000653074
0.000675296
0.00070796
0.000731337
0.00075757
0.00076905
0.000792512
0.000767266
0.000766802
0.00078899
0.000807298
0.000761794
0.000743586
0.000775681
0.000771646
0.000770601
0.000800905
0.000716803
0.000681261
0.000726639
0.000756267
0.000684363
0.000528434
0.000500468
0.000619621
0.000678537
0.000683351
0.000606462
0.000266967
0.000108118
0.000196394
0.000462387
0.000408281
1.49574e-05
0.000123834
7.38368e-05
3.67477e-05
0.000209507
0.000203228
0.000204158
0.000208294
0.00021734
0.000239171
0.000276225
0.000321243
0.000361649
0.000380079
0.000375771
0.000355928
0.000315133
0.000274545
0.000235678
0.000199751
0.000171626
0.000153613
0.000142317
0.000137796
0.000137998
0.000142023
0.000150764
0.000161875
0.000192589
0.00035187
0.000661672
0.000789235
0.000767426
0.000589437
0.000214391
0.000166082
0.000154545
0.000246724
0.000192099
0.000401363
0.000288413
0.000575727
0.000510363
0.000621507
0.000593898
0.000659887
0.000643717
0.000647949
0.000657118
0.00069098
0.000698395
0.000743154
0.000745036
0.000731708
0.000698621
0.00072126
0.000680251
0.000782047
0.000707747
0.000726587
0.000661198
0.000790944
0.000754867
0.000732099
0.000787136
0.000810901
0.0007533
0.000745968
0.000776952
0.000763605
0.000730103
0.000766427
0.000792922
0.000729242
0.000587044
0.00055999
0.000669019
0.000724496
0.000716534
0.000655043
0.000338794
0.000248008
0.000522205
0.000470391
2.71612e-05
5.98298e-06
7.09936e-06
0.00014975
8.54691e-05
0.000207244
0.000204518
0.000208883
0.000218748
0.000240684
0.000278969
0.000323387
0.000362938
0.000381892
0.000377783
0.000357883
0.000317157
0.00027685
0.000241041
0.000206154
0.000177764
0.000158831
0.000147666
0.000140115
0.000138523
0.00014125
0.000148211
0.00015644
0.000171099
0.000300835
0.00060954
0.000797246
0.000841687
0.000728296
0.000345505
0.000142568
0.000155882
0.000145027
0.00013969
0.000211254
0.000165604
0.000345865
0.000252
0.000541379
0.000453932
0.000610806
0.000564157
0.000661885
0.000628435
0.000700849
0.000688485
0.000731889
0.000720612
0.000666906
0.000632929
0.000639557
0.000597019
0.00067729
0.000618146
0.000630814
0.000578939
0.000701576
0.000681541
0.000656267
0.000636079
0.000721502
0.000699161
0.000679349
0.000789424
0.000752565
0.000711178
0.000687368
0.000716905
0.0007938
0.000764709
0.000790486
0.000772075
0.000759194
0.000636068
0.000610206
0.000705327
0.000750693
0.000739916
0.000691017
0.000400533
0.000310472
0.00057454
0.000525114
2.79561e-05
3.7982e-06
6.29354e-06
0.000198543
0.000103234
0.000207
0.000209336
0.000219885
0.000242997
0.000281131
0.000325376
0.000364189
0.000383092
0.000379644
0.000359901
0.000318918
0.000278351
0.000244979
0.000212554
0.000184505
0.000165661
0.000153944
0.000146062
0.000140781
0.000141411
0.000147083
0.000153879
0.00015875
0.00026344
0.000549997
0.000789037
0.000898318
0.000845103
0.000520249
0.000170562
0.000133601
0.000135031
0.000136194
0.000131932
0.000186751
0.00015108
0.000295828
0.000216311
0.000492245
0.000395292
0.000581025
0.000513018
0.00063638
0.000582545
0.000702804
0.000674445
0.000606333
0.00058658
0.000561865
0.00052028
0.000588837
0.00054669
0.000554293
0.000492868
0.000612817
0.000591743
0.000568306
0.000545484
0.000655174
0.000635665
0.000611609
0.00058953
0.00067966
0.000657565
0.000635305
0.000727447
0.000690709
0.000659539
0.000635019
0.000661608
0.000749429
0.000781041
0.000725996
0.00070252
0.000760844
0.000673045
0.000649403
0.000727196
0.000741572
0.000719174
0.000712868
0.000457618
0.000366835
0.00061687
0.00057116
4.5468e-05
2.75603e-06
1.01944e-05
0.000249878
0.000131511
0.000212178
0.000221504
0.000245287
0.000283739
0.000326865
0.000364217
0.000383939
0.000381279
0.000361668
0.000320785
0.000279916
0.000247199
0.000217998
0.000191712
0.000174007
0.000162234
0.000154417
0.000145862
0.000142736
0.000145044
0.000149879
0.000156576
0.000246306
0.000498691
0.000756041
0.000926558
0.000937606
0.000692559
0.000241731
0.000136047
0.000146825
0.000129787
0.000133054
0.000132883
0.000129174
0.000167358
0.000143381
0.000241017
0.000188483
0.000425123
0.000325556
0.000512053
0.000423041
0.00055114
0.000475496
0.000574828
0.000570151
0.000487941
0.000463913
0.000448226
0.000416204
0.000522083
0.000501843
0.000485893
0.000455687
0.000562608
0.000537501
0.000508633
0.00048208
0.000611515
0.000586463
0.000559172
0.000530316
0.000635062
0.000610421
0.000583686
0.000665521
0.000635592
0.000607341
0.000577514
0.000607451
0.000675908
0.00070178
0.000650652
0.000638374
0.000678955
0.000696271
0.000673754
0.000694842
0.000654965
0.000629987
0.000668511
0.000506233
0.000394455
0.000623205
0.000561145
7.09006e-05
2.49707e-06
3.95365e-05
0.000261024
0.000163437
0.000226416
0.000247684
0.000285827
0.000328093
0.000364175
0.00038327
0.000382318
0.000364016
0.000322731
0.000281438
0.000248261
0.000222476
0.000198767
0.000184215
0.000172632
0.000161371
0.000152022
0.000144529
0.000142671
0.00014547
0.000157278
0.000245228
0.000475162
0.00072141
0.000939265
0.00100864
0.000832147
0.000344617
0.000155666
0.000134127
0.000138128
0.000126131
0.000129803
0.000129585
0.000125441
0.000158818
0.000140054
0.000214573
0.000180302
0.000331693
0.000261989
0.000398818
0.000336143
0.000423442
0.000379954
0.000456718
0.000472768
0.000389869
0.000398014
0.000380397
0.000355424
0.000349967
0.000362209
0.000453359
0.000427626
0.000401879
0.000379557
0.000500035
0.000470187
0.000441142
0.000414911
0.000554775
0.000523476
0.000491184
0.000459312
0.000579758
0.00054905
0.000515553
0.000607669
0.000576548
0.000544455
0.000505584
0.000543022
0.000611886
0.000624163
0.000584791
0.000578097
0.000599437
0.000641844
0.000613574
0.000608644
0.000575112
0.000556674
0.000589765
0.000481255
0.000375419
0.000579871
0.000534321
0.000111903
9.76598e-06
9.93444e-05
0.000261064
0.000180186
0.00025574
0.000288237
0.00032836
0.000362724
0.000381965
0.000382177
0.00036586
0.0003253
0.000283275
0.000250083
0.00022535
0.000205865
0.000194474
0.000184522
0.000168168
0.000155549
0.000148667
0.000148425
0.000149429
0.000163659
0.000254165
0.000474379
0.000705264
0.000944064
0.00106104
0.000943279
0.000471708
0.00019647
0.000139002
0.000146158
0.000129684
0.000135166
0.000123191
0.00012518
0.000130916
0.000124976
0.000156338
0.000140951
0.000208428
0.000186953
0.000283916
0.000240396
0.000335818
0.000297488
0.000357856
0.000334482
0.00041577
0.000387041
0.000355262
0.000349694
0.000376228
0.00035931
0.000358005
0.000373263
0.000369699
0.000391346
0.000372041
0.000357726
0.000353408
0.0004297
0.000403271
0.00038159
0.000365576
0.000481253
0.000448154
0.000418108
0.000392482
0.000508793
0.000471824
0.000437064
0.000544427
0.000506812
0.000466202
0.00042682
0.000466017
0.00054942
0.000557792
0.0005211
0.000512178
0.000535
0.000575571
0.000562966
0.000541781
0.000515936
0.000502885
0.000532669
0.000467311
0.000379
0.000547442
0.000519929
0.00015356
1.65015e-05
0.000144069
0.000295659
0.000226446
0.000293797
0.000329147
0.000360756
0.000379696
0.000381477
0.000367871
0.000328785
0.000285168
0.00025185
0.000227386
0.00021296
0.000205204
0.000193814
0.000172986
0.000161259
0.000164101
0.00017283
0.000186099
0.000213565
0.000295358
0.000484031
0.000709666
0.000949509
0.00110333
0.0010292
0.00059387
0.000243157
0.000149588
0.000134966
0.000139166
0.000125585
0.000129773
0.000126345
0.000123952
0.000143291
0.000133018
0.000170417
0.000156009
0.000236243
0.000221285
0.000269815
0.00025124
0.000322192
0.000315526
0.000358034
0.000361735
0.000359922
0.000355418
0.000386531
0.000376834
0.000369764
0.000372187
0.000381496
0.000385535
0.000372997
0.00038125
0.000355724
0.000352826
0.000357131
0.00036898
0.00037305
0.000360883
0.000357061
0.000361079
0.000406955
0.000382943
0.000366625
0.000359553
0.00042916
0.000398088
0.000375243
0.00047202
0.000431234
0.000393941
0.000371998
0.000395969
0.000483614
0.000498746
0.000459473
0.000442276
0.000480714
0.000526656
0.000523466
0.000493553
0.000465862
0.000454723
0.000487776
0.000472647
0.000414327
0.000521093
0.000512098
0.000164944
0.000149817
0.000171492
0.000371338
0.000313302
0.00033169
0.000357859
0.000376096
0.000379889
0.000369166
0.000332359
0.000287682
0.000253464
0.000229065
0.000219806
0.000216015
0.000202888
0.000183996
0.000197343
0.000241093
0.000297437
0.000346262
0.000384428
0.000426486
0.000518752
0.000719335
0.000957313
0.00113704
0.00109329
0.000694033
0.000282781
0.000162657
0.000138271
0.000143596
0.000130052
0.000134241
0.000125505
0.000126406
0.000138369
0.000129199
0.000169061
0.000152211
0.000204883
0.000187127
0.000291348
0.00027638
0.000310473
0.000302751
0.000367965
0.000371593
0.000395702
0.000399873
0.000374918
0.000378724
0.000386774
0.000369212
0.000368062
0.000379954
0.000383204
0.000377423
0.000372223
0.0003714
0.000370637
0.000371956
0.000387939
0.00039738
0.000386304
0.000362222
0.000374141
0.00039338
0.000404265
0.000362497
0.000361089
0.000370567
0.000390252
0.000371144
0.000360841
0.00036348
0.000404303
0.000377652
0.000361275
0.00036933
0.000364851
0.000420789
0.000441545
0.000403779
0.000388707
0.000425764
0.000487116
0.000490576
0.000446862
0.00041255
0.000402109
0.00044482
0.000488747
0.000476549
0.000497964
0.000504585