/*--------------------------------*- C++ -*----------------------------------*\
  =========                 |
  \\      /  F ield         | OpenFOAM: The Open Source CFD Toolbox
   \\    /   O peration     | Website:  https://openfoam.org
    \\  /    A nd           | Version:  dev
     \\/     M anipulation  |
\*---------------------------------------------------------------------------*/
FoamFile
{
    version     2.0;
    format      ascii;
    class       volScalarField;
    location    "2500";
    object      CO2;
}
// * * * * * * * * * * * * * * * * * * * * * * * * * * * * * * * * * * * * * //

dimensions      [0 0 0 0 0 0 0];

internalField   nonuniform List<scalar> 
9841
(
5.10196e-29
1.55833e-28
9.78439e-29
3.13521e-28
3.70305e-28
6.65721e-29
3.90071e-28
8.3324e-28
4.3433e-28
6.16878e-29
6.67017e-28
2.19407e-27
1.02996e-27
3.56508e-28
4.06287e-29
2.16669e-27
4.41876e-27
3.18297e-27
9.89613e-28
2.47581e-28
1.85589e-29
4.16677e-27
6.92768e-27
7.06773e-27
3.00694e-27
7.36291e-28
1.47912e-28
7.28776e-30
9.61824e-27
1.94334e-26
1.64956e-26
7.87344e-27
2.91377e-27
6.49758e-28
4.58461e-29
1.16925e-30
1.29864e-26
3.94025e-26
3.52015e-26
1.80466e-26
6.16929e-27
1.99776e-27
3.63192e-28
1.86352e-29
8.10978e-31
2.03671e-26
6.6338e-26
7.62408e-26
4.4816e-26
1.76354e-26
5.71589e-27
1.08831e-27
1.33237e-28
7.69321e-30
1.03707e-31
1.65893e-26
8.28962e-26
1.46934e-25
9.81822e-26
3.70889e-26
1.27967e-26
3.51629e-27
4.72138e-28
4.46814e-29
1.86583e-30
3.73138e-32
3.53776e-26
1.5136e-25
2.5261e-25
1.89682e-25
9.24729e-26
3.81415e-26
1.14981e-26
1.87802e-27
2.1145e-28
1.83239e-29
7.854e-31
1.49957e-32
3.73775e-26
1.68024e-25
4.14966e-25
4.06497e-25
2.46898e-25
8.17103e-26
2.76836e-26
6.69428e-27
1.00575e-27
8.35321e-29
4.7973e-30
1.30389e-31
5.39773e-33
1.20194e-25
4.68693e-25
6.97698e-25
7.83995e-25
4.81664e-25
2.13185e-25
6.42796e-26
1.8073e-26
2.88868e-27
5.01454e-28
4.20245e-29
1.18631e-30
4.1088e-32
1.98996e-33
1.50869e-25
6.4085e-25
1.27346e-24
1.52395e-24
8.4719e-25
4.97568e-25
1.56183e-25
5.25681e-26
1.32984e-26
1.83082e-27
1.69601e-28
1.06347e-29
5.16355e-31
4.44374e-32
1.44561e-32
1.90848e-25
8.1856e-25
1.58388e-24
2.20992e-24
1.8191e-24
9.69399e-25
4.21343e-25
1.25031e-25
3.03538e-26
6.64924e-27
9.59434e-28
8.84436e-29
5.95586e-30
5.94333e-31
1.32e-31
3.54185e-32
2.03641e-25
1.52251e-24
2.93706e-24
3.72777e-24
4.34998e-24
1.81258e-24
7.83978e-25
2.86008e-25
9.39337e-26
2.18145e-26
3.14143e-27
3.56152e-28
3.75448e-29
2.35428e-30
1.13001e-30
4.51835e-31
1.57353e-31
1.08937e-25
1.42809e-24
5.44028e-24
6.80285e-24
6.84721e-24
4.85175e-24
2.07579e-24
7.10419e-25
2.22301e-25
6.17443e-26
9.46935e-27
1.5999e-27
1.30589e-28
1.6984e-29
3.52051e-30
2.87035e-30
2.74481e-30
8.65006e-31
4.4831e-25
1.41737e-24
5.91186e-24
1.29015e-23
1.26497e-23
1.02137e-23
4.68627e-24
1.82738e-24
4.67076e-25
1.635e-25
3.56596e-26
5.14094e-27
5.00246e-28
4.82201e-29
1.59959e-29
9.89446e-30
1.89238e-29
1.64982e-29
1.46302e-29
1.90457e-25
3.09743e-24
9.19464e-24
1.72769e-23
2.005e-23
1.64298e-23
9.54345e-24
3.69394e-24
1.21173e-24
3.82679e-25
8.10218e-26
1.58571e-26
1.67357e-27
2.71115e-28
4.30957e-29
4.84588e-29
8.35179e-29
1.66283e-28
1.69709e-28
1.79001e-28
3.55186e-25
2.50485e-24
1.33435e-23
1.86151e-23
3.43896e-23
3.53404e-23
2.17239e-23
9.69415e-24
3.30949e-24
9.52243e-25
2.06797e-25
4.72989e-26
8.66061e-27
7.41069e-28
2.00095e-28
1.48922e-28
3.52608e-28
9.00033e-28
1.49689e-27
2.11888e-27
1.78253e-27
1.57744e-24
4.60621e-24
1.79896e-23
3.4294e-23
5.14863e-23
6.26204e-23
4.11374e-23
2.01715e-23
8.07866e-24
2.16954e-24
6.93984e-25
1.40638e-25
2.3883e-26
3.83626e-27
5.79318e-28
6.76566e-28
1.86437e-27
4.03892e-27
8.45255e-27
1.4239e-26
1.87839e-26
1.3704e-26
2.26039e-24
1.02109e-23
2.4334e-23
4.159e-23
6.64004e-23
7.92586e-23
8.17759e-23
3.72638e-23
1.74788e-23
5.73358e-24
1.50594e-24
3.76618e-25
7.76998e-26
1.28666e-26
1.73996e-27
2.2793e-27
8.38344e-27
2.00246e-26
4.39259e-26
8.43719e-26
1.59639e-25
1.44743e-25
1.09254e-25
1.52641e-24
1.43934e-23
3.32999e-23
8.68368e-23
9.10717e-23
1.18314e-22
1.43469e-22
8.79098e-23
3.15942e-23
1.12389e-23
3.67136e-24
1.02797e-24
1.76088e-25
3.47403e-26
6.55506e-27
8.66602e-27
2.46462e-26
9.30986e-26
2.27764e-25
4.1395e-25
8.89511e-25
1.64738e-24
2.23562e-24
2.67231e-24
1.92058e-24
2.00898e-23
5.68013e-23
1.32767e-22
1.73763e-22
2.02567e-22
1.8394e-22
1.44587e-22
7.64081e-23
2.90491e-23
8.33282e-24
2.67713e-24
5.57426e-25
8.49606e-26
2.80206e-26
2.03487e-26
8.43586e-26
2.95918e-25
1.01005e-24
2.3586e-24
3.91556e-24
1.27401e-23
2.93481e-23
3.45151e-23
1.62943e-23
3.99746e-24
4.15728e-23
9.02964e-23
1.69595e-22
2.57605e-22
3.41733e-22
3.28459e-22
2.89168e-22
1.48173e-22
6.26836e-23
1.78875e-23
5.62395e-24
1.34983e-24
3.10792e-25
7.66142e-26
1.03205e-25
2.43631e-25
7.66232e-25
3.18205e-24
1.2244e-23
2.71339e-23
5.06276e-23
1.48778e-22
3.16312e-22
2.49146e-22
1.3517e-22
8.4345e-24
4.00684e-23
1.7477e-22
3.28238e-22
4.44566e-22
7.28109e-22
4.84204e-22
5.15458e-22
2.56952e-22
1.14401e-22
3.98459e-23
1.16115e-23
3.24611e-24
7.07079e-25
2.00304e-25
2.97646e-25
7.88258e-25
3.09682e-24
9.52092e-24
4.59805e-23
1.83356e-22
4.18273e-22
7.28867e-22
1.83072e-21
3.13539e-21
1.81745e-21
9.54128e-22
1.17172e-23
4.01894e-23
3.20985e-22
5.9565e-22
6.20928e-22
1.16022e-21
1.12702e-21
7.85333e-22
5.5392e-22
2.50915e-22
9.35446e-23
2.62339e-23
8.0605e-24
1.56099e-24
4.76451e-25
6.96386e-25
3.08429e-24
9.54653e-24
4.27599e-23
1.55191e-22
4.8505e-22
2.16505e-21
4.71456e-21
6.65794e-21
1.82388e-20
2.87557e-20
1.64764e-20
1.51774e-20
8.43547e-24
5.46521e-23
3.02231e-22
9.996e-22
1.3721e-21
1.91703e-21
2.03446e-21
1.30836e-21
9.29482e-22
4.60627e-22
1.96035e-22
5.12265e-23
1.66499e-23
4.13418e-24
1.0563e-24
2.23434e-24
7.72946e-24
4.18155e-23
1.34051e-22
5.47819e-22
1.58308e-21
8.58095e-21
2.81656e-20
5.24133e-20
1.0193e-19
2.16893e-19
2.1918e-19
1.20735e-19
1.12639e-19
2.58189e-24
4.64147e-23
4.95209e-22
1.20014e-21
1.8347e-21
2.74566e-21
3.39558e-21
2.92403e-21
1.39917e-21
8.96522e-22
3.60322e-22
1.27402e-22
3.30096e-23
1.00591e-23
3.61475e-24
5.84764e-24
2.10417e-23
9.65107e-23
4.80385e-22
2.04994e-21
7.39212e-21
2.94419e-20
9.89444e-20
3.53472e-19
6.39023e-19
7.57693e-19
1.891e-18
1.81046e-18
1.18607e-18
4.71068e-19
6.90892e-24
5.38383e-23
3.81205e-22
1.20765e-21
2.60263e-21
5.05011e-21
5.54481e-21
4.37739e-21
2.91442e-21
1.45077e-21
6.66975e-22
2.6033e-22
6.71892e-23
2.11104e-23
6.25349e-24
1.39215e-23
5.07668e-23
2.16367e-22
1.12295e-21
6.6894e-21
2.97176e-20
9.25351e-20
4.62633e-19
1.24799e-18
4.67742e-18
5.7179e-18
9.08091e-18
1.41432e-17
1.52903e-17
5.78447e-18
2.2673e-18
6.89377e-23
1.29426e-22
5.72465e-22
2.42238e-21
4.58323e-21
5.69507e-21
8.72094e-21
7.80556e-21
5.5743e-21
2.79976e-21
1.31984e-21
4.99238e-22
1.47477e-22
3.6896e-23
1.73597e-23
2.70395e-23
1.13567e-22
6.45651e-22
3.206e-21
1.56394e-20
1.08702e-19
5.49404e-19
2.42345e-18
7.69674e-18
2.02022e-17
5.81981e-17
8.61522e-17
1.1891e-16
1.29076e-16
1.0729e-16
4.20451e-17
9.44194e-18
1.11649e-21
8.82702e-22
1.06454e-21
4.24969e-21
5.1893e-21
9.83705e-21
1.56586e-20
1.31585e-20
9.98302e-21
5.59594e-21
2.3606e-21
9.3308e-22
3.27844e-22
9.22611e-23
3.43298e-23
5.43247e-23
3.31197e-22
1.68884e-21
9.23197e-21
5.96313e-20
3.44235e-19
2.69627e-18
1.50788e-17
5.1825e-17
1.71624e-16
3.15252e-16
6.60973e-16
7.79825e-16
1.00344e-15
8.48611e-16
5.508e-16
1.85894e-16
6.59753e-18
1.36821e-20
8.71846e-21
5.84021e-21
8.00356e-21
1.287e-20
1.57739e-20
2.04039e-20
2.30513e-20
1.59266e-20
1.03805e-20
4.46322e-21
1.86071e-21
7.36325e-22
1.87349e-22
6.53598e-23
1.32031e-22
5.70054e-22
3.53543e-21
2.17453e-20
1.82163e-19
1.59976e-18
1.42649e-17
8.43115e-17
4.89276e-16
1.1529e-15
2.55541e-15
4.9062e-15
7.63666e-15
9.72093e-15
9.43382e-15
6.20229e-15
2.80182e-15
8.24854e-17
1.18053e-17
2.55717e-16
5.3874e-20
9.10522e-20
3.48176e-20
1.9864e-20
1.77921e-20
2.97587e-20
2.937e-20
3.09519e-20
3.10207e-20
1.80396e-20
9.71044e-21
3.40156e-21
1.14415e-21
3.66977e-22
1.72405e-22
2.89014e-22
1.06232e-21
7.92575e-21
6.34794e-20
4.86751e-19
6.78472e-18
7.73926e-17
5.74488e-16
2.85235e-15
1.0796e-14
2.29035e-14
5.00624e-14
8.23678e-14
1.12411e-13
1.23391e-13
9.58877e-14
4.18876e-14
0
1.24353e-15
9.13831e-15
6.57813e-17
8.94862e-16
2.31725e-19
3.57648e-19
3.1299e-19
1.10733e-19
6.07693e-20
5.5652e-20
5.22862e-20
4.59584e-20
4.96656e-20
3.12743e-20
1.69455e-20
6.67664e-21
2.22058e-21
7.21796e-22
3.51111e-22
4.58449e-22
2.48523e-21
1.43771e-20
1.20653e-19
2.49038e-18
3.00303e-17
3.97097e-16
3.80356e-15
2.25934e-14
8.91132e-14
2.00077e-13
4.76384e-13
8.593e-13
1.21701e-12
1.45434e-12
1.34219e-12
7.37425e-13
7.78311e-14
3.38717e-13
5.61257e-14
3.21192e-13
3.5426e-13
7.29921e-15
5.19421e-14
3.35355e-16
5.02748e-15
1.35111e-18
2.34156e-18
2.27854e-18
1.07316e-18
2.76749e-19
1.18146e-19
9.59757e-20
7.54158e-20
8.14992e-20
5.75141e-20
2.92248e-20
1.42077e-20
4.68636e-21
1.48937e-21
7.69194e-22
9.27381e-22
4.56561e-21
3.05497e-20
1.93843e-19
4.52147e-18
1.79013e-16
2.05512e-15
2.14033e-14
1.63418e-13
6.91697e-13
1.66743e-12
4.25876e-12
8.19928e-12
1.24285e-11
1.53054e-11
1.59454e-11
1.12033e-11
1.50326e-12
7.00674e-12
1.66986e-12
3.37341e-13
1.88338e-12
1.96891e-12
4.32254e-14
3.08521e-13
1.63756e-15
2.9116e-14
9.19666e-18
1.87192e-17
1.34305e-17
6.46087e-18
1.7239e-18
5.21048e-19
2.02842e-19
1.49975e-19
1.18482e-19
9.30471e-20
5.43108e-20
2.5206e-20
9.22961e-21
3.29301e-21
1.31732e-21
3.01813e-21
1.13866e-20
5.92428e-20
4.21147e-19
6.11214e-18
3.25271e-16
1.35938e-14
1.23861e-13
9.65657e-13
4.74272e-12
1.25084e-11
3.56749e-11
7.31494e-11
1.16439e-10
1.5006e-10
1.62626e-10
1.38657e-10
2.81095e-11
1.11367e-10
8.0543e-12
3.54896e-11
9.37054e-12
1.9556e-12
1.05583e-11
1.11123e-11
2.53803e-13
1.77495e-12
9.17791e-15
1.65124e-13
3.16603e-17
9.24252e-17
7.16736e-17
3.13752e-17
1.09941e-17
2.63132e-18
6.65462e-19
2.85302e-19
2.00301e-19
1.37409e-19
8.97026e-20
4.40467e-20
1.50234e-20
5.87822e-21
3.13489e-21
5.47318e-21
2.34403e-20
1.30506e-19
7.61901e-19
7.66761e-18
3.71077e-16
2.80351e-14
7.2205e-13
5.61707e-12
2.758e-11
8.25669e-11
2.6667e-10
6.133e-10
1.02715e-09
1.36324e-09
1.51218e-09
1.42041e-09
3.96569e-10
1.38191e-09
1.42681e-10
5.24873e-10
4.26886e-11
1.79399e-10
5.12131e-11
1.09266e-11
5.72562e-11
5.99232e-11
1.42577e-12
9.73684e-12
4.87762e-14
8.90803e-13
1.19894e-16
2.36636e-16
3.15624e-16
2.06184e-16
7.11781e-17
1.25457e-17
2.75152e-18
7.0478e-19
3.48634e-19
2.17209e-19
1.40121e-19
7.57822e-20
3.34825e-20
1.29712e-20
7.19665e-21
1.09834e-20
3.45477e-20
2.08878e-19
1.32825e-18
1.09996e-17
3.84019e-16
2.98148e-14
1.95419e-12
2.0594e-11
1.40522e-10
4.60148e-10
1.7264e-09
4.55266e-09
8.61708e-09
1.18778e-08
1.32103e-08
1.27001e-08
4.42444e-09
1.39335e-08
1.79957e-09
5.86917e-09
6.90004e-10
2.45484e-09
2.24184e-10
8.99457e-10
2.6611e-10
5.8067e-11
2.94963e-10
3.06882e-10
7.6239e-12
5.08828e-11
2.50089e-13
4.56225e-12
4.53253e-16
7.20238e-16
9.98194e-16
9.2242e-16
3.08538e-16
7.31479e-17
1.39251e-17
2.66523e-18
7.51916e-19
3.72593e-19
2.19703e-19
1.26564e-19
5.93529e-20
2.72679e-20
1.67628e-20
2.64086e-20
6.54983e-20
3.34601e-19
2.21183e-18
1.54978e-17
3.75828e-16
2.73121e-14
1.8506e-12
8.22891e-11
5.77859e-10
2.40984e-09
9.16417e-09
2.85988e-08
6.31276e-08
1.00869e-07
1.15354e-07
1.0702e-07
4.0955e-08
1.2073e-07
1.82223e-08
5.46107e-08
8.16315e-09
2.55321e-08
3.29162e-09
1.11125e-08
1.11188e-09
4.24367e-09
1.31112e-09
2.93244e-10
1.44327e-09
1.48876e-09
3.85559e-11
2.51097e-10
1.19922e-12
2.18774e-11
1.16445e-15
3.28863e-15
4.05013e-15
3.68282e-15
1.36628e-15
3.3632e-16
7.27306e-17
1.17825e-17
2.13362e-18
7.11151e-19
3.60972e-19
2.11333e-19
1.21343e-19
6.94576e-20
3.82542e-20
6.59242e-20
1.54603e-19
6.25807e-19
3.14207e-18
2.41326e-17
3.29085e-16
2.38502e-14
1.85202e-12
7.89677e-11
1.81305e-09
1.06884e-08
3.64569e-08
1.4534e-07
3.86227e-07
7.33703e-07
1.00884e-06
9.37185e-07
3.34292e-07
9.5835e-07
1.58177e-07
4.48477e-07
7.63049e-08
2.20227e-07
3.51272e-08
1.05215e-07
1.47959e-08
4.7679e-08
5.23597e-09
1.90343e-08
6.13644e-09
1.39481e-09
6.6995e-09
6.78272e-09
1.8154e-10
1.15268e-09
5.29965e-12
9.62344e-11
3.94868e-15
1.49611e-14
1.96703e-14
1.87316e-14
6.54269e-15
1.38019e-15
3.13157e-16
5.80001e-17
6.62966e-18
1.52263e-18
7.01037e-19
3.64545e-19
2.03733e-19
1.73791e-19
1.13795e-19
1.23596e-19
3.60119e-19
9.45522e-19
7.06255e-18
3.48844e-17
3.46738e-16
1.42161e-14
1.69618e-12
7.8809e-11
1.48144e-09
2.71664e-08
1.17258e-07
5.47283e-07
1.83267e-06
4.19618e-06
7.01864e-06
8.58343e-06
2.63887e-06
7.96287e-06
1.24337e-06
3.43874e-06
6.16231e-07
1.68416e-06
3.02475e-07
8.40137e-07
1.44409e-07
4.16081e-07
6.37015e-08
1.97571e-07
2.35504e-08
8.22611e-08
2.73948e-08
6.17275e-09
2.93026e-08
2.87377e-08
7.81248e-10
4.8185e-09
2.08575e-11
3.74131e-10
1.65326e-14
6.62895e-14
9.30912e-14
8.26769e-14
2.85705e-14
6.27141e-15
1.11195e-15
2.14019e-16
3.03374e-17
4.91943e-18
1.47275e-18
7.46335e-19
4.90131e-19
3.42584e-19
2.79921e-19
3.30532e-19
6.17683e-19
2.34562e-18
1.02565e-17
7.67977e-17
5.03542e-16
8.38294e-15
8.81891e-13
8.40337e-11
2.15494e-09
2.69569e-08
2.73539e-07
1.62329e-06
6.13955e-06
1.73443e-05
3.43902e-05
5.26854e-05
2.34846e-05
6.8977e-05
9.81332e-06
2.94079e-05
4.58395e-06
1.28053e-05
2.2726e-06
6.12818e-06
1.15417e-06
3.10687e-06
5.77432e-07
1.60859e-06
2.66616e-07
8.03154e-07
1.0199e-07
3.47248e-07
1.16836e-07
2.49562e-08
1.22108e-07
1.15706e-07
2.94849e-09
1.78068e-08
6.76875e-11
1.20147e-09
7.18953e-14
2.81224e-13
4.2412e-13
3.48737e-13
1.16297e-13
2.66442e-14
5.24417e-15
8.09613e-16
1.13657e-16
1.72763e-17
3.18795e-18
1.66234e-18
1.0929e-18
9.67982e-19
8.20846e-19
8.43134e-19
1.2947e-18
4.22184e-18
2.26812e-17
1.0629e-16
8.6786e-16
7.6613e-15
3.54447e-13
4.62712e-11
2.1654e-09
2.85831e-08
3.97515e-07
3.43665e-06
1.56915e-05
4.83991e-05
0.000114877
0.0001936
0.00015478
0.000267645
8.08233e-05
0.000191791
3.71436e-05
0.000100101
1.68905e-05
4.6964e-05
8.32868e-06
2.27809e-05
4.3673e-06
1.17342e-05
2.28965e-06
6.31242e-06
1.10102e-06
3.27357e-06
4.30172e-07
1.45252e-06
4.85407e-07
9.43532e-08
5.03809e-07
4.61715e-07
9.58092e-09
6.14952e-08
1.65332e-10
3.37601e-09
3.13134e-13
1.15339e-12
1.81581e-12
1.31281e-12
4.39334e-13
1.05596e-13
1.76916e-14
2.3886e-15
4.79769e-16
5.41832e-17
1.17056e-17
4.02705e-18
3.24345e-18
2.50396e-18
2.25494e-18
2.12134e-18
3.12918e-18
8.14026e-18
3.97168e-17
2.29882e-16
1.50482e-15
1.05248e-14
1.8798e-13
1.8085e-11
1.56515e-09
3.61387e-08
4.31857e-07
4.64203e-06
2.84633e-05
9.75532e-05
0.000236418
0.000436644
0.000621485
0.000319658
0.000515566
0.000214445
0.000359911
0.0001206
0.000239824
6.06582e-05
0.000146645
3.18715e-05
8.22769e-05
1.73782e-05
4.65935e-05
9.39683e-06
2.66923e-05
4.59972e-06
1.39677e-05
1.81205e-06
6.19189e-06
2.05508e-06
3.54298e-07
2.11382e-06
1.85993e-06
3.04275e-08
2.1763e-07
4.06144e-10
9.63439e-09
1.4105e-12
4.62585e-12
7.13866e-12
4.48266e-12
1.50892e-12
3.84249e-13
6.49066e-14
7.99319e-15
1.00689e-15
1.82182e-16
2.73774e-17
1.15508e-17
9.20689e-18
9.53484e-18
7.28336e-18
8.9977e-18
9.4496e-18
1.5203e-17
8.68032e-17
3.92158e-16
2.3432e-15
1.75004e-14
1.80933e-13
6.77835e-12
6.48605e-10
2.86684e-08
3.89841e-07
4.73595e-06
3.59376e-05
0.000151214
0.000371756
0.000660164
0.000915816
0.000851546
0.0010394
0.00052185
0.000695048
0.000384563
0.000550713
0.00026842
0.00041367
0.000181173
0.000307077
0.000116832
0.000228141
7.11509e-05
0.000167993
4.13862e-05
0.000111313
2.02019e-05
6.22528e-05
7.85059e-06
2.75619e-05
8.89258e-06
1.36954e-06
8.88953e-06
7.67718e-06
9.9983e-08
8.12206e-07
1.08256e-09
2.90799e-08
6.76428e-12
1.85443e-11
2.60836e-11
1.4183e-11
4.75131e-12
1.27799e-12
2.19567e-13
2.62201e-14
3.10538e-15
4.01783e-16
1.03483e-16
2.6327e-17
2.44802e-17
2.25871e-17
2.28141e-17
2.37577e-17
2.85246e-17
5.17604e-17
1.37926e-16
7.67949e-16
4.42089e-15
3.32347e-14
2.66126e-13
3.89267e-12
2.39808e-10
1.55849e-08
2.84362e-07
4.38281e-06
3.62232e-05
0.00018039
0.000495109
0.000853244
0.00117104
0.00117415
0.00131459
0.00108473
0.00124693
0.000727833
0.000907886
0.000576962
0.000756081
0.000453137
0.00061505
0.000362039
0.000511706
0.000294437
0.000439171
0.000236086
0.000383389
0.00016704
0.000322123
8.72479e-05
0.000230152
3.3809e-05
0.000110358
3.65281e-05
5.5889e-06
3.56034e-05
3.03932e-05
3.49159e-07
3.22628e-06
3.18046e-09
9.38732e-08
2.93963e-11
7.55394e-11
9.01193e-11
4.23665e-11
1.40051e-11
3.85875e-12
6.85985e-13
8.66953e-14
8.83091e-15
1.08115e-15
2.28692e-16
9.81343e-17
5.49222e-17
5.85777e-17
5.51908e-17
4.73122e-17
6.50061e-17
1.15014e-16
4.07458e-16
1.64561e-15
9.98154e-15
7.0433e-14
5.1648e-13
4.2724e-12
9.83204e-11
6.20533e-09
1.73751e-07
3.35431e-06
3.35377e-05
0.000180233
0.000557557
0.000947247
0.00122167
0.00139015
0.00142748
0.00138713
0.00148683
0.00129644
0.00144918
0.000941553
0.00112422
0.00078972
0.000975363
0.000673375
0.000844906
0.000596133
0.000760728
0.000543851
0.000711189
0.000495636
0.000675666
0.000422539
0.000626011
0.000292975
0.00052772
0.000126074
0.000346029
0.000132382
2.18094e-05
0.000127153
0.00010752
1.29232e-06
1.21709e-05
1.04175e-08
3.18695e-07
7.82508e-11
2.78429e-10
2.97573e-10
1.20843e-10
3.92156e-11
1.04825e-11
1.9701e-12
2.70327e-13
2.80566e-14
2.77706e-15
4.24065e-16
2.06673e-16
1.63704e-16
1.49794e-16
1.39107e-16
1.31384e-16
1.54973e-16
2.99331e-16
8.3595e-16
3.89169e-15
2.41841e-14
1.64654e-13
1.12259e-12
7.28151e-12
7.19434e-11
2.38202e-09
1.03051e-07
1.96205e-06
2.7572e-05
0.000171019
0.000552723
0.000913845
0.00113019
0.0013724
0.00153461
0.0015424
0.0015683
0.00163607
0.00150142
0.00163642
0.00116204
0.00133986
0.00102482
0.00120989
0.000930608
0.00110513
0.000881719
0.00105279
0.000857478
0.00103636
0.000831106
0.00102831
0.000768069
0.000997561
0.000628784
0.000907104
0.000382248
0.000716247
0.000396132
7.55945e-05
0.000375787
0.000310235
4.69662e-06
4.16477e-05
3.84631e-08
1.13038e-06
5.87204e-10
8.97854e-10
3.32695e-10
1.04623e-10
2.60815e-11
5.21865e-12
7.87217e-13
8.70885e-14
7.78e-15
1.20911e-15
6.11363e-16
4.03069e-16
4.47939e-16
3.37569e-16
3.54742e-16
3.58878e-16
6.84998e-16
2.24077e-15
1.08081e-14
6.5257e-14
4.21558e-13
2.67065e-12
1.58354e-11
9.42737e-11
1.2198e-09
4.55921e-08
1.01165e-06
1.73209e-05
0.000144571
0.000526962
0.000848328
0.000975603
0.00106406
0.00146945
0.0011839
0.00164207
0.00160081
0.0017278
0.00175708
0.00169882
0.00180909
0.00138977
0.00155503
0.00128367
0.00145976
0.00122314
0.00139279
0.00120984
0.00137661
0.0012155
0.00138934
0.00120979
0.00139836
0.00115833
0.00137516
0.00102574
0.00129053
0.000774743
0.00111343
0.000799387
0.000220218
0.000775505
0.000677814
1.57425e-05
0.000123222
1.25457e-07
3.06973e-06
2.02507e-09
9.11196e-10
2.69462e-10
6.1395e-11
1.26312e-11
2.10697e-12
2.55242e-13
2.323e-14
3.08623e-15
1.40253e-15
1.54207e-15
1.17048e-15
9.94699e-16
8.71358e-16
9.74543e-16
1.83569e-15
5.55623e-15
3.02436e-14
1.87226e-13
1.16948e-12
6.95272e-12
3.82946e-11
1.90517e-10
1.18253e-09
1.9988e-08
4.82003e-07
9.99729e-06
0.000103516
0.000468883
0.00079695
0.000872701
0.00077202
0.000926862
0.000645897
0.00138304
0.00104917
0.00173956
0.00163282
0.00186579
0.00186536
0.0018871
0.00196452
0.00162392
0.00176876
0.00155981
0.00171631
0.00153562
0.00168758
0.00154844
0.00169477
0.00156587
0.00171473
0.00156044
0.00171648
0.00150725
0.00168192
0.00138413
0.00159373
0.00115989
0.00143727
0.00116481
0.000513056
0.00111554
0.00103012
0.000805684
4.17328e-05
0.000278455
2.26268e-07
5.83616e-06
2.17982e-09
6.9325e-10
1.42031e-10
2.86587e-11
5.16448e-12
6.96062e-13
6.83261e-14
9.63604e-15
4.52798e-15
4.18393e-15
3.90613e-15
3.2501e-15
2.83912e-15
3.05841e-15
5.5185e-15
1.60133e-14
8.96267e-14
5.60406e-13
3.43575e-12
1.95838e-11
1.01e-10
4.63549e-10
1.92602e-09
1.36709e-08
2.21856e-07
5.7518e-06
6.6434e-05
0.000377046
0.000754836
0.000819479
0.000642353
0.000278529
0.000706402
0.000386713
0.00128372
0.000885324
0.00179952
0.00161199
0.00198473
0.00194742
0.00205792
0.00209361
0.00185579
0.00197239
0.0018305
0.00195932
0.00183029
0.0019564
0.00184659
0.00196526
0.0018506
0.00196864
0.00182587
0.00194682
0.00176013
0.00189365
0.0016407
0.00179664
0.00144865
0.00164518
0.00155576
0.0012895
0.00142265
0.000950402
0.000607513
0.000870471
0.00121028
0.0013649
0.00139234
0.00115734
8.28891e-05
0.000745668
0.000605801
0.000310136
1.27029e-07
4.87307e-06
1.80909e-09
3.54733e-10
6.4195e-11
1.18712e-11
1.75312e-12
1.89411e-13
3.10917e-14
1.62444e-14
1.57012e-14
1.48516e-14
1.27787e-14
1.14952e-14
1.1454e-14
1.71647e-14
5.16851e-14
2.67549e-13
1.695e-12
1.04653e-11
5.84563e-11
2.88306e-10
1.23244e-09
4.52166e-09
1.68243e-08
1.3303e-07
2.70849e-06
3.86594e-05
0.000278424
0.000706109
0.000793335
0.000624679
0.000240248
0.000133929
6.68729e-05
0.000505008
0.000243391
0.00115901
0.000719909
0.00182033
0.00154616
0.0020668
0.00197516
0.00218112
0.00215795
0.0020702
0.00215151
0.00207091
0.00217002
0.00207375
0.00217365
0.00207334
0.00216869
0.00205285
0.00214988
0.00200651
0.00210663
0.00185858
0.00191748
0.0019726
0.00202717
0.00172371
0.00179653
0.00192249
0.00192276
0.00186085
0.00163682
0.00153172
0.00162761
0.00171972
0.00151267
0.001088
0.00099695
0.00132161
0.00145224
0.00148561
0.00126794
0.000407215
6.90799e-05
0.000243755
0.000877679
0.000722551
0
9.4641e-05
2.45065e-05
2.46304e-06
1.04494e-09
1.59972e-10
2.69856e-11
4.17785e-12
4.99312e-13
1.00765e-13
5.98194e-14
6.10136e-14
5.9288e-14
5.26126e-14
4.57559e-14
4.36071e-14
5.75304e-14
1.58293e-13
7.83883e-13
5.13727e-12
3.22712e-11
1.81478e-10
8.69472e-10
3.56774e-09
1.20175e-08
3.40528e-08
1.327e-07
1.40037e-06
2.15597e-05
0.000193824
0.000635042
0.000780345
0.000643703
0.000281792
5.20949e-05
6.12788e-05
2.98321e-05
0.00035452
0.000148429
0.00100664
0.00057261
0.00176905
0.00143528
0.0020854
0.00192073
0.00222565
0.00215455
0.00223367
0.00224742
0.0022547
0.00229494
0.00225307
0.00230919
0.00223597
0.00230113
0.00219588
0.00226671
0.00207659
0.00212441
0.0021669
0.00220555
0.00198005
0.00203301
0.00208344
0.00179106
0.00185536
0.00197971
0.00197153
0.0019149
0.001708
0.00160929
0.00169063
0.00177887
0.00158533
0.00119879
0.00110866
0.00140964
0.00155527
0.00151967
0.00135653
0.000540804
0.000329454
0.000990422
0.000840267
3.86246e-06
6.13121e-09
2.50422e-07
0.000143704
4.11386e-05
5.27247e-10
6.96769e-11
9.92139e-12
1.27574e-12
3.25539e-13
2.22581e-13
2.37606e-13
2.38022e-13
2.17011e-13
1.90341e-13
1.75072e-13
2.00966e-13
4.68541e-13
2.24564e-12
1.54405e-11
1.00819e-10
5.73735e-10
2.7563e-09
1.08463e-08
3.48614e-08
8.73429e-08
2.06982e-07
1.09769e-06
1.30965e-05
0.000130401
0.000537285
0.00076733
0.000690031
0.00038445
0.000100717
1.13401e-05
1.36378e-05
3.70646e-05
1.5783e-05
0.000262697
0.00010179
0.000824701
0.000439557
0.00163864
0.0012603
0.00199769
0.00174137
0.00217278
0.00199623
0.00229281
0.00226184
0.00233082
0.00231733
0.00233777
0.00234226
0.00231551
0.00233517
0.00223693
0.00226106
0.00227824
0.00228308
0.00212858
0.00216884
0.00220177
0.00222805
0.00203246
0.00208066
0.00212291
0.00184245
0.00190121
0.00202296
0.00200455
0.00195575
0.0017605
0.00166736
0.00173659
0.00182328
0.00163876
0.00128974
0.00120326
0.00147692
0.00160552
0.00156816
0.00142579
0.000654869
0.000436667
0.00109104
0.000946504
6.1331e-06
9.49915e-09
5.04744e-07
0.000212986
6.60353e-05
2.5779e-10
2.74754e-11
3.38003e-12
1.06446e-12
8.31997e-13
9.16217e-13
9.36326e-13
8.74637e-13
7.88471e-13
7.14548e-13
7.34824e-13
1.37176e-12
6.18197e-12
4.52679e-11
3.14693e-10
1.86852e-09
8.97143e-09
3.43406e-08
1.0938e-07
2.36558e-07
4.66188e-07
1.28223e-06
9.98815e-06
9.06319e-05
0.000436826
0.000747789
0.000735452
0.000492807
0.000199777
1.86022e-05
5.94046e-06
4.51563e-06
2.47688e-05
1.03e-05
0.000191834
7.09624e-05
0.000599112
0.000286988
0.00140304
0.00100061
0.00174038
0.00141561
0.00191157
0.00163256
0.0022584
0.00212774
0.00230177
0.00219154
0.00230374
0.00220367
0.00227952
0.00225928
0.0022293
0.00217593
0.00224521
0.00225137
0.0022457
0.00222535
0.00215811
0.00218552
0.0022032
0.00220904
0.00206823
0.00210615
0.00213514
0.00188088
0.00193294
0.00204586
0.00201315
0.00197785
0.00179807
0.00170796
0.00176791
0.00185397
0.00167489
0.00136303
0.00128296
0.00152585
0.00163887
0.00160045
0.00147781
0.000763738
0.000542911
0.00117875
0.0010425
1.07259e-05
2.3557e-08
1.27566e-06
0.00029156
9.55188e-05
1.15253e-10
1.0989e-11
3.64508e-12
3.12815e-12
3.47645e-12
3.57795e-12
3.41708e-12
3.1604e-12
2.92796e-12
2.78422e-12
3.99727e-12
1.62017e-11
1.25487e-10
9.4891e-10
5.95748e-09
2.97328e-08
1.17671e-07
3.36139e-07
6.39803e-07
1.18101e-06
2.25894e-06
9.41264e-06
7.3535e-05
0.000359401
0.000716248
0.000766173
0.000586405
0.000306146
5.28978e-05
2.90785e-06
3.94202e-06
4.87513e-06
3.48974e-06
1.89705e-05
8.96674e-06
0.000115437
4.47594e-05
0.000333438
0.000157287
0.00104391
0.000651356
0.00130108
0.000938898
0.00141335
0.00108904
0.00199856
0.00173467
0.00201796
0.00173795
0.00198124
0.00171574
0.00219102
0.00213944
0.00207341
0.0020029
0.00220255
0.00218111
0.00214338
0.00208805
0.00215343
0.00215941
0.0021528
0.0021302
0.00207753
0.00209807
0.00210545
0.00190284
0.00194249
0.0020376
0.00198629
0.001972
0.00182103
0.0017336
0.00178361
0.00186578
0.0016961
0.00142076
0.00134975
0.00155988
0.00165759
0.00161896
0.00151682
0.000866843
0.000645788
0.00125743
0.00113558
2.11483e-05
1.42159e-07
4.98443e-06
0.000379198
0.000150416
5.5511e-11
1.54103e-11
1.25058e-11
1.31165e-11
1.33179e-11
1.27865e-11
1.20949e-11
1.15391e-11
1.08065e-11
1.18948e-11
3.89488e-11
3.27636e-10
2.65147e-09
1.80802e-08
9.4879e-08
3.85903e-07
1.00596e-06
1.91854e-06
3.32274e-06
5.33504e-06
1.21176e-05
7.12299e-05
0.000321153
0.000680055
0.000784185
0.000662019
0.000402932
0.000108846
6.059e-06
2.38874e-06
1.3821e-06
5.85608e-06
3.81769e-06
1.86359e-05
1.022e-05
7.50104e-05
3.67383e-05
0.000213471
0.000123802
0.000600958
0.000360704
0.000805933
0.000589451
0.000958626
0.000801744
0.00142653
0.00115435
0.00140541
0.0011786
0.00155531
0.00141831
0.00120448
0.00130581
0.00201523
0.00192466
0.00181708
0.00169371
0.00209037
0.00203227
0.00195548
0.00186112
0.00209967
0.00207641
0.00203503
0.00197459
0.0020477
0.00204429
0.0020217
0.00190054
0.00192167
0.00198719
0.0019146
0.00192777
0.00182353
0.00174257
0.00177893
0.00185252
0.0017006
0.00146858
0.00141061
0.0015819
0.00165987
0.00162172
0.00154578
0.000975568
0.000767162
0.00133469
0.00123185
5.03759e-05
1.16833e-06
2.09705e-05
0.000511406
0.000267884
9.76605e-11
6.20229e-11
5.3345e-11
4.9536e-11
4.65795e-11
4.41774e-11
4.31531e-11
4.13521e-11
3.68876e-11
8.55515e-11
7.76436e-10
7.04116e-09
5.13084e-08
2.9347e-07
1.19393e-06
3.0733e-06
6.13635e-06
9.97708e-06
1.43332e-05
2.30403e-05
7.70025e-05
0.000313612
0.000659334
0.000794054
0.000719215
0.000486927
0.000179395
2.00236e-05
1.05988e-06
1.09888e-06
3.47636e-06
1.6906e-06
9.62708e-06
5.56037e-06
2.93204e-05
1.72831e-05
7.37438e-05
4.66302e-05
0.000222706
0.000176913
0.000424928
0.00030192
0.000671436
0.000576482
0.000954444
0.000969323
0.00105715
0.000985525
0.00114726
0.00112033
0.0011744
0.0012963
0.00122877
0.00117152
0.00118653
0.00175205
0.00163219
0.00150705
0.00139049
0.00189566
0.00180035
0.00169258
0.00157911
0.00197984
0.00191817
0.00183875
0.00174448
0.00196773
0.00192737
0.00186648
0.00186524
0.00186158
0.00187917
0.00178625
0.00183427
0.00179964
0.00173119
0.00174559
0.00180529
0.00168468
0.00150901
0.00146579
0.00158848
0.0016424
0.0016081
0.00156164
0.00109342
0.000911428
0.00140696
0.0013239
0.000134666
1.46575e-05
8.5081e-05
0.000697719
0.000504537
4.36178e-10
2.75155e-10
2.0197e-10
1.70615e-10
1.57153e-10
1.53796e-10
1.5502e-10
1.16831e-10
1.86348e-10
1.4393e-09
1.69469e-08
1.36069e-07
8.35985e-07
3.49262e-06
9.72733e-06
1.97038e-05
3.01703e-05
3.93464e-05
5.33484e-05
0.000103946
0.000319372
0.000656733
0.000802467
0.000759786
0.0005544
0.000247522
4.01508e-05
1.57461e-06
1.46998e-06
5.53853e-07
5.68816e-06
3.15799e-06
2.44563e-05
1.18405e-05
7.38309e-05
4.52183e-05
0.000142023
0.0001076
0.000475576
0.000431422
0.000521646
0.000495552
0.00102485
0.00109484
0.00173801
0.00194132
0.00131676
0.001519
0.00118418
0.00121303
0.00183761
0.00200681
0.00125778
0.00127508
0.0014232
0.00133456
0.0014697
0.00137602
0.00130743
0.00126514
0.00164137
0.00153873
0.00144681
0.00137416
0.00178853
0.00169829
0.00160502
0.00151864
0.00182248
0.00174893
0.00166677
0.00179032
0.00175533
0.00172182
0.00164794
0.00170395
0.00174446
0.001694
0.00168867
0.00172418
0.00164881
0.00153647
0.00150782
0.00158276
0.00161423
0.00159124
0.00156714
0.0012094
0.00106247
0.00146677
0.00140433
0.000346309
0.000176857
0.000314273
0.000907997
0.000795388
1.99892e-09
1.07042e-09
6.91255e-10
5.61686e-10
5.31964e-10
5.40976e-10
3.67544e-10
4.40365e-10
2.32007e-09
3.10658e-08
3.30604e-07
2.1773e-06
9.93635e-06
2.93053e-05
5.89139e-05
8.66099e-05
0.000104291
0.000124957
0.000179344
0.000348304
0.00066228
0.00080837
0.000786331
0.000602523
0.000304258
6.16551e-05
4.87451e-06
4.78214e-07
2.993e-07
2.86843e-06
1.22781e-06
1.3709e-05
5.65886e-06
6.54622e-05
3.18188e-05
0.000190596
0.000118317
0.000360721
0.000275648
0.00110694
0.000995519
0.00114445
0.00114589
0.00212044
0.00224189
0.00314154
0.00334335
0.00216141
0.00233126
0.00286243
0.00153985
0.0016779
0.00250263
0.00268654
0.00150359
0.00162565
0.00194277
0.00177335
0.00133427
0.00132876
0.00135235
0.00141059
0.00144927
0.00141031
0.0014038
0.00141871
0.00158706
0.0015217
0.00148685
0.00147983
0.00165099
0.0015879
0.00155432
0.0016893
0.00165088
0.00160966
0.00163024
0.00163311
0.00167037
0.00164429
0.00163683
0.00164952
0.00161479
0.00155495
0.00153875
0.00157989
0.00159714
0.00158757
0.00157387
0.00131371
0.00120387
0.00151314
0.00147123
0.000773609
0.000811225
0.000868533
0.00110433
0.0010687
8.08485e-09
3.72128e-09
2.21559e-09
1.83071e-09
1.82212e-09
1.16845e-09
1.1616e-09
3.60109e-09
4.69256e-08
6.15951e-07
5.23026e-06
2.57972e-05
7.6928e-05
0.00013913
0.000180076
0.000201479
0.00022551
0.000284339
0.00043042
0.000685012
0.00081466
0.000798651
0.00062906
0.000343443
8.12368e-05
8.35422e-06
3.05964e-07
9.95407e-07
2.71852e-07
5.27322e-06
2.44801e-06
3.58134e-05
1.39731e-05
0.000161783
8.11818e-05
0.000447877
0.000284977
0.000825784
0.000635768
0.00212728
0.00189716
0.00227076