/*--------------------------------*- C++ -*----------------------------------*\
  =========                 |
  \\      /  F ield         | OpenFOAM: The Open Source CFD Toolbox
   \\    /   O peration     | Website:  https://openfoam.org
    \\  /    A nd           | Version:  dev
     \\/     M anipulation  |
\*---------------------------------------------------------------------------*/
FoamFile
{
    version     2.0;
    format      ascii;
    class       volScalarField;
    location    "2500";
    object      G;
}
// * * * * * * * * * * * * * * * * * * * * * * * * * * * * * * * * * * * * * //

dimensions      [1 0 -3 0 0 0 0];

internalField   nonuniform List<scalar> 
9841
(
3958.56
3964.18
3965.65
3969.05
3971.28
3973.51
3973.19
3976.16
3979.15
3982.14
3976.6
3980.31
3984.04
3987.79
3991.56
3979.3
3983.72
3988.18
3992.68
3997.22
4001.78
3981.29
3986.41
3991.58
3996.81
4002.11
4007.45
4012.83
3982.6
3988.39
3994.25
4000.19
4006.22
4012.33
4018.51
4024.73
3983.25
3989.69
3996.2
4002.82
4009.56
4016.41
4023.37
4030.41
4037.5
3983.25
3990.31
3997.46
4004.73
4012.14
4019.7
4027.41
4035.25
4043.19
4051.19
3982.63
3990.29
3998.05
4005.94
4013.99
4022.22
4030.64
4039.24
4048
4056.88
4065.83
3981.43
3989.65
3997.97
4006.45
4015.11
4023.98
4033.07
4042.39
4051.93
4061.65
4071.52
4081.47
3979.66
3988.41
3997.28
4006.31
4015.54
4025.01
4034.73
4044.73
4054.99
4065.51
4076.25
4087.15
4098.15
3977.35
3986.6
3995.98
4005.53
4015.29
4025.32
4035.63
4046.26
4057.2
4068.46
4080.01
4091.82
4103.82
4115.94
3974.54
3984.26
3994.11
4004.14
4014.4
4024.94
4035.8
4047.01
4058.58
4070.52
4082.83
4095.49
4108.43
4121.6
4134.91
3971.26
3981.42
3991.7
4002.18
4012.9
4023.91
4035.27
4047.01
4059.15
4071.72
4084.73
4098.15
4111.97
4126.13
4140.54
4155.12
3967.54
3978.09
3988.78
3999.67
4010.81
4022.26
4034.07
4046.29
4058.95
4072.09
4085.72
4099.85
4114.46
4129.53
4144.98
4160.72
4176.66
3963.41
3974.33
3985.39
3996.65
4008.17
4020.01
4032.23
4044.88
4058.01
4071.65
4085.85
4100.61
4115.93
4131.81
4148.21
4165.05
4182.23
4199.64
3958.9
3970.15
3981.55
3993.15
4005.02
4017.21
4029.79
4042.83
4056.36
4070.45
4085.14
4100.45
4116.42
4133.02
4150.26
4168.09
4186.43
4205.17
4224.16
3954.04
3965.6
3977.3
3989.2
4001.38
4013.89
4026.79
4040.16
4054.05
4068.53
4083.64
4099.43
4115.94
4133.19
4151.17
4169.88
4189.25
4209.22
4229.63
4250.34
3948.87
3960.7
3972.67
3984.84
3997.29
4010.08
4023.27
4036.93
4051.12
4065.93
4081.4
4097.59
4114.56
4132.35
4150.98
4170.44
4190.73
4211.78
4233.5
4255.75
4278.34
3943.41
3955.48
3967.69
3980.11
3992.79
4005.82
4019.25
4033.16
4047.61
4062.69
4078.45
4094.98
4112.33
4130.57
4149.73
4169.84
4190.9
4212.89
4235.77
4259.42
4283.67
4308.33
3937.69
3949.97
3962.39
3975.02
3987.92
4001.14
4014.78
4028.89
4043.56
4058.86
4074.86
4091.66
4109.31
4127.89
4147.48
4168.11
4189.83
4212.62
4236.47
4261.34
4287.09
4313.55
4340.48
3931.74
3944.21
3956.81
3969.62
3982.69
3996.09
4009.9
4024.18
4039.01
4054.48
4070.67
4087.66
4105.54
4124.39
4144.3
4165.33
4187.56
4211.01
4235.68
4261.57
4288.61
4316.69
4345.58
4375.01
3925.59
3938.22
3950.98
3963.94
3977.15
3990.7
4004.64
4019.05
4034.01
4049.61
4065.93
4083.06
4101.1
4120.13
4140.26
4161.58
4184.18
4208.13
4233.46
4260.18
4288.3
4317.74
4348.38
4379.97
4412.26
3919.27
3932.02
3944.91
3958
3971.34
3984.99
3999.04
4013.55
4028.6
4044.28
4060.68
4077.9
4096.03
4115.17
4135.44
4156.94
4179.78
4204.06
4229.88
4257.26
4286.23
4316.79
4348.89
4382.37
4417.03
4452.52
3912.79
3925.65
3938.65
3951.84
3965.27
3979.01
3993.13
4007.71
4022.81
4038.54
4054.98
4072.23
4090.39
4109.58
4129.91
4151.49
4174.46
4198.93
4225.04
4252.88
4282.51
4313.94
4347.21
4382.25
4418.95
4457.07
4496.11
3906.19
3919.13
3932.21
3945.48
3958.98
3972.78
3986.95
4001.56
4016.7
4032.44
4048.88
4066.11
4084.25
4103.42
4123.73
4145.31
4168.3
4192.84
4219.08
4247.16
4277.22
4309.3
4343.46
4379.72
4418.08
4458.42
4500.38
4543.43
3899.48
3912.49
3925.63
3938.95
3952.5
3966.34
3980.53
3995.16
4010.29
4026.01
4042.41
4059.59
4077.67
4096.75
4116.97
4138.47
4161.39
4185.88
4212.12
4240.26
4270.5
4302.97
4337.76
4374.92
4414.55
4456.66
4501.05
4547.36
4594.99
3892.68
3905.74
3918.92
3932.27
3945.85
3959.7
3973.91
3988.52
4003.62
4019.29
4035.63
4052.72
4070.68
4089.64
4109.71
4131.05
4153.81
4178.15
4204.26
4232.32
4262.53
4295.11
4330.23
4368
4408.53
4451.95
4498.24
4547.2
4598.48
4651.36
3885.8
3898.89
3912.1
3925.47
3939.05
3952.91
3967.09
3981.68
3996.73
4012.33
4028.57
4045.54
4063.36
4082.14
4102.02
4123.13
4145.65
4169.75
4195.61
4223.45
4253.48
4285.93
4321.07
4359.11
4400.19
4444.5
4492.15
4543.13
4597.3
4654.31
4713.28
3878.88
3891.98
3905.2
3918.57
3932.14
3945.98
3960.13
3974.66
3989.64
4005.15
4021.27
4038.1
4055.74
4074.32
4093.95
4114.79
4137.01
4160.77
4186.29
4213.77
4243.47
4275.63
4310.52
4348.46
4389.72
4434.53
4483.03
4535.4
4591.72
4651.89
4715.55
4781.56
3871.92
3885.01
3898.23
3911.59
3925.14
3938.93
3953.03
3967.49
3982.38
3997.78
4013.77
4030.43
4047.88
4066.21
4085.57
4106.1
4127.95
4151.31
4176.39
4203.42
4232.64
4264.33
4298.79
4336.35
4377.36
4422.23
4471.15
4524.33
4582.04
4644.44
4711.6
4783.05
4857.31
3864.95
3878.01
3891.21
3904.54
3918.06
3931.8
3945.83
3960.21
3975
3990.27
4006.1
4022.57
4039.8
4057.88
4076.93
4097.11
4118.55
4141.46
4166.03
4192.5
4221.13
4252.2
4286.05
4323.01
4363.46
4407.91
4456.75
4510.22
4568.65
4632.42
4701.83
4777.27
4857.85
4919.16
4921.32
3857.98
3871
3884.16
3897.46
3910.92
3924.61
3938.56
3952.84
3967.51
3982.64
3998.29
4014.57
4031.55
4049.35
4068.08
4087.88
4108.89
4131.3
4155.3
4181.14
4209.07
4239.4
4272.47
4308.63
4348.3
4391.97
4440.19
4493.39
4551.93
4616.27
4686.99
4764.51
4850.15
4921.13
4918.4
4963.94
4965.94
3851.03
3863.99
3877.1
3890.35
3903.75
3917.36
3931.22
3945.39
3959.94
3974.91
3990.39
4006.45
4023.18
4040.67
4059.06
4078.45
4099.01
4120.89
4144.3
4169.45
4196.61
4226.08
4258.22
4293.41
4332.08
4374.73
4421.93
4474.25
4532.27
4596.48
4667.52
4746.29
4821.2
4811.61
4913.4
4857.21
4905.83
4965.29
4961.96
5011.51
5013.29
3844.11
3857
3870.05
3883.22
3896.56
3910.08
3923.85
3937.91
3952.31
3967.12
3982.4
3998.24
4014.71
4031.9
4049.93
4068.9
4088.98
4110.3
4133.07
4157.5
4183.84
4212.39
4243.49
4277.55
4315.03
4356.42
4402.33
4453.35
4510.17
4573.52
4644.09
4722.78
4800.75
4788.31
4847.13
4956.05
4896.03
4947.51
5012.15
5008.11
5062.17
5063.67
3837.23
3850.04
3863.02
3876.11
3889.36
3902.79
3916.45
3930.39
3944.64
3959.28
3974.37
3989.97
4006.17
4023.06
4040.72
4059.28
4078.86
4099.61
4121.72
4145.39
4170.86
4198.43
4228.42
4261.24
4297.35
4337.28
4381.66
4431.08
4486.24
4547.99
4617.25
4695
4774.76
4759.93
4835.08
4821.38
4884.49
5001.23
4936.61
4991.54
5061.97
5057.1
5116.19
5117.41
3830.39
3843.12
3856.01
3869.02
3882.17
3895.5
3909.05
3922.85
3936.96
3951.43
3966.31
3981.68
3997.61
4014.17
4031.47
4049.6
4068.7
4088.88
4110.32
4133.21
4157.79
4184.32
4213.14
4244.64
4279.27
4317.57
4360.17
4407.75
4460.97
4520.63
4587.76
4663.56
4744.13
4727.19
4806.4
4790.19
4871.01
4855.84
4923.65
5049.13
4979.31
5038.15
5115.04
5109.2
5173.9
5174.8
3823.62
3836.26
3849.05
3861.96
3875.01
3888.23
3901.65
3915.32
3929.27
3943.56
3958.24
3973.37
3989.03
4005.28
4022.21
4039.92
4058.52
4078.14
4098.92
4121.05
4144.72
4170.2
4197.8
4227.9
4260.96
4297.49
4338.15
4383.64
4434.65
4491.96
4556.48
4629.42
4709.42
4690.8
4772.88
4754.5
4839.32
4821.54
4908.62
4891.81
4964.77
5100
5024.37
5087.54
5171.66
5164.72
5235.66
5236.21
3816.92
3829.45
3842.15
3854.95
3867.89
3880.99
3894.28
3907.8
3921.59
3935.7
3950.17
3965.07
3980.46
3996.4
4012.97
4030.27
4048.39
4067.44
4087.57
4108.94
4131.73
4156.18
4182.56
4211.23
4242.62
4277.26
4315.82
4359.03
4407.6
4462.31
4524
4593.65
4671.7
4652.13
4735.19
4715.12
4802.6
4782.6
4873.57
4854.03
4948.03
4929.39
5008.05
5154.09
5071.98
5139.89
5232.24
5224.02
5301.96
5302.19
3810.29
3822.72
3835.31
3848
3860.82
3873.79
3886.94
3900.31
3913.94
3927.86
3942.13
3956.79
3971.91
3987.55
4003.77
4020.66
4038.31
4056.82
4076.32
4096.94
4118.87
4142.3
4167.49
4194.76
4224.49
4257.17
4293.46
4334.16
4380.08
4431.97
4490.65
4556.94
4632.32
4612.33
4694.54
4673.57
4761.64
4739.97
4833.3
4811.48
4909.21
4887.7
4989.42
4968.72
5053.64
5211.73
5122.28
5195.52
5297.29
5287.56
5373.38
5373.25
3803.75
3816.06
3828.54
3841.11
3853.81
3866.65
3879.66
3892.87
3906.33
3920.06
3934.12
3948.55
3963.4
3978.73
3994.61
4011.11
4028.31
4046.31
4065.2
4085.11
4106.2
4128.65
4152.68
4178.58
4206.7
4237.45
4271.44
4309.44
4352.41
4401.2
4456.67
4519.54
4592.23
4572.03
4652.39
4631.11
4717.8
4695.31
4788.72
4765.3
4864.96
4841.11
4946.32
4922.57
5032.86
5009.81
5101.65
5273.31
5175.57
5254.78
5367.26
5355.77
5450.48
5449.9
3797.3
3809.49
3821.85
3834.3
3846.87
3859.57
3872.43
3885.49
3898.77
3912.31
3926.15
3940.35
3954.94
3969.98
3985.52
4001.64
4018.41
4035.9
4054.21
4073.46
4093.76
4115.28
4138.2
4162.77
4189.32
4218.2
4249.94
4285.25
4325.06
4370.41
4422.36
4481.58
4551.69
4531.19
4609.78
4588.39
4672.69
4650.05
4741.43
4717.32
4816.37
4791.06
4897.59
4871.48
4984.92
4958.68
5078.42
5052.71
5152.34
5339.24
5232.2
5318.04
5442.73
5429.26
5534.01
5532.88
3790.93
3803.01
3815.25
3827.57
3840.01
3852.56
3865.28
3878.17
3891.27
3904.62
3918.25
3932.21
3946.54
3961.29
3976.51
3992.26
4008.61
4025.62
4043.39
4062
4081.56
4102.21
4124.1
4147.44
4172.48
4199.56
4229.11
4261.78
4298.45
4340.2
4388.2
4443.4
4510.52
4490.01
4566.89
4545.13
4627.44
4604.8
4693.17
4669.1
4765.37
4739.53
4844.59
4817.24
4931.22
4902.64
5025.05
4996.04
5126.26
5097.55
5205.99
5410.06
5292.44
5385.69
5524.35
5508.63
5624.8
5622.97
3784.67
3796.62
3808.74
3820.93
3833.23
3845.65
3858.2
3870.93
3883.85
3897
3910.42
3924.15
3938.22
3952.68
3967.58
3982.98
3998.92
4015.48
4032.72
4050.73
4069.6
4089.44
4110.38
4132.58
4156.24
4181.64
4209.12
4239.23
4272.78
4310.94
4354.76
4405.31
4463.06
4523.18
4501.07
4582
4558.85
4645.12
4621.08
4713.77
4688.18
4789.6
4761.95
4873.4
4843.87
4965.85
4934.62
5066.81
5034.75
5176.63
5144.51
5262.8
5486.32
5356.54
5458.23
5612.83
5594.56
5723.9
5721.2
3778.51
3790.33
3802.32
3814.39
3826.55
3838.82
3851.22
3863.77
3876.52
3889.47
3902.67
3916.16
3929.98
3944.16
3958.75
3973.8
3989.36
4005.49
4022.23
4039.68
4057.9
4076.98
4097.04
4118.19
4140.61
4164.5
4190.11
4217.84
4248.39
4282.91
4322.55
4367.82
4420.11
4488.1
4464.36
4535.43
4511.89
4596.82
4572.15
4662.65
4637.05
4734.45
4707.14
4814.19
4784.57
4902.93
4871.12
5001.62
4967.7
5110.38
5075.1
5229.73
5193.92
5323.01
5568.7
5424.97
5536.27
5709.11
5687.87
5832.5
5828.71
3772.44
3784.14
3796.01
3807.95
3819.97
3832.09
3844.33
3856.72
3869.27
3882.03
3895.02
3908.28
3921.84
3935.74
3950.03
3964.74
3979.93
3995.64
4011.92
4028.84
4046.45
4064.83
4084.07
4104.28
4125.57
4148.1
4172.05
4197.71
4225.57
4256.6
4292.08
4332.13
4377.95
4440.52
4417.25
4496.76
4471.41
4547.16
4522.05
4611.18
4584.84
4679.9
4652.57
4755.15
4725.95
4839.23
4807.47
4933.46
4899.23
5039.06
5002.36
5156.29
5117.84
5285.97
5246.48
5387.19
5657.94
5498.42
5620.67
5814.24
5789.5
5951.94
5946.92
3766.48
3778.06
3789.8
3801.61
3813.49
3825.46
3837.55
3849.76
3862.14
3874.7
3887.47
3900.49
3913.8
3927.43
3941.42
3955.81
3970.63
3985.95
4001.79
4018.21
4035.25
4052.99
4071.49
4090.82
4111.09
4132.41
4154.9
4178.75
4204.31
4232.37
4264.02
4299.34
4338.36
4394.04
4372.19
4446.12
4421.22
4504.44
4477.45
4558.17
4531.38
4624.93
4596.78
4696.81
4667.56
4775.95
4744.64
4865
4830.89
4965.5
4928.69
5078.85
5039.36
5205.56
5163.96
5346.19
5303.38
5456.37
5755
5578.12
5712.8
5929.67
5900.79
6083.77
6077.58
3760.69
3772.08
3783.7
3795.38
3807.12
3818.95
3830.87
3842.92
3855.11
3867.47
3880.03
3892.82
3905.88
3919.23
3932.93
3947
3961.48
3976.41
3991.83
4007.78
4024.31
4041.45
4059.26
4077.81
4097.16
4117.39
4138.6
4160.88
4184.47
4210.04
4238.63
4270.19
4303.89
4340.68
4396.88
4373.62
4450.59
4424.16
4511.11
4482.46
4568.31
4539.76
4637.95
4607.87
4713.39
4681.99
4797.01
4763.34
4891.85
4855.08
4999.67
4959.96
5121.99
5079.42
5259.41
5214.6
5411.91
5366.13
5532.46
5861.32
5666.3
5814.84
6057.18
6023.52
6229.88
6222.43
3766.27
3777.7
3789.26
3800.87
3812.55
3824.32
3836.19
3848.2
3860.36
3872.71
3885.27
3898.08
3911.16
3924.57
3938.32
3952.47
3967.03
3982.05
3997.56
4013.6
4030.19
4047.38
4065.21
4083.73
4103.01
4123.09
4144.03
4165.95
4189.34
4215.45
4244.39
4274.61
4305.39
4350.27
4330.4
4398.42
4373.66
4454.04
4426.14
4516.77
4486.48
4577.52
4547.15
4650.2
4618.04
4729.72
4695.9
4818.52
4782.16
4920.11
4880.27
5036.48
4993.33
5169.19
5122.95
5319
5270.47
5485.14
5435.98
5617.88
5979.14
5766.04
5929.81
6198.73
6160.22
6391.67
6382.91
3771.89
3783.25
3794.72
3806.26
3817.88
3829.59
3841.41
3853.38
3865.51
3877.84
3890.4
3903.22
3916.34
3929.79
3943.6
3957.81
3972.45
3987.54
4003.12
4019.21
4035.83
4053.01
4070.79
4089.21
4108.3
4128.09
4148.62
4170.17
4194.02
4220.99
4249.16
4276.92
4312.49
4297.63
4349.56
4329.21
4399.02
4373.18
4456.55
4427.23
4521.46
4489.59
4585.78
4553.58
4661.73
4627.39
4745.86
4709.37
4840.6
4801.19
4949.91
4906.45
5076.03
5028.69
5220.66
5169.74
5384.89
5331.39
5567.16
5513.04
5713.86
6112.34
5878.85
6013.85
6041.56
6355.91
6313
6570.81
6560.62
3777.43
3788.7
3800.1
3811.56
3823.11
3834.76
3846.53
3858.45
3870.56
3882.87
3895.43
3908.26
3921.4
3934.89
3948.75
3963.02
3977.72
3992.87
4008.48
4024.58
4041.18
4058.3
4075.95
4094.17
4112.96
4132.33
4152.4
4174.18
4199.27
4226.01
4252.48
4277.71
4311.87
4297.45
4348.45
4328.17
4398.87
4372.26
4458.21
4427.58
4525.25
4491.84
4593.15
4559.08
4672.66
4636.04
4761.88
4722.43
4863.22
4820.33
4981.02
4933.36
5117.89
5065.53
5275.69
5219.14
5456.61
5396.77
5658.52
5561.1
5591.73
5809.09
5778.93
6110.05
6238.58
6211.02
5986.19
5956
5864.86
6081.92
6529.87
6317.17
6427.82
6454.04
6769.53
6757.36
3782.88
3794.06
3805.37
3816.76
3828.23
3839.81
3851.53
3863.41
3875.48
3887.77
3900.32
3913.17
3926.33
3939.86
3953.77
3968.08
3982.82
3998
4013.62
4029.69
4046.22
4063.2
4080.65
4098.58
4116.95
4135.82
4155.85
4178.93
4204.33
4229.9
4254.39
4284.12
4272.22
4311.31
4297.07
4347.46
4327.55
4398.24
4371.2
4459.11
4427.38
4528.19
4493.34
4599.72
4563.73
4683.01
4643.98
4777.68
4735.07
4886.06
4839.31
5012.89
4960.45
5161.38
5103.13
5334.94
5304.15
5273.28
5241.81
5530.19
5497.88
5365.05
5430.66
5464.83
5635.83
5748.56
5716.11
5603.72
5833.53
6183.23
6289.84
6051.9
6019.94
5924.19
6153.3
6542.75
6685.14
6662.69
6401.3
6517.65
6991.02
6785.18
6912.57
6927.05
3788.23
3799.31
3810.54
3821.84
3833.24
3844.75
3856.41
3868.24
3880.27
3892.55
3905.09
3917.94
3931.13
3944.68
3958.63
3972.98
3987.75
4002.93
4018.53
4034.52
4050.91
4067.68
4084.84
4102.36
4120.24
4138.85
4159.91
4183.8
4208.41
4232.26
4254.77
4284.33
4272.34
4311.14
4297.11
4346.94
4327.51
4397.45
4370.35
4459.4
4426.92
4530.45
4494.26
4605.48
4567.58
4692.76
4651.19
4793.01
4747.04
4908.65
4857.7
5044.81
4987.08
5210.43
5178.82
5147.19
5115.46
5332.79
5299.98
5266.7
5570.52
5536.11
5396.31
5464.49
5500.68
5682.43
5800.79
5766.38
5647.67
5890.46
6260.24
6372.38
6121.05
5985.92
6086.56
6228.16
6638.3
6763.55
6489.69
6611.91
7040.27
7173.35
7171.4
6892.98
7026.23
3793.48
3804.46
3815.59
3826.8
3838.12
3849.56
3861.15
3872.93
3884.93
3897.18
3909.71
3922.57
3935.77
3949.36
3963.33
3977.71
3992.49
4007.65
4023.17
4039.04
4055.22
4071.7
4088.47
4105.51
4123.01
4142.24
4164.38
4187.8
4210.9
4232.47
4259.82
4248.19
4284.32
4271.92
4311.37
4297.3
4347.09
4328.03
4396.82
4370
4459.35
4426.55
4532.13
4494.8
4610.53
4570.8
4701.79
4657.71
4807.53
4758.16
4930.44
4875.1
5083.95
5052.6
5021.56
4990.88
5233.41
5200.05
5166.61
5133.21
5361.82
5326.91
5291.62
5611.95
5575.11
5427.92
5498.75
5537.26
5730.25
5855.05
5818.06
5692.74
5949.56
6340.69
6458.76
6193.45
6049.84
6155.99
6306.13
6738.96
6870.41
6582.36
6711.23
7161.94
7302.09
7299.79
7006.37
7146.6
3798.64
3809.49
3820.52
3831.64
3842.87
3854.23
3865.75
3877.47
3889.43
3901.65
3914.18
3927.03
3940.26
3953.86
3967.86
3982.26
3997.03
4012.14
4027.55
4043.21
4059.1
4075.2
4091.5
4108.11
4125.85
4146.15
4168.1
4190.2
4211.02
4230.44
4258.97
4247.1
4284.15
4271.34
4311.9
4297.54
4347.94
4329.04
4396.65
4370.33
4459.4
4426.7
4533.6
4495.61
4614.93
4573.5
4710
4663.51
4820.89
4768.16
4960.67
4930.96
4901.65
4873.04
5100.04
5067.13
5034.6
5002.53
5256.35
5221.09
5185.77
5150.6
5391.09
5353.92
5316.46
5654.3
5614.82
5459.74
5533.22
5574.33
5779.24
5911.19
5871.22
5738.87
6010.68
6424.66
6549.28
6268.66
6116.05
6227.99
6387.27
6845.05
6983.45
6679.78
6815.85
7289.62
7438.65
7435.72
7126.16
7273.16
3803.67
3814.4
3825.33
3836.35
3847.48
3858.76
3870.2
3881.86
3893.77
3905.97
3918.47
3931.33
3944.57
3958.2
3972.23
3986.63
4001.37
4016.38
4031.59
4046.98
4062.5
4078.13
4093.98
4110.57
4129.11
4149.48
4170.36
4190.37
4208.8
4233.43
4222.22
4257.57
4245.29
4283.73
4270.38
4312.62
4297.72
4349.48
4330.36
4397.27
4371.53
4460.15
4427.83
4535.62
4497.48
4618.91
4576.25
4717.4
4668.98
4832.8
4777.28
4971.05
4940.13
4909.76
4880
5115.71
5081.2
5047.15
5013.68
5279.09
5241.8
5204.53
5167.49
5420.4
5380.83
5341.05
5697.51
5655.15
5491.53
5567.82
5611.84
5829.5
5969.2
5925.89
5786.09
6073.77
6512.46
6644.22
6346.62
6184.49
6302.6
6471.82
6957.03
7102.84
6782.24
6926.22
7424.22
7584.06
7580.2
7252.58
7406.56
3808.58
3819.19
3830
3840.91
3851.94
3863.13
3874.5
3886.09
3897.95
3910.1
3922.6
3935.47
3948.73
3962.4
3976.44
3990.83
4005.49
4020.33
4035.28
4050.31
4065.36
4080.5
4096.17
4113.23
4131.99
4151.54
4170.63
4188.35
4204.81
4231.23
4219.99
4255.66
4243.12
4282.82
4268.89
4313.27
4297.55
4351.36
4331.44
4399.02
4373.68
4462.38
4430.49
4539.24
4501.02
4623.22
4580.03
4724.79
4675.28
4856.06
4826.82
4770.8
4798.27
4980.93
4948.83
4917.36
4886.47
5130.85
5094.7
5059.14
5024.3
5301.46
5262.03
5222.72
5183.77
5449.55
5407.44
5365.2
5741.52
5696.01
5523.19
5602.34
5649.6
5880.91
6028.91
5981.9
5834.14
6138.64
6604.29
6743.86
6427.63
6255.33
6379.9
6560.07
7075.59
7229.52
6890.31
7043.21
7567.16
7739.79
7735.22
7387.11
7549.73
3813.35
3823.83
3834.52
3845.32
3856.24
3867.33
3878.61
3890.14
3901.94
3914.07
3926.57
3939.46
3952.75
3966.45
3980.51
3994.86
4009.38
4023.97
4038.58
4053.15
4067.66
4082.47
4098.33
4115.6
4133.8
4151.9
4168.96
4184.59
4206.04
4195.73
4228.39
4217
4253.13
4240.4
4281.19
4266.7
4313.35
4296.69
4352.7
4331.7
4401.7
4375.88
4465.74
4433.46
4543.42
4504.67
4628.87
4584.89
4744.09
4718.69
4681.89
4862.17
4832.33
4775.25
4803.35
4990.31
4957.14
4924.74
4893.07
5145.34
5107.57
5070.55
5034.42
5323.27
5281.63
5240.24
5199.35
5478.38
5433.56
5388.75
5786.02
5737.05
5554.51
5636.47
5687.19
5933.19
6090.2
6039.25
5882.72
6205.4
6700.51
6848.79
6511.95
6328.46
6459.96
6652.42
7201.97
7365.64
7004.79
7168.13
7721.97
7908.48
7905.87
7533.65
7709.09
3817.97
3828.32
3838.89
3849.56
3860.37
3871.35
3882.55
3894.01
3905.77
3917.88
3930.38
3943.29
3956.63
3970.37
3984.43
3998.69
4012.99
4027.25
4041.41
4055.43
4069.44
4084.24
4100.21
4117.1
4134.17
4150.56
4165.65
4179.53
4202.84
4192.75
4224.93
4213.57
4249.84
4236.97
4278.61
4263.66
4312.5
4294.85
4352.98
4330.68
4404.08
4377.37
4468.71
4435.49
4545.93
4505.86
4634.24
4588.78
4748.07
4721.82
4697.71
4672.18
4868.1
4837.64
4779.3
4808.06
4999.33
4965.22
4932.02
4899.64
5159.19
5119.87
5081.5
5044.19
5344.39
5300.51
5257.07
5214.33
5506.69
5459.05
5411.62
5830.78
5778.02
5585.33
5670.23
5724.47
5986.37
6152.94
6097.66
5931.9
6273.95
6801.63
6959.77
6599.99
6403.95
6543.26
6749.3
7338.13
7514.28
7126.82
7302.42
7897.95
8109.45
8110.71
7697.7
7893.84
3822.45
3832.64
3843.08
3853.62
3864.31
3875.19
3886.3
3897.69
3909.41
3921.5
3934.01
3946.97
3960.39
3974.18
3988.19
4002.23
4016.17
4029.98
4043.6
4057.03
4070.85
4085.67
4101.36
4117.42
4133.12
4147.8
4161.24
4179.55
4170.46
4199.08
4189.13
4220.77
4209.58
4245.66
4232.75
4274.97
4259.66
4310.33
4291.8
4351.42
4327.99
4404.97
4377.04
4468.69
4434.36
4543.26
4501.85
4647.18
4623.68
4587.54
4751.45
4724.39
4698.28
4671.86
4873.43
4842.12
4782.15
4811.74
5008.1
4973.07
4938.99
4905.78
5172.53
5131.77
5092.09
5053.57
5364.85
5318.81
5273.42
5228.9
5534.44
5484.01
5434.04
5875.94
5819.17
5615.91
5704.11
5761.83
6040.32
6216.95
6157.16
5981.69
6344.71
6908.38
7077.76
6692.09
6482.4
6630.21
6851.31
7486.36
7679.2
7257.7
7447.79
8112.84
8381.87
8380.6
7884.95
8112.73
3826.76
3836.8
3847.09
3857.49
3868.06
3878.83
3889.85
3901.17
3912.85
3924.93
3937.48
3950.54
3964.06
3977.81
3991.58
4005.24
4018.72
4031.98
4045
4058.05
4071.86
4086.47
4101.57
4116.58
4130.9
4144.08
4155.78
4175.95
4167.16
4194.82
4185.17
4215.92
4205.02
4240.54
4227.69
4270.24
4254.65
4306.72
4287.52
4347.62
4323.52
4402.88
4374.06
4463.75
4428.78
4547.21
4525.87
4491.51
4646.4
4622.06
4570.11
4593.3
4753.48
4725.6
4696.76
4669.61
4877.39
4845.02
4783.14
4813.64
5016.33
4980.21
4945.08
4910.8
5185.41
5143.09
5101.97
5062.06
5384.94
5336.67
5289.21
5242.79
5562.06
5508.71
5456.06
5921.7
5860.78
5646.59
5738.35
5799.55
6095.31
6282.92
6218.54
6032.35
6418.29
7021.57
7204.01
6788.84
6564.25
6721.47
6959.09
7649.09
7864.1
7398.55
7606.19
8380.59
8732.19
8717.8
8099.89
8369.5
3830.9
3840.78
3850.91
3861.17
3871.6
3882.25
3893.18
3904.43
3916.07
3928.18
3940.83
3954.03
3967.51
3981.02
3994.4
4007.58
4020.5
4033.13
4045.65
4058.64
4072.33
4086.56
4100.9
4114.85
4127.87
4139.52
4155.06
4147.12
4171.89
4163.35
4190.06
4180.77
4210.41
4199.88
4234.55
4221.88
4264.5
4248.69
4301.75
4282.13
4341.18
4317.12
4396.85
4367.73
4453.18
4418.09
4541.2
4519.62
4489.64
4469.93
4643.49
4618.16
4564
4587.69
4753.57
4724.83
4692.96
4665.23
4879.38
4845.79
4781.87
4813.32
5023.46
4986
4949.57
4914.03
5197.52
5153.46
5110.59
5068.99
5404.53
5353.99
5304.31
5255.71
5589.65
5533.28
5477.8
5968.22
5903.19
5677.58
5773.24
5838.09
6152.05
6351.54
6282.26
6084.37
6495.06
7142.28
7339.46
6890.83
6650.14
6817.65
7073.63
7829.04
8071.93
7551.1
7779.72
8693.89
9108.29
9084.64
8344.18
8660.34
3834.85
3844.56
3854.53
3864.63
3874.92
3885.44
3896.27
3907.45
3919.09
3931.3
3944.12
3957.32
3970.58
3983.68
3996.55
4009.11
4021.37
4033.5
4045.89
4058.82
4072.29
4086.02
4099.61
4112.47
4124.15
4134.18
4151.51
4143.95
4167.48
4159.36
4184.79
4175.93
4204.3
4194.17
4227.87
4215.43
4257.85
4241.95
4295.35
4275.64
4331.94
4308.6
4386.4
4357.77
4450.59
4432.67
4402.85
4533.23
4511.1
4480.68
4460.83
4638.52
4612.65
4556.27
4580.22
4751.37
4721.73
4686.93
4658.72
4878.98
4844.16
4778.17
4810.56
5028.77
4989.76
4951.83
4914.92
5208.29
5162.12
5117.26
5073.76
5423.58
5370.38
5318.07
5266.9
5617.3
5557.59
5498.89
6015.86
5946.64
5708.72
5808.29
5877.42
6210.8
6423.08
6348.51
6138.07
6575.43
7271.57
7485.39
6998.96
6740.52
6919.44
7196.24
8028.63
8304.31
7717.39
7970.79
9034.83
9475.63
9450.21
8616.18
8976.59
3838.61
3848.14
3857.92
3867.85
3877.98
3888.38
3899.11
3910.26
3921.97
3934.39
3947.29
3960.3
3973.13
3985.68
3997.89
4009.82
4021.61
4033.54
4045.85
4058.68
4071.86
4085.12
4097.81
4109.49
4119.8
4128.39
4147.73
4140.47
4162.78
4155.15
4179.05
4170.72
4197.67
4187.95
4220.71
4208.49
4250.38
4234.62
4287.36
4267.98
4320.1
4298.03
4372.05
4344.58
4441.88
4424.2
4381.32
4397
4523.9
4501.75
4470.58
4450.79
4631.53
4605.32
4547.07
4571.14
4746.83
4716.35
4678.94
4650.29
4875.97
4840.01
4772.06
4805.34
5031.74
4991.02
4951.44
4913.12
5217.05
5168.55
5121.49
5075.94
5441.47
5385.16
5329.87
5275.87
5644.52
5581.04
5518.77
6064.74
5990.9
5739.29
5842.57
5916.78
6271.75
6497.72
6417.31
6193.57
6659.7
7410.65
7643.8
7114.65
6835.8
7027.95
7328.07
8249.57
8560.36
7899.71
8180.88
9386.11
9812.86
9796.14
8911.89
9308.03
3842.16
3851.48
3861.07
3870.82
3880.78
3891.05
3901.7
3912.9
3924.86
3937.46
3950.22
3962.81
3975.06
3986.96
3998.57
4010.03
4021.57
4033.4
4045.72
4058.45
4071.34
4083.82
4095.46
4105.95
4114.96
4126.92
4137.02
4120.56
4143.82
4157.89
4150.77
4172.99
4165.25
4190.66
4181.36
4213.2
4201.18
4242.23
4226.87
4277.84
4259.24
4306.08
4285.68
4354.62
4328.78
4431.94
4414.09
4371.72
4386.93
4513.44
4491.43
4459.44
4439.77
4622.73
4596.31
4536.56
4560.69
4739.97
4708.86
4669.09
4640.12
4870.29
4833.33
4763.67
4797.77
5032.01
4989.53
4948.32
4908.57
5223.34
5172.35
5122.96
5075.26
5457.73
5397.83
5339.2
5282.13
5670.71
5603.11
5536.79
6114.67
6035.42
5768.52
5875.53
5955.62
6334.71
6575.51
6488.62
6250.42
6748.13
7561.06
7817.12
7238.99
6936.92
7144.54
7470.58
8491.75
8838.66
8099.75
8410.76
9734.05
10125
10119.7
9224.97
9646.02
3845.46
3854.57
3863.95
3873.5
3883.3
3893.44
3904.12
3915.59
3927.84
3940.38
3952.76
3964.78
3976.42
3987.73
3998.86
4010.03
4021.5
4033.4
4045.76
4058.27
4070.48
4082.01
4092.59
4101.95
4109.74
4133.34
4123.6
4117.57
4139.77
4152.87
4146.27
4166.8
4159.65
4183.45
4174.61
4205.43
4193.66
4233.54
4218.76
4266.98
4249.64
4290.48
4272.17
4346.44
4333.41
4310.91
4421.1
4403.47
4360.73
4375.85
4501.93
4480.13
4447.35
4427.85
4612.37
4585.91
4524.88
4549
4730.88
4699.32
4657.68
4628.53
4862.02
4824.23
4753.29
4788.01
5029.35
4985.19
4942.49
4901.4
5226.76
5173.18
5121.45
5071.63
5471.6
5407.71
5345.5
5285.24
5695.07
5622.84
5551.95
6165.21
6079.54
5795.76
5906.42
5993.16
6399.5
6656.96
6562.89
6308.3
6841.87
7725.16
8007.37
7373.26
7045.6
7270.47
7625.53
8755.22
9135.96
8318.71
8661.82
10070.4
10423.3
10424.6
9549.65
9984.43
3848.51
3857.39
3866.54
3875.88
3885.51
3895.63
3906.59
3918.45
3930.79
3943.02
3954.89
3966.32
3977.36
3988.18
3999.04
4010.19
4021.77
4033.75
4045.87
4057.75
4069.11
4079.69
4089.28
4097.6
4104.48
4129.65
4120.26
4114.48
4135.69
4147.8
4141.73
4160.59
4154.01
4176.23
4167.85
4197.47
4186.06
4224.41
4210.34
4255.28
4239.41
4274.09
4258.18
4335.8
4323.5
4291.81
4301.78
4409.42
4392.07
4349.39
4364.1
4489.48
4467.89
4434.42
4415.16
4600.69
4574.26
4512.22
4536.24
4719.93
4688.05
4644.88
4615.68
4851.51
4812.98
4741.08
4776.23
5023.84
4978.12
4934.16
4891.91
5227.02
5170.89
5116.93
5065.16
5482.22
5414.21
5348.44
5285.05
5716.87
5639.45
5563.72
6215.54
6122.28
5820.26
5931.75
6028.69
6465.65
6742.84
6639.37
6366.24
6941.91
7905.63
8216.7
7519.27
7162.52
7406.82
7796.24
9039.13
9448.46
8559.36
8934.54
10393.3
10713.8
10717.2
9882.52
10318.2
3851.28
3859.91
3868.81
3877.94
3887.47
3897.85
3909.31
3921.42
3933.56
3945.35
3956.66
3967.51
3978.09
3988.69
3999.56
4010.8
4022.38
4034.07
4045.6
4056.73
4067.24
4076.95
4085.63
4093.08
4103.26
4111.53
4097.85
4125.98
4116.98
4131.63
4142.78
4137.21
4154.47
4148.45
4169.16
4161.23
4189.49
4178.56
4214.96
4201.73
4243.23
4228.86
4282.71
4265.74
4258.3
4244.23
4324.56
4312.71
4291.8
4397
4379.97
4337.58
4351.81
4476.11
4454.73
4420.73
4401.77
4587.85
4561.46
4498.63
4522.4
4707.39
4675.34
4630.55
4601.41
4839.05
4799.85
4727.11
4762.61
5015.66
4968.52
4923.46
4880.27
5224.08
5165.53
5109.45
5055.81
5489.3
5417.19
5348.05
5281.68
5735.61
5649.34
5567.98
6265.22
6161.97
5839.73
5970.42
6062.44
6532.45
6832.81
6716.13
6422.14
7048.39
8105.37
8447.66
7679.32
7287.83
7554.83
7985.01
9341.55
9773.89
8822.09
9227.39
10702.3
11001.3
11007.9
10219.1
10644.8
3853.75
3862.1
3870.75
3879.7
3889.41
3900.4
3912.26
3924.33
3936.11
3947.38
3958.16
3968.6
3978.98
3989.56
4000.44
4011.58
4022.82
4033.98
4044.84
4055.23
4064.96
4073.87
4081.76
4088.54
4108.57
4100.62
4095.42
4122.36
4113.79
4127.64
4137.9
4132.81
4148.58
4143.06
4162.34
4154.86
4181.63
4171.27
4205.39
4193.11
4231.12
4218.16
4273.49
4257.39
4250.63
4230.62
4313.03
4301.87
4281.86
4383.92
4367.26
4325.4
4339.05
4461.83
4440.74
4406.35
4387.72
4573.74
4547.44
4484.05
4507.5
4693.25
4661.11
4614.75
4585.77
4824.38
4784.66
4711.31
4747.01
5004.66
4956.13
4910.14
4866.24
5218.03
5157.09
5098.9
5043.43
5490.57
5415.96
5344.68
5276.15
5754.46
5674.91
5560.49
6313.05
6213.55
5840.28
5955.92
6073.19
6598.17
6927.1
6802.16
6488.37
7160.64
8325.86
8700.77
7855
7421.58
7715.16
8191.71
9659.97
10110.2
9105.69
9538.56
11003.9
11285.5
11304.8
10557.5
10967.6
3855.89
3863.93
3872.33
3881.33
3891.7
3903.27
3915.27
3927.1
3938.43
3949.21
3959.59
3969.81
3980.09
3990.58
4001.28
4012.08
4022.85
4033.42
4043.64
4053.32
4062.33
4070.54
4077.82
4084.25
4105.73
4098.04
4092.97
4118.88
4110.73
4123.83
4133.28
4128.62
4143.01
4137.97
4155.83
4148.82
4173.92
4164.23
4195.79
4184.54
4219.02
4207.38
4264.47
4249.27
4243.14
4235.58
4223.11
4217.87
4301.42
4291.09
4272.1
4370.23
4354
4313.01
4325.99
4446.73
4426.02
4391.33
4373.13
4558.35
4532.27
4468.59
4491.63
4677.44
4645.3
4597.43
4568.77
4807.21
4767.13
4693.53
4729.27
4990.68
4940.92
4894.2
4849.65
5210.43
5147.63
5087.86
5031.14
5484.84
5411.23
5340.34
5271.57
5760.29
5661.34
5557.72
6331.34
6200.13
5837.5
5952.71
6070.7
6625.35
7029.86
6790.51
6475.3
7282.19
8566.28
8973.55
8045.36
7565.59
7885.14
8415.38
9993.85
10454.8
9408.06
9867.35
11313.1
11553.9
11619.7
10899.5
11300.6
3857.64
3865.37
3873.67
3883.26
3894.42
3906.31
3918.21
3929.67
3940.54
3950.94
3961.04
3971.04
3981.14
3991.41
4001.79
4012.18
4022.44
4032.45
4042.04
4051.07
4059.45
4067.09
4073.98
4080.16
4090.71
4102.99
4095.6
4115.59
4107.82
4120.27
4129.04
4124.74
4137.91
4133.32
4149.7
4143.24
4166.41
4157.48
4186.25
4176.1
4206.96
4196.63
4255.71
4241.29
4228.25
4216.19
4211.32
4289.93
4280.49
4262.59
4356.1
4340.37
4300.66
4312.86
4430.84
4410.57
4375.76
4358.13
4541.67
4515.97
4452.22
4474.72
4659.78
4627.76
4578.5
4550.31
4787.57
4747.13
4673.71
4709.3
4977
4924.94
4876.18
4830.78
5205.39
5142.18
5082.24
5025.61
5482.12
5408.54
5337.68
5268.94
5757.87
5658.24
5555.38
6328.9
6196.8
5835.1
5950.03
6068.38
6622.89
7022.17
6787.32
6471.92
7277.13
8832.36
9263.38
8243.91
7563.8
7886.99
8650.66
10340.6
10809.2
9726.87
10212.4
11654.9
11908.5
12047.4
11255.7
11669.3
3858.97
3866.45
3875.15
3885.68
3897.41
3909.37
3920.98
3932.01
3942.5
3952.54
3962.31
3972.06
3981.93
3991.91
4001.93
4011.88
4021.64
4031.09
4040.09
4048.56
4056.43
4063.66
4070.26
4076.32
4088.46
4086.41
4100.4
4093.28
4112.49
4105.09
4116.97
4125.24
4121.21
4133.41
4129.21
4144.13
4138.26
4159.23
4151.18
4176.96
4167.93
4200.38
4195.83
4186.08
4247.15
4233.46
4220.95
4209.42
4204.94
4278.67
4270.14
4253.32
4341.69
4326.56
4288.47
4299.79
4414.2
4394.46
4359.8
4342.85
4523.67
4498.48
4434.97
4456.82
4640.2
4608.47
4557.94
4530.39
4767.89
4726.04
4651.7
4687.11
4971.42
4900.47
4856.87
4811.9
5202.77
5139.58
5079.68
5023.09
5479.87
5406.29
5335.47