/*--------------------------------*- C++ -*----------------------------------*\
  =========                 |
  \\      /  F ield         | OpenFOAM: The Open Source CFD Toolbox
   \\    /   O peration     | Website:  https://openfoam.org
    \\  /    A nd           | Version:  dev
     \\/     M anipulation  |
\*---------------------------------------------------------------------------*/
FoamFile
{
    version     2.0;
    format      ascii;
    class       volScalarField;
    location    "2500";
    object      H2O;
}
// * * * * * * * * * * * * * * * * * * * * * * * * * * * * * * * * * * * * * //

dimensions      [0 0 0 0 0 0 0];

internalField   nonuniform List<scalar> 
9841
(
4.86256e-29
1.48521e-28
9.32527e-29
2.9881e-28
3.52929e-28
6.34484e-29
3.71768e-28
7.94142e-28
4.1395e-28
5.87932e-29
6.35719e-28
2.09112e-27
9.81626e-28
3.39779e-28
3.87223e-29
2.06502e-27
4.21142e-27
3.03361e-27
9.43177e-28
2.35964e-28
1.76881e-29
3.97125e-27
6.60261e-27
6.73609e-27
2.86585e-27
7.01742e-28
1.40971e-28
6.9458e-30
9.16693e-27
1.85215e-26
1.57215e-26
7.50399e-27
2.77704e-27
6.19269e-28
4.36949e-29
1.11438e-30
1.23771e-26
3.75536e-26
3.35498e-26
1.71998e-26
5.87981e-27
1.90402e-27
3.4615e-28
1.77608e-29
7.72925e-31
1.94114e-26
6.32252e-26
7.26634e-26
4.27131e-26
1.68079e-26
5.44768e-27
1.03725e-27
1.26985e-28
7.33222e-30
9.88409e-32
1.58109e-26
7.90065e-26
1.40039e-25
9.35752e-26
3.53486e-26
1.21963e-26
3.35129e-27
4.49983e-28
4.25848e-29
1.77828e-30
3.55629e-32
3.37176e-26
1.44258e-25
2.40756e-25
1.80782e-25
8.81338e-26
3.63518e-26
1.09586e-26
1.78989e-27
2.01528e-28
1.74641e-29
7.48546e-31
1.42921e-32
3.56237e-26
1.6014e-25
3.95494e-25
3.87423e-25
2.35312e-25
7.78762e-26
2.63846e-26
6.38016e-27
9.58559e-28
7.96125e-29
4.5722e-30
1.24271e-31
5.14446e-33
1.14554e-25
4.46701e-25
6.6496e-25
7.47208e-25
4.59063e-25
2.03182e-25
6.12634e-26
1.72249e-26
2.75313e-27
4.77924e-28
4.00526e-29
1.13065e-30
3.91601e-32
1.89659e-33
1.4379e-25
6.10779e-25
1.21371e-24
1.45244e-24
8.07438e-25
4.74221e-25
1.48855e-25
5.01014e-26
1.26744e-26
1.74492e-27
1.61642e-28
1.01357e-29
4.92126e-31
4.23523e-32
1.37778e-32
1.81893e-25
7.8015e-25
1.50956e-24
2.10622e-24
1.73374e-24
9.23912e-25
4.01572e-25
1.19164e-25
2.89295e-26
6.33723e-27
9.14414e-28
8.42936e-29
5.67639e-30
5.66445e-31
1.25806e-31
3.37566e-32
1.94086e-25
1.45107e-24
2.79924e-24
3.55285e-24
4.14586e-24
1.72753e-24
7.47192e-25
2.72588e-25
8.9526e-26
2.07909e-26
2.99402e-27
3.3944e-28
3.57831e-29
2.24381e-30
1.07698e-30
4.30634e-31
1.49969e-31
1.03825e-25
1.36108e-24
5.185e-24
6.48364e-24
6.52592e-24
4.62409e-24
1.97838e-24
6.77084e-25
2.11869e-25
5.88471e-26
9.02502e-27
1.52483e-27
1.24462e-28
1.61871e-29
3.35532e-30
2.73566e-30
2.61601e-30
8.24417e-31
4.27274e-25
1.35086e-24
5.63446e-24
1.22961e-23
1.20561e-23
9.73444e-24
4.46637e-24
1.74163e-24
4.45159e-25
1.55828e-25
3.39863e-26
4.89971e-27
4.76773e-28
4.59574e-29
1.52453e-29
9.43018e-30
1.80359e-29
1.57241e-29
1.39437e-29
1.8152e-25
2.95209e-24
8.7632e-24
1.64662e-23
1.91092e-23
1.56588e-23
9.09564e-24
3.52061e-24
1.15487e-24
3.64723e-25
7.722e-26
1.51131e-26
1.59504e-27
2.58394e-28
4.10735e-29
4.61849e-29
7.9599e-29
1.5848e-28
1.61746e-28
1.70601e-28
3.3852e-25
2.38731e-24
1.27174e-23
1.77417e-23
3.27759e-23
3.36821e-23
2.07045e-23
9.23927e-24
3.1542e-24
9.07561e-25
1.97094e-25
4.50795e-26
8.25422e-27
7.06296e-28
1.90706e-28
1.41934e-28
3.36062e-28
8.578e-28
1.42665e-27
2.01946e-27
1.69888e-27
1.50342e-24
4.39007e-24
1.71454e-23
3.26849e-23
4.90704e-23
5.96821e-23
3.92071e-23
1.9225e-23
7.69959e-24
2.06773e-24
6.6142e-25
1.34039e-25
2.27623e-26
3.65625e-27
5.52134e-28
6.44819e-28
1.77689e-27
3.8494e-27
8.05593e-27
1.35709e-26
1.79025e-26
1.3061e-26
2.15432e-24
9.73181e-24
2.31922e-23
3.96385e-23
6.32847e-23
7.55395e-23
7.79388e-23
3.55153e-23
1.66586e-23
5.46454e-24
1.43527e-24
3.58946e-25
7.40538e-26
1.22628e-26
1.65831e-27
2.17235e-27
7.99006e-27
1.90849e-26
4.18648e-26
8.04129e-26
1.52148e-25
1.37951e-25
1.04128e-25
1.45478e-24
1.3718e-23
3.17374e-23
8.27622e-23
8.67984e-23
1.12762e-22
1.36737e-22
8.37848e-23
3.01117e-23
1.07116e-23
3.49909e-24
9.79737e-25
1.67826e-25
3.31102e-26
6.24747e-27
8.25938e-27
2.34897e-26
8.87301e-26
2.17077e-25
3.94526e-25
8.47773e-25
1.57008e-24
2.13072e-24
2.54692e-24
1.83046e-24
1.91472e-23
5.4136e-23
1.26538e-22
1.6561e-22
1.93062e-22
1.75309e-22
1.37802e-22
7.28228e-23
2.7686e-23
7.94182e-24
2.55151e-24
5.3127e-25
8.0974e-26
2.67057e-26
1.93939e-26
8.04002e-26
2.82033e-25
9.62658e-25
2.24793e-24
3.73183e-24
1.21423e-23
2.7971e-23
3.28955e-23
1.55297e-23
3.80989e-24
3.96221e-23
8.60594e-23
1.61637e-22
2.45517e-22
3.25698e-22
3.13047e-22
2.75599e-22
1.4122e-22
5.97423e-23
1.70482e-23
5.36006e-24
1.28649e-24
2.96209e-25
7.30192e-26
9.83622e-26
2.32199e-25
7.30278e-25
3.03274e-24
1.16694e-23
2.58607e-23
4.8252e-23
1.41797e-22
3.01469e-22
2.37455e-22
1.28827e-22
8.03873e-24
3.81882e-23
1.66569e-22
3.12836e-22
4.23706e-22
6.93944e-22
4.61484e-22
4.91271e-22
2.44895e-22
1.09033e-22
3.79762e-23
1.10666e-23
3.0938e-24
6.73901e-25
1.90905e-25
2.8368e-25
7.5127e-25
2.95151e-24
9.07417e-24
4.38229e-23
1.74752e-22
3.98647e-22
6.94666e-22
1.74482e-21
2.98827e-21
1.73217e-21
9.09358e-22
1.11674e-23
3.83036e-23
3.05923e-22
5.67701e-22
5.91792e-22
1.10578e-21
1.07413e-21
7.48483e-22
5.27928e-22
2.39141e-22
8.91552e-23
2.50029e-23
7.68228e-24
1.48774e-24
4.54094e-25
6.6371e-25
2.93956e-24
9.09857e-24
4.07535e-23
1.47909e-22
4.6229e-22
2.06346e-21
4.49334e-21
6.34553e-21
1.7383e-20
2.74064e-20
1.57033e-20
1.44652e-20
8.03965e-24
5.20877e-23
2.88049e-22
9.52696e-22
1.30772e-21
1.82707e-21
1.93899e-21
1.24697e-21
8.85868e-22
4.39013e-22
1.86836e-22
4.88228e-23
1.58687e-23
3.94019e-24
1.00674e-24
2.1295e-24
7.36677e-24
3.98534e-23
1.27761e-22
5.22113e-22
1.50879e-21
8.17831e-21
2.68439e-20
4.99539e-20
9.71471e-20
2.06716e-19
2.08896e-19
1.1507e-19
1.07353e-19
2.46074e-24
4.42368e-23
4.71972e-22
1.14383e-21
1.74861e-21
2.61683e-21
3.23625e-21
2.78682e-21
1.33352e-21
8.54455e-22
3.43415e-22
1.21423e-22
3.14606e-23
9.58712e-24
3.44513e-24
5.57325e-24
2.00543e-23
9.19821e-23
4.57844e-22
1.95375e-21
7.04526e-21
2.80604e-20
9.43017e-20
3.36886e-19
6.09038e-19
7.2214e-19
1.80227e-18
1.72551e-18
1.13042e-18
4.48964e-19
6.58474e-24
5.1312e-23
3.63318e-22
1.15099e-21
2.48051e-21
4.81314e-21
5.28463e-21
4.17199e-21
2.77767e-21
1.38269e-21
6.35678e-22
2.48114e-22
6.40364e-23
2.01198e-23
5.96006e-24
1.32683e-23
4.83846e-23
2.06214e-22
1.07026e-21
6.37552e-21
2.83232e-20
8.8193e-20
4.40925e-19
1.18943e-18
4.45794e-18
5.4496e-18
8.6548e-18
1.34796e-17
1.45728e-17
5.51305e-18
2.16091e-18
6.57029e-23
1.23353e-22
5.45603e-22
2.30872e-21
4.36817e-21
5.42784e-21
8.31172e-21
7.4393e-21
5.31274e-21
2.66839e-21
1.25791e-21
4.75812e-22
1.40557e-22
3.51648e-23
1.65452e-23
2.57707e-23
1.08238e-22
6.15355e-22
3.05556e-21
1.49056e-20
1.03601e-19
5.23625e-19
2.30973e-18
7.33559e-18
1.92542e-17
5.54673e-17
8.21097e-17
1.13331e-16
1.23019e-16
1.02256e-16
4.00723e-17
8.99889e-18
1.0641e-21
8.41283e-22
1.01459e-21
4.05028e-21
4.9458e-21
9.37547e-21
1.49238e-20
1.2541e-20
9.51459e-21
5.33336e-21
2.24983e-21
8.89297e-22
3.12461e-22
8.79319e-23
3.27189e-23
5.17756e-23
3.15656e-22
1.6096e-21
8.79878e-21
5.68332e-20
3.28083e-19
2.56975e-18
1.43713e-17
4.93932e-17
1.63571e-16
3.0046e-16
6.29958e-16
7.43233e-16
9.56353e-16
8.08792e-16
5.24955e-16
1.77171e-16
6.28795e-18
1.304e-20
8.30936e-21
5.56616e-21
7.62801e-21
1.22661e-20
1.50337e-20
1.94465e-20
2.19697e-20
1.51793e-20
9.89337e-21
4.25379e-21
1.7734e-21
7.01774e-22
1.78558e-22
6.2293e-23
1.25836e-22
5.43305e-22
3.36954e-21
2.0725e-20
1.73615e-19
1.5247e-18
1.35956e-17
8.03554e-17
4.66318e-16
1.09881e-15
2.4355e-15
4.67599e-15
7.27832e-15
9.26479e-15
8.99115e-15
5.91126e-15
2.67035e-15
7.8615e-17
1.12513e-17
2.43718e-16
5.13461e-20
8.67797e-20
3.31839e-20
1.89319e-20
1.69573e-20
2.83623e-20
2.79919e-20
2.94996e-20
2.95652e-20
1.71931e-20
9.25479e-21
3.24195e-21
1.09047e-21
3.49758e-22
1.64316e-22
2.75453e-22
1.01247e-21
7.55385e-21
6.05008e-20
4.63911e-19
6.46636e-18
7.37611e-17
5.47531e-16
2.71851e-15
1.02894e-14
2.18288e-14
4.77133e-14
7.85029e-14
1.07137e-13
1.17601e-13
9.13883e-14
3.99221e-14
0
1.18518e-15
8.70952e-15
6.26946e-17
8.52872e-16
2.20852e-19
3.40866e-19
2.98304e-19
1.05537e-19
5.79178e-20
5.30407e-20
4.98327e-20
4.38019e-20
4.73352e-20
2.98068e-20
1.61503e-20
6.36335e-21
2.11638e-21
6.87927e-22
3.34636e-22
4.36937e-22
2.36861e-21
1.37025e-20
1.14992e-19
2.37352e-18
2.86212e-17
3.78464e-16
3.62509e-15
2.15333e-14
8.49318e-14
1.90689e-13
4.54031e-13
8.18979e-13
1.15991e-12
1.38609e-12
1.27921e-12
7.02823e-13
7.4179e-14
3.22823e-13
5.34921e-14
3.06121e-13
3.37637e-13
6.9567e-15
4.95048e-14
3.19619e-16
4.79158e-15
1.28771e-18
2.23169e-18
2.17162e-18
1.02281e-18
2.63764e-19
1.12602e-19
9.14723e-20
7.18771e-20
7.7675e-20
5.48154e-20
2.78534e-20
1.35411e-20
4.46647e-21
1.41949e-21
7.33101e-22
8.83865e-22
4.35137e-21
2.91162e-20
1.84747e-19
4.30931e-18
1.70613e-16
1.95869e-15
2.0399e-14
1.5575e-13
6.59241e-13
1.58919e-12
4.05892e-12
7.81454e-12
1.18453e-11
1.45872e-11
1.51972e-11
1.06776e-11
1.43272e-12
6.67796e-12
1.5915e-12
3.21512e-13
1.79501e-12
1.87652e-12
4.11971e-14
2.94045e-13
1.56072e-15
2.77498e-14
8.76512e-18
1.78408e-17
1.28003e-17
6.15771e-18
1.64301e-18
4.96599e-19
1.93324e-19
1.42938e-19
1.12922e-19
8.86811e-20
5.17624e-20
2.40233e-20
8.79653e-21
3.1385e-21
1.25551e-21
2.87651e-21
1.08523e-20
5.6463e-20
4.01386e-19
5.82534e-18
3.10008e-16
1.29559e-14
1.18049e-13
9.20345e-13
4.52017e-12
1.19215e-11
3.40009e-11
6.9717e-11
1.10976e-10
1.43019e-10
1.54995e-10
1.3215e-10
2.67906e-11
1.06142e-10
7.67637e-12
3.38243e-11
8.93085e-12
1.86384e-12
1.00629e-11
1.05909e-11
2.41893e-13
1.69166e-12
8.74726e-15
1.57376e-13
3.01747e-17
8.80883e-17
6.83104e-17
2.9903e-17
1.04783e-17
2.50785e-18
6.34237e-19
2.71915e-19
1.90902e-19
1.30961e-19
8.54934e-20
4.19799e-20
1.43185e-20
5.60239e-21
2.98779e-21
5.21636e-21
2.23404e-20
1.24383e-19
7.2615e-19
7.30782e-18
3.53665e-16
2.67196e-14
6.88169e-13
5.3535e-12
2.62858e-11
7.86926e-11
2.54157e-10
5.84522e-10
9.78955e-10
1.29927e-09
1.44122e-09
1.35376e-09
3.77961e-10
1.31706e-09
1.35986e-10
5.00245e-10
4.06855e-11
1.70981e-10
4.881e-11
1.04139e-11
5.45696e-11
5.71114e-11
1.35887e-12
9.27996e-12
4.64875e-14
8.49003e-13
1.14269e-16
2.25532e-16
3.00814e-16
1.96509e-16
6.78382e-17
1.1957e-17
2.62241e-18
6.7171e-19
3.32275e-19
2.07017e-19
1.33546e-19
7.22263e-20
3.19114e-20
1.23626e-20
6.85896e-21
1.0468e-20
3.29266e-20
1.99077e-19
1.26592e-18
1.04834e-17
3.65999e-16
2.84158e-14
1.86249e-12
1.96277e-11
1.33929e-10
4.38557e-10
1.64539e-09
4.33903e-09
8.21274e-09
1.13205e-08
1.25905e-08
1.21042e-08
4.21683e-09
1.32797e-08
1.71513e-09
5.59378e-09
6.57627e-10
2.33966e-09
2.13664e-10
8.57251e-10
2.53624e-10
5.53423e-11
2.81123e-10
2.92482e-10
7.26616e-12
4.84952e-11
2.38354e-13
4.34818e-12
4.31985e-16
6.86442e-16
9.51356e-16
8.79138e-16
2.9406e-16
6.97156e-17
1.32717e-17
2.54017e-18
7.16634e-19
3.5511e-19
2.09394e-19
1.20626e-19
5.65679e-20
2.59884e-20
1.59762e-20
2.51694e-20
6.24249e-20
3.18901e-19
2.10804e-18
1.47706e-17
3.58193e-16
2.60306e-14
1.76377e-12
7.84278e-11
5.50744e-10
2.29677e-09
8.73416e-09
2.72569e-08
6.01654e-08
9.61355e-08
1.09941e-07
1.01998e-07
3.90333e-08
1.15065e-07
1.73672e-08
5.20482e-08
7.78011e-09
2.4334e-08
3.13717e-09
1.0591e-08
1.05971e-09
4.04454e-09
1.2496e-09
2.79484e-10
1.37555e-09
1.4189e-09
3.67467e-11
2.39315e-10
1.14295e-12
2.08508e-11
1.10981e-15
3.13432e-15
3.86009e-15
3.51001e-15
1.30217e-15
3.20539e-16
6.93179e-17
1.12296e-17
2.0335e-18
6.77781e-19
3.44034e-19
2.01417e-19
1.15649e-19
6.61984e-20
3.64592e-20
6.28309e-20
1.47348e-19
5.96442e-19
2.99463e-18
2.30002e-17
3.13643e-16
2.27311e-14
1.76512e-12
7.52623e-11
1.72798e-09
1.01869e-08
3.47462e-08
1.3852e-07
3.68104e-07
6.99276e-07
9.61504e-07
8.93209e-07
3.18606e-07
9.13382e-07
1.50755e-07
4.27433e-07
7.27244e-08
2.09894e-07
3.34789e-08
1.00278e-07
1.41016e-08
4.54418e-08
4.99028e-09
1.81412e-08
5.8485e-09
1.32936e-09
6.38514e-09
6.46445e-09
1.73022e-10
1.0986e-09
5.05098e-12
9.17188e-11
3.76339e-15
1.4259e-14
1.87473e-14
1.78526e-14
6.23569e-15
1.31543e-15
2.98463e-16
5.52786e-17
6.31857e-18
1.45119e-18
6.68142e-19
3.4744e-19
1.94174e-19
1.65636e-19
1.08455e-19
1.17796e-19
3.43221e-19
9.01156e-19
6.73116e-18
3.32475e-17
3.30468e-16
1.3549e-14
1.61659e-12
7.51111e-11
1.41193e-09
2.58917e-08
1.11756e-07
5.21603e-07
1.74667e-06
3.99928e-06
6.68931e-06
8.18067e-06
2.51504e-06
7.58923e-06
1.18503e-06
3.27739e-06
5.87315e-07
1.60513e-06
2.88282e-07
8.00715e-07
1.37633e-07
3.96557e-07
6.07124e-08
1.88301e-07
2.24453e-08
7.84012e-08
2.61094e-08
5.8831e-09
2.79277e-08
2.73892e-08
7.4459e-10
4.5924e-09
1.98788e-11
3.56576e-10
1.57569e-14
6.3179e-14
8.87231e-14
7.87974e-14
2.72299e-14
5.97713e-15
1.05978e-15
2.03977e-16
2.89138e-17
4.6886e-18
1.40364e-18
7.11315e-19
4.67132e-19
3.26509e-19
2.66786e-19
3.15023e-19
5.88699e-19
2.23555e-18
9.77523e-18
7.31942e-17
4.79914e-16
7.98958e-15
8.4051e-13
8.00906e-11
2.05383e-09
2.5692e-08
2.60703e-07
1.54712e-06
5.85146e-06
1.65304e-05
3.27765e-05
5.02132e-05
2.23826e-05
6.57404e-05
9.35285e-06
2.8028e-05
4.36885e-06
1.22045e-05
2.16596e-06
5.84063e-06
1.10002e-06
2.96109e-06
5.50337e-07
1.53311e-06
2.54105e-07
7.65467e-07
9.72041e-08
3.30954e-07
1.11354e-07
2.37852e-08
1.16378e-07
1.10277e-07
2.81013e-09
1.69713e-08
6.45114e-11
1.14509e-09
6.85217e-14
2.68028e-13
4.04219e-13
3.32373e-13
1.1084e-13
2.53939e-14
4.9981e-15
7.71623e-16
1.08324e-16
1.64656e-17
3.03836e-18
1.58433e-18
1.04162e-18
9.22561e-19
7.82329e-19
8.03571e-19
1.23395e-18
4.02374e-18
2.16169e-17
1.01302e-16
8.27138e-16
7.30181e-15
3.37815e-13
4.41e-11
2.06379e-09
2.72419e-08
3.78863e-07
3.27539e-06
1.49552e-05
4.61281e-05
0.000109487
0.000184516
0.000147518
0.000255087
7.70309e-05
0.000182791
3.54007e-05
9.54038e-05
1.6098e-05
4.47603e-05
7.93787e-06
2.1712e-05
4.16237e-06
1.11836e-05
2.18221e-06
6.01622e-06
1.04936e-06
3.11997e-06
4.09987e-07
1.38436e-06
4.6263e-07
8.99259e-08
4.80169e-07
4.40049e-07
9.13135e-09
5.86097e-08
1.57574e-10
3.2176e-09
2.98441e-13
1.09927e-12
1.7306e-12
1.25121e-12
4.18719e-13
1.00641e-13
1.68615e-14
2.27652e-15
4.57256e-16
5.16408e-17
1.11563e-17
3.83809e-18
3.09126e-18
2.38647e-18
2.14913e-18
2.0218e-18
2.98235e-18
7.7583e-18
3.78532e-17
2.19096e-16
1.43421e-15
1.00309e-14
1.7916e-13
1.72364e-11
1.49171e-09
3.44429e-08
4.11593e-07
4.42421e-06
2.71277e-05
9.29757e-05
0.000225325
0.000416155
0.000592323
0.000304659
0.000491374
0.000204383
0.000343023
0.000114941
0.000228571
5.78119e-05
0.000139764
3.0376e-05
7.84162e-05
1.65628e-05
4.44072e-05
8.9559e-06
2.54398e-05
4.38388e-06
1.33123e-05
1.72702e-06
5.90135e-06
1.95865e-06
3.37674e-07
2.01463e-06
1.77266e-06
2.89997e-08
2.07418e-07
3.87086e-10
9.18231e-09
1.34431e-12
4.40879e-12
6.80369e-12
4.27232e-12
1.43812e-12
3.66219e-13
6.1861e-14
7.61813e-15
9.59645e-16
1.73633e-16
2.60928e-17
1.10088e-17
8.77487e-18
9.08744e-18
6.94161e-18
8.5755e-18
9.0062e-18
1.44896e-17
8.27301e-17
3.73756e-16
2.23325e-15
1.66792e-14
1.72443e-13
6.46029e-12
6.1817e-10
2.73232e-08
3.71549e-07
4.51373e-06
3.42513e-05
0.000144119
0.000354312
0.000629187
0.000872843
0.000811589
0.000990625
0.000497363
0.000662435
0.000366518
0.000524872
0.000255825
0.00039426
0.000172672
0.000292668
0.00011135
0.000217436
6.78123e-05
0.000160111
3.94442e-05
0.00010609
1.9254e-05
5.93317e-05
7.48222e-06
2.62686e-05
8.47532e-06
1.30527e-06
8.4724e-06
7.31695e-06
9.52915e-08
7.74095e-07
1.03177e-09
2.77154e-08
6.44688e-12
1.76742e-11
2.48597e-11
1.35175e-11
4.52837e-12
1.21802e-12
2.09265e-13
2.49898e-14
2.95967e-15
3.8293e-16
9.86271e-17
2.50916e-17
2.33315e-17
2.15272e-17
2.17436e-17
2.26429e-17
2.71861e-17
4.93316e-17
1.31454e-16
7.31915e-16
4.21345e-15
3.16753e-14
2.53638e-13
3.71001e-12
2.28555e-10
1.48536e-08
2.71019e-07
4.17716e-06
3.45235e-05
0.000171925
0.000471877
0.000813207
0.00111609
0.00111906
0.0012529
0.00103383
0.00118842
0.000693681
0.000865285
0.000549889
0.000720603
0.000431875
0.00058619
0.000345051
0.000487695
0.000280621
0.000418563
0.000225008
0.000365399
0.000159202
0.000307008
8.3154e-05
0.000219352
3.22226e-05
0.000105179
3.48141e-05
5.32665e-06
3.39328e-05
2.8967e-05
3.32776e-07
3.07489e-06
3.03122e-09
8.94684e-08
2.8017e-11
7.19948e-11
8.58906e-11
4.03786e-11
1.33479e-11
3.67769e-12
6.53797e-13
8.26273e-14
8.41654e-15
1.03042e-15
2.17961e-16
9.35295e-17
5.23451e-17
5.58291e-17
5.26011e-17
4.50922e-17
6.19558e-17
1.09617e-16
3.88339e-16
1.56839e-15
9.51317e-15
6.7128e-14
4.92245e-13
4.07193e-12
9.37069e-11
5.91415e-09
1.65598e-07
3.19691e-06
3.1964e-05
0.000171776
0.000531395
0.000902799
0.00116435
0.00132492
0.0013605
0.00132204
0.00141706
0.00123561
0.00138118
0.000897373
0.00107147
0.000752664
0.000929596
0.000641778
0.00080526
0.00056816
0.000725032
0.000518332
0.000677818
0.00047238
0.000643962
0.000402713
0.000596637
0.000279228
0.000502958
0.000120158
0.000329792
0.00012617
2.0786e-05
0.000121187
0.000102475
1.23168e-06
1.15998e-05
9.92872e-09
3.03741e-07
7.4579e-11
2.65364e-10
2.8361e-10
1.15173e-10
3.73755e-11
9.99063e-12
1.87766e-12
2.57643e-13
2.67401e-14
2.64675e-15
4.04166e-16
1.96975e-16
1.56023e-16
1.42765e-16
1.3258e-16
1.25219e-16
1.47701e-16
2.85285e-16
7.96724e-16
3.70908e-15
2.30493e-14
1.56928e-13
1.06992e-12
6.93984e-12
6.85676e-11
2.27024e-09
9.82154e-08
1.86999e-06
2.62782e-05
0.000162994
0.000526787
0.000870965
0.00107716
0.001308
0.0014626
0.00147002
0.00149471
0.0015593
0.00143097
0.00155964
0.00110752
0.00127699
0.000976731
0.00115312
0.000886941
0.00105327
0.000840346
0.00100339
0.000817242
0.00098773
0.000792108
0.00098006
0.000732029
0.000950752
0.000599279
0.000864539
0.000364311
0.000682639
0.000377544
7.20474e-05
0.000358154
0.000295677
4.47624e-06
3.96935e-05
3.66583e-08
1.07734e-06
5.5965e-10
8.55724e-10
3.17084e-10
9.97137e-11
2.48576e-11
4.97377e-12
7.50278e-13
8.3002e-14
7.41494e-15
1.15237e-15
5.82676e-16
3.84155e-16
4.26921e-16
3.21729e-16
3.38097e-16
3.42038e-16
6.52856e-16
2.13562e-15
1.0301e-14
6.2195e-14
4.01777e-13
2.54534e-12
1.50923e-11
8.98501e-11
1.16257e-09
4.34528e-08
9.64185e-07
1.65082e-05
0.000137787
0.000502235
0.000808522
0.000929825
0.00101413
0.0014005
0.00112835
0.00156502
0.0015257
0.00164673
0.00167463
0.00161911
0.00172421
0.00132456
0.00148206
0.00122344
0.00139126
0.00116574
0.00132744
0.00115307
0.00131202
0.00115846
0.00132414
0.00115302
0.00133274
0.00110398
0.00131063
0.000977604
0.00122997
0.00073839
0.00106118
0.000761877
0.000209885
0.000739116
0.000646009
1.50038e-05
0.00011744
1.1957e-07
2.92569e-06
1.93005e-09
8.6844e-10
2.56818e-10
5.85142e-11
1.20385e-11
2.0081e-12
2.43266e-13
2.21399e-14
2.94142e-15
1.33672e-15
1.46971e-15
1.11556e-15
9.48025e-16
8.30471e-16
9.28814e-16
1.74955e-15
5.29552e-15
2.88244e-14
1.7844e-13
1.11461e-12
6.62648e-12
3.64977e-11
1.81577e-10
1.12704e-09
1.90501e-08
4.59386e-07
9.52819e-06
9.86587e-05
0.000446881
0.000759555
0.000831751
0.000735795
0.000883371
0.000615589
0.00131814
0.000999937
0.00165794
0.0015562
0.00177824
0.00177783
0.00179856
0.00187233
0.00154772
0.00168577
0.00148662
0.00163578
0.00146357
0.00160839
0.00147578
0.00161524
0.0014924
0.00163427
0.00148722
0.00163594
0.00143653
0.001603
0.00131918
0.00151894
0.00110547
0.00136982
0.00111016
0.000488982
0.00106319
0.000981783
0.000767879
3.97746e-05
0.000265389
2.15651e-07
5.56231e-06
2.07754e-09
6.6072e-10
1.35366e-10
2.7314e-11
4.92215e-12
6.63401e-13
6.512e-14
9.18388e-15
4.31551e-15
3.9876e-15
3.72284e-15
3.09759e-15
2.7059e-15
2.9149e-15
5.25956e-15
1.52619e-14
8.54211e-14
5.3411e-13
3.27454e-12
1.86649e-11
9.62612e-11
4.41798e-10
1.83565e-09
1.30294e-08
2.11446e-07
5.4819e-06
6.33167e-05
0.000359354
0.000719417
0.000781026
0.000612212
0.000265459
0.000673255
0.000368567
0.00122348
0.000843782
0.00171508
0.00153635
0.0018916
0.00185604
0.00196136
0.00199537
0.00176871
0.00187984
0.00174461
0.00186739
0.00174441
0.0018646
0.00175995
0.00187305
0.00176376
0.00187627
0.0017402
0.00185547
0.00167754
0.0018048
0.00156372
0.00171233
0.00138068
0.00156798
0.00148276
0.00122899
0.0013559
0.000905806
0.000579007
0.000829625
0.00115349
0.00130085
0.001327
0.00110303
7.89997e-05
0.000710679
0.000577375
0.000295583
1.21068e-07
4.64441e-06
1.7242e-09
3.38088e-10
6.11828e-11
1.13141e-11
1.67086e-12
1.80523e-13
2.96327e-14
1.54822e-14
1.49644e-14
1.41547e-14
1.21791e-14
1.09558e-14
1.09165e-14
1.63593e-14
4.92599e-14
2.54995e-13
1.61546e-12
9.97423e-12
5.57134e-11
2.74778e-10
1.17461e-09
4.30949e-09
1.60348e-08
1.26788e-07
2.5814e-06
3.68454e-05
0.00026536
0.000672976
0.000756109
0.000595367
0.000228975
0.000127645
6.37351e-05
0.000481311
0.000231971
0.00110462
0.000686129
0.00173491
0.00147361
0.00196982
0.00188248
0.00207878
0.00205669
0.00197306
0.00205055
0.00197374
0.00206819
0.00197644
0.00207166
0.00197605
0.00206693
0.00195652
0.002049
0.00191235
0.00200778
0.00177137
0.0018275
0.00188004
0.00193205
0.00164283
0.00171223
0.00183228
0.00183254
0.00177354
0.00156002
0.00145985
0.00155123
0.00163902
0.00144169
0.00103694
0.00095017
0.0012596
0.00138409
0.0014159
0.00120844
0.000388107
6.58385e-05
0.000232317
0.000836495
0.000688647
0
9.02001e-05
2.33565e-05
2.34747e-06
9.95906e-10
1.52466e-10
2.57193e-11
3.98181e-12
4.75883e-13
9.60368e-14
5.70125e-14
5.81507e-14
5.6506e-14
5.01438e-14
4.36089e-14
4.15609e-14
5.48309e-14
1.50865e-13
7.471e-13
4.89621e-12
3.07569e-11
1.72962e-10
8.28674e-10
3.40033e-09
1.14536e-08
3.24549e-08
1.26473e-07
1.33466e-06
2.05481e-05
0.000184729
0.000605244
0.000743729
0.000613498
0.00026857
4.96504e-05
5.84034e-05
2.84323e-05
0.000337885
0.000141465
0.000959408
0.000545741
0.00168604
0.00136794
0.00198754
0.0018306
0.00212121
0.00205345
0.00212886
0.00214196
0.00214891
0.00218726
0.00214734
0.00220084
0.00213105
0.00219315
0.00209285
0.00216035
0.00197915
0.00202473
0.00206523
0.00210206
0.00188714
0.00193761
0.00198568
0.00170702
0.0017683
0.00188681
0.00187902
0.00182505
0.00162786
0.00153377
0.0016113
0.0016954
0.00151094
0.00114254
0.00105664
0.0013435
0.00148229
0.00144836
0.00129287
0.000515427
0.000313995
0.000943948
0.000800839
3.68122e-06
5.84351e-09
2.38671e-07
0.000136961
3.92082e-05
5.02507e-10
6.64075e-11
9.45585e-12
1.21588e-12
3.10264e-13
2.12137e-13
2.26456e-13
2.26853e-13
2.06828e-13
1.8141e-13
1.66857e-13
1.91536e-13
4.46556e-13
2.14027e-12
1.4716e-11
9.60879e-11
5.46814e-10
2.62697e-09
1.03374e-08
3.32256e-08
8.32445e-08
1.9727e-07
1.04618e-06
1.2482e-05
0.000124282
0.000512073
0.000731325
0.000657653
0.00036641
9.59906e-05
1.0808e-05
1.29979e-05
3.53254e-05
1.50424e-05
0.000250371
9.70135e-05
0.000786003
0.000418932
0.00156175
0.00120116
0.00190395
0.00165966
0.00207082
0.00190256
0.00218522
0.0021557
0.00222145
0.00220859
0.00222807
0.00223235
0.00220686
0.00222559
0.00213197
0.00215496
0.00217133
0.00217595
0.0020287
0.00206707
0.00209846
0.00212351
0.00193709
0.00198303
0.0020233
0.00175599
0.00181199
0.00192803
0.00191049
0.00186398
0.0016779
0.00158913
0.0016551
0.00173773
0.00156186
0.00122922
0.0011468
0.00140762
0.00153018
0.00149458
0.00135888
0.000624141
0.000416178
0.00103984
0.000902092
5.84531e-06
9.05342e-09
4.8106e-07
0.000202992
6.29367e-05
2.45694e-10
2.61862e-11
3.22143e-12
1.01451e-12
7.92957e-13
8.73226e-13
8.92391e-13
8.33597e-13
7.51473e-13
6.81019e-13
7.00344e-13
1.30739e-12
5.89189e-12
4.31438e-11
2.99926e-10
1.78085e-09
8.55046e-09
3.27292e-08
1.04247e-07
2.25458e-07
4.44313e-07
1.22206e-06
9.51947e-06
8.63791e-05
0.000416328
0.000712701
0.000700943
0.000469683
0.000190403
1.77293e-05
5.66171e-06
4.30374e-06
2.36066e-05
9.81672e-06
0.000182832
6.76326e-05
0.000571
0.000273521
0.00133721
0.000953663
0.00165872
0.00134919
0.00182187
0.00155595
0.00215243
0.0020279
0.00219376
0.00208871
0.00219564
0.00210027
0.00217256
0.00215327
0.0021247
0.00207383
0.00213985
0.00214573
0.00214033
0.00212093
0.00205685
0.00208297
0.00209982
0.00210538
0.00197118
0.00200732
0.00203495
0.00179262
0.00184224
0.00194986
0.00191869
0.00188504
0.0017137
0.00162781
0.00168495
0.00176697
0.0015963
0.00129907
0.00122276
0.00145425
0.00156197
0.00152535
0.00140847
0.000727901
0.000517436
0.00112344
0.00099358
1.02226e-05
2.24516e-08
1.2158e-06
0.000277879
9.10368e-05
1.09845e-10
1.04733e-11
3.47405e-12
2.98137e-12
3.31333e-12
3.41006e-12
3.25674e-12
3.01211e-12
2.79057e-12
2.65357e-12
3.8097e-12
1.54415e-11
1.19599e-10
9.04384e-10
5.67794e-09
2.83377e-08
1.1215e-07
3.20367e-07
6.09781e-07
1.1256e-06
2.15294e-06
8.97097e-06
7.00845e-05
0.000342537
0.00068264
0.000730222
0.000558889
0.000291781
5.04157e-05
2.77141e-06
3.75705e-06
4.64637e-06
3.32599e-06
1.80804e-05
8.546e-06
0.00011002
4.26591e-05
0.000317792
0.000149907
0.00099493
0.000620792
0.00124003
0.000894842
0.00134703
0.00103794
0.00190478
0.00165328
0.00192327
0.0016564
0.00188828
0.00163523
0.00208821
0.00203905
0.00197612
0.00190891
0.0020992
0.00207877
0.0020428
0.00199007
0.00205238
0.00205809
0.00205179
0.00203025
0.00198004
0.00199962
0.00200666
0.00181355
0.00185134
0.00194199
0.00189309
0.00187947
0.00173558
0.00165226
0.00169992
0.00177823
0.00161651
0.0013541
0.00128641
0.00148669
0.00157981
0.001543
0.00144565
0.000826168
0.000615486
0.00119843
0.0010823
2.0156e-05
1.35489e-07
4.75054e-06
0.000361405
0.000143358
5.29063e-11
1.46872e-11
1.19189e-11
1.25011e-11
1.2693e-11
1.21865e-11
1.15273e-11
1.09976e-11
1.02994e-11
1.13367e-11
3.71212e-11
3.12262e-10
2.52706e-09
1.72318e-08
9.04269e-08
3.67796e-07
9.58756e-07
1.82851e-06
3.16682e-06
5.0847e-06
1.1549e-05
6.78876e-05
0.000306083
0.000648145
0.000747388
0.000630955
0.000384025
0.000103739
5.77469e-06
2.27666e-06
1.31725e-06
5.5813e-06
3.63855e-06
1.77615e-05
9.74046e-06
7.14907e-05
3.50144e-05
0.000203454
0.000117993
0.000572759
0.000343778
0.000768116
0.000561792
0.000913644
0.000764124
0.00135959
0.00110018
0.00133946
0.00112329
0.00148233
0.00135176
0.00114796
0.00124454
0.00192067
0.00183435
0.00173182
0.00161423
0.00199228
0.00193691
0.00186372
0.00177379
0.00200115
0.00197897
0.00193954
0.00188194
0.00195161
0.00194837
0.00192684
0.00181136
0.0018315
0.00189394
0.00182476
0.00183731
0.00173796
0.0016608
0.00169546
0.0017656
0.0016208
0.00139967
0.00134442
0.00150768
0.00158198
0.00154563
0.00147325
0.000929791
0.000731164
0.00127206
0.00117405
4.80121e-05
1.1135e-06
1.99865e-05
0.000487409
0.000255314
9.3078e-11
5.91126e-11
5.08419e-11
4.72116e-11
4.43939e-11
4.21044e-11
4.11282e-11
3.94118e-11
3.51567e-11
8.15372e-11
7.40003e-10
6.71077e-09
4.89008e-08
2.797e-07
1.13791e-06
2.92909e-06
5.84841e-06
9.50892e-06
1.36607e-05
2.19592e-05
7.33893e-05
0.000298897
0.000628396
0.000756795
0.000685468
0.000464079
0.000170977
1.90841e-05
1.01015e-06
1.04732e-06
3.31324e-06
1.61127e-06
9.17535e-06
5.29946e-06
2.79446e-05
1.64721e-05
7.02835e-05
4.44421e-05
0.000212256
0.000168612
0.000404989
0.000287753
0.00063993
0.000549432
0.000909659
0.00092384
0.00100755
0.000939281
0.00109343
0.00106777
0.00111929
0.00123548
0.00117111
0.00111654
0.00113086
0.00166984
0.0015556
0.00143633
0.00132524
0.00180671
0.00171587
0.00161316
0.00150501
0.00188694
0.00182816
0.00175247
0.00166263
0.0018754
0.00183694
0.0017789
0.00177772
0.00177423
0.001791
0.00170243
0.0017482
0.00171519
0.00164996
0.00166368
0.00172058
0.00160563
0.00143821
0.00139701
0.00151394
0.00156534
0.00153265
0.00148837
0.00104211
0.000868661
0.00134094
0.00126178
0.000128347
1.39697e-05
8.10887e-05
0.00066498
0.000480862
4.15711e-10
2.62244e-10
1.92493e-10
1.6261e-10
1.49779e-10
1.46579e-10
1.47746e-10
1.11349e-10
1.77604e-10
1.37177e-09
1.61517e-08
1.29684e-07
7.96758e-07
3.32874e-06
9.2709e-06
1.87792e-05
2.87546e-05
3.75002e-05
5.08451e-05
9.90688e-05
0.000304386
0.000625917
0.000764813
0.000724135
0.000528386
0.000235908
3.82668e-05
1.50073e-06
1.40101e-06
5.27865e-07
5.42125e-06
3.00981e-06
2.33088e-05
1.12849e-05
7.03666e-05
4.30965e-05
0.000135359
0.000102551
0.000453261
0.000411178
0.000497169
0.000472299
0.000976764
0.00104346
0.00165646
0.00185023
0.00125498
0.00144772
0.00112861
0.00115611
0.00175138
0.00191265
0.00119876
0.00121525
0.00135642
0.00127194
0.00140074
0.00131146
0.00124608
0.00120577
0.00156436
0.00146653
0.00137892
0.00130968
0.0017046
0.0016186
0.00152971
0.00144738
0.00173696
0.00166686
0.00158856
0.00170631
0.00167296
0.00164103
0.00157062
0.00162399
0.00166261
0.00161451
0.00160943
0.00164327
0.00157144
0.00146438
0.00143706
0.00150849
0.00153849
0.00151658
0.0014936
0.00115265
0.00101261
0.00139795
0.00133843
0.000330059
0.000168558
0.000299526
0.000865391
0.000758066
1.90513e-09
1.02019e-09
6.5882e-10
5.3533e-10
5.07003e-10
5.15592e-10
3.50298e-10
4.19702e-10
2.2112e-09
2.96081e-08
3.15091e-07
2.07514e-06
9.47011e-06
2.79302e-05
5.61495e-05
8.25459e-05
9.93976e-05
0.000119094
0.000170929
0.00033196
0.000631204
0.000770439
0.000749434
0.000574251
0.000289981
5.87621e-05
4.64579e-06
4.55775e-07
2.85256e-07
2.73384e-06
1.17019e-06
1.30657e-05
5.39333e-06
6.23905e-05
3.03257e-05
0.000181652
0.000112765
0.000343795
0.000262714
0.00105499
0.000948806
0.00109075
0.00109212
0.00202094
0.0021367
0.00299413
0.00318647
0.00205999
0.00222187
0.00272812
0.0014676
0.00159917
0.0023852
0.00256048
0.00143303
0.00154937
0.00185161
0.00169014
0.00127166
0.00126641
0.0012889
0.0013444
0.00138127
0.00134414
0.00133793
0.00135214
0.00151259
0.0014503
0.00141709
0.0014104
0.00157352
0.00151339
0.00148139
0.00161004
0.00157342
0.00153413
0.00155375
0.00155648
0.00159199
0.00156713
0.00156002
0.00157212
0.00153902
0.00148199
0.00146655
0.00150576
0.00152219
0.00151307
0.00150002
0.00125206
0.00114738
0.00144214
0.00140219
0.000737309
0.000773159
0.000827779
0.00105251
0.00101855
7.70548e-09
3.54666e-09
2.11163e-09
1.7448e-09
1.73662e-09
1.11362e-09
1.1071e-09
3.43212e-09
4.47237e-08
5.87049e-07
4.98484e-06
2.45867e-05
7.33183e-05
0.000132601
0.000171626
0.000192025
0.000214928
0.000270997
0.000410223
0.000652869
0.000776434
0.000761176
0.000599542
0.000327328
7.7425e-05
7.96222e-06
2.91608e-07
9.487e-07
2.59096e-07
5.02578e-06
2.33315e-06
3.41329e-05
1.33174e-05
0.000154192
7.73725e-05
0.000426861
0.000271605
0.000787035
0.000605936