/*--------------------------------*- C++ -*----------------------------------*\
  =========                 |
  \\      /  F ield         | OpenFOAM: The Open Source CFD Toolbox
   \\    /   O peration     | Website:  https://openfoam.org
    \\  /    A nd           | Version:  dev
     \\/     M anipulation  |
\*---------------------------------------------------------------------------*/
FoamFile
{
    version     2.0;
    format      ascii;
    class       volScalarField;
    location    "2500";
    object      k;
}
// * * * * * * * * * * * * * * * * * * * * * * * * * * * * * * * * * * * * * //

dimensions      [0 2 -2 0 0 0 0];

internalField   nonuniform List<scalar> 
9841
(
0.000154951
0.000162078
0.000147784
0.000140484
0.000207174
0.000121532
0.000119702
0.000220651
0.000187998
0.000108797
0.000110606
0.000208156
0.000226522
0.00014686
0.000104897
0.000105292
0.000176175
0.000247399
0.000200026
0.000123419
0.000103153
0.000102563
0.000144647
0.000245122
0.000237759
0.0001555
0.000113728
0.000101994
0.000101055
0.000126569
0.000228696
0.00025826
0.000200534
0.000129786
0.000108805
0.000101245
0.000100271
0.000114654
0.000193467
0.000267302
0.000239951
0.000156785
0.000118159
0.000105712
0.000100697
9.98211e-05
0.000107959
0.000156874
0.000261079
0.000263023
0.000194429
0.000131859
0.000111996
0.000103628
0.000100329
9.94639e-05
0.000104179
0.000135028
0.000241013
0.000277771
0.000235393
0.000154164
0.000120061
0.00010793
0.00010212
0.000100073
9.91769e-05
0.000102144
0.000120583
0.000203139
0.000282057
0.000264748
0.000185188
0.000131875
0.000113419
0.000105036
0.000100969
9.98527e-05
9.89552e-05
0.000100944
0.00011223
0.000164496
0.000273842
0.000280714
0.000224494
0.000149298
0.000120674
0.000108847
0.000102935
0.00010016
9.9592e-05
9.88366e-05
0.000100163
0.000107369
0.000141104
0.000250789
0.000293797
0.000258889
0.000176425
0.000130151
0.000113808
0.000105541
0.000101271
9.96005e-05
9.93754e-05
9.87898e-05
9.9684e-05
0.000104542
0.000125673
0.000211006
0.000294423
0.000283511
0.000210394
0.000144932
0.000119967
0.000108909
0.000103052
0.000100027
9.90886e-05
9.92491e-05
9.87646e-05
9.93781e-05
0.000102854
0.000116525
0.000171352
0.000284758
0.000296045
0.000248596
0.000167036
0.00012804
0.000113306
0.000105351
0.000101116
9.91943e-05
9.85589e-05
9.91769e-05
9.87791e-05
9.91557e-05
0.000101784
0.000111032
0.000147404
0.000259661
0.000307343
0.000277755
0.000197475
0.000139949
0.00011849
0.000108469
0.000102694
9.9615e-05
9.84855e-05
9.82001e-05
9.90891e-05
9.88122e-05
9.90294e-05
0.000101027
0.000107715
0.000131488
0.000219719
0.000306742
0.000298985
0.000232234
0.0001583
0.000125356
0.000112117
0.000104872
0.000100604
9.86019e-05
9.76943e-05
9.79624e-05
9.90303e-05
9.88611e-05
9.89608e-05
0.00010047
0.000105563
0.000121674
0.000179849
0.00029637
0.000310775
0.000268176
0.000183974
0.000134922
0.000116794
0.000107525
0.0001021
9.89774e-05
9.76323e-05
9.71627e-05
9.77397e-05
9.89913e-05
9.89749e-05
9.8909e-05
0.000100046
0.000104034
0.000115439
0.000155219
0.000271007
0.000321731
0.000294212
0.000215616
0.000149872
0.000122262
0.000110883
0.000104054
9.98233e-05
9.77386e-05
9.66697e-05
9.6786e-05
9.75643e-05
9.89603e-05
9.9055e-05
9.8751e-05
9.96714e-05
0.000102899
0.000111344
0.000138492
0.000232103
0.000321077
0.000314316
0.000250033
0.000171307
0.000130364
0.000114608
0.000106473
0.000101234
9.80913e-05
9.66252e-05
9.59679e-05
9.6452e-05
9.74358e-05
9.89401e-05
9.90655e-05
9.85333e-05
9.92981e-05
0.000101922
0.000108537
0.000127466
0.000191952
0.000311387
0.000326363
0.000284947
0.000199144
0.00014206
0.000119522
0.000109245
0.000103021
9.89262e-05
9.67511e-05
9.55726e-05
9.54501e-05
9.61698e-05
9.7337e-05
9.89291e-05
9.9026e-05
9.8351e-05
9.89327e-05
0.000101092
0.000106675
0.000120111
0.000165179
0.000287754
0.000338467
0.000310107
0.000231243
0.000159947
0.0001257
0.000112631
0.000105132
0.000100261
9.71533e-05
9.55838e-05
9.47032e-05
9.50118e-05
9.59553e-05
9.72678e-05
9.89244e-05
9.89584e-05
9.82696e-05
9.86303e-05
0.00010033
0.000105271
0.000115184
0.00014707
0.00024974
0.000338733
0.000330858
0.00026557
0.000183372
0.000135563
0.000116493
0.000107576
0.000101903
9.8077e-05
9.57724e-05
9.44984e-05
9.40387e-05
9.46383e-05
9.5792e-05
9.72293e-05
9.89217e-05
9.88926e-05
9.82549e-05
9.83652e-05
9.96543e-05
0.000103875
0.000111899
0.000134582
0.000209856
0.000330867
0.000343702
0.000300522
0.000212495
0.000149311
0.000121891
0.000110402
0.000103775
9.93632e-05
9.63167e-05
9.4572e-05
9.35437e-05
9.35134e-05
9.43509e-05
9.56856e-05
9.72068e-05
9.89255e-05
9.88619e-05
9.82207e-05
9.79575e-05
9.90032e-05
0.00010233
0.000109465
0.000126315
0.000179372
0.00031011
0.000356204
0.00032637
0.000244449
0.000169374
0.000129252
0.000113812
0.000105926
0.000100846
9.72938e-05
9.48678e-05
9.35342e-05
9.27776e-05
9.30943e-05
9.41423e-05
9.56142e-05
9.71802e-05
9.89313e-05
9.88413e-05
9.81207e-05
9.75096e-05
9.83934e-05
0.000101065
0.000107618
0.000120725
0.000159852
0.000275129
0.000360168
0.000347475
0.000279191
0.000193658
0.000140708
0.000118148
0.000108393
0.000102517
9.84654e-05
9.55817e-05
9.36941e-05
9.26248e-05
9.21756e-05
9.27645e-05
9.39873e-05
9.55574e-05
9.71693e-05
9.89393e-05
9.88025e-05
9.79666e-05
9.71102e-05
9.77949e-05
0.000100013
0.000105856
0.000116736
0.000146238
0.000237138
0.000354767
0.000361138
0.000313707
0.000223484
0.000156109
0.00012426
0.000111374
0.000104394
9.98134e-05
9.65194e-05
9.41708e-05
9.2715e-05
9.18448e-05
9.1705e-05
9.25092e-05
9.39096e-05
9.55259e-05
9.71715e-05
9.89516e-05
9.87454e-05
9.77925e-05
9.68422e-05
9.72227e-05
9.90625e-05
0.000104207
0.000113742
0.000136731
0.000202997
0.00033901
0.000373933
0.000341037
0.00025464
0.000177103
0.000132936
0.000115002
0.000106622
0.000101329
9.76219e-05
9.49508e-05
9.30223e-05
9.18846e-05
9.12305e-05
9.13485e-05
9.23768e-05
9.39021e-05
9.55119e-05
9.71776e-05
9.89785e-05
9.86916e-05
9.76353e-05
9.65214e-05
9.65582e-05
9.81323e-05
0.000102617
0.000111593
0.000130101
0.000180509
0.000311918
0.000383271
0.000362159
0.000289339
0.000201711
0.000145263
0.000119904
0.000109179
0.000103061
9.89e-05
9.58679e-05
9.36778e-05
9.21056e-05
9.12376e-05
9.07793e-05
9.1146e-05
9.23918e-05
9.39664e-05
9.55188e-05
9.71589e-05
9.90094e-05
9.86435e-05
9.75039e-05
9.6112e-05
9.5888e-05
9.72362e-05
0.000101234
0.000110099
0.000125398
0.000165158
0.000277895
0.000381981
0.000379558
0.000321894
0.000230569
0.000161672
0.000126615
0.000112304
0.000105009
0.00010035
9.69727e-05
9.4487e-05
9.26541e-05
9.14186e-05
9.07617e-05
9.05223e-05
9.11534e-05
9.25567e-05
9.41353e-05
9.55713e-05
9.71209e-05
9.89967e-05
9.8608e-05
9.73894e-05
9.5668e-05
9.51937e-05
9.64411e-05
9.99939e-05
0.000108389
0.000122218
0.000154052
0.000244772
0.000374239
0.000392987
0.000352304
0.000260827
0.000182168
0.000136042
0.000116176
0.000107296
0.000101923
9.82639e-05
9.5469e-05
9.34335e-05
9.19186e-05
9.09266e-05
9.04944e-05
9.05025e-05
9.13999e-05
9.29363e-05
9.44553e-05
9.57117e-05
9.71493e-05
9.89517e-05
9.85796e-05
9.7281e-05
9.52288e-05
9.4464e-05
9.56921e-05
9.89323e-05
0.000106604
0.000120614
0.000146226
0.000216301
0.000356301
0.000404542
0.000375862
0.000292524
0.000206385
0.000148546
0.000121394
0.000109913
0.000103731
9.96861e-05
9.66536e-05
9.43968e-05
9.2695e-05
9.14262e-05
9.0669e-05
9.04683e-05
9.0813e-05
9.19805e-05
9.36247e-05
9.49943e-05
9.61506e-05
9.73187e-05
9.89289e-05
9.85681e-05
9.71716e-05
9.48572e-05
9.37352e-05
9.49561e-05
9.80428e-05
0.000105101
0.000119392
0.000141162
0.000195999
0.000332031
0.000411336
0.000395108
0.000325417
0.000232695
0.00016479
0.000128396
0.000113077
0.00010579
0.000101255
9.8038e-05
9.55722e-05
9.36937e-05
9.22742e-05
9.12132e-05
9.06554e-05
9.08041e-05
9.15922e-05
9.30616e-05
9.48008e-05
9.60192e-05
9.68357e-05
9.75425e-05
9.95555e-05
9.87275e-05
9.85929e-05
9.70555e-05
9.45152e-05
9.3026e-05
9.42579e-05
9.73076e-05
0.000104005
0.000117979
0.000138871
0.000182629
0.000303425
0.00040987
0.000409848
0.000356165
0.000261287
0.000183991
0.000137841
0.000117085
0.000108059
0.000102985
9.95611e-05
9.6981e-05
9.49581e-05
9.33917e-05
9.21757e-05
9.12522e-05
9.10355e-05
9.16442e-05
9.30124e-05
9.48548e-05
9.63292e-05
9.70818e-05
9.73456e-05
9.80184e-05
9.75204e-05
9.95704e-05
9.8799e-05
9.86545e-05
9.69391e-05
9.40835e-05
9.24323e-05
9.35821e-05
9.67399e-05
0.000103292
0.000116777
0.000138471
0.000174073
0.000275095
0.000403439
0.000422435
0.000383233
0.000289823
0.000205654
0.000149787
0.000122332
0.00011062
0.000104841
0.000101177
9.85853e-05
9.65012e-05
9.48149e-05
9.34593e-05
9.2475e-05
9.17535e-05
9.19965e-05
9.31801e-05
9.5104e-05
9.73756e-05
9.85601e-05
9.74612e-05
9.79363e-05
9.73429e-05
9.75722e-05
9.73958e-05
9.80922e-05
9.76124e-05
9.9575e-05
9.88128e-05
9.87426e-05
9.67798e-05
9.35887e-05
9.20244e-05
9.29808e-05
9.63216e-05
0.000102947
0.000116223
0.000138649
0.00016916
0.000250826
0.000389264
0.00043279
0.000404432
0.000319843
0.000229299
0.000163976
0.000128987
0.000113703
0.000106771
0.000102861
0.000100244
9.82533e-05
9.65507e-05
9.51719e-05
9.41415e-05
9.33532e-05
9.29607e-05
9.37713e-05
9.56658e-05
9.83416e-05
0.000100894
9.93459e-05
0.0001011
9.8263e-05
9.7465e-05
9.78081e-05
9.75493e-05
9.81156e-05
9.76996e-05
9.95773e-05
9.87997e-05
9.8848e-05
9.65645e-05
9.31285e-05
9.17347e-05
9.26144e-05
9.60642e-05
0.000102982
0.000116263
0.00013918
0.000166661
0.000232299
0.000369846
0.000439144
0.000421403
0.000349853
0.000254216
0.000180669
0.000137133
0.000117441
0.000108838
0.000104509
0.000101905
0.000100098
9.85682e-05
9.73318e-05
9.6435e-05
9.56994e-05
9.51213e-05
9.51946e-05
9.67718e-05
9.94647e-05
0.000102556
0.000102814
0.000104124
0.00010009
0.000102174
9.91456e-05
9.76225e-05
9.80908e-05
9.77665e-05
9.81092e-05
9.77659e-05
9.9576e-05
9.87655e-05
9.8954e-05
9.6305e-05
9.27683e-05
9.15786e-05
9.25005e-05
9.6129e-05
0.000103465
0.000117023
0.000140274
0.000166582
0.000219483
0.000349124
0.000438801
0.00043471
0.000376607
0.000279959
0.00019933
0.000147143
0.000121887
0.00011111
0.000106147
0.00010354
0.000101933
0.000100798
9.99827e-05
9.94623e-05
9.89891e-05
9.85262e-05
9.82469e-05
9.90002e-05
0.000101137
0.000104019
0.000105469
0.000106404
0.000104177
0.000105845
0.00010148
0.000103833
9.98294e-05
9.77482e-05
9.84768e-05
9.79737e-05
9.80782e-05
9.78128e-05
9.95739e-05
9.87155e-05
9.90391e-05
9.5999e-05
9.25412e-05
9.16569e-05
9.26551e-05
9.66775e-05
0.000104753
0.000119229
0.000142388
0.000167379
0.000212006
0.000329271
0.000435538
0.000443176
0.000400995
0.000305398
0.000219523
0.000158952
0.000127274
0.000113595
0.00010776
0.000105048
0.00010367
0.000103165
0.000103027
0.000103249
0.000103462
0.000103414
0.00010317
0.000102978
0.00010401
0.000105988
0.000107571
0.000108517
0.000107511
0.000108844
0.000106065
0.000108064
0.00010262
0.000105412
0.000100599
9.78406e-05
9.89062e-05
9.81874e-05
9.80341e-05
9.78476e-05
9.95773e-05
9.86647e-05
9.90741e-05
9.56744e-05
9.25045e-05
9.19704e-05
9.31709e-05
9.79362e-05
0.000107603
0.000122932
0.000145366
0.000169388
0.000207693
0.000310543
0.000428148
0.000450518
0.000419149
0.000329186
0.00024046
0.000172734
0.000133667
0.000116379
0.000109261
0.000106324
0.0001052
0.000105445
0.000106277
0.000107699
0.00010914
0.00011011
0.000110472
0.000109925
0.000109053
0.000109704
0.000110008
0.000111617
0.000110366
0.000111764
0.000109944
0.00011167
0.000108048
0.000110438
0.000103791
0.000107019
0.000101506
9.79287e-05
9.94173e-05
9.84451e-05
9.80082e-05
9.78977e-05
9.96009e-05
9.86498e-05
9.89888e-05
9.53877e-05
9.27091e-05
9.24302e-05
9.41977e-05
9.99589e-05
0.000111932
0.000127696
0.000149097
0.000172483
0.000205728
0.000294794
0.000416925
0.000456379
0.000432675
0.000353636
0.000260865
0.000187881
0.000141544
0.000119546
0.00011062
0.000107262
0.000106392
0.000107366
0.000109419
0.000112388
0.000115673
0.000118152
0.000119664
0.000120914
0.000120272
0.000118379
0.000114141
0.000118418
0.000113555
0.000115995
0.000113497
0.000115423
0.000112646
0.000114746
0.00011012
0.000112893
0.000105146
0.000108853
0.000102611
9.80508e-05
0.000100089
9.87867e-05
9.80581e-05
9.80217e-05
9.96557e-05
9.87328e-05
9.88477e-05
9.52582e-05
9.3142e-05
9.31018e-05
9.5795e-05
0.000103358
0.00011775
0.000133565
0.000153386
0.000175845
0.000205906
0.000282641
0.000403798
0.000458233
0.000443707
0.000375477
0.000281042
0.000203749
0.000150726
0.000123326
0.000111874
0.000107799
0.000107001
0.000108659
0.000112055
0.000116708
0.000122386
0.000129916
0.000138921
0.000151445
0.000160386
0.000160438
0.00012722
0.000151125
0.000120573
0.000130494
0.000118367
0.000123868
0.000117297
0.000120972
0.000115561
0.000118805
0.000112321
0.000115555
0.000106741
0.000110762
0.00010394
9.82725e-05
0.000101
9.92419e-05
9.8299e-05
9.83437e-05
9.97932e-05
9.90191e-05
9.87165e-05
9.53438e-05
9.38223e-05
9.42357e-05
9.82932e-05
0.000108784
0.00012483
0.000140092
0.000158065
0.000179114
0.000206754
0.000274383
0.000390259
0.00045736
0.000451018
0.000394717
0.000300179
0.000219835
0.000161048
0.000127862
0.000113229
0.000107991
0.000107063
0.000109081
0.000113671
0.000120216
0.000129499
0.000147491
0.000183694
0.00024271
0.000318223
0.000394282
0.000221583
0.000438092
0.000157278
0.000242011
0.00013619
0.000169919
0.000128225
0.000145056
0.000123898
0.000134145
0.000119951
0.000127026
0.00011471
0.000120288
0.000108246
0.000112794
0.000104926
9.8775e-05
0.000101555
0.000100106
9.88813e-05
9.90474e-05
9.99863e-05
9.96944e-05
9.86734e-05
9.5693e-05
9.47164e-05
9.59688e-05
0.000102129
0.000116238
0.000132559
0.000146765
0.000162684
0.0001822
0.000208398
0.000269132
0.000377928
0.00045454
0.00045516
0.000410852
0.000318221
0.000235523
0.000172189
0.000133273
0.000114906
0.000107984
0.0001068
0.000108958
0.0001141
0.000122338
0.000135789
0.000172861
0.000267773
0.000460053
0.000768395
0.00110267
0.000832049
0.00150291
0.000479271
0.000995562
0.000275614
0.00056189
0.000191321
0.000326584
0.000158522
0.000225359
0.000142169
0.000179318
0.000130707
0.000153703
0.000120091
0.00013509
0.000109827
0.000119118
0.000106348
9.97451e-05
0.000103628
0.000102193
9.97173e-05
0.000100063
0.000100205
0.000100368
9.88514e-05
9.62759e-05
9.57704e-05
9.84978e-05
0.000108046
0.000125626
0.000140726
0.000153085
0.000166916
0.000184897
0.000210159
0.000266307
0.000367629
0.000448876
0.000456654
0.000423073
0.000334366
0.000250593
0.000183713
0.000139493
0.00011707
0.000107939
0.000105889
0.000108171
0.000113863
0.00012296
0.000139034
0.000195906
0.000390034
0.000817845
0.00151111
0.00230634
0.00270939
0.00161546
0.00228935
0.0010988
0.00169218
0.000672818
0.00121163
0.000405695
0.000825285
0.000279771
0.000537912
0.000212797
0.000367938
0.00017067
0.000266799
0.000139851
0.000194184
0.000117083
0.000144482
0.000113994
0.000101652
0.000111467
0.000109164
0.000100691
0.000101707
0.000100433
0.000100961
9.95656e-05
9.71007e-05
9.71803e-05
0.000102268
0.000117137
0.000136371
0.000148972
0.000158722
0.000170504
0.000186995
0.000211821
0.000265038
0.00035969
0.000442408
0.000456593
0.000431059
0.000349041
0.000264614
0.000195447
0.00014647
0.000119639
0.000107966
0.000104624
0.000106346
0.000112594
0.000122696
0.000139522
0.00020387
0.000492127
0.00126413
0.0024531
0.00338408
0.00350642
0.00296179
0.0033799
0.00224789
0.00267817
0.00176747
0.0022691
0.00136488
0.00188949
0.00103403
0.0015799
0.000748562
0.0013083
0.000515215
0.00104775
0.000349458
0.000750618
0.000224966
0.000461192
0.000147778
0.000258058
0.000147833
0.000107163
0.0001446
0.000138007
0.000101897
0.000105562
0.000100631
0.000101602
0.000101859
9.83784e-05
9.92431e-05
0.000107905
0.000128829
0.000147037
0.000156652
0.000163465
0.000173103
0.000188478
0.000213197
0.000265063
0.00035395
0.000436096
0.000455903
0.000435515
0.00036212
0.000277234
0.000206949
0.00015413
0.000122985
0.000108233
0.000103396
0.00010419
0.000109765
0.000121041
0.000138628
0.000202668
0.000518489
0.00160832
0.00336251
0.00428561
0.00424794
0.00359502
0.0040006
0.00326539
0.00352176
0.00267383
0.00298278
0.00234388
0.00270753
0.00208249
0.00249937
0.00186873
0.0023565
0.00165858
0.00222944
0.00140576
0.00206694
0.00104935
0.00180451
0.000586627
0.00135562
0.00028132
0.000689833
0.000287347
0.000129243
0.000280036
0.000256997
0.000104065
0.000119505
0.000100713
0.000102452
0.000112927
0.000101202
0.000102108
0.000116081
0.000142072
0.000157332
0.000163404
0.000167197
0.000174826
0.000189349
0.000214308
0.000265541
0.000350148
0.000430459
0.000454236
0.000437912
0.000372421
0.000288575
0.00021782
0.000162263
0.000126825
0.000109139
0.000102328
0.000101905
0.000106584
0.000117115
0.000135554
0.000195883
0.000507879
0.0016857
0.00396772
0.00477703
0.00479173
0.00428497
0.00469114
0.00384287
0.00420503
0.00347169
0.003775
0.00298806
0.00322591
0.00282257
0.00307026
0.00274257
0.00303149
0.00270453
0.00306371
0.00264863
0.00310883
0.0025103
0.00309599
0.00221375
0.00296527
0.00162956
0.00260644
0.000747109
0.00184072
0.000767481
0.000220057
0.000752096
0.000679196
0.000110409
0.000175035
0.000100697
0.000104219
0.000138333
0.000112695
0.000106373
0.000126419
0.000155252
0.000166315
0.000168932
0.000170131
0.000175982
0.000189886
0.000215273
0.000266604
0.000347842
0.000425785
0.000452046
0.000438779
0.000380089
0.000298155
0.000227839
0.000170699
0.000131438
0.000110466
0.000101636
9.96927e-05
0.000103321
0.000112497
0.000129995
0.000179334
0.000467674
0.00164392
0.004094
0.00501993
0.00495371
0.00491138
0.00458539
0.0048931
0.00414305
0.00454033
0.00378873
0.00414364
0.00328097
0.00350509
0.00324497
0.00343001
0.00332241
0.00351225
0.00344398
0.00369302
0.00355802
0.00391932
0.00360051
0.00413185
0.00348542
0.0042554
0.00303108
0.00413344
0.00200575
0.00351132
0.00211384
0.000546228
0.00212654
0.00189506
0.000134681
0.000381205
0.00010079
0.000110514
0.000152647
0.000116525
0.000136858
0.000165048
0.000174088
0.000173121
0.000172502
0.000177043
0.000190236
0.000216294
0.000268211
0.000346737
0.000422061
0.000449871
0.000438593
0.00038572
0.000305847
0.000236788
0.000179093
0.000136845
0.000112587
0.000101415
9.78693e-05
0.00010017
0.000107756
0.000123919
0.000161686
0.000384022
0.00149526
0.00401276
0.00512981
0.00501827
0.00470943
0.00497804
0.00471649
0.00487488
0.00502271
0.00453913
0.00489939
0.00424222
0.00462122
0.00363862
0.00390647
0.00369079
0.00390114
0.00389826
0.00410405
0.00421398
0.00449398
0.00459681
0.00503647
0.00497543
0.00566359
0.00520635
0.0061902
0.00499731
0.00639875
0.00405028
0.00594937
0.0044961
0.00155421
0.00481607
0.00463616
0.000225987
0.00103219
0.000101347
0.000129614
0.000147672
0.000147056
0.000173545
0.000179057
0.000176835
0.000174433
0.000177822
0.000190489
0.000217115
0.000270168
0.000346439
0.000419262
0.000447838
0.000438065
0.000389403
0.00031196
0.000244421
0.000187339
0.0001429
0.000115462
0.000101678
9.66562e-05
9.74389e-05
0.000103515
0.000117266
0.000147512
0.000301782
0.00120758
0.00373063
0.00519321
0.00510348
0.0044283
0.00416746
0.00358279
0.00487861
0.00424308
0.00510644
0.00508996
0.00498353
0.00523571
0.00484951
0.00519171
0.00417129
0.00449563
0.00435704
0.00464737
0.00478338
0.00509464
0.00545795
0.00585796
0.00628586
0.00691648
0.00716373
0.00810882
0.00782375
0.00915228
0.00786319
0.00968303
0.00696616
0.00933575
0.00780254
0.00395441
0.00831356
0.00838379
0.00632959
0.000482291
0.00255217
0.000102781
0.000172373
0.000179574
0.000177568
0.000184373
0.000179166
0.000175684
0.000178077
0.00019034
0.000217605
0.000271865
0.00034666
0.000417147
0.000446102
0.000437163
0.000391765
0.000316325
0.000250871
0.000194924
0.000149635
0.00011924
0.000102986
9.6252e-05
9.55391e-05
0.000100034
0.000111203
0.000135955
0.000236573
0.000911055
0.00322953
0.00517407
0.00529305
0.0045279
0.00262179
0.00331776
0.00234387
0.00460481
0.00353489
0.00527424
0.00511841
0.00544479
0.00551363
0.00561545
0.00583102
0.00497238
0.00530811
0.00542756
0.00577381
0.00626976
0.00670046
0.00752299
0.00806008
0.00895245
0.00969571
0.010344
0.0113231
0.011315
0.0126784
0.0115076
0.0134076
0.0106396
0.0127821
0.0116461
0.00988399
0.0114017
0.00811552
0.00532371
0.00781567
0.0102154
0.012011
0.0116926
0.0102147
0.00104401
0.00704688
0.0062309
0.00328573
0.00010345
0.000207631
0.000200914
0.000184981
0.000182019
0.000175406
0.000178081
0.000189704
0.000217672
0.000273114
0.000346923
0.000415206
0.000444782
0.000436305
0.000393193
0.000319178
0.000255733
0.000201945
0.00015638
0.000124282
0.000105628
9.66256e-05
9.47467e-05
9.75217e-05
0.00010648
0.000125933
0.000192402
0.000656054
0.00265583
0.00501316
0.00558263
0.00497791
0.00296005
0.00114059
0.0010106
0.00235974
0.00150393
0.00406814
0.00278131
0.00538884
0.0049893
0.00588156
0.00576007
0.00650088
0.00648249
0.0061106
0.00636083
0.00707562
0.00734561
0.00849289
0.00880661
0.0102434
0.0106184
0.0120543
0.0125504
0.0136991
0.0143281
0.0137001
0.0142846
0.0147797
0.0152169
0.013775
0.0147277
0.0152501
0.0161691
0.0154771
0.0134316
0.0127629
0.0140975
0.0145505
0.0132218
0.0100432
0.00963897
0.0121055
0.0138176
0.013576
0.0120985
0.00461
0.0010778
0.00321375
0.00899235
0.00795052
0.000101758
0.0015306
0.000618841
0.000174174
0.000197581
0.000180847
0.000175114
0.000177359
0.000189385
0.000217528
0.000274094
0.000346663
0.000413733
0.000443247
0.000435677
0.000394198
0.000320894
0.000259153
0.000208071
0.000163337
0.000130075
0.000109731
9.85489e-05
9.49191e-05
9.63243e-05
0.000103243
0.000119014
0.000165486
0.000470114
0.00209092
0.0047058
0.0057209
0.00565625
0.00404725
0.00104674
0.00072656
0.000610081
0.0016537
0.00100259
0.00344508
0.00218588
0.00539298
0.00462649
0.00629355
0.00586058
0.00738111
0.00700772
0.00750914
0.00751296
0.00897933
0.0089532
0.010761
0.0107012
0.0127121
0.0125711
0.0145528
0.0144039
0.0155083
0.0157084
0.0157779
0.0157327
0.0157862
0.0161746
0.0164443
0.0155093
0.0163041
0.0166898
0.0174497
0.0169427
0.0152192
0.0145933
0.0157884
0.0162035
0.0150153
0.0119245
0.0115478
0.0139425
0.0153336
0.0155603
0.0139376
0.00653442
0.00459293
0.0108898
0.0098662
0.000213575
0.000101361
0.00011662
0.0024994
0.00100722
0.000184872
0.000173015
0.00017696
0.000188639
0.000217908
0.0002745
0.000346254
0.000410687
0.000441977
0.000434883
0.000394881
0.000321833
0.000260889
0.000213288
0.000170426
0.000136922
0.000115511
0.000103203
9.66602e-05
9.64288e-05
0.000102014
0.00011602
0.000152294
0.000354934
0.00160731
0.00426548
0.00570729
0.00627612
0.00528696
0.00197944
0.000505835
0.000563737
0.000584654
0.000511339
0.00127412
0.000791092
0.00287987
0.00177792
0.00514256
0.00411052
0.00643221
0.0056768
0.00779419
0.00710597
0.00878358
0.0083887
0.0104244
0.00992447
0.0121604
0.0115487
0.0139332
0.0132707
0.0155798
0.0153039
0.0149763
0.0145603
0.0165666
0.0165594
0.0164096
0.0161488
0.0170565
0.0172596
0.0172905
0.0170131
0.0176479
0.0177796
0.0183645
0.0181088
0.0167921
0.0162639
0.0172975
0.0176166
0.0166386
0.0137836
0.0134243
0.0156818
0.0169246
0.0171313
0.0156902
0.00838109
0.00639567
0.0127867
0.0117739
0.000326549
0.000101536
0.000133864
0.00385964
0.00168461
0.000175493
0.0001753
0.000188862
0.000218465
0.000275646
0.000344452
0.000408485
0.000439054
0.000434132
0.000395274
0.000322399
0.000261256
0.000216805
0.00017741
0.000144798
0.000123399
0.000110247
0.000101962
9.85964e-05
0.000102716
0.000116202
0.000150158
0.000305075
0.00127288
0.00376331
0.00556974
0.00671926
0.0063703
0.00335461
0.000646045
0.000457008
0.000447656
0.000536693
0.0004733
0.0010548
0.000693382
0.00234073
0.00142855
0.00468692
0.0035111
0.00623794
0.00517633
0.0077345
0.00668737
0.00930551
0.00859025
0.0108558
0.0100388
0.0124123
0.0114188
0.0140868
0.0135595
0.0130161
0.0124363
0.0157909
0.0153407
0.0148205
0.0142316
0.0171711
0.0169186
0.0165444
0.0160604
0.0179135
0.0178525
0.0176182
0.0182505
0.0186663
0.0184125
0.0187689
0.0188313
0.0181252
0.0177106
0.0185466
0.0187471
0.0180369
0.0155626
0.0152351
0.0172501
0.0182863
0.018473
0.0172807
0.0102823
0.00819361
0.0146262
0.0136386
0.000598111
0.00010277
0.000204423
0.0054536
0.00267074
0.000178754
0.000188669
0.000220113
0.000276322
0.000343558
0.000403115
0.000436306
0.000432247
0.000395298
0.000322793
0.00026109
0.000218585
0.000183264
0.000153523
0.000133635
0.000120124
0.000111376
0.000105576
0.000108178
0.000121787
0.000156668
0.00030234
0.00113076
0.00331953
0.00523451
0.00690946
0.00724718
0.00486108
0.00111439
0.000443466
0.000472707
0.000442542
0.000439033
0.000522698
0.000464233
0.000905512
0.00064874
0.00179298
0.00119295
0.00399395
0.00277737
0.00550477
0.00422601
0.00676794
0.00546539
0.00908817
0.0079899
0.0102566
0.00891599
0.0111104
0.00954086
0.013599
0.0129252
0.012242
0.0115754
0.0154883
0.0148391
0.0141319
0.0133717
0.0172349
0.0167271
0.0161108
0.015401
0.0182448
0.017881
0.0173653
0.0190966
0.0191784
0.0184751
0.018578
0.0189911
0.0191435
0.0188876
0.0194371
0.0194152
0.0191494
0.0171893
0.0169157
0.0185946
0.0193486
0.0194929
0.018651
0.0121545
0.0100586
0.016374
0.0154806
0.00122454
0.000114746
0.000636335
0.00730642
0.00441566
0.000194642
0.000221844
0.000277254
0.000341022
0.000398793
0.000430057
0.000430024
0.000395315
0.000323433
0.000260495
0.000218779
0.000187944
0.000162603
0.000146592
0.000134047
0.00012471
0.000122007
0.000127576
0.000146974
0.000191217
0.000338819
0.0011242
0.00310328
0.00489131
0.00693346
0.00792594
0.00619422
0.00187704
0.000501926
0.000436937
0.000436705
0.000442695
0.000436112
0.000527125
0.00046839
0.000846756
0.000640071
0.0015669
0.00114334
0.0030446
0.00216909
0.00427918
0.00336218
0.00526362
0.00451256
0.00750214
0.00624772
0.00794496
0.00656206
0.00912086
0.00830282
0.00692453
0.00756611
0.0125782
0.0117533
0.0109033
0.0100204
0.0146127
0.0137612
0.0128599
0.0119227
0.0167159
0.0159461
0.0150725
0.0141191
0.0179912
0.0173282
0.0164993
0.0194036
0.0190999
0.0179482
0.0177336
0.0185534
0.0196376
0.0196465
0.0197715
0.0195126
0.0197809
0.018612
0.018431
0.0195926
0.0198815
0.0199593
0.0196582
0.0141327
0.0122209
0.0180333
0.0173223
0.00286522
0.000219384
0.00285432
0.00970959
0.00727745
0.000231528
0.000278185
0.000338353
0.000391509
0.000423229
0.000425045
0.000395177
0.000324492
0.000260392
0.000218578
0.000190714
0.000171816
0.000160863
0.000154404
0.000149886
0.00016111
0.000189047
0.000237493
0.000314295
0.000493226
0.00122191
0.00306415
0.00470691
0.0068778
0.00842634
0.00730761
0.00290789
0.000677503
0.000436301
0.000441119
0.000435872
0.000435176
0.000464566
0.000442835
0.00058575
0.000509763
0.000868714
0.000698899
0.00164272
0.00134864
0.00263972
0.00206542
0.00385978
0.0033385
0.00500562
0.00478114
0.00585528
0.00538024
0.00648032
0.00610359
0.00590694
0.00749438
0.00692261
0.00629113
0.00654025
0.0109705
0.0100226
0.00909993
0.00823799
0.0131062
0.0120549
0.0109925
0.0099565
0.0155375
0.0144742
0.0133379
0.012159
0.0170971
0.0160506
0.0148629
0.0191043
0.0183816
0.0166442
0.0159532
0.0173234
0.019543
0.0198305
0.0194999
0.0189924
0.0198288
0.0196737
0.0195991
0.0200352
0.0198328
0.0198565
0.0201202
0.0162067
0.0146056
0.0193624
0.0188728
0.00661462
0.000753796
0.00779674
0.0125723
0.0108528
0.000284601
0.000334926
0.000384101
0.000414663
0.000419313
0.000394063
0.000327217
0.000260889
0.000218165
0.00019245
0.000180695
0.000177772
0.000183649
0.000203747
0.000267464
0.000384763
0.000537436
0.000698421
0.0009506
0.00161394
0.00310911
0.00468309
0.00685601
0.00882323
0.00818923
0.00396726
0.00093399
0.000434796
0.000430442
0.00042279
0.000448043
0.000435698
0.000532565
0.000476419
0.000758687
0.000625496
0.00112232
0.000927086
0.00241311
0.00212712
0.00295943
0.00267792
0.00474002
0.00473295
0.006598
0.0069884
0.00593686
0.00618467
0.00612113
0.00601589
0.00694275
0.00723553
0.00661145
0.00642904
0.00638297
0.00636303
0.00899093
0.00813432
0.00742741
0.00692786
0.0109837
0.00986639
0.00886319
0.00802206
0.0135873
0.0122676
0.010976
0.00978403
0.015344
0.0139142
0.0124363
0.0180512
0.0167009
0.0143881
0.0132937
0.0150546
0.0187652
0.0193872
0.0184406
0.0175556
0.0192471
0.020198
0.020207
0.0199323
0.0191518
0.0191433
0.0200783
0.0180612
0.0167823
0.0201456
0.0198948
0.0108687
0.0117239
0.0127384
0.0151186
0.0139121
0.000335898
0.000374586
0.000404071
0.000412209
0.000392079
0.000329676
0.000263092
0.000218271
0.000193455
0.000188884
0.000197776
0.000231079
0.000330466
0.000566528
0.000963514
0.00141642
0.00180607
0.00215017
0.00256806
0.00333001
0.00473398
0.00690594
0.00912886
0.00885368
0.00490454
0.00123112
0.000456236
0.000410959
0.00040183
0.000430605
0.000416395
0.000487289
0.000449031
0.000693877
0.000562243
0.00116116
0.00089423
0.00180813
0.00147571
0.00415894
0.00370385
0.00466685
0.00449076
0.00736078
0.00752787
0.00939174
0.00983661
0.00749778
0.00783569
0.00877409
0.0065039
0.00668859
0.0080482
0.00835935
0.00655592
0.00666246
0.00712569
0.00686196
0.00737722
0.00693704
0.00666902
0.00655883
0.00876178
0.00795108
0.00735936
0.00695935
0.0110239
0.00977107
0.00874909
0.0079745
0.0127534
0.0112097
0.00989114
0.0159154
0.0140902
0.0116164
0.0107321
0.0122811
0.0169552
0.0180703
0.0163743
0.0151364
0.0177733
0.0202657
0.020437
0.0192866
0.0176289
0.0177
0.0195833
0.0193324
0.0182665
0.0204987
0.0203642
0.0143024
0.0213199
0.0169087
0.0167481
0.0157575
0.000368145
0.000392855
0.000401767
0.000388732
0.000333232
0.000266957
0.000219305
0.00019454
0.000195794
0.000219879
0.000312032
0.000611531
0.00132409
0.00238105
0.00327129
0.00364293
0.00365812
0.00363648
0.00386178
0.00492982
0.00708278
0.00938578
0.00932141
0.00562241
0.00152542
0.00049177
0.000377255
0.000401635
0.000384097
0.000440448
0.000416864
0.000579371
0.000486365
0.00104619
0.000755719
0.0019822
0.00146117
0.00315818
0.00256652
0.0067689
0.00609305
0.007472
0.00725363
0.0102508
0.0104518
0.010695
0.0110184
0.0118001
0.00864777
0.00884927
0.010503
0.0102015
0.00742447
0.00773467
0.00906469
0.00936955
0.00713993
0.00743261
0.0080908
0.00775422
0.00675667
0.0067044
0.0067417
0.00689891
0.00742568
0.00706477
0.00691814
0.0068911
0.00885846
0.00810366
0.00758557
0.00728607
0.0101966
0.00911377
0.00835528
0.01323
0.0115256
0.00955595
0.00928794
0.0101964
0.0144713
0.015966
0.014019
0.0126165
0.0157525
0.019948
0.0202914
0.0179996
0.015762
0.0160155
0.0184906
0.0199171
0.0188728
0.0204821