/*--------------------------------*- C++ -*----------------------------------*\
  =========                 |
  \\      /  F ield         | OpenFOAM: The Open Source CFD Toolbox
   \\    /   O peration     | Website:  https://openfoam.org
    \\  /    A nd           | Version:  dev
     \\/     M anipulation  |
\*---------------------------------------------------------------------------*/
FoamFile
{
    version     2.0;
    format      ascii;
    class       volScalarField;
    location    "2500";
    object      N2;
}
// * * * * * * * * * * * * * * * * * * * * * * * * * * * * * * * * * * * * * //

dimensions      [0 0 0 0 0 0 0];

internalField   nonuniform List<scalar> 
9841
(
0.76699
0.76699
0.76699
0.76699
0.76699
0.76699
0.76699
0.76699
0.76699
0.76699
0.76699
0.76699
0.76699
0.76699
0.76699
0.76699
0.76699
0.76699
0.76699
0.76699
0.76699
0.76699
0.76699
0.76699
0.76699
0.76699
0.76699
0.76699
0.76699
0.76699
0.76699
0.76699
0.76699
0.76699
0.76699
0.76699
0.76699
0.76699
0.76699
0.76699
0.76699
0.76699
0.76699
0.76699
0.76699
0.76699
0.76699
0.76699
0.76699
0.76699
0.76699
0.76699
0.76699
0.76699
0.76699
0.76699
0.76699
0.76699
0.76699
0.76699
0.76699
0.76699
0.76699
0.76699
0.76699
0.76699
0.76699
0.76699
0.76699
0.76699
0.76699
0.76699
0.76699
0.76699
0.76699
0.76699
0.76699
0.76699
0.76699
0.76699
0.76699
0.76699
0.76699
0.76699
0.76699
0.76699
0.76699
0.76699
0.76699
0.76699
0.76699
0.76699
0.76699
0.76699
0.76699
0.76699
0.76699
0.76699
0.76699
0.76699
0.76699
0.76699
0.76699
0.76699
0.76699
0.76699
0.76699
0.76699
0.76699
0.76699
0.76699
0.76699
0.76699
0.76699
0.76699
0.76699
0.76699
0.76699
0.76699
0.76699
0.76699
0.76699
0.76699
0.76699
0.76699
0.76699
0.76699
0.76699
0.76699
0.76699
0.76699
0.76699
0.76699
0.76699
0.76699
0.76699
0.76699
0.76699
0.76699
0.76699
0.76699
0.76699
0.76699
0.76699
0.76699
0.76699
0.76699
0.76699
0.76699
0.76699
0.76699
0.76699
0.76699
0.76699
0.76699
0.76699
0.76699
0.76699
0.76699
0.76699
0.76699
0.76699
0.76699
0.76699
0.76699
0.76699
0.76699
0.76699
0.76699
0.76699
0.76699
0.76699
0.76699
0.76699
0.76699
0.76699
0.76699
0.76699
0.76699
0.76699
0.76699
0.76699
0.76699
0.76699
0.76699
0.76699
0.76699
0.76699
0.76699
0.76699
0.76699
0.76699
0.76699
0.76699
0.76699
0.76699
0.76699
0.76699
0.76699
0.76699
0.76699
0.76699
0.76699
0.76699
0.76699
0.76699
0.76699
0.76699
0.76699
0.76699
0.76699
0.76699
0.76699
0.76699
0.76699
0.76699
0.76699
0.76699
0.76699
0.76699
0.76699
0.76699
0.76699
0.76699
0.76699
0.76699
0.76699
0.76699
0.76699
0.76699
0.76699
0.76699
0.76699
0.76699
0.76699
0.76699
0.76699
0.76699
0.76699
0.76699
0.76699
0.76699
0.76699
0.76699
0.76699
0.76699
0.76699
0.76699
0.76699
0.76699
0.76699
0.76699
0.76699
0.76699
0.76699
0.76699
0.76699
0.76699
0.76699
0.76699
0.76699
0.76699
0.76699
0.76699
0.76699
0.76699
0.76699
0.76699
0.76699
0.76699
0.76699
0.76699
0.76699
0.76699
0.76699
0.76699
0.76699
0.76699
0.76699
0.76699
0.76699
0.76699
0.76699
0.76699
0.76699
0.76699
0.76699
0.76699
0.76699
0.76699
0.76699
0.76699
0.76699
0.76699
0.76699
0.76699
0.76699
0.76699
0.76699
0.76699
0.76699
0.76699
0.76699
0.76699
0.76699
0.76699
0.76699
0.76699
0.76699
0.76699
0.76699
0.76699
0.76699
0.76699
0.76699
0.76699
0.76699
0.76699
0.76699
0.76699
0.76699
0.76699
0.76699
0.76699
0.76699
0.76699
0.76699
0.76699
0.76699
0.76699
0.76699
0.76699
0.76699
0.76699
0.76699
0.76699
0.76699
0.76699
0.76699
0.76699
0.76699
0.76699
0.76699
0.76699
0.76699
0.76699
0.76699
0.76699
0.76699
0.76699
0.76699
0.76699
0.76699
0.76699
0.76699
0.76699
0.76699
0.76699
0.76699
0.76699
0.76699
0.76699
0.76699
0.76699
0.76699
0.76699
0.76699
0.76699
0.76699
0.76699
0.76699
0.76699
0.76699
0.76699
0.76699
0.76699
0.76699
0.76699
0.76699
0.76699
0.76699
0.76699
0.76699
0.76699
0.76699
0.76699
0.76699
0.76699
0.76699
0.76699
0.76699
0.76699
0.76699
0.76699
0.76699
0.76699
0.76699
0.76699
0.76699
0.76699
0.76699
0.76699
0.76699
0.76699
0.76699
0.76699
0.76699
0.76699
0.76699
0.76699
0.76699
0.76699
0.76699
0.76699
0.76699
0.76699
0.76699
0.76699
0.76699
0.76699
0.76699
0.76699
0.76699
0.76699
0.76699
0.76699
0.76699
0.76699
0.76699
0.76699
0.76699
0.76699
0.76699
0.76699
0.76699
0.76699
0.76699
0.76699
0.76699
0.76699
0.76699
0.76699
0.76699
0.76699
0.76699
0.76699
0.76699
0.76699
0.76699
0.76699
0.76699
0.76699
0.76699
0.76699
0.76699
0.76699
0.76699
0.76699
0.76699
0.76699
0.76699
0.76699
0.76699
0.76699
0.76699
0.76699
0.76699
0.76699
0.76699
0.76699
0.76699
0.76699
0.76699
0.76699
0.76699
0.76699
0.76699
0.76699
0.76699
0.76699
0.76699
0.76699
0.76699
0.76699
0.76699
0.76699
0.76699
0.76699
0.76699
0.76699
0.76699
0.76699
0.76699
0.76699
0.76699
0.76699
0.76699
0.76699
0.76699
0.76699
0.76699
0.76699
0.76699
0.76699
0.76699
0.76699
0.76699
0.76699
0.76699
0.76699
0.76699
0.76699
0.76699
0.76699
0.76699
0.76699
0.76699
0.76699
0.76699
0.76699
0.76699
0.76699
0.76699
0.76699
0.76699
0.76699
0.76699
0.76699
0.76699
0.76699
0.76699
0.76699
0.76699
0.76699
0.76699
0.76699
0.76699
0.76699
0.76699
0.76699
0.76699
0.76699
0.76699
0.76699
0.76699
0.76699
0.76699
0.76699
0.76699
0.76699
0.76699
0.76699
0.76699
0.76699
0.76699
0.76699
0.76699
0.76699
0.76699
0.76699
0.76699
0.76699
0.76699
0.76699
0.76699
0.76699
0.76699
0.76699
0.76699
0.76699
0.76699
0.76699
0.76699
0.76699
0.76699
0.76699
0.76699
0.76699
0.76699
0.76699
0.76699
0.76699
0.76699
0.76699
0.76699
0.76699
0.76699
0.76699
0.76699
0.76699
0.76699
0.76699
0.76699
0.76699
0.76699
0.76699
0.76699
0.76699
0.76699
0.76699
0.76699
0.76699
0.76699
0.76699
0.76699
0.76699
0.76699
0.76699
0.76699
0.76699
0.76699
0.76699
0.76699
0.76699
0.76699
0.76699
0.76699
0.76699
0.76699
0.76699
0.76699
0.76699
0.76699
0.76699
0.76699
0.76699
0.76699
0.76699
0.76699
0.76699
0.76699
0.76699
0.76699
0.76699
0.76699
0.76699
0.76699
0.76699
0.76699
0.76699
0.76699
0.76699
0.76699
0.76699
0.76699
0.76699
0.76699
0.76699
0.76699
0.76699
0.76699
0.76699
0.76699
0.76699
0.76699
0.76699
0.76699
0.76699
0.76699
0.76699
0.76699
0.76699
0.76699
0.76699
0.76699
0.76699
0.76699
0.76699
0.76699
0.76699
0.76699
0.76699
0.76699
0.76699
0.76699
0.76699
0.76699
0.76699
0.76699
0.76699
0.76699
0.76699
0.76699
0.76699
0.76699
0.76699
0.76699
0.76699
0.76699
0.76699
0.76699
0.76699
0.76699
0.76699
0.76699
0.76699
0.76699
0.76699
0.76699
0.76699
0.76699
0.76699
0.76699
0.76699
0.76699
0.76699
0.76699
0.76699
0.76699
0.76699
0.76699
0.76699
0.76699
0.76699
0.76699
0.76699
0.76699
0.76699
0.76699
0.76699
0.76699
0.76699
0.76699
0.76699
0.76699
0.76699
0.76699
0.76699
0.76699
0.76699
0.76699
0.76699
0.76699
0.76699
0.76699
0.76699
0.76699
0.76699
0.76699
0.76699
0.76699
0.76699
0.76699
0.76699
0.76699
0.76699
0.76699
0.76699
0.76699
0.76699
0.76699
0.76699
0.76699
0.76699
0.76699
0.76699
0.76699
0.76699
0.76699
0.76699
0.76699
0.76699
0.76699
0.76699
0.76699
0.76699
0.76699
0.76699
0.76699
0.76699
0.76699
0.76699
0.76699
0.76699
0.76699
0.76699
0.76699
0.76699
0.76699
0.76699
0.76699
0.76699
0.76699
0.76699
0.76699
0.76699
0.76699
0.76699
0.76699
0.76699
0.76699
0.76699
0.76699
0.76699
0.76699
0.76699
0.76699
0.76699
0.76699
0.76699
0.76699
0.76699
0.76699
0.76699
0.76699
0.76699
0.76699
0.76699
0.76699
0.76699
0.76699
0.76699
0.76699
0.76699
0.76699
0.76699
0.76699
0.76699
0.76699
0.76699
0.76699
0.76699
0.76699
0.76699
0.76699
0.76699
0.76699
0.76699
0.76699
0.76699
0.76699
0.76699
0.76699
0.76699
0.76699
0.76699
0.76699
0.76699
0.76699
0.76699
0.76699
0.76699
0.76699
0.76699
0.76699
0.76699
0.76699
0.76699
0.76699
0.76699
0.76699
0.76699
0.76699
0.76699
0.76699
0.76699
0.76699
0.76699
0.76699
0.76699
0.76699
0.76699
0.76699
0.76699
0.76699
0.76699
0.76699
0.76699
0.76699
0.76699
0.76699
0.76699
0.76699
0.76699
0.76699
0.76699
0.76699
0.76699
0.76699
0.76699
0.76699
0.76699
0.76699
0.76699
0.76699
0.76699
0.76699
0.76699
0.76699
0.76699
0.76699
0.76699
0.76699
0.76699
0.76699
0.76699
0.76699
0.76699
0.76699
0.76699
0.76699
0.76699
0.76699
0.76699
0.76699
0.76699
0.76699
0.76699
0.76699
0.76699
0.76699
0.76699
0.76699
0.76699
0.76699
0.76699
0.76699
0.76699
0.76699
0.76699
0.76699
0.76699
0.76699
0.76699
0.76699
0.76699
0.76699
0.76699
0.76699
0.76699
0.76699
0.76699
0.76699
0.76699
0.76699
0.76699
0.76699
0.76699
0.76699
0.76699
0.76699
0.76699
0.76699
0.76699
0.76699
0.76699
0.76699
0.76699
0.76699
0.76699
0.76699
0.76699
0.76699
0.76699
0.76699
0.76699
0.76699
0.76699
0.76699
0.76699
0.76699
0.76699
0.76699
0.76699
0.76699
0.76699
0.76699
0.76699
0.76699
0.76699
0.76699
0.76699
0.76699
0.76699
0.76699
0.76699
0.76699
0.76699
0.76699
0.76699
0.76699
0.76699
0.76699
0.76699
0.766989
0.766988
0.766987
0.766987
0.766989
0.766987
0.766989
0.766989
0.76699
0.766989
0.76699
0.76699
0.76699
0.76699
0.76699
0.76699
0.76699
0.76699
0.76699
0.76699
0.76699
0.76699
0.76699
0.76699
0.76699
0.76699
0.76699
0.76699
0.76699
0.76699
0.76699
0.76699
0.76699
0.76699
0.76699
0.76699
0.76699
0.76699
0.76699
0.76699
0.76699
0.76699
0.76699
0.76699
0.76699
0.76699
0.76699
0.76699
0.76699
0.76699
0.76699
0.76699
0.76699
0.766989
0.766988
0.766983
0.766976
0.766969
0.76698
0.766962
0.766986
0.766978
0.766988
0.766985
0.766989
0.766988
0.76699
0.766989
0.76699
0.766989
0.76699
0.76699
0.76699
0.76699
0.76699
0.76699
0.76699
0.76699
0.76699
0.76699
0.76699
0.76699
0.76699
0.76699
0.76699
0.76699
0.76699
0.76699
0.76699
0.76699
0.76699
0.76699
0.76699
0.76699
0.76699
0.76699
0.76699
0.76699
0.76699
0.76699
0.76699
0.76699
0.76699
0.76699
0.76699
0.76699
0.76699
0.76699
0.76699
0.766989
0.766984
0.76697
0.766943
0.766911
0.766927
0.766881
0.766957
0.766912
0.766975
0.766949
0.766983
0.766971
0.766987
0.766981
0.766988
0.766985
0.766989
0.766987
0.76699
0.766989
0.76699
0.766989
0.76699
0.76699
0.76699
0.76699
0.76699
0.76699
0.76699
0.76699
0.76699
0.76699
0.76699
0.76699
0.76699
0.76699
0.76699
0.76699
0.76699
0.76699
0.76699
0.76699
0.76699
0.76699
0.76699
0.76699
0.76699
0.76699
0.76699
0.76699
0.76699
0.76699
0.76699
0.76699
0.76699
0.76699
0.76699
0.766988
0.766978
0.76695
0.766894
0.766812
0.766737
0.76686
0.76678
0.766903
0.766844
0.766941
0.766892
0.766965
0.76693
0.766977
0.766957
0.766983
0.766971
0.766986
0.766979
0.766988
0.766984
0.766989
0.766987
0.766989
0.76699
0.766989
0.766989
0.76699
0.76699
0.76699
0.76699
0.76699
0.76699
0.76699
0.76699
0.76699
0.76699
0.76699
0.76699
0.76699
0.76699
0.76699
0.76699
0.76699
0.76699
0.76699
0.76699
0.76699
0.76699
0.76699
0.76699
0.76699
0.76699
0.76699
0.76699
0.76699
0.76699
0.76699
0.766988
0.766975
0.766928
0.766839
0.766721
0.766617
0.766644
0.766567
0.766778
0.766707
0.766834
0.766766
0.766881
0.766822
0.766916
0.766865
0.766942
0.766897
0.766961
0.766922
0.766973
0.766945
0.766982
0.766965
0.766987
0.766979
0.766986
0.766989
0.766986
0.766987
0.76699
0.76699
0.76699
0.76699
0.76699
0.76699
0.76699
0.76699
0.76699
0.76699
0.76699
0.76699
0.76699
0.76699
0.76699
0.76699
0.76699
0.76699
0.76699
0.76699
0.76699
0.76699
0.76699
0.76699
0.76699
0.76699
0.76699
0.76699
0.76699
0.76699
0.76699
0.766988
0.766975
0.766917
0.766789
0.766643
0.766514
0.766512
0.766455
0.766549
0.766483
0.766694
0.766621
0.766755
0.766682
0.766806
0.76674
0.766843
0.766782
0.76687
0.766811
0.766894
0.766834
0.766922
0.766859
0.766955
0.766896
0.766976
0.766945
0.766975
0.766988
0.766976
0.766978
0.76699
0.766989
0.76699
0.76699
0.76699
0.76699
0.76699
0.76699
0.76699
0.76699
0.76699
0.76699
0.76699
0.76699
0.76699
0.76699
0.76699
0.76699
0.76699
0.76699
0.76699
0.76699
0.76699
0.76699
0.76699
0.76699
0.76699
0.76699
0.76699
0.76699
0.76699
0.766989
0.766976
0.766917
0.766763
0.766605
0.766493
0.766424
0.766409
0.766426
0.766385
0.766463
0.7664
0.766607
0.766533
0.766669
0.766593
0.766716
0.766646
0.766747
0.76668
0.766769
0.766701
0.766788
0.766715
0.766818
0.766735
0.766871
0.766775
0.766939
0.766849
0.766936
0.766981
0.766938
0.766946
0.766989
0.766985
0.76699
0.76699
0.76699
0.76699
0.76699
0.76699
0.76699
0.76699
0.76699
0.76699
0.76699
0.76699
0.76699
0.76699
0.76699
0.76699
0.76699
0.76699
0.76699
0.76699
0.76699
0.76699
0.76699
0.76699
0.76699
0.76699
0.76699
0.76699
0.76699
0.766989
0.766979
0.76692
0.766765
0.766618
0.76653
0.766432
0.766366
0.766362
0.766352
0.766324
0.766379
0.766324
0.766517
0.766445
0.766573
0.766498
0.766611
0.76654
0.766631
0.766562
0.766641
0.766568
0.766652
0.766572
0.766678
0.766584
0.766734
0.766621
0.766834
0.766699
0.766829
0.766959
0.766837
0.766864
0.766988
0.766973
0.76699
0.76699
0.76699
0.76699
0.76699
0.76699
0.76699
0.76699
0.76699
0.76699
0.76699
0.76699
0.76699
0.76699
0.76699
0.76699
0.76699
0.76699
0.76699
0.76699
0.76699
0.76699
0.76699
0.76699
0.76699
0.76699
0.76699
0.76699
0.76699
0.766983
0.766931
0.766776
0.766645
0.766593
0.766557
0.766392
0.766508
0.766322
0.766339
0.766287
0.766275
0.766299
0.766254
0.766425
0.766357
0.766468
0.766396
0.766492
0.766423
0.766498
0.76643
0.766495
0.766425
0.766498
0.766421
0.766519
0.766431
0.766573
0.766465
0.766675
0.766537
0.766665
0.7669
0.766674
0.766714
0.766984
0.76694
0.76699
0.766989
0.76699
0.76699
0.76699
0.76699
0.76699
0.76699
0.76699
0.76699
0.76699
0.76699
0.76699
0.76699
0.76699
0.76699
0.76699
0.76699
0.76699
0.76699
0.76699
0.76699
0.76699
0.76699
0.76699
0.76699
0.76699
0.76699
0.766986
0.766948
0.766799
0.766666
0.766635
0.766676
0.766613
0.766727
0.766427
0.766563
0.766282
0.766326
0.766231
0.766231
0.766222
0.766191
0.766329
0.76627
0.766355
0.766292
0.766365
0.766303
0.76636
0.7663
0.766353
0.766292
0.766355
0.766292
0.766377
0.766306
0.766427
0.766342
0.766518
0.766405
0.766516
0.766781
0.766536
0.766571
0.766662
0.766973
0.766877
0.76699
0.766988
0.76699
0.76699
0.76699
0.76699
0.76699
0.76699
0.76699
0.76699
0.76699
0.76699
0.76699
0.76699
0.76699
0.76699
0.76699
0.76699
0.76699
0.76699
0.76699
0.76699
0.76699
0.76699
0.76699
0.76699
0.76699
0.766988
0.766963
0.766837
0.766683
0.766657
0.766729
0.766877
0.766703
0.766833
0.766468
0.76663
0.766258
0.766334
0.766182
0.766198
0.766153
0.766138
0.766235
0.766188
0.766245
0.766193
0.766245
0.766194
0.766239
0.76619
0.766237
0.766189
0.766247
0.766198
0.766274
0.76622
0.766322
0.766259
0.766401
0.766321
0.766357
0.766465
0.766411
0.766603
0.766743
0.766636
0.766498
0.766435
0.766424
0.766519
0.766956
0.766687
0.766744
0.766864
0.76699
0.766988
0.76699
0.76699
0.76699
0.76699
0.76699
0.76699
0.76699
0.76699
0.76699
0.76699
0.76699
0.76699
0.76699
0.76699
0.76699
0.76699
0.76699
0.76699
0.76699
0.76699
0.76699
0.76699
0.76699
0.76699
0.766989
0.766974
0.766877
0.766703
0.766667
0.766736
0.766892
0.766936
0.766963
0.766785
0.766891
0.766518
0.766697
0.766249
0.766361
0.766149
0.766186
0.766103
0.766112
0.766148
0.766115
0.766147
0.766107
0.766146
0.766106
0.766146
0.766108
0.766155
0.766115
0.766174
0.766133
0.766234
0.76621
0.766187
0.766165
0.766289
0.766259
0.766208
0.766208
0.766233
0.766324
0.766367
0.766328
0.76629
0.766375
0.766547
0.766584
0.766452
0.766399
0.766386
0.766474
0.766824
0.766962
0.766891
0.766633
0.766696
0.76699
0.766951
0.76698
0.766989
0.76699
0.76699
0.76699
0.76699
0.76699
0.76699
0.76699
0.76699
0.76699
0.76699
0.76699
0.76699
0.76699
0.76699
0.76699
0.76699
0.76699
0.76699
0.76699
0.76699
0.76699
0.76699
0.76699
0.766989
0.766981
0.766911
0.766732
0.766673
0.766728
0.766875
0.766969
0.766965
0.766978
0.766846
0.76693
0.76658
0.766757
0.76627
0.766406
0.766142
0.766209
0.766084
0.766113
0.766081
0.766076
0.766073
0.766056
0.766073
0.76605
0.76608
0.766054
0.766097
0.766068
0.766145
0.766126
0.766108
0.766093
0.766184
0.766163
0.766142
0.766261
0.766235
0.766185
0.766188
0.766211
0.766295
0.766335
0.766302
0.766266
0.766345
0.766502
0.766539
0.766416
0.766357
0.766372
0.766438
0.76677
0.766856
0.766587
0.766648
0.766988
0.76699
0.76699
0.766932
0.766973
0.76699
0.76699
0.76699
0.76699
0.76699
0.76699
0.76699
0.76699
0.76699
0.76699
0.76699
0.76699
0.76699
0.76699
0.76699
0.76699
0.76699
0.76699
0.76699
0.76699
0.76699
0.76699
0.76699
0.766985
0.766937
0.766771
0.766678
0.766709
0.766834
0.766949
0.766985
0.766984
0.766975
0.766984
0.766883
0.766949
0.766654
0.766811
0.766323
0.766477
0.766177
0.766282
0.766106
0.766178
0.766057
0.76607
0.766042
0.766047
0.766039
0.766037
0.766048
0.76604
0.76608
0.76607
0.766063
0.766061
0.766124
0.766108
0.766094
0.766083
0.766163
0.766143
0.766126
0.76624
0.766216
0.766167
0.766174
0.766194
0.766274
0.766312
0.766283
0.766248
0.766323
0.766465
0.7665
0.766389
0.766337
0.766352
0.76641
0.766724
0.766812
0.766546
0.766605
0.766987
0.76699
0.76699
0.766903
0.766963
0.76699
0.76699
0.76699
0.76699
0.76699
0.76699
0.76699
0.76699
0.76699
0.76699
0.76699
0.76699
0.76699
0.76699
0.76699
0.76699
0.76699
0.76699
0.76699
0.76699
0.76699
0.766989
0.766986
0.766953
0.766812
0.766686
0.766691
0.766789
0.766909
0.766982
0.766988
0.766988
0.76698
0.766986
0.766912
0.766961
0.766746
0.766873
0.766419
0.766583
0.766282
0.766414
0.766212
0.766326
0.766071
0.766124
0.766054
0.766098
0.766053
0.766093
0.766063
0.766071
0.766083
0.766105
0.766077
0.766074
0.766076
0.766085
0.766112
0.766101
0.766094
0.766091
0.766149
0.766133
0.766121
0.766225
0.766204
0.766158
0.766171
0.766185
0.766258
0.766295
0.766271
0.766236
0.766309
0.766435
0.766468
0.766369
0.766323
0.766339
0.766389
0.766679
0.766769
0.76651
0.766566
0.766986
0.76699
0.766989
0.766871
0.766951
0.76699
0.76699
0.76699
0.76699
0.76699
0.76699
0.76699
0.76699
0.76699
0.76699
0.76699
0.76699
0.76699
0.76699
0.76699
0.76699
0.76699
0.76699
0.76699
0.76699
0.766989
0.766986
0.76696
0.766844
0.766699
0.766678
0.766751
0.766865
0.766968
0.766989
0.766988
0.766988
0.766989
0.766982
0.766986
0.766943
0.766972
0.766854
0.766926
0.766565
0.766725
0.766461
0.766608
0.766415
0.766547
0.766177
0.766284
0.766169
0.766283
0.766184
0.766292
0.766099
0.76612
0.766146
0.766175
0.766094
0.766103
0.766118
0.76614
0.766114
0.766111
0.766114
0.766123
0.766145
0.766136
0.766133
0.766216
0.7662
0.766161
0.766182
0.766188
0.766249
0.766285
0.766264
0.766231
0.7663
0.766412
0.766441
0.766355
0.766316
0.766331
0.766373
0.766637
0.766727
0.766478
0.766528
0.766981
0.76699
0.766988
0.766836
0.766929
0.76699
0.76699
0.76699
0.76699
0.76699
0.76699
0.76699
0.76699
0.76699
0.76699
0.76699
0.76699
0.76699
0.76699
0.76699
0.76699
0.76699
0.766989
0.766989
0.766988
0.766985
0.766961
0.766859
0.766713
0.766671
0.766721
0.766826
0.766946
0.766988
0.766989
0.766989
0.766988
0.766988
0.766982
0.766986
0.766959
0.766975
0.766903
0.76694
0.766745
0.766843
0.766662
0.76675
0.7666
0.766664
0.76641
0.76652
0.766418
0.76651
0.766357
0.766413
0.7665
0.766459
0.76617
0.766207
0.766251
0.766301
0.76614
0.766163
0.766194
0.766233
0.766136
0.766145
0.766162
0.766187
0.766157
0.766158
0.766167
0.766217
0.766208
0.766181
0.766211
0.766206
0.766248
0.766281
0.766266
0.766236
0.766298
0.766392
0.766416
0.766346
0.766315
0.76633
0.766361
0.766593
0.766678
0.766447
0.766489
0.76697
0.76699
0.766981
0.766782
0.766881
0.76699
0.76699
0.76699
0.76699
0.76699
0.76699
0.76699
0.76699
0.76699
0.76699
0.76699
0.76699
0.76699
0.76699
0.76699
0.766989
0.766988
0.766986
0.766984
0.766981
0.766959
0.766862
0.766722
0.766667
0.766697
0.766792
0.766917
0.766982
0.76699
0.76699
0.766989
0.766989
0.766986
0.766988
0.766978
0.766983
0.76696
0.766971
0.766899
0.766918
0.766817
0.766867
0.766717
0.766755
0.766602
0.766596
0.76656
0.766589
0.766523
0.766534
0.766512
0.766463
0.76649
0.766513
0.766507
0.766277
0.766326
0.766377
0.766424
0.766219
0.766258
0.766301
0.766348
0.766184
0.76621
0.766242
0.76628
0.766189
0.766206
0.766231
0.766231
0.766233
0.766225
0.766263
0.766244
0.766258
0.766286
0.76628
0.766256
0.766305
0.766376
0.766394
0.766344
0.766322
0.766336
0.766355
0.766545
0.766619
0.766418
0.766451
0.766935
0.766984
0.766955
0.766706
0.766785
0.76699
0.76699
0.76699
0.76699
0.76699
0.76699
0.76699
0.76699
0.76699
0.76699
0.76699
0.76699
0.76699
0.766989
0.766986
0.766982
0.766978
0.766974
0.766968
0.766948
0.76686
0.766723
0.766664
0.766681
0.766764
0.766889
0.766974
0.766989
0.766989
0.76699
0.766988
0.766989
0.76698
0.766985
0.76696
0.766972
0.766932
0.766946
0.766797
0.766814
0.766778
0.766788
0.766573
0.766545
0.766283
0.7662
0.766454
0.766372
0.766508
0.766496
0.766242
0.766174
0.766478
0.766471
0.766411
0.766447
0.766392
0.76643
0.766458
0.766475
0.766322
0.766364
0.766401
0.766431
0.766262
0.766299
0.766337
0.766372
0.766249
0.766278
0.766312
0.766262
0.766276
0.766289
0.76632
0.766297
0.76628
0.766301
0.766303
0.766289
0.766319
0.766365
0.766377
0.766346
0.766333
0.766343
0.766352
0.766498
0.766558
0.766393
0.766419
0.766849
0.766918
0.766862
0.766621
0.766666
0.76699
0.76699
0.76699
0.76699
0.76699
0.76699
0.76699
0.76699
0.76699
0.76699
0.76699
0.766989
0.766986
0.766978
0.766966
0.766955
0.766948
0.766939
0.766917
0.766848
0.766721
0.766661
0.76667
0.766745
0.766866
0.766965
0.766988
0.76699
0.76699
0.766989
0.76699
0.766984
0.766988
0.766963
0.766977
0.766912
0.766942
0.766843
0.766878
0.76654
0.766585
0.766524
0.766524
0.766127
0.766078
0.765712
0.76563
0.766111
0.766042
0.765825
0.766363
0.766307
0.765972
0.765897
0.766378
0.766329
0.7662
0.766268
0.766447
0.766449
0.76644
0.766416
0.7664
0.766416
0.766419
0.766413
0.766344
0.766371
0.766385
0.766388
0.766318
0.766344
0.766358
0.766303
0.766318
0.766335
0.766327
0.766326
0.76631
0.766321
0.766324
0.766319
0.766333
0.766357
0.766364
0.766347
0.76634
0.766344
0.76635
0.766456
0.7665
0.766374
0.766391
0.766675
0.76666
0.766637
0.766541
0.766555
0.76699
0.76699
0.76699
0.76699
0.76699
0.76699
0.76699
0.76699
0.76699
0.76699
0.766988
0.76698
0.766959
0.766933
0.766917
0.766908
0.766898
0.766874
0.766815
0.766711
0.766659
0.766665
0.766734
0.76685
0.766957
0.766987
0.76699
0.76699
0.76699
0.766988
0.766989
0.766975
0.766984
0.766924
0.766957
0.766808
0.766874
0.766654
0.766731
0.766124
0.766218
0.766066
0.76608
0.76557
0.765533
0.765368
0.765331
0.765211
0.765829
0.765782
0.765399
0.765453
0.766125
0.766049
0.765695
0.765624
0.766172
0.766095
0.765931
0.766014
0.76639
0.766353
0.766304
0.766243
0.766384
0.766366
0.766332
0.766284
0.766361
0.766359
0.766346
0.766318
0.76634
0.76634
0.766331
0.766321
0.76632
0.766323
0.766292
0.76631
0.766324
0.766331
0.766327
0.76632
0.766336
0.766351
0.766354
0.766345
0.766338
0.766339
0.766345
0.766418
0.76645
0.766358
0.766366
0.766526
0.766532
0.766471
0.766472
0.766469
0.76699
0.76699
0.76699
0.76699
0.76699
0.76699
0.76699
0.76699
0.76699
0.766986
0.76697
0.766934
0.766898
0.766876
0.766864
0.76685
0.766823
0.766763
0.766692
0.766655
0.766665
0.766732
0.766843
0.766951
0.766985
0.76699
0.76699
0.76699
0.766989
0.76699
0.766985
0.766988
0.766955
0.766976
0.766843
0.766913
0.766613
0.766741
0.766338
0.766474
0.765636
0.765763
0.765538
0.765565
0.765195
0.765204
0.765198
0.765173
0.765086
0.765084
0.765561
0.765503
0.765226
0.765257
0.76585
0.765771
0.76545
0.765392
0.765909
0.765824
0.765661
0.765741
0.766223
0.766154
0.766076
0.765995
0.766274
0.766214
0.766142
0.766063
0.766308
0.766271
0.766216
0.766144
0.766307
0.766277
0.76623
0.766308
0.766288
0.766257
0.766189
0.76625
0.766313
0.766325
0.766309
0.766295
0.766326
0.766343
0.76634
0.766338
0.766326
0.766323
0.766334
0.766384
0.766403
0.766337
0.76634
0.766434
0.766579
0.766429
0.766411
0.766403
0.76699
0.76699
0.76699
0.76699
0.76699
0.76699
0.76699
0.76699
0.766985
0.766961
0.76691
0.766862
0.766834
0.766818
0.766799
0.766764
0.766717
0.766674
0.766654
0.766668
0.766735
0.766844
0.766949
0.766985
0.76699
0.76699
0.76699
0.76699
0.766989
0.766989
0.766978
0.766986
0.766913
0.766957
0.766697
0.766829
0.766318
0.766521
0.765925
0.766113
0.76531
0.765391
0.765224
0.765258
0.765089
0.765098
0.765115
0.765094
0.765087
0.765056
0.765063
0.765341
0.765296
0.765105
0.765122
0.765586
0.765515
0.765252
0.76521
0.765643
0.765563
0.765421
0.765489
0.76598
0.765896
0.76581
0.765726
0.766062
0.765976
0.765887
0.765799
0.766162
0.766078
0.765987
0.765893
0.7662
0.76612
0.766024
0.766258
0.766199
0.7661
0.76599
0.766108
0.766278
0.766303
0.766262
0.766225
0.766299
0.766328
0.766319
0.766319
0.766294
0.766289
0.766311
0.766348
0.766355
0.766311
0.766306
0.766376
0.766723
0.766494
0.766357
0.766348
0.76699
0.76699
0.76699
0.76699
0.76699
0.76699
0.76699
0.766984
0.766954
0.766889
0.76683
0.766795
0.766773
0.766748
0.766718
0.766689
0.766667
0.766657
0.766679
0.766747
0.766854
0.76695
0.766985
0.76699
0.76699
0.76699
0.76699
0.76699
0.766987
0.766989
0.766964
0.766981
0.766837
0.766922
0.766482
0.766691
0.765965
0.766228
0.765524
0.765723
0.765224
0.765264
0.765151
0.765187
0.765073
0.765085
0.765136
0.765113
0.76505
0.765052
0.765051
0.765061
0.765174
0.765145
0.765053
0.765057
0.765359
0.765303
0.765117
0.765095
0.765404
0.76534
0.765229
0.765281
0.765713
0.76563
0.76555
0.765474
0.765799
0.765707
0.765619
0.765536
0.765921
0.765818
0.765718
0.765621
0.76599
0.765875
0.765758
0.766143
0.76603
0.765863
0.765757
0.7659
0.766195
0.76625
0.766171
0.766097
0.76624
0.766298
0.766284
0.76628
0.766233
0.766226
0.766267
0.766305
0.766308
0.766269
0.766259
0.766366
0.766888
0.766632
0.766307
0.766307
0.76699
0.76699
0.76699
0.76699
0.76699
0.76699
0.766984
0.766952
0.766874
0.766802
0.76676
0.766733
0.766711
0.766693
0.766678
0.766668
0.766669
0.766704
0.766776
0.766881
0.766957
0.766985
0.76699
0.76699
0.76699
0.76699
0.76699
0.76699
0.766989
0.766984
0.766988
0.766939
0.766972
0.766721
0.766864
0.766221
0.766502
0.765648
0.765921
0.765325
0.76544
0.765242
0.765257
0.765183
0.765223
0.765075
0.765092
0.765184
0.765156
0.765037
0.765043
0.765056
0.765075
0.765078
0.765066
0.765034
0.765033
0.765185
0.765147
0.765052
0.765043
0.765214
0.76517
0.765106
0.765135
0.765459
0.765389
0.765323
0.765265
0.765531
0.765447
0.765372
0.765305
0.765646
0.765544
0.765452
0.76537
0.765729
0.7656
0.765483
0.765974
0.765829
0.765612
0.765492
0.765664
0.766063
0.766154
0.766033
0.765921
0.766145
0.76625
0.766229
0.766215
0.766136
0.76612
0.766198
0.766258
0.766258
0.766212
0.766203
0.766399
0.766945
0.766757
0.766263
0.766288
0.766989
0.76699
0.76699
0.76699
0.76699
0.766985
0.766952
0.766866
0.766779
0.76673
0.766705
0.766692
0.766683
0.766679
0.766679
0.766697
0.766746
0.766821
0.76691
0.766968
0.766987
0.76699
0.76699
0.76699
0.76699
0.76699
0.76699
0.76699
0.766989
0.766979
0.766987
0.766901
0.766957
0.766575
0.766781
0.76597
0.76629
0.76545
0.765673
0.765282
0.765335
0.765396
0.765366
0.765281
0.765314
0.765402
0.765099
0.765127
0.765251
0.765214
0.765035
0.765043
0.765076
0.765103
0.765037
0.765034
0.765029
0.765025
0.765084
0.765066
0.765026
0.765024
0.765101
0.765079
0.765048
0.765062
0.765248
0.765201
0.765161
0.765128
0.765298
0.765237
0.765189
0.765152
0.765384
0.765302
0.765237
0.765186
0.765474
0.765351
0.765255
0.765743
0.765541
0.765337
0.765225
0.765352
0.76586
0.766005
0.765786
0.765642
0.765974
0.766175
0.766153
0.766102
0.765939
0.765918
0.766079
0.766197
0.766205
0.766135
0.76612
0.766479
0.766981
0.766875
0.76622
0.766292
0.766989
0.76699
0.76699
0.76699
0.766987
0.766955
0.766866
0.766765
0.766708
0.766688
0.766682
0.766683
0.766689
0.766707
0.766748
0.766805
0.766875
0.766939
0.766977
0.766988
0.76699
0.76699
0.76699
0.76699
0.76699
0.766989
0.76699
0.76699
0.766988
0.766972
0.766985
0.766851
0.766936
0.766422
0.766684
0.765775
0.766097
0.765382
0.765519
0.76533
0.765332
0.765664
0.765573
0.765386
0.765434
0.765617
0.7656
0.765136
0.765175
0.765337
0.765286
0.765039
0.765055
0.765101
0.765137
0.765023
0.765023
0.76503
0.765024
0.765038
0.765031
0.765013
0.765011
0.765048
0.765038
0.765024
0.765031
0.765122
0.765098
0.765079
0.765062
0.765146
0.765116
0.765096
0.765078
0.765186
0.765137
0.765107
0.765085
0.765218
0.765155
0.765112
0.765429
0.765291
0.765169
0.765173
0.765208
0.765537
0.765702
0.765466
0.765365
0.765655
0.766055
0.766029
0.765899
0.765651
0.765655
0.765876
0.766127
0.766142
0.766009
0.766018
0.766575
0.766989
0.766947
0.766183
0.766316
0.766988
0.766989
0.76699
0.766988
0.766963
0.76687
0.766761
0.766694
0.766677
0.766677
0.766689
0.766717
0.766761
0.766814
0.766871
0.766923
0.766963
0.766983
0.766989
0.76699
0.76699
0.76699
0.76699
0.76699
0.76699
0.76699
0.76699
0.766989
0.76699
0.766988
0.766963
0.766982
0.766798
0.766912
0.76629
0.76659
0.765655
0.765955
0.765399
0.765466
0.765463
0.765397
0.765786
0.765902
0.765846
0.765797
0.76551
0.765565
0.765768
0.765183
0.765234
0.765444
0.765373
0.765053
0.765074
0.765127
0.765175
0.765014
0.765019
0.765037
0.765028
0.765018
0.765015
0.765005
0.765009
0.765021
0.765014
0.765004
0.765007
0.765063
0.76505
0.765039
0.765029
0.765066
0.765052
0.765038
0.765028
0.76508
0.765066
0.76505
0.765037
0.765135
0.765104
0.765068
0.765261
0.765216
0.765149
0.765177
0.765198
0.765326
0.765456
0.765335
0.76527
0.765475
0.765853
0.765843
0.765654
0.765497
0.765513
0.765651
0.766034
0.766081
0.76586
0.765886
0.766692
0.76699
0.766974
0.766159
0.766362
0.766987
0.766989
0.766988
0.766973
0.766883
0.766763
0.766686
0.766669
0.766676
0.766705
0.766756
0.766819
0.766879
0.766924
0.766957
0.766977
0.766987
0.766989
0.76699
0.76699
0.76699
0.76699
0.76699
0.76699
0.76699
0.76699
0.76699
0.766989
0.766989
0.766987
0.766954
0.766978
0.766751
0.766889
0.7662
0.766515
0.765612
0.765875
0.765462
0.765489
0.765631
0.765505
0.765925
0.766029
0.765973
0.765974
0.765658
0.765727
0.765926
0.765234
0.765301
0.76557
0.765474
0.765067
0.765092
0.765155
0.765213
0.765014
0.765021
0.765049
0.765036
0.765002
0.765003
0.765005
0.765011
0.765002
0.765
0.764999
0.764999
0.76502
0.765014
0.765009
0.765005
0.765029
0.765023
0.765017
0.765014
0.765056
0.765049
0.765035
0.76503
0.765128
0.765112
0.765072
0.765247
0.765219
0.7651
0.765111
0.765125
0.765306
0.765367
0.765338
0.765274
0.765395
0.765653
0.765668
0.765525
0.765422
0.765449
0.765533
0.765945
0.766022
0.765689
0.765754
0.766793
0.76699
0.766979
0.766143
0.766412
0.766985
0.766988
0.76698
0.766908
0.766771
0.766684
0.766662
0.766676
0.766723
0.766792
0.766867
0.766924
0.766957
0.766975
0.766985
0.766989
0.76699
0.76699
0.76699
0.76699
0.76699
0.76699
0.76699
0.76699
0.76699
0.76699
0.76699
0.766989
0.766989
0.766986
0.766947
0.766976
0.766723
0.766874
0.766164
0.766475
0.76564
0.765859
0.76555
0.765555