/*--------------------------------*- C++ -*----------------------------------*\
  =========                 |
  \\      /  F ield         | OpenFOAM: The Open Source CFD Toolbox
   \\    /   O peration     | Website:  https://openfoam.org
    \\  /    A nd           | Version:  dev
     \\/     M anipulation  |
\*---------------------------------------------------------------------------*/
FoamFile
{
    version     2.0;
    format      ascii;
    class       volScalarField;
    location    "2500";
    object      nut;
}
// * * * * * * * * * * * * * * * * * * * * * * * * * * * * * * * * * * * * * //

dimensions      [0 2 -1 0 0 0 0];

internalField   nonuniform List<scalar> 
9841
(
0.000126722
0.000130653
0.000123833
0.00012049
0.000155847
0.000111211
0.000111642
0.000164657
0.000147728
0.000105759
0.000107521
0.000159416
0.000169293
0.000127524
0.00010372
0.000104534
0.000144547
0.00018184
0.000157014
0.000115952
0.000102688
0.000102965
0.000129376
0.000181582
0.000178003
0.000134784
0.00011068
0.000101912
0.000102444
0.000119808
0.000174428
0.000190306
0.000160218
0.000121326
0.000107729
0.000101432
0.000102215
0.000112662
0.000157224
0.000196651
0.000182152
0.000137859
0.000114713
0.000105675
0.000101161
0.000102038
0.000108568
0.000137716
0.000194043
0.000195469
0.00015948
0.000124224
0.00011097
0.000104205
0.000100958
0.000101752
0.000106117
0.000126576
0.000184304
0.000204803
0.000182635
0.000138377
0.000117184
0.000108293
0.000103286
0.000100793
0.000101306
0.000104811
0.00011799
0.000164196
0.000207999
0.000199311
0.00015679
0.000125727
0.000113008
0.00010625
0.000102504
0.000100645
0.000100913
0.000104226
0.000112796
0.000143231
0.00020379
0.000208469
0.000179522
0.000137225
0.000118805
0.00010992
0.000104958
0.000101971
0.000100441
0.000100645
0.00010382
0.000109709
0.000131577
0.000191616
0.000216657
0.00019889
0.000154019
0.000125914
0.000114362
0.000107666
0.000103802
0.000101626
0.000100266
0.000100497
0.000103525
0.000107867
0.000122533
0.000169845
0.000217129
0.000212787
0.000174122
0.000136105
0.0001195
0.00011098
0.00010606
0.000102938
0.000101272
0.000100173
0.000100426
0.000103219
0.000106697
0.00011698
0.000148069
0.000211795
0.000219655
0.000196313
0.000150275
0.000125744
0.000115088
0.000108568
0.000104721
0.000102399
0.000100862
0.000100127
0.000100407
0.000102856
0.000105932
0.000113419
0.000136568
0.000197962
0.000226388
0.000212314
0.000168901
0.00013426
0.000119529
0.000111702
0.000106777
0.000103672
0.000101921
0.000100603
0.000100058
0.0001004
0.000102523
0.000105445
0.000111131
0.000127406
0.000175699
0.000225809
0.000223799
0.000189543
0.000146521
0.00012503
0.000115176
0.000109233
0.000105312
0.000103018
0.000101313
0.000100443
0.000100012
0.000100396
0.000102272
0.000105076
0.000109616
0.000121449
0.000153648
0.000219692
0.000230023
0.000210223
0.000162798
0.000132114
0.000119342
0.000111941
0.00010729
0.000104189
0.000102337
0.000100929
0.000100278
9.9981e-05
0.000100439
0.000102119
0.000104778
0.00010851
0.000117407
0.00014221
0.000205154
0.000236177
0.0002239
0.000182078
0.000142573
0.000123824
0.000115222
0.000109537
0.000105644
0.000103367
0.000101598
0.000100667
0.000100145
9.99551e-05
0.000100445
0.000101926
0.000104397
0.000107648
0.000114627
0.000132785
0.000183156
0.000234819
0.000234329
0.000202359
0.000156728
0.000130185
0.000118628
0.000112069
0.000107524
0.000104436
0.000102578
0.000101077
0.000100422
0.000100046
9.99368e-05
0.000100382
0.000101728
0.000103911
0.000106873
0.000112594
0.00012616
0.000161068
0.000228798
0.000240041
0.000222209
0.000174224
0.000138689
0.000122946
0.00011487
0.00010961
0.000105835
0.000103523
0.000101777
0.00010071
0.000100209
9.99673e-05
9.99249e-05
0.000100274
0.0001016
0.000103408
0.000106306
0.000111237
0.000121411
0.000148405
0.00021497
0.000246527
0.000234596
0.000193623
0.000151077
0.000127929
0.000118145
0.000111952
0.000107615
0.00010456
0.000102698
0.000101121
0.000100396
0.000100047
9.99086e-05
9.99174e-05
0.00010016
0.000101569
0.000102992
0.000105811
0.000110244
0.000118059
0.000138788
0.000193238
0.000244982
0.000244893
0.00021356
0.000166267
0.00013557
0.000121649
0.000114505
0.000109605
0.000106015
0.000103599
0.000101896
0.00010064
0.000100119
9.99205e-05
9.98707e-05
9.99116e-05
0.000100069
0.00010158
0.000102646
0.000105386
0.000109235
0.000115752
0.000131351
0.000171436
0.000239831
0.000250253
0.000233041
0.000184443
0.000145326
0.000126279
0.000117345
0.000111769
0.000107732
0.000104724
0.000102758
0.000101175
0.000100266
9.99028e-05
9.98314e-05
9.98437e-05
9.99098e-05
0.000100018
0.000101548
0.00010225
0.000104911
0.000108054
0.00011401
0.000126202
0.000155675
0.000227476
0.00025669
0.000244971
0.000203406
0.000159082
0.000132127
0.00012059
0.000114086
0.000109606
0.000106202
0.000103681
0.000102011
0.000100607
9.99623e-05
9.97419e-05
9.97655e-05
9.98168e-05
9.99093e-05
9.99792e-05
0.000101451
0.000101866
0.0001043
0.000107145
0.000112741
0.000122536
0.000146651
0.00020747
0.000257035
0.000254927
0.000223434
0.000174476
0.000140822
0.000124465
0.000116652
0.000111569
0.000107816
0.000104931
0.000102838
0.000101336
0.000100169
9.97201e-05
9.96199e-05
9.97124e-05
9.98007e-05
9.99097e-05
9.99382e-05
0.000101318
0.000101523
0.000103698
0.000106503
0.000111504
0.000119828
0.000139047
0.000186101
0.000253101
0.000260073
0.000242129
0.000193092
0.000151557
0.000129592
0.00011962
0.000113703
0.000109545
0.000106344
0.000103873
0.000102127
0.000100753
9.98273e-05
9.95322e-05
9.9553e-05
9.9676e-05
9.97927e-05
9.99123e-05
9.99006e-05
0.00010118
0.000101317
0.000103144
0.000105916
0.000110351
0.000117757
0.000133344
0.00016761
0.000243191
0.000266539
0.000254501
0.000211113
0.000165742
0.000136361
0.000123003
0.000116088
0.000111375
0.000107873
0.000105154
0.000103011
0.000101522
0.000100298
9.95679e-05
9.94278e-05
9.95368e-05
9.96484e-05
9.97828e-05
9.99255e-05
9.98819e-05
0.000101055
0.000101079
0.000102486
0.000105345
0.000109208
0.000116325
0.000129243
0.000156721
0.000227244
0.000270396
0.000263674
0.000231319
0.000181219
0.000145427
0.00012725
0.000118704
0.000113396
0.000109501
0.000106515
0.000104179
0.000102329
0.000101047
9.99662e-05
9.94147e-05
9.94234e-05
9.95722e-05
9.96336e-05
9.97464e-05
9.99356e-05
9.9885e-05
0.000100939
0.000100742
0.000101848
0.000104779
0.000108272
0.000115444
0.000126223
0.000150019
0.000208055
0.0002674
0.000271269
0.000248104
0.000199111
0.000156822
0.000132682
0.000121714
0.000115518
0.000111292
0.000107992
0.000105435
0.000103379
0.000101803
0.000100696
9.97738e-05
9.94001e-05
9.95231e-05
9.96812e-05
9.96564e-05
9.96944e-05
9.9897e-05
9.99092e-05
0.000100816
0.000100326
0.000101265
0.000104271
0.000107457
0.000114296
0.000124217
0.000144108
0.000189472
0.000262093
0.000276555
0.000263097
0.000216777
0.00017041
0.00013993
0.00012521
0.000117932
0.000113106
0.000109625
0.000106801
0.000104594
0.000102786
0.000101418
0.000100499
9.97416e-05
9.95363e-05
9.97599e-05
9.9888e-05
9.97579e-05
9.97243e-05
9.98373e-05
9.99331e-05
0.000100671
9.98603e-05
0.000100751
0.000103803
0.000106773
0.000113036
0.000123497
0.000139639
0.000174443
0.00025077
0.000281741
0.000272661
0.000234667
0.000185911
0.000148982
0.000129647
0.000120569
0.000115158
0.000111316
0.000108308
0.000105921
0.000103978
0.000102366
0.000101202
0.000100479
9.99342e-05
9.98866e-05
0.000100175
0.000100235
0.000100143
9.9919e-05
9.98314e-05
9.9961e-05
0.000100507
9.94267e-05
0.000100343
0.000103375
0.000106232
0.000112026
0.000122899
0.000136812
0.00016449
0.000236737
0.000283727
0.000280532
0.000252589
0.000201942
0.000160296
0.00013524
0.000123554
0.000117367
0.00011315
0.000109951
0.00010738
0.000105302
0.000103591
0.000102149
0.000101177
0.000100711
0.00010045
0.000100558
0.000100874
0.000100907
0.000100637
0.000100124
9.99741e-05
9.99141e-05
0.000100011
0.000100328
9.90967e-05
0.000100056
0.000103012
0.000105832
0.00011138
0.000122009
0.000136023
0.000158638
0.000220984
0.000280862
0.000286139
0.000267521
0.000218998
0.000173056
0.000142435
0.000127103
0.000119714
0.000115054
0.000111706
0.000108996
0.000106784
0.00010497
0.000103439
0.000102103
0.000101431
0.000101281
0.000101397
0.000101676
0.000101663
0.000101314
0.000100717
9.99836e-05
0.000100196
9.99793e-05
9.99491e-05
0.000100074
0.000100112
9.87302e-05
9.98669e-05
0.000102703
0.000105585
0.000111038
0.000121287
0.00013649
0.000155296
0.000205595
0.000276453
0.000290991
0.000279641
0.000235061
0.000186923
0.000151138
0.000131513
0.000122257
0.000117124
0.000113499
0.00011076
0.000108451
0.000106523
0.000104879
0.000103518
0.00010235
0.000102047
0.000102318
0.000102718
0.000103174
0.000102853
0.000101054
0.000101534
0.000100496
0.00010102
0.000100679
0.000100014
0.000100226
9.99765e-05
9.99532e-05
0.000100133
9.98341e-05
9.8398e-05
9.99174e-05
0.000102496
0.000105465
0.000110988
0.00012107
0.000137037
0.000153978
0.000192758
0.000267619
0.000295727
0.000287609
0.000251495
0.000201685
0.000161021
0.00013687
0.000125175
0.000119215
0.000115377
0.000112563
0.000110273
0.000108311
0.000106635
0.000105221
0.000103991
0.000103045
0.000103056
0.000103725
0.000104557
0.000105063
0.000102839
0.000104165
0.000101626
0.000100481
0.000101021
0.000100621
0.000100036
0.000100259
9.99714e-05
9.99451e-05
0.000100173
9.95273e-05
9.82645e-05
0.000100191
0.00010246
0.000105503
0.000111205
0.000121273
0.000137546
0.000153745
0.000183436
0.000256574
0.000297958
0.000294198
0.000267341
0.000216591
0.000172394
0.000143135
0.000128501
0.000121399
0.000117228
0.000114371
0.000112158
0.000110259
0.000108663
0.000107356
0.000106164
0.000105073
0.000104407
0.000104824
0.000105711
0.000106484
0.000105303
0.000106128
0.000103032
0.000104286
0.000101943
0.000100467
0.000100986
0.000100593
0.000100043
0.000100268
9.99639e-05
9.99285e-05
0.000100182
9.92428e-05
9.8362e-05
0.000100586
0.000102553
0.000105779
0.000111777
0.000122006
0.000138479
0.00015487
0.000177798
0.000245714
0.000296657
0.000299451
0.000279842
0.000231753
0.000184584
0.000150622
0.000132307
0.000123724
0.000119119
0.000116168
0.000114044
0.00011236
0.000110973
0.000109884
0.000108885
0.000107922
0.000107032
0.000106728
0.000107118
0.000107544
0.000106944
0.000107454
0.000105394
0.000106241
0.000103155
0.000104251
0.000101924
0.000100418
0.000100953
0.000100546
0.000100033
0.000100245
9.99561e-05
9.99076e-05
0.000100142
9.89924e-05
9.87173e-05
0.000101118
0.000102804
0.000106395
0.000113014
0.000123945
0.000140212
0.000156307
0.000175602
0.000235681
0.000294508
0.000302527
0.00029087
0.00024615
0.000197545
0.000159105
0.000136807
0.000126146
0.000120994
0.000117899
0.000115869
0.000114557
0.00011354
0.000112856
0.000112274
0.000111485
0.000110669
0.00010964
0.000109082
0.000108627
0.000108046
0.000108417
0.000107019
0.000107542
0.000105249
0.000106063
0.000102944
0.000103922
0.000101769
0.000100339
0.000100871
0.000100476
0.000100011
0.000100193
9.99524e-05
9.98902e-05
0.00010006
9.88759e-05
9.93682e-05
0.000101721
0.00010331
0.000107562
0.000115454
0.000126909
0.000142617
0.000158362
0.000175148
0.000226506
0.000290106
0.000305834
0.000298063
0.000258917
0.000210667
0.000168795
0.000141958
0.000128797
0.000122721
0.000119498
0.000117568
0.000116706
0.000116244
0.000116214
0.000116289
0.000116092
0.000115238
0.000113644
0.000111297
0.000109943
0.000109054
0.000109285
0.000108139
0.000108582
0.000106738
0.000107328
0.000104817
0.000105579
0.000102542
0.000103294
0.000101484
0.000100263
0.000100722
0.000100383
9.99914e-05
0.000100135
9.9961e-05
9.98936e-05
9.99078e-05
9.90062e-05
0.000100257
0.000102272
0.0001042
0.000109322
0.000118908
0.000130603
0.000145586
0.000161124
0.000175895
0.000219286
0.000284058
0.00030911
0.00030293
0.000272312
0.000223126
0.000179152
0.000148119
0.000131756
0.000124399
0.00012087
0.000119045
0.000118636
0.000118878
0.000119665
0.000112721
0.000106827
0.00010603
0.000111467
0.000112199
0.000108751
0.00010899
0.000106917
0.000108737
0.000107831
0.000107906
0.00010779
0.000106311
0.000106849
0.000104074
0.000104875
0.000101907
0.000102491
0.000100988
0.000100202
0.000100489
0.0001003
0.000100003
0.000100118
9.99891e-05
9.99489e-05
9.97705e-05
9.94015e-05
0.000101181
0.000102805
0.000105548
0.000112096
0.000123429
0.000135161
0.000149035
0.000164011
0.000177817
0.000214282
0.000277982
0.000310299
0.000307535
0.0002833
0.000235359
0.000189803
0.000155059
0.000135214
0.000126018
0.000122011
0.000120158
0.000120103
0.000121211
0.000117725
0.000107078
0.000102831
0.000108407
0.000119689
0.000111304
9.89135e-05
0.00010138
9.05472e-05
0.000104886
9.74239e-05
0.000106478
0.000102482
0.000106658
0.000104734
0.000105427
0.000104968
0.000103274
0.000103633
0.000101188
0.000101754
0.000100452
0.000100201
0.000100302
0.000100299
0.000100114
0.000100209
0.00010006
0.000100123
9.9696e-05
0.000100043
0.000102102
0.000103567
0.000107526
0.000116303
0.000128807
0.000140195
0.000152846
0.00016685
0.000179872
0.000211635
0.000272149
0.000310136
0.000310732
0.000292563
0.000246636
0.000200493
0.000162701
0.000139202
0.000127656
0.000122929
0.000120971
0.000120994
0.000122863
0.000115737
0.000105264
0.000107077
0.000131687
0.000127586
0.000124109
0.000116643
8.45973e-05
9.78862e-05
8.51593e-05
7.82044e-05
9.3431e-05
8.12961e-05
9.96993e-05
8.94303e-05
0.000102469
9.63074e-05
0.000102863
9.9492e-05
0.00010181
0.000100226
0.000100641
0.000100123
0.000100211
0.000100327
9.87889e-05
9.09832e-05
0.00010038
9.76244e-05
0.000100153
9.60282e-05
9.9789e-05
0.000100917
0.000102925
0.000104771
0.000110493
0.000122007
0.000134715
0.000145373
0.000156708
0.000169623
0.000182388
0.000210735
0.000267278
0.000309553
0.000312922
0.000299886
0.000257197
0.000210725
0.000170853
0.000143788
0.000129564
0.00012367
0.000121666
0.000121786
0.000123656
0.000116414
0.000106167
0.000119474
0.000149369
0.000156528
0.000162362
0.000176374
0.000143052
0.000208397
9.66467e-05
0.000155917
7.67352e-05
0.000104952
7.83628e-05
7.88624e-05
8.55446e-05
7.57241e-05
9.19274e-05
8.17744e-05
9.58809e-05
8.70418e-05
9.76311e-05
9.18175e-05
9.8888e-05
9.54218e-05
9.72028e-05
8.44126e-05
8.43611e-05
7.65042e-05
8.06851e-05
7.14079e-05
7.42109e-05
7.01038e-05
0.000100109
0.000101868
0.000103663
0.000106686
0.000115002
0.000129077
0.00014099
0.000150427
0.000160395
0.000172198
0.000184927
0.00021127
0.000263722
0.000307975
0.000314182
0.000305634
0.000266252
0.000220545
0.000179102
0.000148909
0.000131971
0.00012436
0.000121833
0.000122149
0.000124447
0.000119347
0.000108366
0.000132531
0.000171876
0.000199455
0.000236696
0.000307431
0.000347009
0.000223203
0.000299194
0.000166205
0.000231248
0.000116874
0.000177068
8.53468e-05
0.000132497
7.56819e-05
9.81863e-05
7.77223e-05
8.01224e-05
8.23091e-05
7.52948e-05
8.76415e-05
7.85656e-05
9.40581e-05
8.43529e-05
8.11694e-05
6.79299e-05
7.16852e-05
6.57537e-05
6.01067e-05
5.69945e-05
5.67635e-05
5.25932e-05
0.000100798
0.000102852
0.000104559
0.000109515
0.00012172
0.000137011
0.00014731
0.000155095
0.000163707
0.000174503
0.000187389
0.000212712
0.000261604
0.000306222
0.000315083
0.000309177
0.00027463
0.000229642
0.000187416
0.000154513
0.000134714
0.000125092
0.000121674
0.00012165
0.000124647
0.000123444
0.000112069
0.000138184
0.000188228
0.000244732
0.000328814
0.000419031
0.00043601
0.000376865
0.00042448
0.000292331
0.000342547
0.000237042
0.000291915
0.000190387
0.000245643
0.000151817
0.000207355
0.0001185
0.000174524
9.16705e-05
0.000144771
7.70611e-05
0.000112185
7.61109e-05
8.32397e-05
8.1775e-05
7.55669e-05
7.02303e-05
5.72375e-05
6.26134e-05
5.75361e-05
4.71851e-05
4.84198e-05
4.56951e-05
4.13896e-05
0.000102524
0.000104084
0.00010601
0.000113763
0.000130236
0.000144842
0.000153257
0.000159168
0.000166313
0.000176436
0.000189756
0.000214933
0.000260815
0.000304751
0.000316554
0.000311199
0.000282288
0.000237888
0.000195534
0.000160549
0.000138053
0.000126011
0.000121505
0.00012091
0.000123506
0.000127202
0.000115026
0.000141135
0.000192252
0.000275825
0.000417554
0.000505769
0.000509886
0.000448495
0.000488434
0.000409701
0.000438546
0.000338258
0.000375747
0.000294631
0.00033591
0.000258393
0.000302304
0.000228289
0.000275612
0.000200886
0.000252231
0.00017217
0.000228558
0.00013609
0.000199314
9.16342e-05
0.000157253
7.65908e-05
9.74448e-05
7.7828e-05
5.13816e-05
7.92913e-05
7.85327e-05
3.90552e-05
4.44038e-05
3.90478e-05
3.45265e-05
0.000109746
0.000106388
0.000108299
0.000119913
0.000139666
0.000152306
0.000158574
0.000162573
0.000168364
0.000177981
0.000192043
0.000217426
0.000261177
0.000303819
0.000317719
0.000313093
0.000288295
0.00024535
0.000203279
0.000166824
0.000141559
0.000127493
0.000121431
0.000120023
0.000122114
0.000127605
0.000118446
0.000142135
0.000190791
0.000282062
0.000477319
0.000550796
0.000554733
0.00051193
0.000542622
0.000469304
0.000497835
0.000426041
0.000455172
0.00036968
0.000398368
0.000338355
0.000367579
0.000314855
0.000346379
0.00029588
0.000330962
0.000277444
0.00031723
0.000255146
0.000301143
0.000223379
0.000278426
0.000172539
0.000242133
9.87281e-05
0.000179997
9.74769e-05
7.23697e-05
9.56758e-05
9.15727e-05
3.51651e-05
5.7138e-05
3.70552e-05
3.21468e-05
0.000122445
0.000113529
0.000111929
0.000127671
0.00014881
0.000158722
0.000162753
0.000165449
0.00017009
0.000179448
0.000194338
0.000220307
0.000262477
0.00030357
0.000318763
0.000314437
0.000292869
0.000251668
0.000210477
0.000173278
0.000145582
0.000129229
0.000121663
0.000119145
0.000120587
0.000125442
0.000123584
0.000135863
0.00018502
0.00027825
0.000490883
0.000578122
0.000565319
0.000541756
0.000524759
0.000540181
0.000483925
0.000511901
0.00044457
0.000472344
0.000392415
0.000417252
0.000370898
0.000391868
0.000358188
0.000378882
0.000348185
0.000372364
0.000338053
0.000367544
0.000323988
0.000361398
0.000300806
0.000349762
0.000258435
0.000324781
0.000181536
0.000273297
0.000178395
8.57843e-05
0.000169955
0.000148116
3.87801e-05
7.90578e-05
4.17866e-05
3.65189e-05
0.000134478
0.000119717
0.000135585
0.000155709
0.000164002
0.00016563
0.000168054
0.000171905
0.000181122
0.000196827
0.000223801
0.000264493
0.000303992
0.00031984
0.000315833
0.000296395
0.000256947
0.000216852
0.000179684
0.000150154
0.000131693
0.000122238
0.000118535
0.000119066
0.000123094
0.000130828
0.000131694
0.000173307
0.00026429
0.000484276
0.000593464
0.000577839
0.000526664
0.000525895
0.00050155
0.000532029
0.000535938
0.000500678
0.000524019
0.000464832
0.000492364
0.000413883
0.000438739
0.000397486
0.000417451
0.0003919
0.000410048
0.000391529
0.000412811
0.000393064
0.00042129
0.000392833
0.000431467
0.000384123
0.000435245
0.000353953
0.000423805
0.000287783
0.000382852
0.000296216
0.00012681
0.00029714
0.000274341
6.89278e-05
0.000102021
6.81635e-05
5.21635e-05
0.00013948
0.000143449
0.000161702
0.000167389
0.000168144
0.000170703
0.000173969
0.000182783
0.000199428
0.000227576
0.000267077
0.000305013
0.000321039
0.000317316
0.000299258
0.000261646
0.000222367
0.000185902
0.000155125
0.000134742
0.000123085
0.000118381
0.000117802
0.000120964
0.000128434
0.000132156
0.000162208
0.000237968
0.000458122
0.000606966
0.000596315
0.00051811
0.000453219
0.000411875
0.000502905
0.000445045
0.000533052
0.000524507
0.00051724
0.000531984
0.000490098
0.000514548
0.000439987
0.000464235
0.000429943
0.00045089
0.000433068
0.000453499
0.000446873
0.000470347
0.000465232
0.000497895
0.000482946
0.00052742
0.000489252
0.000547445
0.000469536
0.000545955
0.000411099
0.000510315
0.000428757
0.000231979
0.000430855
0.000419413
0.000339541
7.87019e-05
0.00015973
9.35576e-05
5.94766e-05
0.00016311
0.000165085
0.000171086
0.000170257
0.000172843
0.000175742
0.000184206
0.000201629
0.00023116
0.000269949
0.000306478
0.000322443
0.000318729
0.000301377
0.000265357
0.000227566
0.000191548
0.000160537
0.000138098
0.000124795
0.000118805
0.000117155
0.000119299
0.000125457
0.000136441
0.000152326
0.000212633
0.000408568
0.000613776
0.000623978
0.000539702
0.000340055
0.000366211
0.000294012
0.000466547
0.000371193
0.000529196
0.000513266
0.000532049
0.000534682
0.000520796
0.000537851
0.000473693
0.000497813
0.000474595
0.000497437
0.000493752
0.000518502
0.000528636
0.000556542
0.000566729
0.000601723
0.000598569
0.000640544
0.000610945
0.00066368
0.000594741
0.000662942
0.000540411
0.00062252
0.000582543
0.000497473
0.000551832
0.00040058
0.000283089
0.000378274
0.000489097
0.000550112
0.000550767
0.000478024
9.54105e-05
0.000340688
0.000299499
0.000187574
5.10892e-05
4.78889e-05
0.000178452
0.00017207
0.000173137
0.000174127
0.000177068
0.000185237
0.000203317
0.000234217
0.000272708
0.000308119
0.00032406
0.000320281
0.000303183
0.000267994
0.000231966
0.000196918
0.000165763
0.000142342
0.00012774
0.000119618
0.000117308
0.000118286
0.00012314
0.000132527
0.000144518
0.000187748
0.00035383
0.000603469
0.000662308
0.000591422
0.000384873
0.000182023
0.000171127
0.00027543
0.000209535
0.000409316
0.000299099
0.000523396
0.000488745
0.000543505
0.0005357
0.000555094
0.000559363
0.000520521
0.000540857
0.000541122
0.000561497
0.000579929
0.000600685
0.000628653
0.000650466
0.000672486
0.000683805
0.000702976
0.000681751
0.000678434
0.000698793
0.0007157
0.000675996
0.000656325
0.000685564
0.000683511
0.000682612
0.000708678
0.000631684
0.000599192
0.000640262
0.000667489
0.000601718
0.000460839
0.000435674
0.000542817
0.000595934
0.000600533
0.000530743
0.000229713
9.24001e-05
0.000168436
0.000401583
0.000353509
1.27625e-05
0.000105884
6.30422e-05
3.13593e-05
0.000179255
0.00017393
0.000174771
0.000178352
0.000186159
0.0002049
0.000236659
0.000275242
0.000309873
0.00032567
0.000321978
0.00030497
0.000270006
0.000235215
0.000201897
0.0001711
0.000146989
0.000131544
0.000121856
0.000117971
0.000118132
0.000121562
0.000129027
0.000138528
0.000164853
0.000302163
0.000573099
0.000685551
0.000664897
0.000507119
0.000183605
0.000142247
0.000132284
0.000212492
0.000164804
0.00034984
0.000249396
0.000508682
0.000448284
0.000552102
0.000526074
0.000587543
0.000572453
0.000576987
0.000585289
0.000615479
0.000622507
0.000661914
0.000664211
0.000651542
0.00062275
0.000641835
0.000606048
0.000694556
0.000629076
0.000646281
0.000588494
0.000701312
0.000669936
0.000650289
0.000695643
0.000717476
0.00066795
0.000661375
0.000688165
0.000673844
0.000643113
0.00067614
0.000700626
0.000642084
0.000513062
0.000488558
0.000587104
0.000637561
0.000630141
0.000574256
0.00029229
0.000213065
0.000454539
0.000408232
2.31789e-05
5.10472e-06
6.0576e-06
0.000128171
7.29984e-05
0.000177386
0.000175095
0.000178873
0.000187384
0.000206214
0.000239033
0.000277107
0.000311008
0.000327253
0.000323728
0.000306668
0.000271759
0.000237207
0.000206506
0.000176597
0.000152258
0.000136024
0.000126446
0.000119967
0.000118591
0.000120912
0.000126855
0.000133888
0.000146449
0.000258041
0.000526953
0.000692351
0.000729909
0.000627869
0.000296187
0.000121979
0.000133379
0.000124143
0.000119524
0.000181618
0.000141935
0.000300452
0.000217356
0.0004772
0.000397448
0.000541717
0.000498124
0.00058873
0.00055728
0.000624674
0.000613331
0.000652725
0.000642515
0.000594833
0.000564556
0.00057024
0.000532467
0.000603126
0.000550669
0.000562103
0.000515907
0.00062365
0.000606244
0.000584076
0.000566346
0.000640337
0.000621016
0.000603844
0.000698337
0.000666425
0.000631086
0.000609777
0.00063545
0.000701192
0.000674356
0.000697984
0.000682779
0.000669157
0.000556901
0.000533359
0.000619788
0.00066127
0.00065133
0.000606621
0.000346335
0.000267298
0.000501082
0.000456678
2.38583e-05
3.24062e-06
5.36998e-06
0.00017017
8.82153e-05
0.000177235
0.000179276
0.000188375
0.000208211
0.000240907
0.00027884
0.000312111
0.000328311
0.000325351
0.000308421
0.000273288
0.00023851
0.000209896
0.000182094
0.000158044
0.000141885
0.000131834
0.00012507
0.000120534
0.000121063
0.000125905
0.000131707
0.000135882
0.000225814
0.000474568
0.000684973
0.00077971
0.000730125
0.000446883
0.00014596
0.000114283
0.000115507
0.000116538
0.000112863
0.000160322
0.000129395
0.000255901
0.00018602
0.000432055
0.000344467
0.000512958
0.000450343
0.000563448
0.000513278
0.000626
0.000599389
0.00054045
0.000521847
0.000500827
0.000462952
0.00052468
0.000486944
0.000493452
0.000438358
0.000545777
0.000527046
0.000506106
0.000485598
0.000582691
0.000565588
0.000544329
0.000524713
0.000603577
0.000584322
0.000564803
0.000643971
0.000612001
0.000585493
0.000563413
0.000586663
0.000662473
0.000689305
0.00064143
0.000621624
0.00067109
0.000590127
0.000568509
0.000639626
0.00065367
0.000633481
0.000626448
0.000396547
0.000316491
0.000538927
0.00049766
3.88065e-05
2.35143e-06
8.69845e-06
0.000214505
0.000112445
0.000181723
0.000189774
0.000210185
0.000243163
0.000280142
0.000312165
0.000329067
0.000326779
0.000309959
0.000274908
0.000239868
0.000211812
0.000186771
0.00016423
0.000149044
0.000138944
0.000132234
0.000124896
0.000122209
0.000124173
0.000128299
0.000134033
0.000211076
0.000429676
0.000655935
0.000804703
0.000811525
0.00059616
0.000207021
0.000116368
0.000125596
0.000111011
0.000113804
0.000113682
0.000110492
0.000143447
0.000122724
0.000207431
0.000161671
0.000370718
0.000281864
0.000448534
0.00036816
0.000483687
0.000414889
0.000509685
0.000503216
0.000432779
0.000409455
0.0003973
0.000367203
0.000464479
0.000446064
0.000431386
0.000404068
0.000500676
0.000478139
0.000452151
0.000428124
0.000543803
0.000521559
0.00049721
0.000471348
0.000564053
0.000542337
0.000518629
0.000589386
0.000563256
0.000539063
0.000512135
0.000538573
0.000597742
0.000619665
0.000575035
0.000564986
0.000599115
0.000611185
0.000590598
0.000611583
0.000577546
0.000555126
0.00058792
0.000439567
0.000341015
0.000545299
0.000489826
6.05256e-05
2.13048e-06
3.37375e-05
0.000224465
0.000139897
0.000193992
0.000212252
0.000244972
0.00028122
0.000312158
0.000328523
0.000327697
0.000311995
0.000276595
0.000241189
0.000212738
0.00019062
0.000170286
0.0001578
0.00014786
0.000138201
0.000130184
0.000123757
0.000122158
0.000124546
0.000134652
0.000210153
0.000409124
0.000625464
0.000816026
0.000874288
0.000717692
0.000295482
0.000133172
0.000114716
0.000118142
0.000107876
0.000111015
0.000110854
0.000107292
0.000136007
0.00011985
0.000184234
0.000154543
0.000286881
0.000225578
0.000346203
0.000290635
0.000368562
0.000329763
0.00040089
0.000412961
0.000342079
0.000347794
0.000334651
0.000311916
0.000305938
0.000317226
0.000402099
0.00037867
0.000355196
0.000334735
0.000444111
0.000417166
0.000390861
0.000367005
0.000492867
0.000464852
0.000435843
0.000407116
0.000514649
0.000487335
0.000457398
0.000538122
0.000510729
0.000482802
0.000447757
0.000481059
0.000541147
0.000551228
0.00051678
0.000511507
0.000528996
0.000563935
0.00053848
0.000535944
0.000507154
0.000490545
0.000518953
0.000418772
0.000325338
0.000508143
0.000467287
9.55852e-05
8.33242e-06
8.48019e-05
0.000225091
0.000154598
0.000219167
0.000247055
0.000281473
0.000310942
0.000327434
0.000327605
0.000313601
0.000278818
0.00024278
0.000214316
0.000193099
0.000176379
0.0001666
0.000158056
0.000144035
0.00013322
0.00012732
0.000127111
0.000127967
0.000140157
0.000217849
0.000408404
0.000611236
0.000820355
0.000920724
0.000814884
0.00040504
0.000168143
0.000118885
0.000125012
0.000110906
0.000115598
0.00010536
0.000107055
0.000112006
0.000106901
0.000133872
0.000120631
0.000178967
0.00016038
0.000244727
0.000206732
0.000290751
0.000257101
0.000311371
0.000291071
0.000362498
0.000336987
0.000310234
0.000305209
0.000328627
0.000314619
0.000313085
0.000326057
0.000323051
0.000345491
0.000327748
0.000314431
0.000309983
0.00038033
0.00035633
0.000336524
0.000321745
0.000426634
0.000396844
0.000369705
0.000346456
0.000450996
0.000417906
0.000386681
0.000481802
0.000448452
0.000412593
0.000377104
0.000412122
0.000485681
0.000492504
0.000460204
0.000452781
0.000471982
0.000506091
0.000494582
0.000477113
0.000454806
0.000443005
0.000468829
0.000407577
0.000329375
0.000480391
0.00045551
0.000131395
1.40832e-05
0.000123144
0.000255862
0.000195211
0.000251836
0.00028217
0.000309283
0.000325519
0.000327033
0.000315351
0.000281826
0.000244421
0.000215845
0.000194858
0.000182473
0.000175804
0.000166028
0.000148179
0.000138136
0.000140584
0.000148077
0.000159457
0.000183015
0.000253304
0.00041677
0.000615028
0.000825226
0.000958172
0.000890288
0.000510644
0.000208201
0.000127954
0.000115422
0.000119022
0.000107397
0.000110977
0.000108077
0.000106009
0.000122682
0.000113827
0.000146095
0.000133655
0.00020375
0.000190693
0.000232929
0.000216774
0.000280624
0.00027514
0.000315688
0.000320052
0.000315116
0.000312221
0.000337699
0.000329373
0.000326593
0.000329666
0.000333749
0.000337361
0.000327172
0.000333924
0.000312455
0.00030938
0.000312754
0.000322865
0.000328689
0.000317376
0.000313487
0.000316584
0.000359529
0.000337756
0.00032281
0.000316078
0.000379403
0.00035145
0.000330774
0.000417129
0.000380809
0.000347624
0.00032778
0.000349304
0.000427052
0.000440047
0.000405309
0.000390364
0.000423775
0.000463298
0.000460234
0.000434559
0.000410391
0.000400385
0.000429316
0.000413162
0.000361141
0.000457783
0.000449338
0.00014174
0.00012829
0.000147269
0.000322687
0.000271648
0.000284369
0.000306825
0.000322463
0.000325701
0.000316487
0.000284911
0.000246593
0.000217243
0.000196311
0.000188353
0.000185082
0.000173818
0.000157639
0.000169118
0.000206707
0.000255124
0.000297073
0.000329906
0.000366312
0.000446932
0.000623479
0.00083211
0.000987953
0.000946616
0.000597454
0.000242251
0.000139155
0.000118252
0.000122813
0.000111211
0.000114797
0.000107336
0.000108096
0.000118444
0.000110529
0.000145048
0.000130418
0.00017633
0.000160799
0.000254111
0.000240587
0.000270964
0.000264232
0.000326566
0.000330483
0.000357133
0.000362092
0.000332944
0.000337276
0.000347465
0.000324482
0.00032422
0.000339294
0.000343231
0.000331503
0.000327595
0.000328597
0.000327
0.000325862
0.000339807
0.000348187
0.00033879
0.000318004
0.000328207
0.000345017
0.000354627
0.000319058
0.000317413
0.000325505
0.000342724
0.000327059
0.000317579
0.000319662
0.000356571
0.000332771
0.000318053
0.000325208
0.000321325
0.000371002
0.000389149
0.000355746
0.000342515
0.000375008
0.000428634
0.000431546
0.000393355
0.000363222
0.000353965
0.000391518
0.000428095
0.000416515