/*--------------------------------*- C++ -*----------------------------------*\
  =========                 |
  \\      /  F ield         | OpenFOAM: The Open Source CFD Toolbox
   \\    /   O peration     | Website:  https://openfoam.org
    \\  /    A nd           | Version:  dev
     \\/     M anipulation  |
\*---------------------------------------------------------------------------*/
FoamFile
{
    version     2.0;
    format      ascii;
    class       volScalarField;
    location    "2500";
    object      O2;
}
// * * * * * * * * * * * * * * * * * * * * * * * * * * * * * * * * * * * * * //

dimensions      [0 0 0 0 0 0 0];

internalField   nonuniform List<scalar> 
9841
(
0.23301
0.23301
0.23301
0.23301
0.23301
0.23301
0.23301
0.23301
0.23301
0.23301
0.23301
0.23301
0.23301
0.23301
0.23301
0.23301
0.23301
0.23301
0.23301
0.23301
0.23301
0.23301
0.23301
0.23301
0.23301
0.23301
0.23301
0.23301
0.23301
0.23301
0.23301
0.23301
0.23301
0.23301
0.23301
0.23301
0.23301
0.23301
0.23301
0.23301
0.23301
0.23301
0.23301
0.23301
0.23301
0.23301
0.23301
0.23301
0.23301
0.23301
0.23301
0.23301
0.23301
0.23301
0.23301
0.23301
0.23301
0.23301
0.23301
0.23301
0.23301
0.23301
0.23301
0.23301
0.23301
0.23301
0.23301
0.23301
0.23301
0.23301
0.23301
0.23301
0.23301
0.23301
0.23301
0.23301
0.23301
0.23301
0.23301
0.23301
0.23301
0.23301
0.23301
0.23301
0.23301
0.23301
0.23301
0.23301
0.23301
0.23301
0.23301
0.23301
0.23301
0.23301
0.23301
0.23301
0.23301
0.23301
0.23301
0.23301
0.23301
0.23301
0.23301
0.23301
0.23301
0.23301
0.23301
0.23301
0.23301
0.23301
0.23301
0.23301
0.23301
0.23301
0.23301
0.23301
0.23301
0.23301
0.23301
0.23301
0.23301
0.23301
0.23301
0.23301
0.23301
0.23301
0.23301
0.23301
0.23301
0.23301
0.23301
0.23301
0.23301
0.23301
0.23301
0.23301
0.23301
0.23301
0.23301
0.23301
0.23301
0.23301
0.23301
0.23301
0.23301
0.23301
0.23301
0.23301
0.23301
0.23301
0.23301
0.23301
0.23301
0.23301
0.23301
0.23301
0.23301
0.23301
0.23301
0.23301
0.23301
0.23301
0.23301
0.23301
0.23301
0.23301
0.23301
0.23301
0.23301
0.23301
0.23301
0.23301
0.23301
0.23301
0.23301
0.23301
0.23301
0.23301
0.23301
0.23301
0.23301
0.23301
0.23301
0.23301
0.23301
0.23301
0.23301
0.23301
0.23301
0.23301
0.23301
0.23301
0.23301
0.23301
0.23301
0.23301
0.23301
0.23301
0.23301
0.23301
0.23301
0.23301
0.23301
0.23301
0.23301
0.23301
0.23301
0.23301
0.23301
0.23301
0.23301
0.23301
0.23301
0.23301
0.23301
0.23301
0.23301
0.23301
0.23301
0.23301
0.23301
0.23301
0.23301
0.23301
0.23301
0.23301
0.23301
0.23301
0.23301
0.23301
0.23301
0.23301
0.23301
0.23301
0.23301
0.23301
0.23301
0.23301
0.23301
0.23301
0.23301
0.23301
0.23301
0.23301
0.23301
0.23301
0.23301
0.23301
0.23301
0.23301
0.23301
0.23301
0.23301
0.23301
0.23301
0.23301
0.23301
0.23301
0.23301
0.23301
0.23301
0.23301
0.23301
0.23301
0.23301
0.23301
0.23301
0.23301
0.23301
0.23301
0.23301
0.23301
0.23301
0.23301
0.23301
0.23301
0.23301
0.23301
0.23301
0.23301
0.23301
0.23301
0.23301
0.23301
0.23301
0.23301
0.23301
0.23301
0.23301
0.23301
0.23301
0.23301
0.23301
0.23301
0.23301
0.23301
0.23301
0.23301
0.23301
0.23301
0.23301
0.23301
0.23301
0.23301
0.23301
0.23301
0.23301
0.23301
0.23301
0.23301
0.23301
0.23301
0.23301
0.23301
0.23301
0.23301
0.23301
0.23301
0.23301
0.23301
0.23301
0.23301
0.23301
0.23301
0.23301
0.23301
0.23301
0.23301
0.23301
0.23301
0.23301
0.23301
0.23301
0.23301
0.23301
0.23301
0.23301
0.23301
0.23301
0.23301
0.23301
0.23301
0.23301
0.23301
0.23301
0.23301
0.23301
0.23301
0.23301
0.23301
0.23301
0.23301
0.23301
0.23301
0.23301
0.23301
0.23301
0.23301
0.23301
0.23301
0.23301
0.23301
0.23301
0.23301
0.23301
0.23301
0.23301
0.23301
0.23301
0.23301
0.23301
0.23301
0.23301
0.23301
0.23301
0.23301
0.23301
0.23301
0.23301
0.23301
0.23301
0.23301
0.23301
0.23301
0.23301
0.23301
0.23301
0.23301
0.23301
0.23301
0.23301
0.23301
0.23301
0.23301
0.23301
0.23301
0.23301
0.23301
0.23301
0.23301
0.23301
0.23301
0.23301
0.23301
0.23301
0.23301
0.23301
0.23301
0.23301
0.23301
0.23301
0.23301
0.23301
0.23301
0.23301
0.23301
0.23301
0.23301
0.23301
0.23301
0.23301
0.23301
0.23301
0.23301
0.23301
0.23301
0.23301
0.23301
0.23301
0.23301
0.23301
0.23301
0.23301
0.23301
0.23301
0.23301
0.23301
0.23301
0.23301
0.23301
0.23301
0.23301
0.23301
0.23301
0.23301
0.23301
0.23301
0.23301
0.23301
0.23301
0.23301
0.23301
0.23301
0.23301
0.23301
0.23301
0.23301
0.23301
0.23301
0.23301
0.23301
0.23301
0.23301
0.23301
0.23301
0.23301
0.23301
0.23301
0.23301
0.23301
0.23301
0.23301
0.23301
0.23301
0.23301
0.23301
0.23301
0.23301
0.23301
0.23301
0.23301
0.23301
0.23301
0.23301
0.23301
0.23301
0.23301
0.23301
0.23301
0.23301
0.23301
0.23301
0.23301
0.23301
0.23301
0.23301
0.23301
0.23301
0.23301
0.23301
0.23301
0.23301
0.23301
0.23301
0.23301
0.23301
0.23301
0.23301
0.23301
0.23301
0.23301
0.23301
0.23301
0.23301
0.23301
0.23301
0.23301
0.23301
0.23301
0.23301
0.23301
0.23301
0.23301
0.23301
0.23301
0.23301
0.23301
0.23301
0.23301
0.23301
0.23301
0.23301
0.23301
0.23301
0.23301
0.23301
0.23301
0.23301
0.23301
0.23301
0.23301
0.23301
0.23301
0.23301
0.23301
0.23301
0.23301
0.23301
0.23301
0.23301
0.23301
0.23301
0.23301
0.23301
0.23301
0.23301
0.23301
0.23301
0.23301
0.23301
0.23301
0.23301
0.23301
0.23301
0.23301
0.23301
0.23301
0.23301
0.23301
0.23301
0.23301
0.23301
0.23301
0.23301
0.23301
0.23301
0.23301
0.23301
0.23301
0.23301
0.23301
0.23301
0.23301
0.23301
0.23301
0.23301
0.23301
0.23301
0.23301
0.23301
0.23301
0.23301
0.23301
0.23301
0.23301
0.23301
0.23301
0.23301
0.23301
0.23301
0.23301
0.23301
0.23301
0.23301
0.23301
0.23301
0.23301
0.23301
0.23301
0.23301
0.23301
0.23301
0.23301
0.23301
0.23301
0.23301
0.23301
0.23301
0.23301
0.23301
0.23301
0.23301
0.23301
0.23301
0.23301
0.23301
0.23301
0.23301
0.23301
0.23301
0.23301
0.23301
0.23301
0.23301
0.23301
0.23301
0.23301
0.23301
0.23301
0.23301
0.23301
0.23301
0.23301
0.23301
0.23301
0.23301
0.23301
0.23301
0.23301
0.23301
0.23301
0.23301
0.23301
0.23301
0.23301
0.23301
0.23301
0.23301
0.23301
0.23301
0.23301
0.23301
0.23301
0.23301
0.23301
0.23301
0.23301
0.23301
0.23301
0.23301
0.23301
0.23301
0.23301
0.23301
0.23301
0.23301
0.23301
0.23301
0.23301
0.23301
0.23301
0.23301
0.23301
0.23301
0.23301
0.23301
0.23301
0.23301
0.23301
0.23301
0.23301
0.23301
0.23301
0.23301
0.23301
0.23301
0.23301
0.23301
0.23301
0.23301
0.23301
0.23301
0.23301
0.23301
0.23301
0.23301
0.23301
0.23301
0.23301
0.23301
0.23301
0.23301
0.23301
0.23301
0.23301
0.23301
0.23301
0.23301
0.23301
0.23301
0.23301
0.23301
0.23301
0.23301
0.23301
0.23301
0.23301
0.23301
0.23301
0.23301
0.23301
0.23301
0.23301
0.23301
0.23301
0.23301
0.23301
0.23301
0.23301
0.23301
0.23301
0.23301
0.23301
0.23301
0.23301
0.23301
0.23301
0.23301
0.23301
0.23301
0.23301
0.23301
0.23301
0.23301
0.23301
0.23301
0.23301
0.23301
0.23301
0.23301
0.23301
0.23301
0.23301
0.23301
0.23301
0.23301
0.23301
0.23301
0.23301
0.23301
0.23301
0.23301
0.23301
0.23301
0.23301
0.23301
0.23301
0.23301
0.23301
0.23301
0.23301
0.23301
0.23301
0.23301
0.23301
0.23301
0.23301
0.23301
0.23301
0.23301
0.23301
0.23301
0.23301
0.23301
0.23301
0.23301
0.23301
0.23301
0.23301
0.23301
0.23301
0.23301
0.23301
0.23301
0.23301
0.23301
0.23301
0.23301
0.23301
0.23301
0.23301
0.23301
0.23301
0.23301
0.23301
0.23301
0.23301
0.23301
0.23301
0.23301
0.23301
0.23301
0.23301
0.23301
0.23301
0.23301
0.23301
0.23301
0.23301
0.23301
0.23301
0.23301
0.23301
0.23301
0.23301
0.23301
0.23301
0.23301
0.23301
0.23301
0.23301
0.23301
0.23301
0.23301
0.23301
0.23301
0.23301
0.23301
0.23301
0.23301
0.23301
0.23301
0.23301
0.23301
0.23301
0.23301
0.23301
0.23301
0.23301
0.23301
0.23301
0.23301
0.23301
0.23301
0.23301
0.23301
0.23301
0.23301
0.23301
0.23301
0.23301
0.23301
0.23301
0.23301
0.23301
0.23301
0.23301
0.23301
0.23301
0.23301
0.23301
0.23301
0.23301
0.23301
0.23301
0.23301
0.23301
0.23301
0.23301
0.23301
0.23301
0.23301
0.23301
0.23301
0.23301
0.23301
0.23301
0.23301
0.23301
0.23301
0.23301
0.23301
0.23301
0.23301
0.23301
0.23301
0.23301
0.23301
0.23301
0.23301
0.23301
0.23301
0.23301
0.23301
0.23301
0.23301
0.23301
0.23301
0.23301
0.23301
0.23301
0.23301
0.23301
0.23301
0.23301
0.23301
0.23301
0.23301
0.23301
0.23301
0.23301
0.23301
0.233009
0.233009
0.233008
0.233009
0.233009
0.233009
0.23301
0.233009
0.23301
0.23301
0.23301
0.23301
0.23301
0.23301
0.23301
0.23301
0.23301
0.23301
0.23301
0.23301
0.23301
0.23301
0.23301
0.23301
0.23301
0.23301
0.23301
0.23301
0.23301
0.23301
0.23301
0.23301
0.23301
0.23301
0.23301
0.23301
0.23301
0.23301
0.23301
0.23301
0.23301
0.23301
0.23301
0.23301
0.23301
0.23301
0.23301
0.23301
0.23301
0.23301
0.23301
0.233009
0.233007
0.233004
0.232999
0.232997
0.233006
0.232998
0.233008
0.233005
0.233009
0.233007
0.23301
0.233009
0.23301
0.233009
0.23301
0.23301
0.23301
0.23301
0.23301
0.23301
0.23301
0.23301
0.23301
0.23301
0.23301
0.23301
0.23301
0.23301
0.23301
0.23301
0.23301
0.23301
0.23301
0.23301
0.23301
0.23301
0.23301
0.23301
0.23301
0.23301
0.23301
0.23301
0.23301
0.23301
0.23301
0.23301
0.23301
0.23301
0.23301
0.23301
0.23301
0.23301
0.23301
0.233007
0.233001
0.232983
0.232957
0.232929
0.232974
0.232903
0.232995
0.232965
0.233003
0.23299
0.233006
0.233001
0.233008
0.233005
0.233009
0.233008
0.23301
0.233009
0.23301
0.233009
0.23301
0.23301
0.23301
0.23301
0.23301
0.23301
0.23301
0.23301
0.23301
0.23301
0.23301
0.23301
0.23301
0.23301
0.23301
0.23301
0.23301
0.23301
0.23301
0.23301
0.23301
0.23301
0.23301
0.23301
0.23301
0.23301
0.23301
0.23301
0.23301
0.23301
0.23301
0.23301
0.23301
0.23301
0.233009
0.233005
0.232986
0.232935
0.232832
0.232711
0.232771
0.232596
0.232885
0.232713
0.232953
0.232855
0.232984
0.232937
0.232997
0.232975
0.233003
0.232992
0.233006
0.233
0.233008
0.233005
0.233009
0.233008
0.233009
0.23301
0.233009
0.233009
0.23301
0.23301
0.23301
0.23301
0.23301
0.23301
0.23301
0.23301
0.23301
0.23301
0.23301
0.23301
0.23301
0.23301
0.23301
0.23301
0.23301
0.23301
0.23301
0.23301
0.23301
0.23301
0.23301
0.23301
0.23301
0.23301
0.23301
0.23301
0.23301
0.23301
0.233009
0.233003
0.232966
0.232859
0.232644
0.232335
0.232049
0.232516
0.232213
0.232678
0.232454
0.232824
0.232639
0.232916
0.232783
0.232961
0.232883
0.232983
0.232938
0.232995
0.232969
0.233003
0.232988
0.233007
0.233
0.233007
0.233009
0.233007
0.233007
0.23301
0.23301
0.23301
0.23301
0.23301
0.23301
0.23301
0.23301
0.23301
0.23301
0.23301
0.23301
0.23301
0.23301
0.23301
0.23301
0.23301
0.23301
0.23301
0.23301
0.23301
0.23301
0.23301
0.23301
0.23301
0.23301
0.23301
0.23301
0.23301
0.23301
0.233009
0.233003
0.232954
0.232776
0.232435
0.231989
0.231594
0.231693
0.231403
0.232203
0.231935
0.232415
0.232158
0.232595
0.23237
0.23273
0.232535
0.232829
0.232657
0.2329
0.23275
0.232946
0.232838
0.232979
0.232914
0.232998
0.232967
0.232996
0.233008
0.232996
0.232998
0.23301
0.233009
0.23301
0.23301
0.23301
0.23301
0.23301
0.23301
0.23301
0.23301
0.23301
0.23301
0.23301
0.23301
0.23301
0.23301
0.23301
0.23301
0.23301
0.23301
0.23301
0.23301
0.23301
0.23301
0.23301
0.23301
0.23301
0.23301
0.23301
0.23301
0.23301
0.233003
0.232954
0.232731
0.232244
0.231691
0.231199
0.231195
0.230977
0.231333
0.231082
0.231885
0.231606
0.232118
0.231841
0.232309
0.232059
0.23245
0.232219
0.232555
0.232331
0.232645
0.232417
0.232752
0.232512
0.232875
0.232654
0.232958
0.232839
0.232954
0.233001
0.232955
0.232963
0.233009
0.233005
0.23301
0.23301
0.23301
0.23301
0.23301
0.23301
0.23301
0.23301
0.23301
0.23301
0.23301
0.23301
0.23301
0.23301
0.23301
0.23301
0.23301
0.23301
0.23301
0.23301
0.23301
0.23301
0.23301
0.23301
0.23301
0.23301
0.23301
0.23301
0.23301
0.233005
0.232958
0.232731
0.232148
0.231545
0.231121
0.230861
0.230803
0.230865
0.230711
0.231005
0.230769
0.231554
0.231272
0.231789
0.231502
0.231969
0.231704
0.232088
0.231834
0.232169
0.23191
0.232244
0.231965
0.232357
0.232042
0.232557
0.232194
0.232815
0.232475
0.232805
0.232976
0.232813
0.232844
0.233008
0.232991
0.23301
0.23301
0.23301
0.23301
0.23301
0.23301
0.23301
0.23301
0.23301
0.23301
0.23301
0.23301
0.23301
0.23301
0.23301
0.23301
0.23301
0.23301
0.23301
0.23301
0.23301
0.23301
0.23301
0.23301
0.23301
0.23301
0.23301
0.23301
0.23301
0.233007
0.232967
0.232746
0.232155
0.231597
0.231262
0.230888
0.230637
0.230625
0.230585
0.23048
0.230688
0.23048
0.231213
0.230938
0.231425
0.231139
0.231571
0.231301
0.231647
0.231382
0.231684
0.231408
0.231725
0.23142
0.231822
0.231468
0.232038
0.231607
0.232419
0.231903
0.232397
0.232893
0.232429
0.23253
0.233003
0.232946
0.23301
0.233008
0.23301
0.23301
0.23301
0.23301
0.23301
0.23301
0.23301
0.23301
0.23301
0.23301
0.23301
0.23301
0.23301
0.23301
0.23301
0.23301
0.23301
0.23301
0.23301
0.23301
0.23301
0.23301
0.23301
0.23301
0.23301
0.23301
0.233008
0.232983
0.232786
0.232195
0.231698
0.231502
0.231365
0.230738
0.231179
0.230471
0.230535
0.230338
0.230293
0.230383
0.230213
0.230861
0.230606
0.231025
0.230753
0.231119
0.230856
0.231139
0.230881
0.231131
0.230862
0.231139
0.230848
0.231219
0.230884
0.231424
0.231015
0.231812
0.231288
0.231774
0.232669
0.231811
0.231962
0.232986
0.232819
0.23301
0.233005
0.23301
0.23301
0.23301
0.23301
0.23301
0.23301
0.23301
0.23301
0.23301
0.23301
0.23301
0.23301
0.23301
0.23301
0.23301
0.23301
0.23301
0.23301
0.23301
0.23301
0.23301
0.23301
0.23301
0.23301
0.23301
0.233009
0.232995
0.23285
0.232285
0.231778
0.231661
0.231816
0.231577
0.232011
0.230872
0.231388
0.23032
0.230485
0.230125
0.230126
0.230092
0.229972
0.230499
0.230275
0.230598
0.230356
0.230636
0.230401
0.230616
0.23039
0.230589
0.230359
0.230597
0.230356
0.230679
0.230409
0.23087
0.230546
0.231217
0.230788
0.231209
0.232217
0.231285
0.231417
0.231764
0.232945
0.232579
0.23301
0.233001
0.23301
0.23301
0.23301
0.23301
0.23301
0.23301
0.23301
0.23301
0.23301
0.23301
0.23301
0.23301
0.23301
0.23301
0.23301
0.23301
0.23301
0.23301
0.23301
0.23301
0.23301
0.23301
0.23301
0.23301
0.23301
0.233001
0.232907
0.232427
0.231843
0.231743
0.232017
0.232579
0.231918
0.232412
0.231025
0.231641
0.230228
0.230518
0.229941
0.229999
0.229828
0.229773
0.230141
0.22996
0.23018
0.22998
0.23018
0.229985
0.230155
0.229971
0.230149
0.229966
0.230187
0.23
0.230288
0.230082
0.230473
0.230232
0.23077
0.230466
0.230604
0.231016
0.23081
0.23154
0.232071
0.231664
0.231139
0.2309
0.230857
0.231221
0.232882
0.231857
0.232073
0.23253
0.23301
0.233002
0.23301
0.23301
0.23301
0.23301
0.23301
0.23301
0.23301
0.23301
0.23301
0.23301
0.23301
0.23301
0.23301
0.23301
0.23301
0.23301
0.23301
0.23301
0.23301
0.23301
0.23301
0.23301
0.23301
0.23301
0.233006
0.23295
0.232579
0.231918
0.231783
0.232044
0.232639
0.232803
0.232907
0.232229
0.232634
0.231218
0.231897
0.230195
0.230619
0.229814
0.229956
0.229638
0.229673
0.229809
0.229683
0.229808
0.229655
0.229804
0.229649
0.229804
0.229657
0.229836
0.229686
0.229908
0.229753
0.230136
0.230045
0.22996
0.229876
0.230345
0.230232
0.230037
0.230037
0.230133
0.230479
0.230642
0.230493
0.230351
0.230671
0.231328
0.231468
0.230966
0.230765
0.230713
0.231049
0.23238
0.232903
0.232633
0.231653
0.231893
0.23301
0.232864
0.232972
0.233006
0.23301
0.23301
0.23301
0.23301
0.23301
0.23301
0.23301
0.23301
0.23301
0.23301
0.23301
0.23301
0.23301
0.23301
0.23301
0.23301
0.23301
0.23301
0.23301
0.23301
0.23301
0.23301
0.23301
0.233008
0.232977
0.23271
0.232028
0.231803
0.232015
0.232574
0.232929
0.232915
0.232964
0.232462
0.23278
0.231454
0.232125
0.230275
0.230791
0.229786
0.23004
0.229569
0.229679
0.229556
0.229535
0.229524
0.229462
0.229526
0.229439
0.229553
0.229452
0.229615
0.229505
0.229799
0.229725
0.229659
0.2296
0.229948
0.229867
0.229789
0.230241
0.230141
0.229949
0.229962
0.230049
0.230369
0.230522
0.230396
0.230259
0.230559
0.231156
0.231296
0.23083
0.230605
0.23066
0.230913
0.232174
0.232501
0.231479
0.231711
0.233004
0.23301
0.23301
0.232788
0.232946
0.23301
0.23301
0.23301
0.23301
0.23301
0.23301
0.23301
0.23301
0.23301
0.23301
0.23301
0.23301
0.23301
0.23301
0.23301
0.23301
0.23301
0.23301
0.23301
0.23301
0.23301
0.23301
0.233008
0.23299
0.232808
0.232179
0.231824
0.231943
0.232416
0.232854
0.232992
0.232989
0.232953
0.232986
0.232604
0.232853
0.231735
0.23233
0.230476
0.231061
0.229921
0.230317
0.22965
0.229923
0.229465
0.229513
0.229406
0.229427
0.229395
0.229388
0.22943
0.229399
0.229551
0.229514
0.229487
0.22948
0.229719
0.229657
0.229606
0.229565
0.229867
0.229793
0.229728
0.230161
0.23007
0.229882
0.229911
0.229986
0.230288
0.230432
0.230325
0.230191
0.230476
0.231016
0.231149
0.230726
0.230528
0.230585
0.230805
0.231997
0.232335
0.231323
0.231546
0.233001
0.23301
0.233009
0.232681
0.232908
0.23301
0.23301
0.23301
0.23301
0.23301
0.23301
0.23301
0.23301
0.23301
0.23301
0.23301
0.23301
0.23301
0.23301
0.23301
0.23301
0.23301
0.23301
0.23301
0.23301
0.233009
0.233008
0.232995
0.23287
0.232335
0.231854
0.231873
0.232248
0.232701
0.232981
0.233001
0.233003
0.232972
0.232994
0.232713
0.2329
0.232084
0.232566
0.230841
0.231463
0.230319
0.230821
0.230054
0.230486
0.229518
0.22972
0.229451
0.229621
0.229448
0.229603
0.229485
0.229517
0.229563
0.229646
0.229538
0.229529
0.229538
0.229569
0.229673
0.229631
0.229603
0.229594
0.229812
0.229753
0.229709
0.230102
0.230021
0.229847
0.229897
0.229952
0.23023
0.230369
0.230276
0.230143
0.23042
0.230902
0.231026
0.230651
0.230476
0.230535
0.230725
0.231829
0.232171
0.231187
0.231398
0.232993
0.23301
0.233008
0.232559
0.232862
0.23301
0.23301
0.23301
0.23301
0.23301
0.23301
0.23301
0.23301
0.23301
0.23301
0.23301
0.23301
0.23301
0.23301
0.23301
0.23301
0.23301
0.233009
0.233009
0.233008
0.233007
0.232995
0.232896
0.232454
0.231903
0.231825
0.232103
0.232537
0.232928
0.233006
0.233004
0.233002
0.233005
0.232981
0.232996
0.232832
0.232941
0.232494
0.232767
0.231396
0.232003
0.230998
0.231558
0.230825
0.231326
0.22992
0.230328
0.22989
0.230323
0.229947
0.230357
0.229622
0.229702
0.229804
0.229913
0.229604
0.229638
0.229696
0.229781
0.22968
0.229671
0.229681
0.229716
0.229798
0.229766
0.229755
0.230068
0.230006
0.229859
0.229939
0.229961
0.230194
0.230329
0.230252
0.230125
0.230387
0.230813
0.230923
0.230598
0.230447
0.230507
0.230665
0.23167
0.232011
0.231066
0.231254
0.232977
0.23301
0.233002
0.232424
0.232777
0.23301
0.23301
0.23301
0.23301
0.23301
0.23301
0.23301
0.23301
0.23301
0.23301
0.23301
0.23301
0.23301
0.23301
0.23301
0.233009
0.233008
0.233007
0.233005
0.233002
0.232991
0.2329
0.232513
0.231958
0.231797
0.231986
0.232387
0.232842
0.233001
0.233006
0.233008
0.233001
0.233004
0.232981
0.232994
0.232894
0.232953
0.23268
0.232819
0.232081
0.232452
0.231764
0.232099
0.231528
0.23177
0.230804
0.231225
0.230837
0.231188
0.230605
0.230817
0.231148
0.230991
0.229894
0.230034
0.2302
0.230391
0.229778
0.229868
0.229986
0.230132
0.229763
0.229799
0.229863
0.229957
0.229844
0.229849
0.229884
0.230071
0.230039
0.229937
0.23005
0.230029
0.23019
0.230316
0.230259
0.230146
0.230381
0.230739
0.230829
0.230564
0.230443
0.230502
0.23062
0.231502
0.231824
0.230946
0.231105
0.232932
0.233008
0.232978
0.232219
0.232596
0.23301
0.23301
0.23301
0.23301
0.23301
0.23301
0.23301
0.23301
0.23301
0.23301
0.23301
0.23301
0.23301
0.23301
0.233008
0.233005
0.233001
0.232995
0.232988
0.232974
0.232891
0.232525
0.231991
0.231782
0.231898
0.232257
0.232733
0.232979
0.233008
0.233008
0.233005
0.233007
0.232995
0.233001
0.232965
0.232983
0.232896
0.232938
0.232666
0.232736
0.232353
0.232543
0.231972
0.232119
0.231534
0.231511
0.231375
0.231486
0.231236
0.231278
0.231194
0.231006
0.23111
0.231199
0.231175
0.230301
0.230486
0.23068
0.23086
0.230079
0.230226
0.230393
0.230568
0.229949
0.230044
0.230167
0.230313
0.229967
0.23003
0.230124
0.230126
0.230132
0.230104
0.230248
0.230174
0.230227
0.230333
0.230311
0.230219
0.230405
0.230677
0.230744
0.230554
0.23047
0.230524
0.230595
0.231319
0.231601
0.230835
0.230963
0.232802
0.232987
0.232878
0.231931
0.23223
0.23301
0.23301
0.23301
0.23301
0.23301
0.23301
0.23301
0.23301
0.23301
0.23301
0.23301
0.23301
0.233009
0.233005
0.232995
0.23298
0.232963
0.232949
0.232928
0.232849
0.232516
0.231995
0.231769
0.231835
0.232153
0.232627
0.232948
0.233008
0.233008
0.233009
0.233001
0.233005
0.232972
0.232992
0.232896
0.23294
0.23279
0.232844
0.232275
0.232343
0.232203
0.232244
0.231425
0.231317
0.230323
0.230008
0.230974
0.230661
0.231179
0.231134
0.230169
0.229907
0.231065
0.231038
0.230809
0.230946
0.230738
0.230882
0.230988
0.231054
0.230472
0.230631
0.230773
0.230885
0.230245
0.230384
0.230528
0.230662
0.230192
0.230306
0.230433
0.230242
0.230296
0.230348
0.230462
0.230375
0.230313
0.230391
0.230399
0.230344
0.230461
0.230634
0.230679
0.230563
0.230514
0.23055
0.230587
0.23114
0.231367
0.230742
0.230839
0.232475
0.232737
0.232524
0.231606
0.23178
0.23301
0.23301
0.23301
0.23301
0.23301
0.23301
0.23301
0.23301
0.23301
0.23301
0.233009
0.233007
0.232995
0.232965
0.232919
0.232876
0.232849
0.232817
0.232733
0.232471
0.231986
0.23176
0.231794
0.232078
0.23254
0.232915
0.233002
0.233009
0.23301
0.233006
0.233008
0.232989
0.233001
0.232909
0.232961
0.232715
0.232827
0.232452
0.232584
0.231298
0.231471
0.23124
0.231238
0.229731
0.229544
0.228153
0.22784
0.229668
0.229405
0.228584
0.230629
0.230416
0.22914
0.228856
0.230685
0.230496
0.230006
0.230268
0.230947
0.230955
0.230919
0.230829
0.230769
0.230829
0.230839
0.230816
0.230556
0.230657
0.230711
0.230722
0.230457
0.230555
0.230607
0.230398
0.230457
0.230521
0.230489
0.230485
0.230427
0.230468
0.230479
0.230459
0.230513
0.230606
0.230631
0.230567
0.23054
0.230555
0.230576
0.230979
0.231149
0.23067
0.230735
0.231814
0.231756
0.231667
0.231302
0.231358
0.23301
0.23301
0.23301
0.23301
0.23301
0.23301
0.23301
0.23301
0.23301
0.233009
0.233002
0.23297
0.232891
0.232795
0.232732
0.232698
0.232661
0.23257
0.232344
0.231951
0.23175
0.231775
0.232037
0.232479
0.232884
0.232997
0.23301
0.233008
0.23301
0.233002
0.233006
0.232955
0.232988
0.23276
0.232884
0.232317
0.232569
0.231733
0.232027
0.229721
0.230077
0.229499
0.229553
0.227613
0.227472
0.226847
0.226706
0.22625
0.228598
0.228421
0.226965
0.227171
0.229724
0.229435
0.228089
0.22782
0.229901
0.229607
0.228987
0.2293
0.230728
0.230588
0.230401
0.230171
0.230706
0.230637
0.23051
0.230326
0.23062
0.230612
0.230561
0.230455
0.230541
0.230539
0.230506
0.230469
0.230464
0.230474
0.230356
0.230427
0.230478
0.230507
0.230489
0.230465
0.230526
0.230583
0.230591
0.230558
0.230532
0.230535
0.230558
0.230837
0.230957
0.230607
0.23064
0.231247
0.23127
0.231036
0.231041
0.23103
0.23301
0.23301
0.23301
0.23301
0.23301
0.23301
0.23301
0.23301
0.233009
0.232996
0.232934
0.232797
0.232659
0.232576
0.23253
0.232478
0.232376
0.232148
0.231876
0.231736
0.231775
0.232029
0.232452
0.232863
0.232993
0.233009
0.23301
0.23301
0.233007
0.233009
0.23299
0.233003
0.232876
0.232956
0.23245
0.232718
0.231579
0.232062
0.230533
0.23105
0.227864
0.228348
0.227491
0.227594
0.226188
0.226222
0.226201
0.226106
0.225772
0.225767
0.227579
0.227359
0.226305
0.226425
0.228677
0.228379
0.227156
0.226935
0.228903
0.228578
0.22796
0.228262
0.230096
0.229832
0.229538
0.229227
0.230291
0.230062
0.229786
0.229486
0.230419
0.230279
0.23007
0.229795
0.230413
0.230301
0.230122
0.230416
0.230342
0.230225
0.229964
0.230196
0.230439
0.230484
0.230423
0.230369
0.230487
0.23055
0.23054
0.230531
0.230485
0.230477
0.230517
0.230708
0.230779
0.23053
0.23054
0.230897
0.231448
0.230878
0.230811
0.230777
0.23301
0.23301
0.23301
0.23301
0.23301
0.23301
0.23301
0.233008
0.23299
0.232899
0.232705
0.232525
0.232419
0.232355
0.232285
0.232153
0.231974
0.23181
0.231735
0.231787
0.232041
0.232455
0.232854
0.23299
0.233009
0.23301
0.233009
0.23301
0.233004
0.233008
0.232964
0.232994
0.232716
0.232886
0.231898
0.232399
0.230456
0.231227
0.228962
0.229677
0.226625
0.226932
0.226299
0.226427
0.225785
0.22582
0.225884
0.225805
0.225776
0.225662
0.225688
0.226742
0.226571
0.225848
0.225911
0.227673
0.227405
0.226406
0.226244
0.227889
0.227588
0.227048
0.227306
0.229173
0.228852
0.228526
0.228204
0.229485
0.229156
0.228819
0.228483
0.229863
0.229545
0.229199
0.228843
0.230007
0.229704
0.229337
0.230228
0.230003
0.229626
0.229211
0.229656
0.230303
0.2304
0.230245
0.230104
0.230382
0.230493
0.230459
0.23046
0.230364
0.230344
0.230431
0.23057
0.230599
0.230428
0.230409
0.230677
0.231995
0.231123
0.230604
0.230569
0.23301
0.23301
0.23301
0.23301
0.23301
0.23301
0.233008
0.232988
0.232875
0.232626
0.232401
0.232271
0.232184
0.232091
0.231976
0.231865
0.231781
0.231746
0.231828
0.232088
0.232495
0.232859
0.23299
0.233009
0.23301
0.23301
0.233008
0.23301
0.232999
0.233006
0.232911
0.232976
0.232428
0.232752
0.231078
0.231873
0.229113
0.230114
0.227439
0.228196
0.2263
0.226451
0.226021
0.226159
0.225724
0.225769
0.225963
0.225875
0.225639
0.225644
0.225641
0.22568
0.226109
0.225997
0.225647
0.225665
0.226812
0.226597
0.225892
0.225808
0.226984
0.226739
0.226319
0.226516
0.228156
0.22784
0.227536
0.22725
0.228484
0.228134
0.227798
0.227483
0.228948
0.228558
0.228175
0.227809
0.22921
0.228772
0.228326
0.22979
0.22936
0.228726
0.228325
0.228867
0.229989
0.230198
0.229898
0.229615
0.230158
0.230382
0.230327
0.230312
0.230133
0.230107
0.230263
0.230408
0.23042
0.23027
0.230234
0.230638
0.232621
0.231649
0.230415
0.230414
0.233009
0.23301
0.23301
0.23301
0.23301
0.233008
0.232988
0.232866
0.232568
0.232295
0.232136
0.232033
0.231949
0.231883
0.231824
0.231787
0.231789
0.231924
0.232197
0.232594
0.232885
0.232993
0.233009
0.23301
0.23301
0.23301
0.233009
0.23301
0.233007
0.232988
0.233003
0.232816
0.232941
0.231989
0.232529
0.230088
0.231154
0.227908
0.228948
0.226681
0.22712
0.226366
0.226425
0.226143
0.226296
0.225733
0.225799
0.226147
0.226039
0.225588
0.225609
0.22566
0.225731
0.225743
0.225696
0.225576
0.225572
0.22615
0.226005
0.225646
0.225611
0.226262
0.226095
0.225851
0.22596
0.227192
0.226924
0.226676
0.226455
0.227465
0.227148
0.22686
0.226608
0.227902
0.227513
0.227163
0.226853
0.228217
0.227728
0.227284
0.229151
0.228597
0.227774
0.227318
0.227971
0.229487
0.229833
0.229373
0.228949
0.229797
0.230199
0.230119
0.230066
0.229763
0.229705
0.23
0.230227
0.230226
0.230055
0.23002
0.230766
0.232838
0.232125
0.230246
0.230344
0.233007
0.233009
0.23301
0.23301
0.233009
0.232991
0.232867
0.232541
0.232209
0.232022
0.231926
0.231879
0.231842
0.231828
0.231826
0.231895
0.232083
0.232368
0.232707
0.232926
0.232997
0.233009
0.23301
0.23301
0.23301
0.233008
0.233009
0.23301
0.233006
0.232969
0.232998
0.232671
0.232885
0.231433
0.232217
0.229133
0.230349
0.227157
0.228006
0.226519
0.226722
0.226951
0.226838
0.226516
0.226639
0.226975
0.225822
0.225928
0.226401
0.226259
0.225579
0.225612
0.225737
0.225839
0.225587
0.225575
0.225559
0.225543
0.225765
0.225697
0.225545
0.225539
0.225831
0.225747
0.225631
0.225682
0.226392
0.226211
0.22606
0.225934
0.226581
0.226348
0.226165
0.226024
0.226905
0.226597
0.226349
0.226154
0.227247
0.22678
0.226415
0.228272
0.227504
0.226729
0.226304
0.226787
0.228717
0.229266
0.228434
0.227886
0.229148
0.229912
0.22983
0.229634
0.229016
0.228936
0.229549
0.229995
0.230026
0.22976
0.229702
0.23107
0.232977
0.232571
0.230082
0.230356
0.233005
0.233009
0.233009
0.233009
0.232997
0.232877
0.232539
0.232156
0.231938
0.23186
0.231839
0.231845
0.231867
0.231936
0.232091
0.232306
0.232573
0.232817
0.23296
0.233003
0.233009
0.23301
0.23301
0.23301
0.23301
0.233007
0.233009
0.23301
0.233004
0.232942
0.232989
0.232483
0.232807
0.230851
0.231848
0.228393
0.229615
0.226898
0.22742
0.226701
0.226709
0.22797
0.227626
0.226916
0.227098
0.22779
0.227728
0.225966
0.226113
0.22673
0.226534
0.225595
0.225657
0.225832
0.225969
0.225533
0.225535
0.225563
0.225538
0.225591
0.225564
0.225495
0.225491
0.225632
0.225592
0.225539
0.225565
0.225912
0.225821
0.225746
0.225683
0.226002
0.225889
0.225811
0.225744
0.226155
0.225969
0.225852
0.225768
0.226275
0.226037
0.225874
0.227079
0.226553
0.22609
0.226104
0.226237
0.227487
0.228117
0.227217
0.226833
0.227937
0.229457
0.229357
0.228863
0.227922
0.227937
0.228778
0.229731
0.229788
0.229283
0.229315
0.231432
0.233006
0.232846
0.229942
0.23045
0.233001
0.233008
0.233008
0.233002
0.232907
0.232554
0.23214
0.231885
0.231821
0.23182
0.231868
0.231971
0.232139
0.232341
0.232557
0.232755
0.232906
0.232984
0.233006
0.23301
0.23301
0.23301
0.23301
0.23301
0.23301
0.233009
0.23301
0.233007
0.233008
0.233001
0.232907
0.232978
0.23228
0.232715
0.230352
0.231488
0.227937
0.229075
0.226964
0.227218
0.227206
0.226956
0.228433
0.228876
0.228661
0.228478
0.227387
0.227593
0.228365
0.226141
0.226335
0.227135
0.226863
0.225648
0.225727
0.225932
0.226111
0.225502
0.225519
0.225589
0.225555
0.225517
0.225503
0.225466
0.22548
0.225527
0.225501
0.225461
0.225473
0.225688
0.225638
0.225596
0.225558
0.2257
0.225644
0.225592
0.225552
0.225753
0.2257
0.225639
0.225587
0.225961
0.225843
0.225705
0.226441
0.226267
0.226014
0.226122
0.2262
0.226687
0.227181
0.226719
0.226475
0.227253
0.228689
0.22865
0.227933
0.227335
0.227395
0.22792
0.229377
0.229554
0.228715
0.228815
0.231877
0.233009
0.232949
0.229853
0.230624
0.232997
0.233007
0.233003
0.232945
0.232605
0.232147
0.231855
0.231789
0.231818
0.231925
0.232122
0.232362
0.23259
0.232759
0.232883
0.232962
0.232998
0.233008
0.23301
0.23301
0.23301
0.23301
0.23301
0.23301
0.233009
0.23301
0.23301
0.233006
0.233008
0.232997
0.232872
0.232966
0.232101
0.232627
0.230009
0.231204
0.227772
0.228772
0.227202
0.227305
0.227846
0.227366
0.228961
0.229358
0.229144
0.229148
0.227946
0.22821
0.228967
0.226336
0.226592
0.227612
0.227248
0.225702
0.225798
0.226035
0.226255
0.225501
0.225527
0.225633
0.225584
0.225457
0.225458
0.225467
0.22549
0.225454
0.225447
0.225443
0.225443
0.225524
0.225501
0.225482
0.225467
0.225556
0.225535
0.225513
0.2255
0.225658
0.225632
0.22558
0.22556
0.225933
0.225872
0.225722
0.226384
0.226281
0.225829
0.225871
0.225924
0.226608
0.22684
0.226733
0.22649
0.22695
0.227929
0.227986
0.227442
0.227052
0.227155
0.227473
0.229039
0.229332
0.228064
0.228314
0.232262
0.23301
0.23297
0.229791
0.230813
0.232992
0.233002
0.232971
0.232698
0.232178
0.231849
0.231762
0.231817
0.231997
0.232256
0.232542
0.232758
0.232883
0.232953
0.23299
0.233005
0.233009
0.23301
0.23301
0.23301
0.23301
0.23301
0.23301
0.23301
0.233009
0.23301
0.23301
0.233005
0.233007
0.232994
0.232846