/*--------------------------------*- C++ -*----------------------------------*\
  =========                 |
  \\      /  F ield         | OpenFOAM: The Open Source CFD Toolbox
   \\    /   O peration     | Website:  https://openfoam.org
    \\  /    A nd           | Version:  dev
     \\/     M anipulation  |
\*---------------------------------------------------------------------------*/
FoamFile
{
    version     2.0;
    format      ascii;
    class       volScalarField;
    location    "2500";
    object      omega;
}
// * * * * * * * * * * * * * * * * * * * * * * * * * * * * * * * * * * * * * //

dimensions      [0 0 -1 0 0 0 0];

internalField   nonuniform List<scalar> 
9841
(
1.22277
1.24053
1.19341
1.16593
1.32934
1.0928
1.07219
1.34006
1.2726
1.02873
1.02869
1.30574
1.33804
1.15163
1.01134
1.00725
1.21881
1.36053
1.27393
1.0644
1.00452
0.996101
1.11803
1.34993
1.33571
1.1537
1.02754
1.0008
0.986435
1.05644
1.31112
1.35708
1.25163
1.06972
1.00999
0.99816
0.980977
1.01768
1.23052
1.35927
1.31731
1.13728
1.03004
1.00035
0.995412
0.978271
0.994395
1.13912
1.34547
1.3456
1.21915
1.06146
1.00925
0.994462
0.993772
0.97751
0.981739
1.06677
1.30769
1.35629
1.28887
1.11409
1.02455
0.996645
0.988705
0.992865
0.978982
0.974558
1.02197
1.23717
1.35605
1.32832
1.18112
1.0489
1.00364
0.988567
0.985025
0.99213
0.980601
0.968504
0.994981
1.14847
1.34375
1.34655
1.25051
1.08798
1.01573
0.990242
0.980723
0.982237
0.991551
0.982032
0.964775
0.978675
1.07241
1.30881
1.35605
1.30167
1.14548
1.03365
0.995155
0.980262
0.975614
0.980072
0.991115
0.98301
0.962894
0.969173
1.02562
1.24234
1.35598
1.33237
1.20831
1.06486
1.00391
0.981336
0.971635
0.971719
0.978437
0.990777
0.983458
0.962784
0.963984
0.99611
1.15725
1.3445
1.34777
1.26633
1.11153
1.01826
0.984519
0.970364
0.965581
0.968704
0.977163
0.990511
0.983788
0.964022
0.960847
0.978955
1.07934
1.31167
1.35759
1.30823
1.16917
1.04237
0.991311
0.971058
0.961756
0.960868
0.96629
0.976114
0.990312
0.984181
0.965924
0.958097
0.969258
1.03204
1.25054
1.35842
1.33595
1.22523
1.08039
1.0026
0.973446
0.960075
0.955291
0.95713
0.964285
0.975304
0.990181
0.984714
0.96762
0.956168
0.963026
1.00185
1.17052
1.34903
1.35106
1.27567
1.13007
1.02125
0.978647
0.960554
0.951623
0.949975
0.95403
0.962681
0.974687
0.9901
0.985423
0.968562
0.954845
0.958755
0.983236
1.09148
1.32099
1.36225
1.31403
1.1842
1.0512
0.987383
0.962344
0.949943
0.944902
0.945549
0.951492
0.961443
0.974232
0.990048
0.986157
0.968852
0.954738
0.955891
0.971358
1.04297
1.26724
1.36734
1.34134
1.23559
1.09302
1.00137
0.966117
0.950067
0.941507
0.939246
0.941971
0.949453
0.960464
0.973907
0.990026
0.986888
0.968599
0.955608
0.953681
0.963968
1.01035
1.19174
1.36097
1.35961
1.28234
1.14304
1.02431
0.972147
0.951034
0.939888
0.93472
0.934583
0.939042
0.947771
0.959689
0.973689
0.990035
0.987555
0.968022
0.956725
0.950956
0.958987
0.989285
1.11302
1.33858
1.37294
1.32188
1.1943
1.05871
0.98257
0.953324
0.939081
0.931658
0.929167
0.930723
0.936536
0.946374
0.959103
0.973567
0.990063
0.988002
0.96752
0.957651
0.948204
0.954886
0.975651
1.05967
1.2924
1.38268
1.35103
1.24354
1.10287
0.999944
0.957619
0.93949
0.929734
0.925122
0.924449
0.927404
0.934411
0.945259
0.958682
0.973552
0.990093
0.988246
0.967268
0.958293
0.945617
0.950935
0.966713
1.0246
1.22411
1.37959
1.37341
1.28956
1.15209
1.02742
0.965254
0.940836
0.928478
0.922315
0.91972
0.920337
0.924569
0.932656
0.944428
0.958472
0.97359
0.990148
0.988443
0.967232
0.95802
0.943689
0.947034
0.960141
1.0009
1.15222
1.36326
1.38768
1.33228
1.20178
1.06469
0.978244
0.94379
0.928479
0.920075
0.91612
0.914998
0.916901
0.922177
0.931294
0.943859
0.958389
0.973585
0.990211
0.988618
0.967177
0.95723
0.943365
0.943255
0.954559
0.985225
1.09002
1.32612
1.40124
1.36303
1.24955
1.10994
0.99919
0.949246
0.9292
0.918866
0.913275
0.910898
0.911087
0.914039
0.920204
0.930249
0.943459
0.95833
0.973633
0.990287
0.988636
0.966919
0.956531
0.943069
0.939065
0.949343
0.974196
1.05171
1.27424
1.40168
1.3886
1.29562
1.1574
1.03003
0.958853
0.931064
0.918129
0.911161
0.907615
0.906598
0.907842
0.911584
0.918637
0.92944
0.943312
0.958364
0.973733
0.990384
0.988436
0.966521
0.955829
0.942588
0.935291
0.944321
0.965904
1.0254
1.21112
1.39401
1.40292
1.34002
1.20618
1.06855
0.974886
0.934949
0.918459
0.909803
0.904969
0.902965
0.903032
0.905075
0.909592
0.91745
0.929084
0.943391
0.958489
0.973892
0.990523
0.988083
0.966164
0.954909
0.942158
0.931535
0.93965
0.959326
1.00664
1.15179
1.37261
1.41744
1.37351
1.25082
1.11308
0.998875
0.942272
0.919756
0.908862
0.90319
0.900041
0.899203
0.900097
0.902927
0.9081
0.916827
0.929277
0.943702
0.958701
0.974059
0.990732
0.987571
0.965967
0.954037
0.941484
0.928016
0.93499
0.953693
0.993461
1.10091
1.33568
1.4285
1.39919
1.29742
1.15799
1.03093
0.954274
0.922686
0.909029
0.901685
0.897962
0.896165
0.896255
0.897992
0.90134
0.907275
0.917036
0.930002
0.944364
0.959008
0.974185
0.990987
0.986976
0.96601
0.953569
0.940047
0.92491
0.930551
0.948316
0.983907
1.06901
1.29186
1.42788
1.42101
1.33906
1.2032
1.06899
0.972216
0.927846
0.909808
0.901126
0.896361
0.8939
0.8933
0.894272
0.89655
0.900451
0.90737
0.918256
0.9316
0.945612
0.95944
0.974179
0.99113
0.986456
0.96633
0.953621
0.9376
0.921861
0.926567
0.943103
0.976658
1.04717
1.23995
1.42083
1.43587
1.3785
1.24655
1.11013
0.997076
0.936343
0.911613
0.900769
0.895524
0.892396
0.8912
0.891483
0.893127
0.895922
0.900372
0.908728
0.920849
0.934611
0.947712
0.960134
0.973976
0.990959
0.986066
0.966814
0.954041
0.934145
0.91856
0.922914
0.938185
0.971458
1.0318
1.19155
1.40253
1.44976
1.40842
1.28832
1.15228
1.02803
0.949394
0.915204
0.901361
0.894871
0.891655
0.890035
0.88976
0.890757
0.892946
0.896008
0.901634
0.911819
0.925456
0.939798
0.951561
0.962229
0.974221
0.995813
0.988123
0.985823
0.967378
0.953767
0.929744
0.91502
0.919456
0.933785
0.96697
1.02093
1.15123
1.37306
1.45933
1.43234
1.33136
1.1931
1.06319
0.967744
0.921181
0.902637
0.895098
0.891279
0.889767
0.889252
0.889695
0.891112
0.89373
0.897514
0.904852
0.917314
0.932915
0.947537
0.958229
0.966527
0.980345
0.973294
0.99591
0.988493
0.985814
0.968308
0.952935
0.925556
0.91119
0.916232
0.930238
0.96281
1.01451
1.12091
1.33804
1.45934
1.45171
1.37045
1.23297
1.10021
0.991055
0.930189
0.904814
0.895131
0.891435
0.890078
0.889813
0.890091
0.891113
0.893326
0.896464
0.901513
0.910689
0.925877
0.943801
0.958259
0.964449
0.964567
0.968627
0.965865
0.967385
0.980784
0.973923
0.995984
0.988591
0.986118
0.969406
0.951124
0.921004
0.907164
0.913307
0.927549
0.959962
1.01176
1.0986
1.30125
1.45454
1.46348
1.40619
1.27177
1.13692
1.01836
0.942403
0.908356
0.895614
0.891519
0.890561
0.890999
0.891418
0.892503
0.8947
0.897706
0.902135
0.909905
0.922299
0.940556
0.960312
0.96603
0.970575
0.966906
0.969983
0.968198
0.969468
0.980804
0.974467
0.996058
0.98854
0.986775
0.970231
0.947733
0.9156
0.903911
0.910538
0.926062
0.958693
1.01189
1.08401
1.26638
1.44148
1.47385
1.43238
1.30864
1.17372
1.048
0.958073
0.913935
0.896535
0.891507
0.891005
0.892471
0.893966
0.895721
0.898276
0.90143
0.905291
0.911767
0.92318
0.940914
0.963109
0.976363
0.981116
0.971444
0.979747
0.972557
0.971683
0.971328
0.971899
0.980672
0.97505
0.99612
0.988361
0.987746
0.970398
0.943131
0.91045
0.901979
0.908774
0.92563
0.959158
1.01296
1.07563
1.23445
1.42086
1.47915
1.45169
1.34578
1.208
1.07989
0.976906
0.921242
0.898054
0.891104
0.891301
0.893803
0.897097
0.900965
0.905153
0.909118
0.912937
0.917924
0.927597
0.944159
0.967221
0.986212
0.990225
0.988447
0.996275
0.983755
0.995993
0.979446
0.973413
0.975474
0.974421
0.980454
0.975736
0.996177
0.988068
0.98899
0.969761
0.937436
0.906431
0.901276
0.908669
0.926904
0.961954
1.01552
1.07083
1.20731
1.39711
1.47887
1.46491
1.3786
1.2407
1.11126
0.999035
0.930321
0.900509
0.890627
0.891001
0.894717
0.900554
0.907401
0.914879
0.92151
0.927608
0.932233
0.939235
0.9535
0.975704
0.995602
1.00092
1.0046
1.0121
1.00775
1.01886
0.996851
1.01433
0.988504
0.975097
0.980525
0.977226
0.980229
0.976591
0.996248
0.987732
0.990149
0.967622
0.930927
0.904144
0.901857
0.910512
0.932003
0.968667
1.01928
1.06963
1.18581
1.37101
1.47583
1.47308
1.40625
1.2714
1.14142
1.02334
0.941597
0.903588
0.890314
0.889752
0.894802
0.90351
0.914259
0.926733
0.93852
0.948473
0.958648
0.967278
0.979836
0.99783
1.00874
1.02134
1.0206
1.0293
1.03004
1.04046
1.03083
1.04602
1.01218
1.03606
1.00022
0.976717
0.987044
0.980695
0.980166
0.977654
0.996397
0.987549
0.990801
0.963452
0.924716
0.903773
0.90401
0.91435
0.941332
0.977739
1.02412
1.0705
1.1696
1.34433
1.46775
1.47643
1.4283
1.29865
1.16914
1.04872
0.955611
0.907325
0.889241
0.887415
0.893708
0.905
0.920435
0.93919
0.96078
0.982349
1.00757
1.03977
1.07195
1.08853
1.04726
1.10757
1.04431
1.07571
1.05181
1.07081
1.05958
1.07391
1.05809
1.07646
1.03179
1.06207
1.01607
0.97853
0.996017
0.984916
0.980554
0.979061
0.996666
0.987833
0.990751
0.958317
0.920547
0.905618
0.907596
0.922047
0.953986
0.988189
1.02919
1.07216
1.15797
1.31901
1.4526
1.47675
1.44278
1.32537
1.1941
1.07348
0.972058
0.912074
0.887765
0.883516
0.890504
0.90471
0.924461
0.950653
0.986746
1.04205
1.12697
1.26532
1.44097
1.622
1.25487
1.66902
1.14956
1.33944
1.11165
1.20868
1.09975
1.15503
1.09612
1.13182
1.0876
1.11504
1.05487
1.08853
1.03472
0.980755
1.00696
0.989458
0.981869
0.981387
0.997331
0.988976
0.990175
0.953025
0.918906
0.909904
0.914132
0.935349
0.969127
0.999267
1.03414
1.0735
1.14945
1.29649
1.43399
1.47471
1.45147
1.34917
1.21709
1.09647
0.989842
0.918537
0.886987
0.878485
0.885032
0.901536
0.925188
0.95919
1.01562
1.13007
1.39493
1.90232
2.56407
3.38024
2.61927
4.47552
1.84686
3.0946
1.45766
2.09013
1.28611
1.622
1.20912
1.39289
1.16612
1.27674
1.12671
1.20017
1.07556
1.12656
1.04705
0.98453
1.015
0.999098
0.98507
0.985893
0.998335
0.991781
0.988821
0.948232
0.92025
0.915987
0.924307
0.952715
0.98399
1.00957
1.03813
1.07415
1.14261
1.27711
1.41399
1.46838
1.45455
1.37003
1.23727
1.11768
1.00782
0.926868
0.886867
0.873161
0.877817
0.894669
0.922726
0.961837
1.03915
1.24796
1.7927
2.93912
4.73262
6.25187
5.8164
7.21177
4.959
6.38519
3.59176
5.35379
2.44148
4.14119
1.85309
2.97605
1.54653
2.19284
1.36322
1.76585
1.23005
1.47129
1.11062
1.24833
1.07833
0.993608
1.04873
1.02994
0.991397
0.995363
0.999732
0.99842
0.987438
0.945106
0.923863
0.923249
0.939512
0.973261
0.998124
1.01767
1.04065
1.07375
1.13644
1.2605
1.394
1.45751
1.45347
1.38425
1.25583
1.13625
1.02574
0.936765
0.887087
0.867953
0.869131
0.885565
0.914951
0.960132
1.04646
1.34443
2.26928
4.10041
6.38417
7.50199
7.80782
7.23763
7.65172
6.61113
7.3176
5.75677
6.84277
4.75349
6.22869
3.69667
5.47848
2.73791
4.5922
2.07353
3.54339
1.59572
2.47161
1.2448
1.71283
1.21883
1.01997
1.18924
1.15409
1.00136
1.01755
1.00273
1.00765
0.987769
0.944079
0.929426
0.933819
0.962348
0.995329
1.01128
1.02339
1.04152
1.07159
1.13038
1.246
1.37494
1.44473
1.44912
1.39421
1.27095
1.15229
1.04285
0.94795
0.888093
0.863095
0.859873
0.874195
0.903299
0.951989
1.04431
1.37036
2.61453
5.16534
7.46045
8.07597
8.04206
7.85902
7.96244
7.68954
7.81839
7.45635
7.77316
7.169
7.69203
6.81104
7.61933
6.31699
7.49635
5.62029
7.23725
4.53482
6.69092
2.95577
5.54053
1.79087
3.41496
1.80652
1.11853
1.76006
1.65859
1.02046
1.08759
1.00651
1.02065
0.993517
0.945183
0.936168
0.948508
0.989191
1.01515
1.02215
1.027
1.04083
1.06825
1.12353
1.23323
1.35709
1.43099
1.44021
1.39948
1.2828
1.1654
1.05838
0.960018
0.890855
0.85892
0.850966
0.861722
0.888739
0.9364
1.03275
1.36109
2.69693
5.83094
8.05286
8.47345
8.33116
8.01573
8.19066
7.97019
8.03055
7.9047
7.93826
7.95533
8.06028
8.05938
8.26774
8.18579
8.55005
8.25634
8.83889
8.16494
9.0434
7.71072
9.05362
6.40183
8.62065
3.67303
7.07923
3.69208
1.5204
3.53174
3.27248
1.06344
1.36327
1.00939
1.04105
1.02898
0.951251
0.942833
0.968042
1.01722
1.033
1.03046
1.02844
1.03838
1.06387
1.11594
1.22129
1.34066
1.41683
1.42968
1.39866
1.29181
1.17617
1.07153
0.972659
0.895913
0.856037
0.842683
0.849049
0.872825
0.917788
1.00528
1.32134
2.66197
5.97633
8.31251
8.67296
8.63791
8.37022
8.64532
8.18846
8.44663
8.14872
8.29358
8.08281
8.09781
8.34205
8.35265
8.71058
8.75193
9.14063
9.257
9.54656
9.7999
9.83868
10.2808
9.91028
10.6501
9.4446
10.7645
7.56734
10.2264
7.87347
2.87934
7.86088
7.41702
1.20812
2.32756
1.01165
1.08571
1.12976
0.992653
0.950366
0.990195
1.04329
1.04784
1.03796
1.0283
1.03464
1.05817
1.10773
1.21015
1.32523
1.4026
1.41812
1.39545
1.29781
1.18472
1.08249
0.985114
0.902846
0.854809
0.835388
0.836734
0.85682
0.896809
0.973743
1.23105
2.52769
5.90806
8.34007
8.68317
8.76268
9.06567
8.73807
9.05826
8.56135
8.86954
8.52224
8.77251
8.36098
8.40042
8.74896
8.75299
9.27562
9.27003
9.89121
9.91777
10.525
10.6635
11.1131
11.433
11.5869
12.1666
11.7286
12.7268
11.0488
12.848
11.8493
6.36746
12.5124
12.7945
1.73765
4.82185
1.01408
1.26939
1.13511
0.973333
1.00939
1.05998
1.06149
1.04523
1.02647
1.02989
1.05032
1.0989
1.19843
1.31095
1.38839
1.40655
1.38869
1.30137
1.19031
1.09193
0.996712
0.911366
0.854924
0.829652
0.825656
0.841303
0.875399
0.942786
1.13675
2.21584
5.65765
8.2861
8.64384
8.68454
8.942
9.46584
9.40383
9.16282
9.3718
9.06597
9.34964
9.12634
9.38578
8.79142
8.90386
9.28532
9.34515
9.94707
10.0087
10.7629
10.8863
11.6948
11.9549
12.6655
13.1264
13.5539
14.2223
14.1186
15.0983
14.0741
15.5396
15.1785
12.2563
16.2081
16.8993
3.27861
10.1174
1.03689
1.81192
1.05873
1.02514
1.07324
1.0697
1.05169
1.02185
1.02215
1.04216
1.08869
1.18715
1.29715
1.37457
1.39496
1.38053
1.30123
1.1923
1.09918
1.00773
0.921192
0.856913
0.826084
0.816486
0.827142
0.855746
0.913052
1.05777
1.86047
5.07456
8.14332
8.55601
8.55836
8.54703
9.19526
8.69875
9.70086
9.53406
9.57963
9.70427
9.63487
9.84187
9.89499
10.0898
9.48049
9.68393
10.134
10.3071
11.0453
11.2341
12.2136
12.4546
13.5113
13.8915
14.8334
15.3745
15.9912
16.7182
16.7467
17.736
16.9452
18.2941
18.198
17.0464
19.2955
19.9893
18.6416
6.12808
15.978
1.09859
2.89816
1.10094
1.07561
1.07766
1.05233
1.01644
1.01329
1.0333
1.07924
1.17609
1.28417
1.3611
1.38351
1.37158
1.29992
1.19208
1.10241
1.01762
0.93209
0.863444
0.825247
0.810166
0.815495
0.838515
0.886389
0.996436
1.55307
4.28464
7.9045
8.4299
8.48275
8.38963
7.70989
9.05971
7.97204
9.87
9.52304
9.96651
9.97224
10.2336
10.312
10.7824
10.8413
10.4971
10.6629
11.4362
11.6071
12.6982
12.9227
14.2309
14.4824
15.7967
16.1132
17.2813
17.6774
18.5205
19.1031
19.349
20.2244
19.688
20.5329
19.9919
19.8684
20.6615
20.2594
18.8058
20.6614
20.8863
21.8337
21.2296
21.3685
10.9423
20.6843
20.8044
17.517
1.17115
4.31651
1.12587
1.07503
1.0513
1.00734
1.00572
1.02412
1.07061
1.16608
1.27214
1.34755
1.37253
1.36226
1.29688
1.19099
1.10246
1.02553
0.943395
0.87312
0.826894
0.807782
0.807675
0.824459
0.864701
0.950239
1.33134
3.49433
7.50595
8.30724
8.42906
8.41686
7.69097
6.26619
5.90558
8.56747
7.17749
9.93886
9.29895
10.2959
10.2084
10.8215
10.7524
11.7113
11.5891
11.7394
11.7607
13.0758
13.0822
14.6447
14.6609
16.2942
16.3242
17.925
18.0101
19.4873
19.7009
20.1937
20.4418
20.6507
20.872
20.9881
21.4826
21.3417
22.2563
21.8394
21.2632
21.3001
22.0184
21.7988
21.9734
21.7934
22.1243
22.3012
23.1864
22.6066
22.7955
20.0685
11.6645
19.0799
22.3923
22.4903
1.36802
14.4554
9.81631
3.76833
1.10224
1.03977
1.00196
0.99443
1.01733
1.06163
1.15818
1.25948
1.33517
1.36103
1.35313
1.29258
1.18847
1.10177
1.03058
0.95463
0.884933
0.834176
0.808732
0.804596
0.815399
0.849303
0.922392
1.1946
2.85172
6.91984
8.21115
8.34496
8.50695
7.98086
5.70106
5.10775
4.6119
7.78243
6.08351
9.84759
8.7647
10.6019
10.3204
11.3993
11.1402
12.5627
12.2416
13.0144
12.8363
14.5892
14.3825
16.2573
16.0564
17.976
17.8161
19.7447
19.6308
20.971
21.0828
21.0759
21.07
21.6023
21.8008
21.9437
22.2949
22.7242
22.5553
23.4551
23.1069
22.5856
22.6916
23.3508
23.1272
23.3852
23.2419
23.6365
23.748
24.0504
24.6933
24.2707
22.3559
21.5564
23.9579
24.1681
4.77629
1.14567
2.3742
19.5005
13.7978
1.0422
0.988118
0.989301
1.0067
1.05671
1.14838
1.24953
1.3205
1.35057
1.34336
1.28765
1.18426
1.09984
1.03284
0.965053
0.899272
0.849197
0.816184
0.805722
0.81312
0.843701
0.914587
1.13747
2.4236
6.2289
8.09462
8.24335
8.5985
8.42049
6.68305
4.14691
4.22658
4.70954
4.27813
7.01538
5.57363
9.5851
8.17978
10.7765
10.3423
11.8738
11.3964
13.239
12.7512
14.0611
13.6773
15.7344
15.3333
17.5059
17.1306
19.329
18.9381
20.9553
20.8405
20.6243
20.4164
22.0063
22.0133
21.9399
21.8159
22.7837
22.9204
22.9619
23.6132
24.0399
23.7182
24.6638
24.4005
23.9479
24.1176
24.782
24.5019
24.865
24.7505
25.1693
25.3019
25.5941
26.302
25.8649
24.1994
23.9271
25.5182
25.7817
7.52362
1.21686
3.4651
22.6812
19.0966
0.990172
0.977823
1.00259
1.04925
1.1442
1.2353
1.30878
1.33731
1.33435
1.28161
1.1797
1.09537
1.03292
0.974279
0.916187
0.869715
0.836261
0.815243
0.817994
0.84845
0.922934
1.1401
2.24514
5.63686
7.92997
8.13133
8.61765
8.72494
7.50669
4.42619
3.9989
3.87557
4.60528
4.19359
6.57927
5.35866
9.14701
7.67952
10.848
10.1928
12.1607
11.4942
13.7271
13.0287
14.865
14.3317
16.6901
16.1557
18.4711
17.9281
20.1242
19.8481
19.5408
19.3136
21.6259
21.4002
21.1258
20.8326
22.9258
22.8104
22.6357
22.4045
23.872
23.8978
23.8194
24.9975
25.3917
24.8039
25.7623
25.6488
25.4052
25.6181
26.3248
25.9664
26.4478
26.3715
26.7983
26.969
27.2602
28.0496
27.5851
25.9297
25.8889
27.1395
27.4055
12.1977
1.44583
6.05784
25.4241
23.7515
0.983663
0.99418
1.04723
1.13637
1.22637
1.29135
1.32589
1.32275
1.27532
1.17419
1.08847
1.03197
0.981224
0.934809
0.896611
0.864552
0.842264
0.845309
0.885189
0.980785
1.22111
2.25572
5.3571
7.72565
7.98023
8.58635
8.93032
8.15398
5.383
3.8109
3.76371
3.98647
3.8578
4.59789
4.20152
6.31254
5.28619
8.64376
7.37885
10.7736
9.85357
12.2728
11.4787
13.9924
13.1731
15.5153
14.787
17.3017
16.57
18.9044
18.1209
20.5074
20.1635
19.8017
19.4676
22.1351
21.8284
21.498
21.1379
23.662
23.4379
23.1649
22.8475
24.8207
24.7115
24.5113
26.4006
26.662
25.7639
26.741
26.7632
26.9584
27.2543
27.962
27.4318
28.1781
28.1246
28.5647
28.7909
29.0858
29.9563
29.4633
27.6208
27.8357
28.8925
29.1518
20.2317
2.80193
15.3246
28.1694
28.5656
1.00335
1.04519
1.13178
1.21265
1.27754
1.30906
1.31226
1.26705
1.16934
1.08005
1.0284
0.98596
0.95488
0.928978
0.906584
0.902382
0.937188
1.03086
1.20315
1.53532
2.51625
5.34942
7.58519
7.8203
8.49662
9.06559
8.63076
6.35248
3.76901
3.80886
3.69645
4.10375
3.9284
4.75514
4.36556
6.2258
5.34059
8.50493
7.39822
10.6128
9.61569
12.3603
11.5684
14.2815
13.6843
15.8166
15.0249
17.359
16.6358
18.8625
18.4209
17.6647
17.9812
20.7576
20.3491
19.9132
19.4275
22.4935
22.1005
21.6738
21.2061
24.2424
23.9152
23.5356
23.0962
25.6301
25.3883
25.0596
27.7044
27.8033
26.5831
27.5487
27.7632
28.4831
28.9746
29.5388
28.7693
29.9764
30.0312
30.4719
30.7502
30.9324
31.8077
31.4518
29.432
29.8917
30.7877
31.0178
29.9756
8.11789
33.6586
30.7413
32.4627
1.0564
1.126
1.20208
1.2591
1.29256
1.29743
1.26013
1.16381
1.07254
1.01989
0.987649
0.974132
0.96557
0.976893
1.04062
1.20936
1.48481
1.8684
2.45606
3.51909
5.60896
7.50274
7.70065
8.38393
9.15186
8.96766
7.17928
4.02932
3.66994
3.52862
3.93011
3.76456
4.40932
4.13651
5.22962
4.76857
6.48915
5.7937
9.17894
8.40898
10.7864
9.99084
13.2752
12.9852
16.0761
16.426
16.1526
15.9657
17.4531
17.4344
17.9746
18.5258
18.2161
18.0182
18.0246
20.7002
20.1482
19.5626
18.9868
22.5953
22.0343
21.4202
20.7653
24.6468
24.1387
23.5422
22.8674
26.2888
25.8486
25.2559
28.8625
28.7806
27.119
27.7375
28.4139
29.8217
30.5733
30.8132
29.8909
31.5133
32.0051
32.3925
32.5717
32.3661
33.1231
33.2279
31.2966
31.8019
32.6383
32.785
38.4224
20.6126
48.8502
32.4767
34.0369
1.1301
1.18696
1.24191
1.27385
1.28217
1.2496
1.16106
1.06738
1.01075
0.987641
0.990259
1.01119
1.10613
1.375
1.93624
2.73689
3.62944
4.37999
5.1941
6.37153
7.46001
7.61444
8.30804
9.2084
9.1984
7.76914
4.486
3.39806
3.72928
3.55219
4.17182
3.92603
4.92763
4.49413
6.18418
5.49515
7.68213
6.9364
11.8435
11.1547
12.7053
12.3536
16.891
17.202
20.9004
21.8352
18.8402
19.8086
18.126
18.2647
21.2581
21.9481
18.6335
18.753
19.5095
19.0553
20.1021
19.4981
19.0223
18.7078
22.1224
21.329
20.5441
19.8697
24.5394
23.736
22.8324
21.859
26.4635
25.6342
24.6754
29.6599
29.0433
26.836
26.9275
28.1325
30.8149
31.7116
31.5017
30.3199
32.508
33.7791
34.1532
33.8222
33.2312
33.9301
34.4931
32.944
33.1126
34.32
34.3097
40.572
61.0005
49.4517
33.064
33.95
1.18121
1.22085
1.25308
1.26561
1.23885
1.15712
1.06691
1.00473
0.985454
1.00282
1.06858
1.32943
2.09635
3.34989
4.66124
5.5519
6.07956
6.51752
7.01056
7.45081
7.59284
8.29931
9.24018
9.35299
8.20907
5.08199
3.27862
3.47526
3.2719
3.87195
3.62724
4.53983
4.15401
5.85828
5.08685
8.00538
6.85664
10.2542
9.17736
16.3666
15.395
17.2231
16.9955
22.5399
22.7784
26.2976
27.1661
22.5197
23.2323
25.2517
20.0439
20.6298
23.7204
24.3549
19.7764
20.3375
21.6852
20.9846
19.374
19.1635
19.1536
19.3596
20.9255
20.1787
19.7472
19.6244
23.5706
22.3683
21.3168
20.5757
25.7301
24.3876
22.9397
29.4636
28.2785
25.3808
24.7044
26.6202
30.7794
32.0975
31.2161
29.7441
32.6355
35.0849
35.5208
34.6496
33.2359
33.9411
35.3494
34.2059
33.775
35.7242
35.5964
38.6589
63.2865
47.3147
33.0015
33.3154
1.20081
1.23007
1.24329
1.22557
1.15602
1.06762
1.00337
0.982795
1.01245
1.13441
1.65542
3.01905
4.8099
6.20703
6.88527
7.18622
7.30989
7.37829
7.45674
7.60796
8.3239
9.27585
9.45084
8.51068
5.5915
3.24838
3.08515
3.52717
3.31448
4.07813
3.77401
5.17131
4.51201
7.56168
6.17718
10.978
9.22348
14.1502
12.6581
21.275
20.0427
22.6483
22.206
27.7053
27.7817
29.8601
30.4616
32.5326
24.9451
25.3675
29.46
28.7895
22.3874
23.0645
26.2043
26.9073
21.7969
22.5439
24.0437
23.2953
19.6686
19.9761
20.4672
21.0865
20.2486
20.1652
20.2719
20.6861
21.8008
21.1441
20.8745
20.823
23.696
22.4663
21.8729
28.1365
26.016
23.3818
23.7809
24.4947
29.8334
31.6229
29.904
27.7584
32.046
35.9507
36.3795
34.7354
32.6314
33.3552
35.5757
35.0815
33.8956
36.5999
36.4128
36.3426
66.9679
52.8166
32.5919
32.502
1.20257
1.22071
1.20634
1.15553
1.07138
1.00405
0.982528
1.01823
1.19794
1.99447
3.91825
6.03445
7.23159
7.67454
7.75674
7.71011
7.54089
7.46417
7.67209
8.40749
9.32739
9.51446
8.6854
5.94651
3.25713
2.84207
3.19063
2.98646
3.61939
3.36204
4.3925
3.93399
6.29677
5.12232
10.1955
8.01834
14.7807
12.5427
18.5443
16.7876
25.5796
24.1058
27.5259
26.8195
32.9975
32.9844
33.0786
33.5897
37.4022
37.6835
27.5678
28.2209
32.4925
31.8973
24.7779
25.4917
29.0128
29.7775
24.2396
25.0367
26.6264
25.8322
21.2641
21.9341
22.675
23.445
21.0036
21.5244
22.2349
23.0223
21.6302
21.5947
21.8915
22.5657
22.7602
22.5243
22.4999
25.8409
24.9375
23.5112
24.5111
24.5662
27.645
29.998
27.9596
26.2971
30.3981
36.3612
36.8269
34.2116
30.9682
31.8388
35.1379
35.4546
33.7959
36.9214
36.5731
36.5091
70.2126
59.9974
32.0531
32.582
1.19978
1.19881
1.1559
1.08084
1.00941
0.983986
1.02215
1.239
2.25908
4.64216
6.90644
7.85263
8.1005
8.07993
7.85903
7.59991
7.50204
7.8402
8.60088
9.38369
9.55026
8.75053
6.09685
3.26506
2.66297
2.7698
3.19104
2.99491
3.73663
3.42837
4.9216
4.18705
8.06962
6.15633
13.4496
10.6127
18.5626
16.175
22.4479
20.6221
29.4431
27.4711
32.4664
31.2279
37.7616
37.7806
38.7923
36.602
37.0485
41.0079
41.0496
30.5026
31.2133
36.0674
35.4156
27.4233
28.2187
32.3501
33.1811
27.1349
27.9873
29.7138
28.8484
23.8293
24.6423
25.4698
26.2938
23.462
24.4541
25.4276
26.3747
22.9643
23.8605
25.0309
26.3808
23.4977
24.1373
25.3352
25.7063
25.5476
25.2252
27.7548
26.122
27.0262
28.7077
27.9995
26.6918
29.5871
35.9901
36.613
32.9187
30.6593
31.8578
33.9953
35.5664
33.7101
36.8173
36.5598
39.5056
72.4189
66.3931
32.1698
34.0454
1.20067
1.16446
1.09743
1.02499
0.992498
1.02609
1.25251
2.38903
5.14943
7.48666
8.23129
8.34748
8.20925
7.86175
7.62576
7.60205
8.05701
8.86974
9.42389
9.54806
8.73059
6.03956
3.23356
2.52127
2.53942
2.74772
3.2263
3.00222
3.92457
3.50718
5.77209
4.60072
10.4296
7.70453
16.6511
13.5887
21.5403
19.2989
25.4883
23.5474
32.9763
30.4186
37.4982
35.4285
41.0156
40.9598
41.6928
42.8185
40.4244
40.7854
44.5428
44.354
33.963
34.7254
39.9398
39.3039
30.5868
31.475
36.1905
37.0706
30.753
31.627
33.4198
32.5186
27.2922
28.171
29.0408
29.8958
27.6649
28.8736
30.0145
31.0545
26.9656
28.9026
30.6942
32.3981
26.7271
28.9841
31.8457
26.8922
28.3463
30.5238
35.5291
31.0975
27.8188
29.0867
29.2755
28.7789
30.2703
35.0566
36.1108
33.1136
31.5816
33.0138
34.3225
35.5732
33.9757
36.7855
36.6736
45.5824
83.0164
68.4514
33.3805
38.0621
1.21226
1.13421
1.06131
1.01486
1.03514
1.24861
2.40648
5.38575
7.86479
8.47955
8.49466
8.20466
7.84078
7.67394
7.81431
8.36863
9.07012
9.44189
9.49286
8.58489
5.66621
3.10609
2.39374
2.36292
2.48755
2.84018
3.00801
2.64094
3.27077
4.19209
3.62285
6.95471
5.19544
12.9994
9.65442
19.1349
16.3207
23.52
21.4432
27.9533
25.6473
34.2758
31.7056
40.5838
37.2042
44.0063
43.3826
43.3363
44.5265
44.3768
44.5405
47.9405
47.4003
37.8713
38.6434
44.0291
43.4385
34.3307
35.2773
40.4463
41.3543
35.2243
36.014
37.7065
36.8442
31.9999
32.858
33.6676
34.4516
33.9889
35.3821
36.5566
37.5094
34.62
37.188
39.5426
41.6004
34.4664
38.7793
43.0396
31.0989
35.4327
41.2374
50.2568
41.7697
31.1283
31.1661
34.1292
35.0623
33.2014
35.4948
36.5822
34.6554
35.3563
37.8563
36.2056
35.9762
35.2773
37.2775
37.4878
52.7406
68.1153
67.7059
36.1256
43.9627
1.26031
1.12785
1.06733
1.05741
1.23351
2.35298
5.41786
8.08685
8.64725
8.57831
8.16261
7.80729
7.73392
8.02191
8.67388
9.13513
9.42173
9.31418
8.16316
4.9475
2.85289
2.26562
2.2171
2.29745
2.42651
3.02564
2.81617
2.62823
3.32765
4.56864
3.78027
8.4015
6.00259
15.2662
11.7073
20.703
18.3245
24.8046
22.7406
29.3602
27.034
33.7603
31.4335
42.233
39.84
36.826
46.6326
45.6909
43.8186
45.6779
48.3291
48.2202
51.1021
50.0878
42.121
42.8552
48.1752
47.6929
38.5957
39.556
44.9499
45.8769
40.5254
41.0761
42.4325
41.7099
38.2863
38.927
39.4761
39.9904
43.321
44.643
45.5511
46.0805
46.9838
50.3076
52.9988
55.0803
47.579
54.2749
60.6837
41.689
51.6124
59.9719
80.0739
64.5849
40.4327
37.8264
47.2357
50.8854
41.9715
37.5762
38.6937
40.3126
46.9168
51.211
42.4603
37.5834
37.2766
39.5007
40.5106
58.6667
37.9119
69.1081
41.1556
50.1063
1.3378
1.15588
1.12065
1.2332
2.15541
5.31632
8.18119
8.78154
8.62985
8.08337
7.77808
7.7741
8.22245
8.73787
9.11075
9.29363
8.92015
7.13742
4.16019
2.55664
2.13445
2.08794
2.14573
2.22053
2.39126
3.05458
2.8148
2.61592
3.40416
5.04605
3.98543
9.90484
6.95248
16.9081
13.5114
21.5299
19.5273
25.3235
23.3836
29.3503
27.3332
30.8711
29.5278
41.4181
39.1934
33.3506
35.5287
48.7962
47.2582
43.8547
46.0843
52.1914
51.7309
53.9444
52.3858
46.5629
47.2293
52.2249
51.9247
43.2107
44.1374
49.5341
50.4763
46.573
46.7159
47.478
46.9952
46.3546
46.4684
46.5388
46.4949
56.5363
57.2989
57.5935
57.4282
65.9796
69.7252
72.5927
74.1975
69.4023
79.0242
90.4023
66.4466
86.526
100.863
162.195
116.339
62.9164
55.057
77.5671
84.2046
66.5437
43.9742
44.8166
55.4854
73.1241
76.4309
58.3237
40.1335
41.8563
46.4938
44.716
63.3479
14.448
64.6644
46.5178
55.2612
1.43902
1.23121
1.27845
1.92159
4.93555
8.17576
8.88367
8.67582
8.01163
7.73718
7.794
8.23316
8.67579
8.97069
8.91465
8.05498
5.60916
3.37024
2.27932
2.0058
1.97298
2.01306
2.05813
2.1703
2.43852
2.59214
2.27983
3.07956
2.81458
3.4956
5.57076
4.22102
11.2167
7.9037
17.8782
14.8337
21.802
20.0758
25.1818
23.4675
28.2679
26.8221
31.1119
28.1017
27.5411
26.7596
40.177
37.4112
32.5753
50.4715
48.3023
43.0926
45.9905
55.8672
55.006
56.4985
54.328
51.0425
51.6107
56.1127
55.994
48.0077
48.8474
54.0968
54.9852
53.6015
53.1629
52.9413
52.8753
56.6383
56.0138
55.2762
54.2363
75.2614
75.8152
76.0371
74.4479
97.9248
102.99
105.617
107.325
123.88
159.463
207.716
116.196
161.835
210.14
209.523
211.282
115.337
95.8876
147.474
169.207
101.291
59.19
58.7202
77.8719
103.403
104.034
77.7297
46.7302
46.4242
54.0089
55.3519
68.8431
7.12718
51.6273
51.5275
60.7496
1.56286
1.39462
1.82177
4.2226
8.06145
8.95841
8.72828
7.9716
7.6721
7.75783
8.13894
8.47355
8.56437
8.03493
6.3073
4.12164
2.67186
2.04526
1.88666
1.8691
1.89076
1.92357
1.99835
2.09997
2.58103
2.38749
2.25406
3.10898
2.80307
3.58928
6.06805
4.45952
12.1925
8.71722
18.315
15.6467
21.718
20.1617
24.5354
23.1289
26.4616
25.7095
28.6436
25.8286
25.9976
24.3148
38.0455
35.0072
29.9911
51.6963
48.7857
41.625
45.2518
59.354
58.0479
58.9443
56.0515
55.4405
55.8567
59.8787
60.0229
53.0138
53.629
58.7976
59.5114
62.5943
61.5351
59.2291
59.8317
71.7283
68.8589
67.2274
64.9233
108.464
109.825
110.716
108.397
205.467
213.019
216.141
213.87
215.455
231.531
490.231
211.124
230.475
513.5
513.389
502.817
204.79
154.01
212.114
198.221
157.238
76.4752
71.0916
103.639
157.238
156.432
102.607
51.2006
51.7794
73.1012
62.5416
71.3222
14.2844
57.9687
57.4665
66.3881
1.73941
1.82825
3.52776
7.6838
8.98478
8.80643
7.96874
7.59296
7.66712
7.95533
8.11999
7.77468
6.5424
4.47729
3.01571
2.17995
1.86276
1.77681
1.77088
1.77902
1.80774
1.85783
1.93015
2.04379
2.56645
2.36374
2.23197
3.12709
2.79171
3.67063
6.45433
4.66041
12.7435
9.27035
18.3462
15.9806
21.3205
19.9716
23.6214
22.5207
24.632
24.394
26.2495
24.2024
24.4026
23.3529
22.8799
23.1184
35.4493
32.1609
27.2526
52.6191
48.8439
39.6619
44.1111
63.0007
61.1357
61.4355
57.7145
59.8849
60.1767
63.8179
64.414
58.6338
58.7067
64.371
64.5247
77.0466
74.2424
68.1721
69.9697
101.133
91.3137
85.1393
83.6341
212.497
201.595
199.532
184.286
501.593
486.485
498.702
496.749
529.152
486.297
904.916
512.54
522.609
928.304
919.865
913.512
497.465
219.915
488.489
493.137
220.425
98.0061
104.753
155.428
219.464
219.481
151.528
60.3477
59.5484
84.1371
79.312
76.6602
17.0588
69.1413
63.2824
72.1352
2.03529
3.05621
6.76452
8.97198
8.89559
7.99836
7.51481
7.55409
7.76077
7.71085
7.00156
5.21566
3.30904
2.33134
1.87814
1.72146
1.6776
1.67849
1.67852
1.70481
1.73992
1.79224
1.87136
1.96945
2.18929
2.53379
2.33201
3.13092
2.76927
3.70034
6.60397
4.74596
12.8427
9.44521
18.0754
15.8902
20.7226
19.5753
22.6165
21.7632
23.1218
23.1295
24.2356
22.7496
22.1783
22.0978
22.7941
32.8726
29.3789
24.9081
53.383
48.6402
37.6638
42.9733
66.735
64.3451
63.9129
59.3441
64.6807
64.9493
67.8932
69.109
65.6566
64.9463
70.9181
70.1653
105.77
96.4972
82.6938
86.4101
174.975
153.966
118.954
119.318
499.351
495.862
498.734
503.615
921.277
888.088
902.546
904.251
948.584