/*--------------------------------*- C++ -*----------------------------------*\
  =========                 |
  \\      /  F ield         | OpenFOAM: The Open Source CFD Toolbox
   \\    /   O peration     | Website:  https://openfoam.org
    \\  /    A nd           | Version:  dev
     \\/     M anipulation  |
\*---------------------------------------------------------------------------*/
FoamFile
{
    version     2.0;
    format      ascii;
    class       volScalarField;
    location    "2500";
    object      p_rgh;
}
// * * * * * * * * * * * * * * * * * * * * * * * * * * * * * * * * * * * * * //

dimensions      [1 -1 -2 0 0 0 0];

internalField   nonuniform List<scalar> 
9841
(
0.00420508
0.00560691
0.0048867
0.00574342
0.00818185
0.00413302
0.00494262
0.00959172
0.00847849
0.00363216
0.00442117
0.0105628
0.0110476
0.00758941
0.00300852
0.00457361
0.0103877
0.0128201
0.0106298
0.00652773
0.00240405
0.00412833
0.00883282
0.0134643
0.0132472
0.00953916
0.00558629
0.00199689
0.00402143
0.00883751
0.01371
0.0149899
0.0129375
0.00875116
0.00463187
0.00145599
0.00365119
0.00821786
0.0130763
0.0156742
0.0149104
0.0116309
0.00775711
0.00423
0.00128431
0.00345133
0.00759137
0.0122612
0.0158133
0.0166442
0.0144652
0.0103434
0.00685972
0.00374955
0.000855736
0.00299323
0.00666037
0.0114777
0.0154944
0.0173767
0.0163308
0.0130718
0.0091746
0.00608055
0.00331999
0.000641419
0.00298188
0.00659264
0.010896
0.0147367
0.0175696
0.0180427
0.0157684
0.0117094
0.00840579
0.00570972
0.00305943
0.000484813
0.00264374
0.00573434
0.00954597
0.0141102
0.0177032
0.0189528
0.0176628
0.0142889
0.0108707
0.00777749
0.0051254
0.00261403
0.000270399
0.0026472
0.0057934
0.00894926
0.013448
0.0172026
0.0193886
0.0191319
0.016513
0.0129661
0.010142
0.00739249
0.00478177
0.00239695
-2.71809e-05
0.00246668
0.00537936
0.00859291
0.0125886
0.0165447
0.019478
0.0201105
0.0186474
0.0156524
0.0122718
0.00935775
0.00686608
0.00452891
0.00221714
-0.00011401
0.0022516
0.00495901
0.00769494
0.0110951
0.0159084
0.0193559
0.0207473
0.0200651
0.0175516
0.014424
0.0116453
0.00905274
0.00661614
0.00440379
0.00202178
-0.000274568
0.00210167
0.00476641
0.00740063
0.0104769
0.0151789
0.0188226
0.0209547
0.0210719
0.0195777
0.0167242
0.0135765
0.0109382
0.00862195
0.0062682
0.00423047
0.00196717
-0.000396108
0.00179982
0.00443465
0.00720131
0.0100689
0.0135009
0.0180905
0.0208443
0.021813
0.020993
0.0186265
0.0154651
0.0130293
0.0104382
0.00832865
0.00607943
0.00403667
0.00186332
-0.000562138
0.0017506
0.00413379
0.00666199
0.00960182
0.0130259
0.0175362
0.0204486
0.0220768
0.0219733
0.0203967
0.0176182
0.0148766
0.0122899
0.0100382
0.00807583
0.00589171
0.00392767
0.00172286
-0.000583584
0.00147164
0.00391511
0.00647317
0.00915866
0.0115552
0.0157022
0.0199727
0.0220953
0.0228234
0.021817
0.019234
0.0166376
0.0141029
0.0120467
0.00979902
0.00786997
0.00582214
0.0039049
0.00165955
-0.000603089
0.00129832
0.00358781
0.0060588
0.00834548
0.0112704
0.0151785
0.0194321
0.0219151
0.0231919
0.0229204
0.0210471
0.018491
0.0161405
0.0136987
0.0117257
0.00953717
0.00767554
0.00586236
0.00383164
0.00167589
-0.000606505
0.0011954
0.00331367
0.00573736
0.00811186
0.0109534
0.0143441
0.0182998
0.0215488
0.0232751
0.0236656
0.0226831
0.0203774
0.0177643
0.0155471
0.0133506
0.0114359
0.00956588
0.00770415
0.00581484
0.00376805
0.00165784
-0.000629038
0.00101882
0.00309347
0.00533295
0.00751122
0.0100812
0.0128949
0.0172763
0.0209191
0.0231169
0.0241539
0.0236797
0.0219093
0.0195531
0.0172512
0.015025
0.0132749
0.0114534
0.00957544
0.00774383
0.00580145
0.00377472
0.00159869
-0.000727903
0.000750991
0.00282437
0.00486556
0.00731165
0.00955113
0.0124579
0.0164433
0.0200144
0.0227456
0.0242488
0.0244468
0.0233115
0.0210618
0.0187952
0.0167832
0.0149903
0.0131156
0.011456
0.009613
0.00776447
0.00577656
0.00375323
0.0016743
-0.000596972
0.000565778
0.00257532
0.00455812
0.00682934
0.00913716
0.0118599
0.0147744
0.0193278
0.0222033
0.0242753
0.0250539
0.0244368
0.0227044
0.0203327
0.018467
0.0164391
0.014825
0.0131109
0.0114051
0.00962864
0.0077883
0.00597028
0.00396595
0.00179516
-0.00058924
0.000393766
0.00232053
0.00421727
0.00635469
0.00862099
0.0113026
0.0137243
0.0186594
0.0215701
0.0239666
0.0252274
0.025206
0.0239059
0.0221214
0.0199853
0.0182149
0.0163767
0.0146031
0.013029
0.0113615
0.00964754
0.00786425
0.00600857
0.00403272
0.0018522
-0.000535767
0.000241549
0.0019826
0.00392566
0.00602762
0.00819976
0.0109347
0.0129554
0.0175633
0.0208282
0.023491
0.0252052
0.0257011
0.0249273
0.0233378
0.0214479
0.0196965
0.0178791
0.0163348
0.0145451
0.0131963
0.0115706
0.00987094
0.0080819
0.0061644
0.00416023
0.00191625
-0.000529406
5.04318e-05
0.00168798
0.00364955
0.0056304
0.00763521
0.0103703
0.0124996
0.0162616
0.0200614
0.0230246
0.0250171
0.0259991
0.0257971
0.0243879
0.0226984
0.021015
0.0194656
0.0177672
0.016433
0.0148706
0.0131502
0.0117034
0.0100291
0.00813608
0.00627336
0.00433147
0.0020793
-0.000373239
-0.00015985
0.00142327
0.00319058
0.00524864
0.00733881
0.00987728
0.0122987
0.0154246
0.0192757
0.0220859
0.0246
0.0259335
0.0263013
0.0254223
0.0237972
0.0224051
0.0207752
0.0194477
0.0178867
0.0164663
0.0149529
0.0135362
0.0119163
0.01021
0.0084598
0.00658251
0.00453346
0.00216984
-0.000297369
-0.00038445
0.00112846
0.00293065
0.00479156
0.00672105
0.00910255
0.0118374
0.0146358
0.0182095
0.0214397
0.0242359
0.0259115
0.0265878
0.026262
0.025167
0.0235994
0.0221841
0.0207865
0.0194886
0.0180238
0.0167686
0.0151823
0.0137221
0.012177
0.0104609
0.0085776
0.00682706
0.00470885
0.00237541
-0.000231671
-0.000574187
0.000906027
0.00255099
0.0042504
0.00629631
0.00873247
0.0112905
0.0140242
0.0171892
0.0207579
0.0235373
0.0255751
0.0265991
0.0267864
0.0258292
0.0247268
0.0233893
0.0218588
0.0208291
0.0195269
0.0182899
0.0167382
0.0154821
0.0139065
0.0124166
0.0107244
0.0089562
0.00707534
0.00498351
0.00253753
-0.000167953
-0.000781818
0.000642181
0.00220739
0.00398997
0.00591852
0.0079663
0.0106611
0.0133591
0.0161866
0.0194361
0.0227082
0.0251198
0.0265611
0.0269881
0.026719
0.0254675
0.0244018
0.02337
0.0219897
0.0207922
0.0197199
0.0185198
0.0171659
0.015607
0.0142086
0.0128227
0.0111951
0.00944653
0.0074758
0.00530675
0.00278792
-6.43398e-05
-0.000910336
0.000368381
0.00186369
0.00358735
0.00526114
0.007533
0.0100539
0.0126313
0.0154715
0.0186252
0.0218395
0.0245447
0.0262687
0.0271871
0.0271557
0.0264686
0.0254924
0.0244817
0.0233197
0.0222884
0.0210384
0.0200252
0.0186973
0.0173762
0.0161205
0.0146473
0.0131639
0.0115189
0.00977688
0.00783292
0.00560799
0.00304116
2.39993e-05
-0.000983885
0.000114066
0.0015512
0.00320985
0.00499738
0.007082
0.00925502
0.0115346
0.0146124
0.0177281
0.0206519
0.0239168
0.0257938
0.0270895
0.027405
0.0271536
0.0261574
0.0253962
0.024472
0.0235159
0.0224291
0.0214501
0.0203349
0.019067
0.017786
0.0164423
0.0150009
0.013535
0.0119658
0.010262
0.00829572
0.00597209
0.00324598
-0.00127148
0.000617448
-0.00112912
-1.04224e-05
0.0010831
0.002732
0.00437556
0.00654444
0.00866042
0.0108221
0.0136852
0.0169003
0.0197243
0.023033
0.0252156
0.0268297
0.0276161
0.0275776
0.0269962
0.0262318
0.0254923
0.0244755
0.0237564
0.0228223
0.0217682
0.020627
0.0194331
0.0181389
0.0168146
0.0154661
0.0140503
0.0125622
0.0108681
0.00880037
0.00599053
0.00225777
0.00391365
-0.00124003
0.000597843
-0.0012616
-0.000278015
0.000888745
0.00212758
0.0040789
0.0061196
0.00805846
0.00991033
0.0128679
0.0163462
0.0189205
0.0218558
0.0246211
0.0263665
0.0274922
0.0276576
0.0276187
0.0268921
0.0263315
0.0257102
0.0248959
0.0241326
0.0231917
0.0221843
0.0209922
0.0197785
0.0185261
0.0172845
0.0160015
0.0146953
0.0132585
0.0115276
0.00847569
0.00988547
0.00557672
0.00808217
0.00719514
0.00233057
0.00403384
-0.00120667
0.000672604
-0.00133832
-0.000476409
0.000689544
0.0020372
0.00342844
0.00546932
0.00755531
0.00949784
0.0124688
0.0155737
0.0180782
0.0207858
0.0238729
0.0257655
0.0271756
0.0278222
0.0278223
0.027434
0.0268574
0.0265531
0.0258925
0.025214
0.0245173
0.0236396
0.0224734
0.0213629
0.0201795
0.0189893
0.0178172
0.0166588
0.0154449
0.0140404
0.011335
0.0126901
0.00972456
0.00575434
0.00878678
0.00748444
0.00245856
0.00422043
-0.00117546
0.000775188
-0.00137374
-0.000571568
0.00041485
0.00169321
0.00279745
0.00506566
0.00705549
0.00898745
0.0114256
0.0145906
0.0171127
0.0198108
0.0228979
0.0250789
0.0266707
0.0277348
0.0279844
0.0278532
0.0276255
0.0272087
0.0268425
0.0259241
0.0257271
0.0250074
0.0239901
0.0228547
0.0217793
0.0206441
0.0194987
0.0184478
0.017415
0.016299
0.0140418
0.0152885
0.0113448
0.0128869
0.0103764
0.00600164
0.00919882
0.00780255
0.00261612
0.00443386
-0.00112722
0.000888115
-0.00140372
-0.00065172
0.000205076
0.00112776
0.00275038
0.00404062
0.00659098
0.00852485
0.0107988
0.0137346
0.0163298
0.0189565
0.0219434
0.0242675
0.0261088
0.0273298
0.0279847
0.0281297
0.0279764
0.027687
0.0276477
0.0272727
0.0266187
0.0261468
0.0253992
0.0244545
0.0233028
0.0222393
0.0211245
0.0200607
0.0191545
0.018277
0.016498
0.017587
0.0143415
0.0157116
0.0119615
0.0135069
0.0108915
0.00627997
0.00960298
0.00815381
0.00278572
0.00466392
-0.0010659
0.00101322
-0.00140092
-0.000800842
1.51155e-05
0.00116179
0.00267623
0.00371584
0.00626847
0.00785489
0.0101967
0.012784
0.0155161
0.0180247
0.0210001
0.02336
0.0253464
0.0268106
0.0276683
0.0280426
0.0281768
0.028166
0.0281183
0.0281291
0.0278778
0.0270692
0.0266873
0.0259481
0.0249733
0.0237783
0.0226694
0.0215969
0.0206584
0.0199529
0.0186251
0.0195326
0.0169901
0.0181561
0.0149854
0.0163858
0.0125617
0.0141793
0.0113885
0.00658091
0.0100394
0.00853359
0.00297344
0.00491385
-0.000983003
0.00115245
-0.00138891
-0.000938131
-0.000322427
0.000902024
0.00198013
0.00369933
0.00557399
0.00746664
0.00975664
0.0119951
0.0146868
0.0171977
0.0199411
0.0223868
0.0244994
0.0261612
0.0272805
0.027786
0.0281875
0.0283899
0.0283793
0.02855
0.0283049
0.028402
0.0278525
0.0273981
0.0265554
0.0254981
0.0242159
0.0230273
0.0220495
0.0213337
0.0203882
0.0211085
0.0192275
0.0201828
0.0176961
0.0189062
0.0157199
0.0171751
0.0131516
0.0148616
0.0119192
0.00690515
0.0105123
0.00894421
0.00317789
0.00518394
-0.000875293
0.00131328
-0.00136658
-0.00100956
-0.000548161
0.000325932
0.00185068
0.00346833
0.0048849
0.00665233
0.0089877
0.0112628
0.0137807
0.0163001
0.0188618
0.021358
0.0235529
0.0253866
0.0267446
0.0275928
0.0279333
0.0284011
0.0286141
0.0287534
0.0290885
0.0291467
0.0292034
0.0285918
0.0281204
0.0272046
0.0260214
0.0246265
0.0234007
0.0226163
0.021805
0.0224392
0.0210435
0.0218128
0.0200112
0.0210079
0.0185371
0.0197997
0.0164907
0.0180308
0.013778
0.0155931
0.0124955
0.00725118
0.0110242
0.00938512
0.00339799
0.00547197
-0.000735534
0.00150199
-0.00130991
-0.00104304
-0.000702725
4.59498e-06
0.00177357
0.00299215
0.00445845
0.00600371
0.00844927
0.0105883
0.012934
0.0153255
0.0177965
0.0202891
0.0225416
0.0244782
0.0260222
0.0270175
0.0277429
0.0280839
0.0286043
0.0289722
0.0291957
0.0297943
0.0300054
0.0302035
0.0294629
0.0288906
0.0279932
0.0269504
0.0258061
0.0248357
0.0232301
0.0245451
0.0225678
0.0234625
0.0219252
0.0228377
0.0209631
0.0220615
0.0194788
0.0208417
0.0173326
0.0189892
0.0144641
0.0164051
0.0131267
0.00761966
0.0115803
0.00986063
0.00363959
0.00578195
-0.000555408
0.00172783
-0.00122507
-0.00105227
-0.000815493
-0.00017291
0.00151563
0.00257609
0.00401906
0.00541906
0.00801059
0.00999507
0.012175
0.0144067
0.0168185
0.019191
0.0214535
0.0235259
0.0251157
0.0264201
0.0271557
0.0279131
0.0284285
0.0289412
0.0293775
0.0298972
0.0306334
0.0310626
0.0310463
0.0306249
0.0303893
0.0308318
0.0319228
0.0336395
0.0276743
0.0360693
0.0250174
0.0288416
0.0239486
0.0258986
0.0231903
0.0246191
0.0221684
0.0235855
0.0205808
0.0221855
0.0182892
0.0201435
0.015229
0.0173374
0.0138234
0.00801805
0.01219
0.010384
0.00390947
0.00611699
-0.000328837
0.00199489
-0.00111588
-0.00103302
-0.000884457
-0.000243946
0.00126315
0.0021967
0.00336303
0.00513124
0.00732447
0.0092879
0.0113912
0.0135247
0.0158438
0.0181545
0.0203793
0.022498
0.024232
0.025632
0.0266376
0.0272847
0.0280356
0.0285813
0.0293161
0.0299667
0.0306648
0.0315468
0.0322196
0.0324871
0.0336899
0.0375637
0.0467228
0.0583957
0.0512812
0.0707229
0.0383056
0.0580108
0.0306649
0.0422639
0.0271721
0.0331262
0.0254586
0.0288937
0.0239884
0.0265121
0.0220698
0.0243797
0.0194778
0.0218052
0.0161148
0.0185404
0.0146375
0.00846022
0.012914
0.0110115
0.00421595
0.00649639
-3.06527e-05
0.00232745
-0.000982046
-0.000988202
-0.000908961
-0.000256972
0.00102227
0.00182071
0.00288129
0.00470039
0.00637769
0.00864647
0.0106487
0.0126572
0.0148618
0.0170989
0.0193078
0.0214217
0.0232561
0.024713
0.0258732
0.0268278
0.0275044
0.028212
0.0290618
0.0298923
0.0307154
0.0317505
0.0329418
0.0342266
0.0375253
0.0468639
0.0672961
0.0984951
0.129393
0.0800013
0.112858
0.0626502
0.0877656
0.0468272
0.0682303
0.036524
0.0527376
0.0312898
0.0415556
0.0279005
0.0347445
0.0248045
0.0298599
0.0213359
0.0252772
0.0173074
0.0206163
0.0157845
0.00898698
0.0139655
0.0119102
0.00458696
0.00694909
0.000338196
0.00273238
-0.000819133
-0.000918835
-0.000901792
-0.000243391
0.000754891
0.00146068
0.0025503
0.00419554
0.00574751
0.00801167
0.00979088
0.0118168
0.0139121
0.0161062
0.0182298
0.0203522
0.0222256
0.0237667
0.0250605
0.0260494
0.026813
0.0277393
0.0285649
0.0296371
0.0306009
0.031505
0.0327755
0.034603
0.0399099
0.0563601
0.0886781
0.132923
0.174316
0.167345
0.196006
0.11486
0.14293
0.0933359
0.121247
0.0747884
0.10015
0.0604411
0.0834763
0.0491211
0.0705956
0.0399903
0.0598041
0.0326763
0.0481359
0.0258018
0.0364472
0.0195902
0.0262375
0.0181347
0.00971458
0.0161873
0.0138178
0.00503462
0.00755308
0.000770597
0.00320999
-0.000617462
-0.000817269
-0.000861621
-0.000217053
0.000462449
0.00111324
0.00222225
0.00368762
0.00526628
0.00727349
0.00908584
0.0109554
0.0129639
0.015072
0.0171696
0.0192336
0.0211693
0.0228292
0.0241022
0.0252297
0.0261215
0.0271187
0.0280744
0.0291643
0.0302803
0.0313783
0.0325632
0.0343879
0.0401541
0.0613883
0.106733
0.160368
0.210093
0.215021
0.23438
0.205086
0.228463
0.150036
0.178301
0.127706
0.156934
0.109173
0.136637
0.0953174
0.121846
0.0843771
0.111282
0.0735908
0.102272
0.0591018
0.0906213
0.0407433
0.0712464
0.0261015
0.0443358
0.0249156
0.0112047
0.0226933
0.019429
0.00559189
0.00863847
0.00126124
0.00376238
-0.000367876
-0.000672252
-0.00077095
-0.000281149
0.000152213
0.000798949
0.00189052
0.00322291
0.00470331
0.00654435
0.00834097
0.0101419
0.012001
0.0140401
0.0161077
0.0181076
0.0200629
0.0217665
0.0232339
0.024306
0.0253347
0.0263744
0.0274644
0.0284863
0.0297912
0.030976
0.0322565
0.0339489
0.0394215
0.060928
0.114405
0.171456
0.21353
0.243194
0.246286
0.247525
0.259794
0.238798
0.259728
0.186145
0.213834
0.165235
0.194553
0.149413
0.177588
0.139259
0.167445
0.1322
0.162135
0.124332
0.157862
0.110114
0.149486
0.0830223
0.130235
0.0460936
0.0925762
0.0456475
0.0154087
0.0426244
0.0364977
0.00636281
0.0112356
0.0017845
0.00439693
-0.000126524
-0.000459243
-0.00060287
-0.000345311
-4.22458e-05
0.00055983
0.00155588
0.0027685
0.00413623
0.00585733
0.00759608
0.00927614
0.0111047
0.0130908
0.0150864
0.0170856
0.0189639
0.0207246
0.0221861
0.0233829
0.0244617
0.0255246
0.0266705
0.0278134
0.0290481
0.030418
0.0317291
0.0333251
0.0379672
0.0585253
0.111182
0.162801
0.196102
0.234964
0.264133
0.262336
0.274737
0.281632
0.271039
0.288343
0.222904
0.248758
0.206033
0.23417
0.19539
0.223009
0.191402
0.219624
0.190407
0.22119
0.187629
0.222873
0.176592
0.219168
0.149364
0.20302
0.098591
0.165852
0.100029
0.0276756
0.0945173
0.0794957
0.00774312
0.0183828
0.00228611
0.00518954
-0.000235732
-0.000442439
-0.000403485
-0.000197473
0.000352139
0.001213
0.00230552
0.00356563
0.00518664
0.00690075
0.00847258
0.0102146
0.0121412
0.0140523
0.0160195
0.0178897
0.0196448
0.0211591
0.0224261
0.0235363
0.0246081
0.0257559
0.0269869
0.0281785
0.0296489
0.0310204
0.0325281
0.0360215
0.0537174
0.104587
0.149245
0.169752
0.187073
0.250162
0.208399
0.279634
0.271007
0.298452
0.299334
0.301725
0.314378
0.260359
0.283185
0.250175
0.275741
0.246602
0.272244
0.249807
0.276136
0.255028
0.283719
0.257068
0.289415
0.249618
0.288353
0.225675
0.274989
0.176785
0.242772
0.181319
0.0591022
0.176391
0.156268
0.0109333
0.0368852
0.0027264
0.00622954
-0.000326218
-0.000427698
-0.000305043
0.000145183
0.000876599
0.00183652
0.00299141
0.004517
0.00614348
0.00764446
0.00936201
0.0111819
0.0130583
0.0149625
0.0168384
0.018599
0.020131
0.0214413
0.0225821
0.0236519
0.0247778
0.0260127
0.0273043
0.0285982
0.0301654
0.0316007
0.0341861
0.0471656
0.0939656
0.137442
0.149976
0.141229
0.170174
0.129108
0.238904
0.1903
0.293674
0.276102
0.31877
0.315171
0.330571
0.337654
0.298307
0.316863
0.296311
0.31764
0.300107
0.321806
0.308797
0.330748
0.317046
0.340516
0.320226
0.345982
0.313941
0.344035
0.29366
0.331461
0.252366
0.304915
0.254154
0.121824
0.245544
0.229236
0.183025
0.0174853
0.0713323
0.00315148
0.00753758
-0.000310058
-0.000320932
-1.93022e-05
0.000553512
0.00138736
0.00242084
0.0038436
0.00538976
0.00684878
0.00848188
0.0102582
0.0120853
0.0139587
0.0158046
0.0175777
0.0191387
0.0204689
0.0216163
0.0226802
0.0237672
0.0249665
0.0262812
0.0275984
0.0290846
0.0306293
0.0325464
0.0412397
0.0797092
0.12701
0.136804
0.117049
0.0738767
0.140379
0.0931918
0.225967
0.168333
0.302771
0.27387
0.336442
0.327471
0.35672
0.357216
0.335313
0.34866
0.340989
0.357023
0.349968
0.366669
0.360233
0.376919
0.3671
0.384652
0.36775
0.386848
0.360233
0.382518
0.342217
0.369665
0.308972
0.344637
0.3281
0.279351
0.305347
0.213656
0.142229
0.197679
0.265583
0.296222
0.300809
0.255823
0.027542
0.172141
0.142991
0.0786318
0.00342018
0.00809766
-0.000194804
-0.000117084
0.000288035
0.000958751
0.00187726
0.00316941
0.00462216
0.00604321
0.0076318
0.00934821
0.0111443
0.0129834
0.0148184
0.0165823
0.018163
0.0195185
0.0206669
0.0217028
0.0227512
0.0238876
0.0251646
0.0265425
0.0278778
0.0295387
0.0311504
0.0366218
0.0654403
0.116369
0.127575
0.108143
0.0620347
0.0548849
0.0425266
0.112736
0.0731864
0.209428
0.145704
0.306513
0.265611
0.349232
0.332577
0.37617
0.368233
0.369409
0.376696
0.380564
0.391227
0.391092
0.403083
0.399338
0.4119
0.402798
0.416648
0.40043
0.415704
0.378759
0.388712
0.39789
0.406524
0.35883
0.3715
0.391991
0.392936
0.382633
0.344854
0.326163
0.34395
0.359456
0.32373
0.242555
0.224686
0.288696
0.314374
0.31967
0.279023
0.100376
0.0246743
0.0647001
0.200637
0.168624
0.00365144
0.030885
0.0141695
0.00713882
-9.6368e-05
8.62078e-05
0.000588138
0.00135531
0.00251257
0.00384246
0.00522408
0.00677004
0.00844566
0.010207
0.0120213
0.0138453
0.0156136
0.0172188
0.0185966
0.0197485
0.0207539
0.0217334
0.0228051
0.0240064
0.0253662
0.0267534
0.028192
0.0299017
0.0333229
0.0535145
0.103784
0.120843
0.104548
0.0611321
0.0354041
0.0439871
0.0363414
0.091608
0.0594805
0.18871
0.12496
0.300349
0.251087
0.353542
0.326244
0.385153
0.370065
0.396011
0.393213
0.411431
0.413157
0.422046
0.42729
0.42816
0.435908
0.428711
0.438342
0.414271
0.421521
0.427902
0.433426
0.400862
0.40931
0.417202
0.371937
0.383025
0.402344
0.402466
0.393113
0.358583
0.341801
0.356684
0.371076
0.338561
0.266089
0.248652
0.307211
0.334126
0.328603
0.297865
0.130107
0.0842464
0.225101
0.194323
0.00783058
0.000905038
0.00440583
0.0425866
0.0184814
-1.65253e-05
0.000279167
0.000882553
0.00187177
0.00306898
0.00438864
0.0058948
0.00753052
0.00926747
0.0110645
0.0128849
0.0146638
0.0163011
0.0177067
0.0188669
0.019848
0.0207633
0.0217219
0.0228432
0.0241079
0.0255382
0.0269621
0.0285877
0.0310131
0.0445064
0.0891028
0.114941
0.105238
0.0688054
0.0367066
0.0298636
0.0276682
0.0393527
0.0332206
0.0779875
0.0518259
0.16325
0.105434
0.283341
0.227428
0.343088
0.302813
0.38062
0.350303
0.408256
0.398723
0.426879
0.420721
0.438924
0.436609
0.444141
0.445111
0.437794
0.440858
0.442822
0.442793
0.424094
0.430067
0.434765
0.438308
0.410758
0.418366
0.424807
0.382103
0.39213
0.410705
0.409021
0.401193
0.369116
0.35369
0.366134
0.380077
0.34971
0.285613
0.269103
0.3216
0.344804
0.339079
0.312809
0.155372
0.108292
0.246924
0.217466
0.0086728
-0.00102456
0.00357719
0.0585709
0.0245594
5.1898e-05
0.00046606
0.00125842
0.0023043
0.00354877
0.00499792
0.00659871
0.00830881
0.0100981
0.0119239
0.0137238
0.0154016
0.0168567
0.0180296
0.018987
0.0198443
0.0207051
0.0216911
0.0228391
0.0242498
0.0257525
0.0272289
0.0293446
0.038471
0.075176
0.108888
0.106484
0.0777115
0.0447822
0.0246587
0.0279514
0.0254253
0.0359185
0.0311172
0.0666167
0.0457952
0.130698
0.0821944
0.251535
0.191303
0.309148
0.25861
0.346928
0.301536
0.407375
0.383348
0.427137
0.406896
0.437995
0.420418
0.441434
0.437524
0.432126
0.423571
0.440353
0.440615
0.439012
0.435097
0.429956
0.433781
0.43596
0.436251
0.417767
0.423482
0.427605
0.38991
0.398531
0.415387
0.410944
0.405652
0.376936
0.362236
0.372804
0.386475
0.357499
0.301494
0.286366
0.33228
0.352148
0.346299
0.324195
0.179194
0.131764
0.265863
0.238134
0.0093794
-0.00441654
0.00154315
0.0762808
0.0310905
0.000115254
0.000694321
0.00156051
0.00271205
0.00408345
0.00563858
0.00732511
0.00910741
0.0109452
0.0127781
0.0145098
0.0160255
0.0172542
0.0181931
0.0189677
0.0197564
0.0205869
0.0216223
0.0229103
0.0244081
0.0259702
0.0279891
0.0352054
0.0643907
0.101834
0.106554
0.0853419
0.0538006
0.0257271
0.0222215
0.0208737
0.026563
0.0241738
0.033366
0.029426
0.0537042
0.0399858
0.0909649
0.0613221
0.201513
0.141121
0.248724
0.191445
0.278172
0.225128
0.374098
0.330511
0.389718
0.344356
0.392697
0.350424
0.429038
0.420309
0.409262
0.397228
0.434551
0.430511
0.423936
0.414649
0.429905
0.430244
0.428505
0.424243
0.419983
0.422657
0.423174
0.39447
0.400607
0.414293
0.406358
0.404807
0.381858
0.367886
0.376312
0.389056
0.362313
0.31406
0.300737
0.339881
0.356493
0.350569
0.332787
0.201383
0.153993
0.282594
0.257758
0.0101963
-0.010133
-0.00227775
0.0952602
0.0420453
0.000189392
0.000880477
0.00187397
0.00316053
0.00464497
0.00630479
0.0080791
0.00993354
0.011806
0.0136058
0.0152174
0.0165082
0.0174889
0.0181939
0.0188386
0.0195789
0.0205075
0.021644
0.0230444
0.0246885
0.026683
0.0332871
0.0584104
0.0946522
0.105543
0.0913018
0.0621335
0.0300904
0.019061
0.0211438
0.0197754
0.024986
0.0228947
0.0314753
0.027776
0.0456128
0.0368376
0.0712036
0.0539603
0.137426
0.0974286
0.17781
0.140026
0.212787
0.183326
0.293461
0.247724
0.300491
0.262117
0.32837
0.306567
0.271507
0.288026
0.402673
0.387966
0.370596
0.35064
0.417287
0.407493
0.394807
0.379404
0.421485
0.417007
0.409657
0.399316
0.415199
0.413811
0.409243
0.394215
0.396858
0.405631
0.393437
0.396893
0.382555
0.37006
0.375503
0.386587
0.363523
0.324325
0.313488
0.344775
0.357158
0.351143
0.338885
0.224204
0.179414
0.298513
0.27738
0.0130863
-0.0202248
-0.00816516
0.122667
0.0650834
0.000250299
0.00107685
0.00221327
0.00363039
0.00523491
0.00700232
0.00887091
0.0107874
0.0126661
0.0143964
0.015813
0.0168432
0.0175497
0.0180365
0.0186434
0.019456
0.0205674
0.022054
0.0237382
0.0259619
0.0318999
0.0554395
0.089902
0.1037
0.0954281
0.069616
0.0364701
0.0191554
0.017673
0.0170296
0.0197686
0.0186266
0.023618
0.0214139
0.0305549
0.0265914
0.0429331
0.0357277
0.0696262
0.0581343
0.110089
0.0864483
0.157372
0.136333
0.211885
0.206049
0.239213
0.223039
0.261024
0.255638
0.260858
0.287551
0.276276
0.265481
0.268807
0.361721
0.342329
0.322053
0.303058
0.38609
0.370316
0.352602
0.333998
0.401587
0.390777
0.377161
0.361212
0.401338
0.393655
0.382601
0.387633
0.385569
0.386257
0.369618
0.379417
0.377872
0.367809
0.368828
0.377432
0.360196
0.332453
0.324354
0.345805
0.353253
0.347551
0.34134
0.248038
0.20836
0.312602
0.295131
0.025287
-0.036854
-0.0108386
0.159855
0.112056
0.000313001
0.00128391
0.00256995
0.00412337
0.00586578
0.00773945
0.00970189
0.0116685
0.0135231
0.0151041
0.0162761
0.0170043
0.0174285
0.0179243
0.0186907
0.0201001
0.0218687
0.0241348
0.0266462
0.0323046
0.0531347
0.087033
0.102001
0.0977732
0.0756508
0.0429361
0.0205904
0.0161028
0.0165425
0.0162147
0.0185248
0.0172761
0.0233238
0.0203957
0.0336154
0.0276798
0.04908
0.0409296
0.100826
0.0892566
0.120914
0.110048
0.205266
0.206005
0.321657
0.339913
0.276492
0.298794
0.266174
0.269138
0.357424
0.379176
0.27982
0.281767
0.301964
0.289728
0.316034
0.300552
0.289025
0.281629
0.343874
0.326646
0.311201
0.29886
0.368812
0.353044
0.336813
0.321781
0.375468
0.36189
0.346869
0.372959
0.364902
0.356979
0.341665
0.353851
0.366557
0.359958
0.356339
0.360691
0.352014
0.336972
0.331637
0.343369
0.345653
0.341645
0.340577
0.270152
0.236805
0.323097
0.309271
0.0632194
-0.0357458
0.0215481
0.199501
0.167003
0.000375756
0.00149497
0.00293849
0.00464843
0.00653332
0.00852644
0.0105799
0.0125754
0.0143378
0.0157057
0.0165908
0.0170161
0.0175625
0.0187986
0.0211874
0.024229
0.0271064
0.0304842
0.0367073
0.0529714
0.0840628
0.100345
0.0985732
0.0797204
0.048497
0.0226045
0.0160202
0.0147502
0.0146513
0.0153059
0.014864
0.0177788
0.016176
0.026182
0.0208262
0.0460737
0.0345311
0.0751369
0.0601269
0.182268
0.160862
0.203725
0.195273
0.353216
0.357603
0.509516
0.522338
0.397764
0.417756
0.483291
0.317992
0.336584
0.450533
0.472862
0.315058
0.332601
0.377108
0.353535
0.291773
0.290402
0.293412
0.30165
0.309486
0.30223
0.300606
0.302468
0.332291
0.319958
0.312854
0.310848
0.343167
0.33049
0.322768
0.351827
0.341828
0.332269
0.332403
0.335478
0.349858
0.34773
0.342492
0.342448
0.341902
0.338777
0.335612
0.339695
0.338378
0.337198
0.33933
0.288233
0.261232
0.329726
0.319294
0.144092
0.0355259
0.106077
0.233461
0.21388
0.000434739
0.00171431
0.00332828
0.00522015
0.00725074
0.00938121
0.0115049
0.0134829
0.015087
0.0161782
0.0168566
0.0177516
0.020563
0.0244956
0.0285329
0.0319418
0.0362471
0.043065
0.0576023
0.0825469
0.0979951
0.0978946
0.0815509
0.0524561
0.0249207
0.0164916
0.0143157
0.0136354
0.0138329
0.0142934
0.0137586
0.0185621
0.0155667
0.0359572
0.024785
0.0765068
0.0532478
0.13311
0.104055
0.309428
0.271991
0.349442
0.333379
0.526358
0.522088
0.615332
0.619537
0.641556
0.492029
0.503314
0.61228
0.601322
0.401857
0.426406
0.541324
0.56093
0.388335
0.415054
0.469274
0.442261
0.31055
0.323852
0.341637
0.363311
0.311822
0.317859
0.329869
0.347488
0.319961
0.319758
0.323599
0.333287
0.327948
0.326385
0.327904
0.337884
0.335137
0.331615
0.339873
0.335502
0.338556
0.338297
0.336089
0.336227
0.335894
0.338801
0.337457
0.337416
0.335215
0.335294
0.33807
0.302176
0.28055
0.334069
0.326812
0.202173
0.0869924
0.18441
0.26023
0.247509
0.00049012
0.00195644
0.00378387
0.00585136
0.008041
0.0103052
0.0124714
0.0143683
0.0157772
0.0168105
0.018465
0.0226746
0.0280011
0.0328025
0.037351
0.0424928
0.0502926
0.0651827
0.0835385
0.0955848
0.0959856
0.0813241
0.0544492
0.0271363
0.0173416
0.0148154
0.0129932
0.013374
0.0126036
0.0126417
0.0136767
0.0127991
0.0227367
0.0163073
0.0586678
0.0358918
0.134142
0.0920581
0.228176
0.180975
0.447852
0.400472
0.504668
0.48155
0.628929
0.607668
0.662093
0.661493
0.673607
0.664946
0.577347
0.591111
0.66095
0.657823
0.495138
0.519109
0.617211
0.63157
0.478526
0.506543
0.557559
0.533037
0.36947
0.394304
0.421454
0.449731
0.348894
0.370677
0.39673
0.424714
0.335097
0.347961
0.367594
0.393436
0.335169
0.344559
0.360661
0.337251
0.341335
0.35045
0.372222
0.352411
0.336905
0.335535
0.337076
0.339862
0.334869
0.338849
0.339394
0.336211
0.335151
0.336328
0.337977
0.31338
0.297394
0.338649
0.33391
0.243906
0.0885091
0.228346
0.284146
0.278804
0.000544769
0.00223572
0.00430428
0.00654972
0.00891241
0.0112986
0.0134653
0.0152875
0.0167034
0.0191374
0.0245561
0.0312456
0.0368238
0.0421229
0.0483355
0.0580051
0.0707523
0.0839869
0.0925994
0.0932082
0.0797797
0.0547084
0.0287878
0.0184752
0.0156164
0.0136417
0.0121299
0.0126835
0.0117052
0.011806
0.0140819
0.012119
0.0333258
0.0198742
0.100292
0.0591028
0.21959
0.155728
0.345653
0.284641
0.526578
0.492938
0.582904
0.555816
0.653871
0.641031
0.617266
0.688035
0.682173
0.677273
0.665532
0.642955
0.651764
0.69193
0.69352
0.579894
0.599776
0.673834
0.682702
0.565055
0.589451
0.630837
0.611475
0.453505
0.482358
0.511048
0.538699
0.422382
0.452639
0.483095
0.512889
0.384587
0.414018
0.445758
0.477965
0.369421
0.397054
0.430415
0.349747
0.368202
0.402361
0.437575
0.39838
0.344268
0.338382
0.348763
0.359292
0.339931
0.34047
0.343422
0.338547
0.341884
0.344586
0.342022
0.324769
0.314934
0.344957
0.343368
0.287272
0.0650109
0.233766
0.30926
0.314632
0.000623487
0.0025676
0.00489163
0.0073396
0.00987376
0.012357
0.0144981
0.0163846
0.01947
0.0259755
0.0335614
0.0400321
0.0460015
0.053348
0.0626987
0.0728133
0.0824108
0.0892525
0.0886351
0.076196
0.0529489
0.0297672
0.0197049
0.0165534
0.0144919
0.0124076
0.0113458
0.0118757
0.0109488
0.0109951
0.0165011
0.0120708
0.0538857
0.0284303
0.16145
0.0981039
0.315875
0.237504
0.448363
0.387732
0.530144
0.508368
0.585601
0.556083
0.652293
0.637707
0.590345
0.609567
0.696226
0.687619
0.673457
0.660178
0.688871
0.692516
0.703023
0.707991
0.647629
0.661975
0.708542
0.711425
0.63663
0.654973
0.684217
0.670926
0.541288
0.567972
0.593071
0.615987
0.509707
0.540087
0.568478
0.594513
0.465412
0.499894
0.532994
0.563793
0.439395
0.47799
0.516444
0.385776
0.423357
0.47958
0.512784
0.466395
0.369351
0.353003
0.378025
0.40184
0.356686
0.347103
0.352075
0.348896
0.360374
0.364134
0.35393
0.338928
0.334528
0.356226
0.357411
0.31576
0.0488672
0.194212
0.336837
0.348764
0.000728027
0.00297596
0.0055551
0.00824176
0.0109412
0.0134845
0.0157806
0.0192845
0.02655
0.034901
0.0419932
0.0484776
0.0556093
0.0631646
0.0714949
0.0791345
0.0845504
0.0816633
0.0694692
0.0479546
0.0296845
0.020996
0.01762
0.0154854
0.0135053
0.011053
0.0110792
0.0118434
0.0105767
0.0105411
0.0102093
0.0221511
0.0132554
0.085876
0.0438891
0.232448
0.150838
0.393787
0.317687
0.485594
0.451418
0.499434
0.48541
0.552395
0.519865
0.64481
0.627862
0.564809
0.586479
0.695578
0.685463
0.665549
0.648504
0.712247
0.711116
0.704047
0.710796
0.694852
0.703075
0.721372
0.721027
0.687663
0.698939
0.713653
0.70748
0.617925
0.638866
0.657716
0.674016
0.591864
0.617077
0.639259
0.658232
0.55212
0.583756
0.611289
0.634721
0.522607
0.562564
0.597231
0.442959
0.491475
0.557987
0.590527
0.54313
0.413814
0.383845
0.423777
0.460392
0.388171
0.360055