/*--------------------------------*- C++ -*----------------------------------*\
  =========                 |
  \\      /  F ield         | OpenFOAM: The Open Source CFD Toolbox
   \\    /   O peration     | Website:  https://openfoam.org
    \\  /    A nd           | Version:  dev
     \\/     M anipulation  |
\*---------------------------------------------------------------------------*/
FoamFile
{
    version     2.0;
    format      ascii;
    class       surfaceScalarField;
    location    "2500";
    object      phi;
}
// * * * * * * * * * * * * * * * * * * * * * * * * * * * * * * * * * * * * * //

dimensions      [1 0 -1 0 0 0 0];

internalField   nonuniform List<scalar> 
19513
(
1.51863e-07
1.01391e-07
1.31986e-07
2.48993e-07
4.16578e-07
9.23597e-08
1.07183e-07
3.39415e-07
4.11069e-07
2.54527e-07
6.00463e-07
7.71361e-08
8.64714e-08
4.02254e-07
3.8114e-07
3.69372e-07
6.21381e-07
2.33559e-07
7.4472e-07
6.50474e-08
7.19356e-08
4.4638e-07
3.34126e-07
4.49305e-07
6.23522e-07
3.67301e-07
7.74803e-07
2.03508e-07
8.7007e-07
5.66856e-08
6.05808e-08
4.84578e-07
2.78487e-07
5.02005e-07
6.01353e-07
4.71493e-07
8.04412e-07
3.37758e-07
8.96817e-07
1.76798e-07
9.83094e-07
5.03389e-08
5.14983e-08
5.20353e-07
2.28664e-07
5.34457e-07
5.58247e-07
5.4526e-07
8.17535e-07
4.58335e-07
9.35969e-07
2.9863e-07
1.00475e-06
1.5511e-07
1.08583e-06
4.54689e-08
4.51124e-08
5.52618e-07
1.93232e-07
5.55821e-07
4.9987e-07
5.92895e-07
8.05772e-07
5.5708e-07
9.74129e-07
4.20199e-07
1.04073e-06
2.62742e-07
1.10281e-06
1.38167e-07
1.1801e-06
4.10073e-08
4.07675e-08
5.83726e-07
1.68794e-07
5.77127e-07
4.34838e-07
6.20907e-07
7.69019e-07
6.29714e-07
9.97735e-07
5.33507e-07
1.08663e-06
3.74248e-07
1.13208e-06
2.33513e-07
1.19381e-06
1.24475e-07
1.26666e-06
3.71149e-08
3.75991e-08
6.14701e-07
1.51845e-07
6.00738e-07
3.74859e-07
6.37199e-07
7.12878e-07
6.77105e-07
9.97935e-07
6.29553e-07
1.13255e-06
4.87682e-07
1.17375e-06
3.32561e-07
1.21737e-06
2.10029e-07
1.27869e-06
1.12487e-07
1.34541e-06
3.3604e-08
3.53438e-08
6.45659e-07
1.40037e-07
6.26545e-07
3.26713e-07
6.48951e-07
6.44109e-07
7.06029e-07
9.71762e-07
7.03317e-07
1.16707e-06
5.95066e-07
1.22671e-06
4.3477e-07
1.25217e-06
2.97829e-07
1.29952e-06
1.89255e-07
1.35676e-06
1.01173e-07
1.41802e-06
3.01353e-08
3.36508e-08
6.77626e-07
1.308e-07
6.5498e-07
2.91677e-07
6.61697e-07
5.72764e-07
7.2032e-07
9.23693e-07
7.54131e-07
1.18077e-06
6.89656e-07
1.2816e-06
5.40251e-07
1.29887e-06
3.88053e-07
1.32936e-06
2.68049e-07
1.37563e-06
1.70434e-07
1.42834e-06
9.09037e-08
1.48404e-06
2.70918e-08
3.25069e-08
7.09865e-07
1.24658e-07
6.83843e-07
2.67473e-07
6.79201e-07
5.07542e-07
7.27014e-07
8.60011e-07
7.84113e-07
1.16838e-06
7.66547e-07
1.32733e-06
6.43935e-07
1.35609e-06
4.83017e-07
1.36855e-06
3.48884e-07
1.40274e-06
2.41022e-07
1.44605e-06
1.52766e-07
1.49359e-06
8.13973e-08
1.54423e-06
2.41798e-08
3.21951e-08
7.41747e-07
1.21611e-07
7.1299e-07
2.51455e-07
7.00001e-07
4.54453e-07
7.32454e-07
7.88557e-07
7.98534e-07
1.13257e-06
8.19998e-07
1.35467e-06
7.39229e-07
1.41829e-06
5.81899e-07
1.41997e-06
4.3164e-07
1.43849e-06
3.13151e-07
1.47091e-06
2.16219e-07
1.50979e-06
1.36621e-07
1.55322e-06
7.24516e-08
1.59848e-06
2.13492e-08
3.16891e-08
7.75808e-07
1.18271e-07
7.4516e-07
2.38532e-07
7.25986e-07
4.13913e-07
7.40579e-07
7.16568e-07
8.04434e-07
1.0785e-06
8.52627e-07
1.35861e-06
8.16127e-07
1.47546e-06
6.82068e-07
1.48204e-06
5.19876e-07
1.4828e-06
3.87375e-07
1.5034e-06
2.80699e-07
1.53313e-06
1.92927e-07
1.56887e-06
1.21042e-07
1.6075e-06
6.34795e-08
1.64774e-06
1.8666e-08
3.14714e-08
8.10514e-07
1.15806e-07
7.78366e-07
2.2845e-07
7.55298e-07
3.87246e-07
7.52723e-07
6.50731e-07
8.06485e-07
1.01269e-06
8.70357e-07
1.33826e-06
8.73023e-07
1.51777e-06
7.73862e-07
1.55046e-06
6.13652e-07
1.53816e-06
4.64449e-07
1.54415e-06
3.46681e-07
1.56359e-06
2.50296e-07
1.59078e-06
1.71063e-07
1.62205e-06
1.06546e-07
1.65631e-06
5.49341e-08
1.69181e-06
1.5979e-08
3.14794e-08
8.46361e-07
1.14154e-07
8.12235e-07
2.21541e-07
7.85264e-07
3.70643e-07
7.72046e-07
5.94087e-07
8.09455e-07
9.40951e-07
8.7829e-07
1.29682e-06
9.11848e-07
1.5394e-06
8.5142e-07
1.61801e-06
7.0639e-07
1.60437e-06
5.47551e-07
1.59287e-06
4.15771e-07
1.60142e-06
3.08931e-07
1.61919e-06
2.21939e-07
1.64295e-06
1.5021e-07
1.67075e-06
9.21735e-08
1.69987e-06
4.69178e-08
1.73054e-06
1.34816e-08
3.15005e-08
8.84211e-07
1.12309e-07
8.48285e-07
2.16211e-07
8.17636e-07
3.58106e-07
7.97989e-07
5.52305e-07
8.13897e-07
8.69829e-07
8.80653e-07
1.24035e-06
9.34818e-07
1.53757e-06
9.13738e-07
1.67471e-06
7.94747e-07
1.67862e-06
6.3219e-07
1.65181e-06
4.88715e-07
1.64706e-06
3.70152e-07
1.65432e-06
2.73794e-07
1.67024e-06
1.94713e-07
1.69051e-06
1.30478e-07
1.71333e-06
7.87638e-08
1.73825e-06
3.92528e-08
1.76441e-06
1.11365e-08
3.15925e-08
9.23167e-07
1.11027e-07
8.8556e-07
2.13034e-07
8.51572e-07
3.46446e-07
8.29378e-07
5.23063e-07
8.27272e-07
8.0126e-07
8.82544e-07
1.17431e-06
9.46756e-07
1.51297e-06
9.59454e-07
1.71412e-06
8.74336e-07
1.75505e-06
7.18329e-07
1.72132e-06
5.62678e-07
1.70076e-06
4.35064e-07
1.69679e-06
3.27809e-07
1.70397e-06
2.40118e-07
1.7164e-06
1.68923e-07
1.73256e-06
1.11284e-07
1.75128e-06
6.57965e-08
1.77214e-06
3.15656e-08
1.79402e-06
8.92184e-09
3.15079e-08
9.63531e-07
1.09497e-07
9.24766e-07
2.10158e-07
8.88521e-07
3.34029e-07
8.64042e-07
5.02147e-07
8.50382e-07
7.43264e-07
8.85361e-07
1.10487e-06
9.52068e-07
1.47052e-06
9.89262e-07
1.73204e-06
9.4156e-07
1.82507e-06
8.04324e-07
1.80014e-06
6.39495e-07
1.76435e-06
4.99165e-07
1.74752e-06
3.84355e-07
1.7445e-06
2.87338e-07
1.74877e-06
2.07778e-07
1.75753e-06
1.44048e-07
1.76965e-06
9.29904e-08
1.78471e-06
5.32969e-08
1.80099e-06
2.467e-08
1.81943e-06
6.72849e-09
3.1372e-08
1.00509e-06
1.08485e-07
9.64612e-07
2.08145e-07
9.26857e-07
3.25621e-07
8.97026e-07
4.89433e-07
8.76877e-07
7.01944e-07
8.9181e-07
1.03513e-06
9.55178e-07
1.41559e-06
1.00706e-06
1.72761e-06
9.93769e-07
1.88196e-06
8.84714e-07
1.88476e-06
7.19754e-07
1.83814e-06
5.65627e-07
1.80663e-06
4.40087e-07
1.79232e-06
3.36561e-07
1.78764e-06
2.48549e-07
1.78836e-06
1.77008e-07
1.79385e-06
1.19886e-07
1.80266e-06
7.51012e-08
1.81317e-06
4.1201e-08
1.82597e-06
1.81766e-08
1.84061e-06
4.80642e-09
3.11533e-08
1.0472e-06
1.08736e-07
1.00495e-06
2.04884e-07
9.67956e-07
3.18756e-07
9.33796e-07
4.77313e-07
9.09223e-07
6.70084e-07
9.08757e-07
9.68416e-07
9.58608e-07
1.35345e-06
1.01737e-06
1.70324e-06
1.03145e-06
1.92054e-06
9.55215e-07
1.96772e-06
8.01785e-07
1.92121e-06
6.36799e-07
1.87455e-06
4.97762e-07
1.84835e-06
3.84101e-07
1.83298e-06
2.91309e-07
1.82622e-06
2.10693e-07
1.8241e-06
1.4679e-07
1.82603e-06
9.65516e-08
1.83013e-06
5.82049e-08
1.83715e-06
3.00891e-08
1.84642e-06
1.2428e-08
1.85818e-06
3.10318e-09
3.06023e-08
1.0898e-06
1.08331e-07
1.04767e-06
1.99098e-07
1.01079e-06
3.14223e-07
9.72524e-07
4.653e-07
9.45833e-07
6.47382e-07
9.32031e-07
9.12469e-07
9.6479e-07
1.2879e-06
1.02421e-06
1.66332e-06
1.05733e-06
1.93845e-06
1.01358e-06
2.04185e-06
8.81126e-07
2.01181e-06
7.1123e-07
1.95254e-06
5.58829e-07
1.91206e-06
4.34107e-07
1.88601e-06
3.31069e-07
1.87107e-06
2.46516e-07
1.86034e-06
1.74558e-07
1.85514e-06
1.17772e-07
1.85256e-06
7.41933e-08
1.8531e-06
4.23219e-08
1.85687e-06
1.97137e-08
1.86315e-06
7.50593e-09
1.87219e-06
1.63287e-09
2.9792e-08
1.13263e-06
1.06871e-07
1.09133e-06
1.95102e-07
1.05176e-06
3.12255e-07
1.01282e-06
4.52347e-07
9.85564e-07
6.33087e-07
9.60308e-07
8.66298e-07
9.783e-07
1.22215e-06
1.0306e-06
1.61309e-06
1.07444e-06
1.93656e-06
1.05929e-06
2.10196e-06
9.5351e-07
2.10551e-06
7.87471e-07
2.04027e-06
6.23463e-07
1.98458e-06
4.86386e-07
1.9476e-06
3.72542e-07
1.92237e-06
2.79872e-07
1.90382e-06
2.03109e-07
1.89071e-06
1.39051e-07
1.88071e-06
8.9687e-08
1.87406e-06
5.33126e-08
1.87129e-06
2.79212e-08
1.87242e-06
1.05121e-08
1.87702e-06
2.74194e-09
1.88456e-06
3.50057e-10
2.90939e-08
1.17496e-06
1.05246e-07
1.13433e-06
1.91925e-07
1.09458e-06
3.07558e-07
1.05645e-06
4.38666e-07
1.0266e-06
6.22733e-07
9.95965e-07
8.28864e-07
9.97786e-07
1.16178e-06
1.03868e-06
1.55755e-06
1.08622e-06
1.91751e-06
1.09356e-06
2.14408e-06
1.01717e-06
2.19527e-06
8.63756e-07
2.13649e-06
6.91323e-07
2.06679e-06
5.41209e-07
2.01698e-06
4.17095e-07
1.98089e-06
3.14063e-07
1.95454e-06
2.29204e-07
1.93229e-06
1.6161e-07
1.91439e-06
1.0545e-07
1.90027e-06
6.35457e-08
1.89057e-06
3.41661e-08
1.88563e-06
1.47856e-08
1.88481e-06
2.79744e-09
1.8886e-06
-1.23986e-09
1.90006e-06
-5.04288e-10
2.85978e-08
1.21652e-06
1.02586e-07
1.17768e-06
1.87868e-07
1.13847e-06
3.02533e-07
1.09968e-06
4.28186e-07
1.06702e-06
6.12237e-07
1.03714e-06
8.03734e-07
1.0214e-06
1.10915e-06
1.05051e-06
1.50019e-06
1.09608e-06
1.88525e-06
1.11853e-06
2.16766e-06
1.06999e-06
2.2756e-06
9.36871e-07
2.23843e-06
7.61688e-07
2.15881e-06
5.99303e-07
2.09438e-06
4.63832e-07
2.04757e-06
3.5045e-07
2.01137e-06
2.57214e-07
1.98084e-06
1.80697e-07
1.95468e-06
1.21362e-07
1.93286e-06
7.28819e-08
1.9156e-06
3.86043e-08
1.90342e-06
1.64774e-08
1.89636e-06
3.32306e-09
1.89483e-06
-3.36439e-09
1.90305e-06
-4.12724e-09
1.90946e-06
-7.02791e-10
2.77769e-08
1.25753e-06
9.91579e-08
1.22003e-06
1.84352e-07
1.18126e-06
2.97363e-07
1.14368e-06
4.1954e-07
1.10839e-06
5.98142e-07
1.08116e-06
7.88413e-07
1.05249e-06
1.06345e-06
1.06691e-06
1.44449e-06
1.10621e-06
1.8448e-06
1.13655e-06
2.17375e-06
1.11247e-06
2.34193e-06
1.00361e-06
2.34172e-06
8.33769e-07
2.2596e-06
6.60842e-07
2.18087e-06
5.12846e-07
2.12242e-06
3.89016e-07
2.07559e-06
2.86298e-07
2.03701e-06
2.01135e-07
2.0026e-06
1.3288e-07
1.97272e-06
8.16309e-08
1.94645e-06
4.2082e-08
1.92631e-06
1.57823e-08
1.9119e-06
1.00802e-09
1.90389e-06
-5.64885e-09
1.90699e-06
-7.23175e-09
1.91127e-06
-5.88506e-09
1.91773e-06
2.71412e-10
2.62023e-08
1.29725e-06
9.59027e-08
1.26083e-06
1.80132e-07
1.22431e-06
2.90446e-07
1.18822e-06
4.13064e-07
1.1502e-06
5.82795e-07
1.12375e-06
7.78773e-07
1.09078e-06
1.02888e-06
1.08723e-06
1.39283e-06
1.11862e-06
1.79998e-06
1.15114e-06
2.16498e-06
1.1454e-06
2.39237e-06
1.06215e-06
2.44036e-06
9.04993e-07
2.36847e-06
7.25001e-07
2.27706e-06
5.64685e-07
2.20553e-06
4.29796e-07
2.14814e-06
3.16553e-07
2.10067e-06
2.22653e-07
2.05792e-06
1.45865e-07
2.01906e-06
8.66077e-08
1.9838e-06
4.43396e-08
1.9547e-06
1.37045e-08
1.93182e-06
-4.04584e-09
1.91631e-06
-1.13335e-08
1.9133e-06
-1.19051e-08
1.91401e-06
-9.92955e-09
1.91807e-06
-6.1372e-09
1.92732e-06
1.97604e-09
2.41698e-08
1.3347e-06
9.23464e-08
1.30084e-06
1.74397e-07
1.26665e-06
2.82882e-07
1.23191e-06
4.06049e-07
1.19527e-06
5.66764e-07
1.16626e-06
7.68829e-07
1.1337e-06
1.00621e-06
1.11359e-06
1.34545e-06
1.13449e-06
1.75433e-06
1.16429e-06
2.14527e-06
1.17085e-06
2.42642e-06
1.11138e-06
2.52989e-06
9.72553e-07
2.48234e-06
7.91239e-07
2.38296e-06
6.19085e-07
2.29766e-06
4.72561e-07
2.22971e-06
3.48292e-07
2.17227e-06
2.45002e-07
2.12057e-06
1.60031e-07
2.07258e-06
9.2415e-08
2.029e-06
4.1487e-08
1.98972e-06
9.46608e-09
1.95755e-06
-1.19456e-08
1.93322e-06
-2.08718e-08
1.92199e-06
-1.99125e-08
1.9181e-06
-1.58747e-08
1.91882e-06
-1.06122e-08
1.92543e-06
-4.1775e-09
1.93818e-06
3.69923e-09
2.26009e-08
1.37012e-06
8.76963e-08
1.33939e-06
1.66235e-07
1.30904e-06
2.72233e-07
1.27732e-06
3.96124e-07
1.24194e-06
5.51753e-07
1.21028e-06
7.56294e-07
1.17881e-06
9.9142e-07
1.1485e-06
1.30516e-06
1.15391e-06
1.7105e-06
1.17833e-06
2.11864e-06
1.19096e-06
2.44545e-06
1.15189e-06
2.6072e-06
1.0342e-06
2.59639e-06
8.58473e-07
2.49789e-06
6.76314e-07
2.39917e-06
5.17583e-07
2.31955e-06
3.8271e-07
2.25184e-06
2.68766e-07
2.19138e-06
1.74119e-07
2.13441e-06
9.82644e-08
2.08134e-06
4.01504e-08
2.032e-06
-6.9491e-10
1.99012e-06
-2.30082e-08
1.95518e-06
-3.38149e-08
1.93375e-06
-3.25295e-08
1.92372e-06
-2.54332e-08
1.91992e-06
-1.69088e-08
1.92389e-06
-8.98807e-09
1.93533e-06
-1.27352e-09
1.95177e-06
4.78419e-09
2.05085e-08
1.40272e-06
8.15901e-08
1.37626e-06
1.57319e-07
1.34836e-06
2.6142e-07
1.31989e-06
3.87194e-07
1.28618e-06
5.37715e-07
1.25591e-06
7.4236e-07
1.22424e-06
9.79897e-07
1.19031e-06
1.27445e-06
1.17925e-06
1.66824e-06
1.19611e-06
2.08843e-06
1.20862e-06
2.4517e-06
1.18471e-06
2.67029e-06
1.08879e-06
2.70583e-06
9.24791e-07
2.61967e-06
7.36724e-07
2.50936e-06
5.66143e-07
2.41751e-06
4.19491e-07
2.3403e-06
2.94253e-07
2.27073e-06
1.89601e-07
2.20434e-06
1.04236e-07
2.1415e-06
3.8178e-08
2.08244e-06
-1.01774e-08
2.02977e-06
-4.02623e-08
1.98279e-06
-5.0526e-08
1.95028e-06
-5.02464e-08
1.9323e-06
-4.10152e-08
1.92204e-06
-2.74437e-08
1.92174e-06
-1.46939e-08
1.93142e-06
-5.01938e-09
1.94809e-06
2.47713e-09
1.96701e-06
4.47687e-09
1.84966e-08
1.43139e-06
7.43096e-08
1.41007e-06
1.48703e-07
1.38489e-06
2.49195e-07
1.36058e-06
3.75511e-07
1.3316e-06
5.23463e-07
1.30049e-06
7.29141e-07
1.26912e-06
9.69789e-07
1.23432e-06
1.253e-06
1.21178e-06
1.63053e-06
1.21699e-06
2.05761e-06
1.22693e-06
2.44822e-06
1.21211e-06
2.71888e-06
1.13623e-06
2.80734e-06
9.87292e-07
2.74552e-06
7.98983e-07
2.62897e-06
6.17009e-07
2.52512e-06
4.58749e-07
2.43753e-06
3.22303e-07
2.35814e-06
2.06791e-07
2.28341e-06
1.10557e-07
2.21105e-06
3.4769e-08
2.14163e-06
-2.09823e-08
2.07712e-06
-5.74548e-08
2.01823e-06
-7.55909e-08
1.97338e-06
-7.35099e-08
1.94477e-06
-6.2624e-08
1.92534e-06
-4.42223e-08
1.91959e-06
-2.51961e-08
1.92579e-06
-8.94594e-09
1.94148e-06
1.67196e-09
1.96424e-06
5.3248e-09
1.98679e-06
2.86231e-09
1.66506e-08
1.45553e-06
6.74274e-08
1.4383e-06
1.40094e-07
1.41871e-06
2.34601e-07
1.39953e-06
3.61179e-07
1.37491e-06
5.11084e-07
1.34396e-06
7.16946e-07
1.31268e-06
9.59326e-07
1.27957e-06
1.23985e-06
1.24745e-06
1.602e-06
1.24024e-06
2.02744e-06
1.24705e-06
2.43867e-06
1.23651e-06
2.75367e-06
1.17732e-06
2.89797e-06
1.04565e-06
2.87056e-06
8.62256e-07
2.75721e-06
6.7091e-07
2.64074e-06
5.01187e-07
2.54274e-06
3.53536e-07
2.45499e-06
2.25576e-07
2.37241e-06
1.17841e-07
2.2904e-06
3.12337e-08
2.21027e-06
-3.38012e-08
2.13366e-06
-7.74174e-08
2.06214e-06
-1.01263e-07
2.00287e-06
-1.05008e-07
1.96191e-06
-9.05484e-08
1.93094e-06
-6.81139e-08
1.91716e-06
-4.16843e-08
1.91844e-06
-1.77502e-08
1.93297e-06
-3.52395e-10
1.95669e-06
9.29217e-09
1.9857e-06
6.50067e-09
2.00876e-06
-4.26131e-10
-7.96547e-11
1.42892e-08
1.47352e-06
6.03377e-08
1.46259e-06
1.30654e-07
1.44778e-06
2.20056e-07
1.43322e-06
3.44676e-07
1.41599e-06
4.99284e-07
1.3867e-06
7.0398e-07
1.35692e-06
9.47102e-07
1.32483e-06
1.23275e-06
1.28669e-06
1.58322e-06
1.26621e-06
2.00265e-06
1.26503e-06
2.42797e-06
1.2578e-06
2.77767e-06
1.21251e-06
2.97624e-06
1.09899e-06
2.99168e-06
9.24482e-07
2.89068e-06
7.28751e-07
2.76484e-06
5.47047e-07
2.65649e-06
3.8747e-07
2.56071e-06
2.47703e-07
2.46996e-06
1.28052e-07
2.37922e-06
2.91184e-08
2.2894e-06
-4.78306e-08
2.20092e-06
-1.01002e-07
2.11586e-06
-1.31042e-07
2.04138e-06
-1.39682e-07
1.98533e-06
-1.28323e-07
1.94006e-06
-9.95602e-08
1.91534e-06
-6.61873e-08
1.90982e-06
-3.29724e-08
1.92133e-06
-6.0278e-09
1.94637e-06
1.00425e-08
1.98004e-06
1.50239e-08
2.01035e-06
5.71265e-10
4.4066e-09
1.01102e-06
1.08229e-09
1.01051e-06
4.39219e-10
1.16003e-08
1.48499e-06
5.21076e-08
1.48176e-06
1.19149e-07
1.47414e-06
2.0525e-07
1.46259e-06
3.26368e-07
1.45149e-06
4.87456e-07
1.42777e-06
6.93299e-07
1.39733e-06
9.38188e-07
1.36585e-06
1.23068e-06
1.32677e-06
1.57309e-06
1.29673e-06
1.98386e-06
1.28501e-06
2.41716e-06
1.27597e-06
2.7961e-06
1.23939e-06
3.04339e-06
1.14544e-06
3.1063e-06
9.84361e-07
3.02651e-06
7.8864e-07
2.89737e-06
5.96167e-07
2.77831e-06
4.25222e-07
2.67409e-06
2.74126e-07
2.57652e-06
1.4117e-07
2.47903e-06
2.82496e-08
2.38038e-06
-6.18559e-08
2.28017e-06
-1.27029e-07
2.18132e-06
-1.66398e-07
2.08941e-06
-1.78977e-07
2.01483e-06
-1.69063e-07
1.9541e-06
-1.42238e-07
1.91511e-06
-9.92146e-08
1.89981e-06
-5.60654e-08
1.90673e-06
-1.82731e-08
1.93077e-06
9.64832e-09
1.96928e-06
7.2092e-09
1.36643e-08
1.00274e-06
8.2827e-09
1.00024e-06
1.41748e-08
1.00996e-06
1.13542e-09
1.01071e-06
3.67691e-09
1.0177e-06
2.86292e-09
1.01681e-06
1.33372e-09
8.51828e-09
1.49096e-06
4.27385e-08
1.49435e-06
1.0596e-07
1.495e-06
1.93415e-07
1.48595e-06
3.06551e-07
1.48233e-06
4.74051e-07
1.46482e-06
6.86713e-07
1.4343e-06
9.34096e-07
1.40135e-06
1.23244e-06
1.36373e-06
1.5718e-06
1.32797e-06
1.97268e-06
1.30784e-06
2.40738e-06
1.29463e-06
2.80915e-06
1.26286e-06
3.09939e-06
1.18338e-06
3.21362e-06
1.03816e-06
3.16322e-06
8.47629e-07
3.03627e-06
6.49682e-07
2.90761e-06
4.66875e-07
2.79528e-06
3.04112e-07
2.69227e-06
1.58364e-07
2.58937e-06
3.08556e-08
2.48245e-06
-7.37741e-08
2.3722e-06
-1.53836e-07
2.2595e-06
-2.0515e-07
2.1494e-06
-2.26283e-07
2.05405e-06
-2.18077e-07
1.97505e-06
-1.89891e-07
1.91821e-06
-1.45209e-07
1.88908e-06
-8.83635e-08
1.88796e-06
-3.7191e-08
1.91024e-06
2.35144e-09
1.94921e-06
1.39539e-08
1.58444e-08
9.97504e-07
1.24618e-08
9.95083e-07
1.61e-08
1.01054e-06
8.46756e-09
9.98416e-07
1.43015e-08
1.00971e-06
1.50199e-08
1.01692e-06
1.0409e-09
1.01754e-06
3.07084e-09
1.02463e-06
5.13953e-09
1.02374e-06
2.24935e-09
5.04964e-09
1.48974e-06
3.31948e-08
1.50048e-06
9.19028e-08
1.50843e-06
1.78777e-07
1.50952e-06
2.8602e-07
1.50659e-06
4.60271e-07
1.49604e-06
6.82188e-07
1.46925e-06
9.3394e-07
1.43438e-06
1.2364e-06
1.39717e-06
1.57737e-06
1.35808e-06
1.96974e-06
1.33088e-06
2.40339e-06
1.31172e-06
2.8209e-06
1.2829e-06
3.14615e-06
1.21609e-06
3.30971e-06
1.0873e-06
3.29667e-06
9.04719e-07
3.18011e-06
7.03832e-07
3.0443e-06
5.12808e-07
2.92383e-06
3.3826e-07
2.8161e-06
1.80288e-07
2.70928e-06
3.8468e-08
2.59567e-06
-8.22916e-08
2.47798e-06
-1.79511e-07
2.3522e-06
-2.4648e-07
2.22453e-06
-2.8018e-07
2.1061e-06
-2.78215e-07
2.00559e-06
-2.48491e-07
1.92647e-06
-1.98019e-07
1.87895e-06
-1.34948e-07
1.86569e-06
-6.59662e-08
1.88277e-06
-9.60878e-09
1.92376e-06
1.25357e-08
1.53501e-08
9.89112e-07
1.99396e-08
9.84523e-07
2.04495e-08
9.96163e-07
1.8367e-08
1.01791e-06
8.11686e-09
1.00765e-06
1.63811e-08
1.01816e-06
1.47862e-08
1.02431e-06
4.85266e-10
1.02541e-06
1.99245e-09
1.03119e-06
6.18602e-09
1.03057e-06
2.88896e-09
1.01319e-09
1.4802e-06
2.39797e-08
1.49895e-06
7.79032e-08
1.5145e-06
1.60005e-07
1.52714e-06
2.71758e-07
1.52375e-06
4.45526e-07
1.52107e-06
6.8025e-07
1.4978e-06
9.39219e-07
1.46388e-06
1.24454e-06
1.42587e-06
1.58882e-06
1.38555e-06
1.97544e-06
1.35231e-06
2.40577e-06
1.32836e-06
2.83187e-06
1.30071e-06
3.18679e-06
1.24231e-06
3.39658e-06
1.12919e-06
3.42456e-06
9.59412e-07
3.32515e-06
7.59651e-07
3.18591e-06
5.62207e-07
3.05914e-06
3.77522e-07
2.9464e-06
2.0797e-07
2.83749e-06
5.19638e-08
2.72133e-06
-8.71978e-08
2.59832e-06
-2.02583e-07
2.46108e-06
-2.8833e-07
2.31726e-06
-3.39135e-07
2.17512e-06
-3.49078e-07
2.04999e-06
-3.22484e-07
1.94332e-06
-2.65198e-07
1.87147e-06
-1.90399e-07
1.8396e-06
-1.08727e-07
1.84698e-06
-3.00542e-08
1.88697e-06
1.18887e-08
1.53927e-08
9.76943e-07
2.01328e-08
9.70181e-07
2.21315e-08
9.92694e-07
2.34215e-08
9.88994e-07
2.41641e-08
1.00547e-06
2.05534e-08
1.02683e-06
6.71091e-09
1.01771e-06
1.6837e-08
1.02865e-06
1.29745e-08
1.03202e-06
-9.47646e-10
1.03388e-06
1.53568e-10
1.03791e-06
5.11123e-09
1.03745e-06
3.36603e-09
-3.49364e-09
1.46311e-06
1.57138e-08
1.48844e-06
6.43773e-08
1.5123e-06
1.43729e-07
1.53064e-06
2.62635e-07
1.53614e-06
4.34815e-07
1.53425e-06
6.84751e-07
1.51634e-06
9.5095e-07
1.48589e-06
1.26025e-06
1.44795e-06
1.60585e-06
1.40878e-06
1.98942e-06
1.37143e-06
2.4149e-06
1.34297e-06
2.84451e-06
1.31568e-06
3.22155e-06
1.26602e-06
3.47174e-06
1.16716e-06
3.54501e-06
1.00876e-06
3.47132e-06
8.13197e-07
3.33188e-06
6.13793e-07
3.19862e-06
4.22713e-07
3.08118e-06
2.42772e-07
2.97198e-06
7.35336e-08
2.8565e-06
-8.33531e-08
2.73092e-06
-2.19876e-07
2.58761e-06
-3.2904e-07
2.43111e-06
-4.02102e-07
2.26637e-06
-4.30298e-07
2.11375e-06
-4.12693e-07
1.97384e-06
-3.52867e-07
1.86962e-06
-2.63206e-07
1.81277e-06
-1.63419e-07
1.8033e-06
-6.49113e-08
1.83678e-06
9.98686e-09
1.02725e-08
9.59648e-07
2.24438e-08
9.50126e-07
2.49418e-08
9.83431e-07
2.57109e-08
9.76598e-07
2.8982e-08
1.00244e-06
2.64642e-08
9.98607e-07
2.80072e-08
1.01671e-06
2.15666e-08
1.03687e-06
3.72723e-09
1.02898e-06
1.65143e-08
1.04072e-06
9.13586e-09
1.0389e-06
-2.37602e-09
1.04202e-06
-2.94914e-09
1.04079e-06
3.70593e-09
1.04224e-06
1.92705e-09
-8.41456e-09
1.43885e-06
8.23267e-09
1.47066e-06
5.07889e-08
1.50201e-06
1.30506e-07
1.52552e-06
2.53136e-07
1.53995e-06
4.3495e-07
1.53597e-06
6.93248e-07
1.5255e-06
9.68228e-07
1.4987e-06
1.28302e-06
1.46286e-06
1.62834e-06
1.42523e-06
2.01069e-06
1.38731e-06
2.43147e-06
1.3546e-06
2.86109e-06
1.32637e-06
3.25277e-06
1.28441e-06
3.53674e-06
1.20093e-06
3.65359e-06
1.05848e-06
3.61019e-06
8.69939e-07
3.48004e-06
6.65077e-07
3.34427e-06
4.6813e-07
3.2217e-06
2.82122e-07
3.11104e-06
1.0372e-07
2.99736e-06
-6.72167e-08
2.87254e-06
-2.24886e-07
2.72949e-06
-3.61674e-07
2.56698e-06
-4.64831e-07
2.3851e-06
-5.20731e-07
2.20216e-06
-5.18616e-07
2.02492e-06
-4.63617e-07
1.87967e-06
-3.62749e-07
1.78546e-06
-2.35737e-07
1.75423e-06
-1.14186e-07
1.77459e-06
-3.19603e-11
-2.53832e-09
9.35832e-07
2.43101e-08
9.23162e-07
2.29752e-08
9.67523e-07
3.15397e-08
9.56596e-07
3.5893e-08
9.93357e-07
3.09727e-08
9.86562e-07
3.57923e-08
1.0146e-06
2.85734e-08
1.01121e-06
3.14088e-08
1.02939e-06
2.11625e-08
1.04629e-06
-5.39286e-10
1.04208e-06
1.51568e-08
1.05116e-06
4.27711e-09
1.04537e-06
-5.48941e-09
1.05021e-06
-7.77286e-09
1.04364e-06
1.85211e-09
1.04742e-06
-1.83187e-09
-1.34074e-08
1.40639e-06
1.13723e-09
1.44592e-06
3.93925e-08
1.48211e-06
1.18953e-07
1.51341e-06
2.4576e-07
1.53258e-06
4.44708e-07
1.53e-06
7.05861e-07
1.52289e-06
9.93417e-07
1.50011e-06
1.31251e-06
1.46902e-06
1.65847e-06
1.4324e-06
2.03899e-06
1.39661e-06
2.45583e-06
1.36274e-06
2.88279e-06
1.33289e-06
3.28339e-06
1.29567e-06
3.59555e-06
1.22557e-06
3.7524e-06
1.1022e-06
3.7418e-06
9.26833e-07
3.62429e-06
7.25526e-07
3.48622e-06
5.23114e-07
3.36377e-06
3.26014e-07
3.25663e-06
1.36569e-07
3.14506e-06
-4.40099e-08
3.02308e-06
-2.17598e-07
2.88221e-06
-3.77602e-07
2.71989e-06
-5.1458e-07
2.52989e-06
-6.09554e-07
2.32196e-06
-6.40426e-07
2.1041e-06
-5.97675e-07
1.91026e-06
-4.94042e-07
1.76406e-06
-3.41173e-07
1.69515e-06
-1.76495e-07
1.69789e-06
-1.53471e-08
-2.19805e-08
9.04618e-07
1.85474e-08
8.87943e-07
1.41729e-08
9.43045e-07
3.78881e-08
9.27646e-07
3.84052e-08
9.77302e-07
4.08176e-08
9.66019e-07
4.71965e-08
1.00624e-06
3.59521e-08
9.99262e-07
4.27808e-08
1.02902e-06
2.89411e-08
1.02622e-06
3.42147e-08
1.04416e-06
1.90852e-08
1.05611e-06
-6.43289e-09
1.05532e-06
1.09932e-08
1.06323e-06
-2.83493e-09
1.05164e-06
-9.70148e-09
1.05827e-06
-1.43864e-08
1.04522e-06
-8.90763e-10
1.05194e-06
-8.5303e-09
-1.81848e-08
1.36489e-06
-5.04969e-09
1.41258e-06
3.08673e-08
1.45446e-06
1.08637e-07
1.49208e-06
2.46542e-07
1.51215e-06
4.63783e-07
1.51336e-06
7.28497e-07
1.50717e-06
1.02609e-06
1.48988e-06
1.34961e-06
1.46276e-06
1.69713e-06
1.42992e-06
2.07402e-06
1.39709e-06
2.48672e-06
1.3655e-06
2.91024e-06
1.33517e-06
3.31518e-06
1.30106e-06
3.64887e-06
1.24232e-06
3.84206e-06
1.13588e-06
3.86682e-06
9.77134e-07
3.76626e-06
7.84883e-07
3.62713e-06
5.84542e-07
3.5016e-06
3.85235e-07
3.39573e-06
1.8685e-07
3.2933e-06
-1.17148e-08
3.18404e-06
-2.05144e-07
3.04741e-06
-3.82772e-07
2.88911e-06
-5.46757e-07
2.69763e-06
-6.82363e-07
2.47285e-06
-7.60354e-07
2.22414e-06
-7.60332e-07
1.97429e-06
-6.61537e-07
1.77065e-06
-5.00437e-07
1.64307e-06
-2.88907e-07
1.62e-06
-4.00064e-08
-5.84474e-08
8.6442e-07
8.2118e-09
8.44868e-07
-2.39675e-09
9.09331e-07
3.6895e-08
8.894e-07
3.41349e-08
9.51767e-07
5.21647e-08
9.3544e-07
5.47587e-08
9.90064e-07
5.00308e-08
9.78121e-07
5.91578e-08
1.02157e-06
4.06079e-08
1.01552e-06
4.88333e-08
1.04613e-06
2.69684e-08
1.0437e-06
3.6638e-08
1.0593e-06
1.5103e-08
1.06671e-06
-1.4861e-08
1.07024e-06
3.97522e-09
1.07659e-06
-1.27259e-08
1.05694e-06
-1.46882e-08
1.06504e-06
-2.24708e-08
1.04249e-06
-3.37162e-09
1.05029e-06
-1.63188e-08
-2.25901e-08
1.31419e-06
-1.04475e-08
1.37028e-06
2.4039e-08
1.41941e-06
1.02609e-07
1.46024e-06
2.5615e-07
1.48221e-06
4.89756e-07
1.48615e-06
7.61198e-07
1.48045e-06
1.06613e-06
1.46663e-06
1.39535e-06
1.44363e-06
1.74231e-06
1.41705e-06
2.11589e-06
1.38797e-06
2.52399e-06
1.35962e-06
2.94382e-06
1.33177e-06
3.34956e-06
1.30068e-06
3.69893e-06
1.25099e-06
3.92377e-06
1.16057e-06
3.9833e-06
1.01938e-06
3.90464e-06
8.38871e-07
3.76814e-06
6.43866e-07
3.63872e-06
4.47372e-07
3.53151e-06
2.49325e-07
3.43492e-06
4.5144e-08
3.33684e-06
-1.64494e-07
3.22004e-06
-3.77919e-07
3.07511e-06
-5.68727e-07
2.892e-06
-7.41058e-07
2.65794e-06
-8.67414e-07
2.3912e-06
-9.27251e-07
2.09671e-06
-8.8249e-07
1.83986e-06
-7.30442e-07
1.66959e-06
-5.26668e-07
1.61495e-06
-1.08051e-07
-1.75683e-07
8.21803e-07
-1.69214e-08
8.13894e-07
-5.05552e-08
8.67743e-07
2.98918e-08
8.4761e-07
1.77396e-08
9.16887e-07
5.54724e-08
8.98186e-07
5.28486e-08
9.63339e-07
6.69664e-08
9.47342e-07
7.07714e-08
1.00602e-06
5.95447e-08
9.91997e-07
7.31932e-08
1.04045e-06
4.38585e-08
1.03515e-06
5.41323e-08
1.06276e-06
2.34975e-08
1.06334e-06
3.60435e-08
1.07684e-06
8.49026e-09
1.07669e-06
-2.65067e-08
1.08763e-06
-7.07673e-09
1.09089e-06
-2.69369e-08
1.05928e-06
-2.36576e-08
1.07043e-06
-3.36099e-08
1.03608e-06
-5.43364e-09
1.04524e-06
-2.5464e-08
-2.70069e-08
1.25397e-06
-1.51861e-08
1.31891e-06
1.96111e-08
1.37468e-06
1.02976e-07
1.41872e-06
2.73517e-07
1.44249e-06
5.23249e-07
1.44854e-06
8.02466e-07
1.4446e-06
1.11437e-06
1.43171e-06
1.44693e-06
1.41472e-06
1.7927e-06
1.39309e-06
2.16431e-06
1.36835e-06
2.56701e-06
1.34465e-06
2.98285e-06
1.32043e-06
3.38758e-06
1.29359e-06
3.74713e-06
1.25237e-06
3.99786e-06
1.17687e-06
4.09068e-06
1.05314e-06
4.037e-06
8.86951e-07
3.90693e-06
7.00033e-07
3.77478e-06
5.07794e-07
3.66612e-06
3.12769e-07
3.57356e-06
1.10815e-07
3.4842e-06
-1.02325e-07
3.38562e-06
-3.29909e-07
3.26254e-06
-5.65386e-07
3.10847e-06
-7.85139e-07
2.88196e-06
-9.6508e-07
2.61184e-06
-1.08786e-06
2.30158e-06
-1.13159e-06
2.02522e-06
-1.06696e-06
1.85828e-06
-9.18217e-07
1.82355e-06
-3.01811e-07
-4.33026e-07
8.26045e-07
-1.20317e-07
9.04862e-07
-2.54799e-07
8.39982e-07
-9.35109e-09
8.65942e-07
-7.67535e-08
8.83804e-07
4.42537e-08
8.84652e-07
1.67746e-08
9.33117e-07
6.96956e-08
9.26353e-07
5.95615e-08
9.80046e-07
7.89221e-08
9.72319e-07
7.84771e-08
1.02472e-06
6.99832e-08
1.01576e-06
8.2142e-08
1.06168e-06
4.55142e-08
1.05628e-06
5.95198e-08
1.08249e-06
1.78287e-08
1.08514e-06
3.33716e-08
1.09707e-06
-9.69604e-10
1.08584e-06
-4.1914e-08
1.10703e-06
-2.32312e-08
1.10451e-06
-4.56301e-08
1.05912e-06
-3.75188e-08
1.0745e-06
-4.89743e-08
1.02573e-06
-7.7295e-09
1.03434e-06
-3.40556e-08
-3.18081e-08
1.18346e-06
-1.96099e-08
1.25837e-06
1.79097e-08
1.32052e-06
1.09591e-07
1.36759e-06
3.00119e-07
1.39171e-06
5.65062e-07
1.40044e-06
8.52636e-07
1.39811e-06
1.17048e-06
1.38804e-06
1.5011e-06
1.37723e-06
1.84837e-06
1.35872e-06
2.21752e-06
1.33949e-06
2.61497e-06
1.32008e-06
3.02674e-06
1.30055e-06
3.42891e-06
1.27888e-06
3.79465e-06
1.24599e-06
4.06632e-06
1.18386e-06
4.18971e-06
1.07779e-06
4.16171e-06
9.28409e-07
4.04165e-06
7.52261e-07
3.90773e-06
5.67053e-07
3.79655e-06
3.77212e-07
3.70804e-06
1.78338e-07
3.62862e-06
-3.36561e-08
3.54568e-06
-2.62573e-07
3.44532e-06
-5.1264e-07
3.31697e-06
-7.73859e-07
3.13074e-06
-1.03387e-06
2.88262e-06
-1.23555e-06
2.59876e-06
-1.38393e-06
2.35859e-06
-1.46252e-06
2.29712e-06
-1.50261e-06
2.40635e-06
-1.49913e-06
1.02874e-06
-4.25969e-07
1.25254e-06
-6.5691e-07
9.53646e-07
-2.0859e-07
1.10286e-06
-4.04806e-07
9.24339e-07
-4.9418e-08
1.02437e-06
-1.77712e-07
9.39556e-07
3.08548e-08
9.94353e-07
-3.85702e-08
9.75875e-07
6.60455e-08
1.00197e-06
3.31632e-08
1.0162e-06
7.84268e-08
1.03093e-06
6.35938e-08
1.05432e-06
7.19091e-08
1.06417e-06
7.22048e-08
1.08464e-06
4.59905e-08
1.08917e-06
5.49188e-08
1.10437e-06
1.04962e-08
1.11026e-06
2.74343e-08
1.1183e-06
-1.22841e-08
1.0946e-06
-6.20217e-08
1.12332e-06
-4.20755e-08
1.11689e-06
-6.79519e-08
1.05184e-06
-5.49993e-08
1.07379e-06
-7.09182e-08
1.00983e-06
-9.86098e-09
1.01944e-06
-4.36416e-08
-3.80647e-08
1.10121e-06
-2.44573e-08
1.18827e-06
1.88071e-08
1.25736e-06
1.23011e-07
1.3066e-06
3.36852e-07
1.33055e-06
6.14891e-07
1.34164e-06
9.11376e-07
1.34132e-06
1.23083e-06
1.33714e-06
1.55921e-06
1.32954e-06
1.90871e-06
1.31644e-06
2.27412e-06
1.30175e-06
2.66702e-06
1.28711e-06
3.07411e-06
1.27244e-06
3.47346e-06
1.25586e-06
3.84263e-06
1.23074e-06
4.13026e-06
1.18197e-06
4.2804e-06
1.09322e-06
4.278e-06
9.61479e-07
4.17089e-06
7.99171e-07
4.03622e-06
6.23734e-07
3.92217e-06
4.41584e-07
3.83573e-06
2.49304e-07
3.76569e-06
4.13819e-08
3.69871e-06
-1.86782e-07
3.62176e-06
-4.39165e-07
3.52023e-06
-7.15822e-07
3.37507e-06
-1.018e-06
3.17453e-06
-1.32525e-06
2.96675e-06
-1.60133e-06
2.83575e-06
-1.85599e-06
2.93853e-06
-2.0961e-06
3.19978e-06
-2.29011e-06
-1.46177e-06
3.46763e-06
-1.03835e-06
-1.21373e-06
1.28519e-06
-6.0901e-07
-8.34157e-07
1.17749e-06
-3.62895e-07
1.35635e-06
-5.84985e-07
1.10803e-06
-1.64318e-07
1.26606e-06
-3.37285e-07
1.07633e-06
-4.42773e-08
1.20501e-06
-1.68718e-07
1.07454e-06
2.19793e-08
1.17153e-06
-6.49532e-08
1.09152e-06
5.08048e-08
1.16006e-06
-5.62106e-09
1.10927e-06
5.16559e-08
1.15834e-06
2.26953e-08
1.1235e-06
3.26481e-08
1.15696e-06
2.11975e-08
1.13016e-06
-1.43471e-09
1.15344e-06
4.00856e-09
1.1423e-06
-3.1346e-08
1.0987e-06
-8.69456e-08
1.1424e-06
-6.76747e-08
1.12741e-06
-9.67358e-08
1.03957e-06
-7.51085e-08
1.06788e-06
-9.92318e-08
9.86887e-07
-1.12366e-08
9.97919e-07
-5.46499e-08
-4.73878e-08
1.00316e-06
-3.0362e-08
1.10708e-06
2.204e-08
1.18491e-06
1.44354e-07
1.23547e-06
3.83055e-07
1.26015e-06
6.7193e-07
1.27328e-06
9.75914e-07
1.27667e-06
1.29434e-06
1.27734e-06
1.62207e-06
1.27385e-06
1.97117e-06
1.26673e-06
2.33368e-06
1.2565e-06
2.72184e-06
1.24664e-06
3.12453e-06
1.23647e-06
3.52091e-06
1.2248e-06
3.89129e-06
1.20711e-06
4.19089e-06
1.17004e-06
4.36423e-06
1.09808e-06
4.38616e-06
9.8502e-07
4.29347e-06
8.38832e-07
4.15957e-06
6.75828e-07
4.04185e-06
5.03969e-07
3.95585e-06
3.21386e-07
3.89298e-06
1.2196e-07
3.84025e-06
-1.0026e-07
3.78575e-06
-3.50874e-07
3.71507e-06
-6.34101e-07
3.61083e-06
-9.51427e-07
3.46548e-06
-1.30816e-06
3.33931e-06
-1.69448e-06
3.38367e-06