/*--------------------------------*- C++ -*----------------------------------*\
  =========                 |
  \\      /  F ield         | OpenFOAM: The Open Source CFD Toolbox
   \\    /   O peration     | Website:  https://openfoam.org
    \\  /    A nd           | Version:  dev
     \\/     M anipulation  |
\*---------------------------------------------------------------------------*/
FoamFile
{
    version     2.0;
    format      ascii;
    class       volScalarField;
    location    "2500";
    object      qr;
}
// * * * * * * * * * * * * * * * * * * * * * * * * * * * * * * * * * * * * * //

dimensions      [1 0 -3 0 0 0 0];

internalField   uniform 0;

boundaryField
{
    lowerOutlet
    {
        type            calculated;
        value           nonuniform List<scalar> 
146
(
1059.09
1062.63
1066.55
1070.86
1075.56
1080.67
1086.19
1092.13
1098.51
1105.34
1112.65
1120.46
1128.79
1137.67
1147.14
1157.23
1167.99
1179.46
1191.71
1204.78
1218.76
1233.73
1249.78
1267.03
1285.62
1305.73
1327.49
1351.12
1376.87
1405.02
1435.95
1470.05
1507.88
1539.91
1586.07
1638.38
1698.08
1766.9
1847.17
1942.05
2056
2194.9
2365.27
2575.26
2799.99
3095.5
3785.94
4437
3895.7
4732.38
2971.9
2414.18
2130.91
1939.37
1781.48
1676.04
1592.11
1523.88
1467.25
1419.34
1378.12
1342.2
1310.51
1282.33
1250.73
1228.43
1208.08
1189.41
1172.2
1156.27
1141.48
1127.69
1114.79
1102.72
1091.4
1080.73
1070.67
1061.17
1052.18
1043.67
1035.61
1027.97
1020.73
1013.86
1007.35
1001.17
995.323
989.786
984.549
979.603
974.939
970.549
966.426
962.567
958.966
955.62
952.527
1892.54
1996.32
2121.88
2275.76
2464.58
2731.72
3034.82
3580.07
4291.83
4856.77
-14245.3
3240.97
2511.28
2190.38
1981.51
1845.47
1725.54
1631.83
1556.33
1494.31
1442.35
1731.22
1805.43
2872.67
3195.86
3986.54
4580.67
4159.58
2775.42
2330.44
2076.79
1900.38
1397.99
1359.57
2667.37
2950.52
3370.21
4142.68
4722.66
3634.74
2627.99
2256.44
2027.17
1562.29
1611.38
1667.22
1325.88
1296.02
1269.37
)
;
    }
    top
    {
        type            calculated;
        value           nonuniform List<scalar> 
100
(
960.336
963.123
965.926
961.072
962.837
963.971
965.193
966.568
967.962
968.991
970.515
972.012
973.549
975.175
976.878
978.626
980.371
982.058
983.65
985.087
986.347
987.435
988.396
989.347
990.036
988.932
982.095
965.665
946.838
935.608
934.295
939.139
944.304
947.296
950.426
956.817
968.063
983.977
999.822
1006.1
1007.39
1007.53
1007.41
1007.06
1006.55
1005.92
1005.2
1004.42
1003.5
1002.46
1001.34
1000.12
998.818
997.468
996.036
994.538
992.979
991.37
989.69
987.993
986.226
984.407
982.524
980.601
978.601
976.485
974.275
971.972
969.622
967.255
964.889
962.506
960.19
957.8
955.346
952.775
950.053
947.25
944.378
941.442
938.45
935.462
932.522
929.629
926.787
923.988
921.23
918.541
916.151
926.914
923.998
921.097
918.21
915.343
912.505
909.694
906.908
904.146
901.407
898.744
)
;
    }
    sides
    {
        type            calculated;
        value           nonuniform List<scalar> 
100
(
1059.09
1061.9
1064.33
1066.4
1068.1
1069.44
1070.44
1071.09
1071.42
1071.42
1071.11
1070.51
1069.62
1068.47
1067.07
1065.43
1063.58
1061.51
1059.26
1056.84
1054.25
1051.53
1048.67
1045.7
1042.63
1039.47
1036.24
1032.94
1029.59
1026.2
1022.77
1019.32
1015.85
1012.37
1008.89
1005.43
1001.97
998.54
995.132
991.754
988.41
985.104
981.839
978.619
975.445
972.319
969.243
966.217
963.241
960.354
952.532
955.144
957.515
959.645
961.537
963.193
964.617
965.813
966.786
967.54
968.083
968.42
968.559
968.507
968.272
967.862
967.284
966.547
965.658
964.627
963.461
962.168
960.756
959.232
957.604
955.88
954.065
952.167
950.191
948.144
946.03
943.854
941.622
939.34
937.012
934.644
932.238
929.797
927.326
924.826
922.301
919.753
917.184
914.595
911.989
909.365
906.727
904.073
901.406
898.76
)
;
    }
    front
    {
        type            empty;
    }
    back
    {
        type            empty;
    }
    roller
    {
        type            calculated;
        value           nonuniform List<scalar> 
142
(
4899.59
4374.31
3201.28
2587.78
1476.5
1239.38
1272.18
1199.81
1153.48
1133.61
5650.33
5964.19
4637.44
4743.45
2504.48
1886.23
1507.6
1479.52
1295.57
1185.58
1214.91
1167.39
1137.89
1151.87
3986.67
4206.35
4110.66
2306.53
1789.09
2243.08
2176.77
1455.66
1357.78
1134.36
5425.36
6206.95
5154.38
3776.76
4453.21
3467.32
2742.15
3019.93
2715.18
2001.25
2471.78
2314.17
2114.07
1579.68
1542
1501.17
1404.4
1380.01
1221.21
1162.71
5855.05
5733.22
2054.87
1997.47
1387.77
1325.6
1278.55
1265.71
1457.54
1429.44
1144.27
1137.48
1133.58
6349.47
6376.49
3193.12
1670.52
1907.8
1857.7
1429.89
1405.59
1819.98
1713.49
1339.79
1680.45
1590.72
1288.99
1563.72
1247.04
1229.8
1177.94
1157.72
1156.48
1132.93
1146.25
1138.93
1134.29
5195.99
6091.51
5456.86
3762.01
3407.98
1622.48
1957.83
1370.82
1312.39
1529.99
1205.67
1198.58
1251.06
1189.99
1144.36
1140.38
1150.49
1142.39
1136.25
1133.09
6266.03
6340.84
3589.68
2961.85
2858.33
2139.85
2389.92
1725.67
1783.2
1747.83
1354.89
1648.89
1618.96
1300.19
1254.84
1213.16
1335.7
1315.69
1191.93
1232
1170.76
1164.03
1181.77
1172.78
1158.91
1135.82
1147.87
1148.32
1140.58
1135.2
1132.87
)
;
    }
    burner
    {
        type            calculated;
        value           nonuniform List<scalar> 
14
(
-124237
-121264
-121255
-125268
-121790
-120801
-127341
-123273
-120886
-122242
-126276
-122451
-120709
-124055
)
;
    }
}


// ************************************************************************* //
