/*--------------------------------*- C++ -*----------------------------------*\
  =========                 |
  \\      /  F ield         | OpenFOAM: The Open Source CFD Toolbox
   \\    /   O peration     | Website:  https://openfoam.org
    \\  /    A nd           | Version:  dev
     \\/     M anipulation  |
\*---------------------------------------------------------------------------*/
FoamFile
{
    version     2.0;
    format      ascii;
    class       volScalarField;
    location    "2500";
    object      rAU;
}
// * * * * * * * * * * * * * * * * * * * * * * * * * * * * * * * * * * * * * //

dimensions      [-1 3 1 0 0 0 0];

internalField   nonuniform List<scalar> 
9841
(
0.0082269
0.00829336
0.0082509
0.0082859
0.00839868
0.00819353
0.00826376
0.00839231
0.00840264
0.0081458
0.00824547
0.00839093
0.00838677
0.00841434
0.00810153
0.00823441
0.00839528
0.00837929
0.00839592
0.00842363
0.00806113
0.00822448
0.00840441
0.00837978
0.00838114
0.00841014
0.00842825
0.0080246
0.00821454
0.00841518
0.00838585
0.00837253
0.00839416
0.00842112
0.00843036
0.00799124
0.00820365
0.00842323
0.0083967
0.00836903
0.00837926
0.00840951
0.00842675
0.00843188
0.00796078
0.00819254
0.00842777
0.00840905
0.00837163
0.00836906
0.00839498
0.00842021
0.00842964
0.00843281
0.00793299
0.00818143
0.00843007
0.00841864
0.00837975
0.00836293
0.00837978
0.00841043
0.00842585
0.00843145
0.00843339
0.00790765
0.00817081
0.00843219
0.00842596
0.00839244
0.00836174
0.0083679
0.0083976
0.00842036
0.00842914
0.00843296
0.00843386
0.00788455
0.00815932
0.00843323
0.00842961
0.00840609
0.00836604
0.0083605
0.00838256
0.00841237
0.008426
0.00843134
0.00843379
0.00843404
0.00786359
0.00814844
0.00843432
0.00843222
0.00841637
0.00837549
0.00835592
0.00836949
0.00840057
0.00842127
0.00842938
0.00843303
0.00843453
0.00843424
0.00784467
0.00813647
0.00843518
0.00843389
0.00842391
0.00838925
0.00835611
0.00835924
0.008387
0.00841464
0.00842655
0.00843161
0.00843409
0.00843513
0.00843441
0.00782752
0.0081238
0.00843547
0.00843435
0.0084277
0.00840368
0.00836116
0.00835319
0.00837246
0.0084048
0.00842273
0.0084299
0.00843346
0.00843505
0.0084356
0.00843455
0.00781216
0.00811082
0.00843571
0.00843501
0.00843067
0.00841409
0.00837172
0.00834934
0.00836047
0.00839213
0.00841752
0.00842751
0.00843214
0.00843468
0.00843567
0.00843595
0.00843473
0.00779853
0.00809709
0.00843577
0.0084355
0.00843263
0.00842097
0.00838599
0.00835038
0.00835125
0.00837741
0.00840929
0.00842463
0.00843074
0.00843382
0.00843567
0.00843617
0.00843628
0.00843478
0.00778656
0.00808324
0.00843581
0.0084355
0.00843385
0.00842602
0.00840078
0.00835602
0.00834596
0.00836293
0.00839751
0.0084206
0.00842914
0.00843278
0.0084351
0.00843641
0.00843661
0.00843656
0.00843476
0.00777607
0.00806878
0.00843591
0.00843583
0.00843465
0.00842847
0.00841012
0.00836714
0.00834281
0.00835233
0.00838322
0.00841297
0.00842707
0.00843193
0.00843458
0.00843621
0.00843697
0.0084371
0.0084368
0.00843477
0.00776705
0.00805407
0.0084359
0.00843595
0.00843481
0.00843103
0.00841838
0.00838156
0.00834441
0.00834401
0.00836869
0.00840263
0.00842297
0.00843119
0.00843413
0.00843591
0.00843697
0.00843746
0.00843757
0.00843695
0.00843481
0.00775931
0.00803936
0.00843597
0.0084362
0.00843547
0.00843283
0.00842363
0.00839583
0.00835001
0.00833924
0.00835505
0.00839004
0.00841677
0.00842869
0.00843385
0.0084358
0.00843694
0.00843773
0.00843806
0.00843784
0.00843706
0.00839751
0.00775281
0.00802461
0.00843607
0.00843636
0.00843559
0.00843346
0.00842658
0.00840655
0.00836069
0.00833592
0.00834505
0.00837567
0.00840791
0.00842526
0.00843231
0.00843582
0.00843731
0.0084379
0.00843835
0.00843856
0.00843806
0.00839989
0.00833865
0.00774736
0.00800969
0.00843606
0.00843639
0.00843613
0.00843411
0.00842947
0.00841484
0.00837456
0.00833731
0.00833682
0.00836133
0.00839688
0.00842003
0.00843004
0.00843485
0.00843766
0.00843839
0.00843862
0.00843894
0.00843893
0.00843822
0.00834113
0.00826976
0.00760189
0.007995
0.00843607
0.0084366
0.00843631
0.00843486
0.00843129
0.00841995
0.00838936
0.00834225
0.0083323
0.00834801
0.00838364
0.00841314
0.00842722
0.0084333
0.00843674
0.008439
0.00843933
0.00843915
0.00843941
0.00843917
0.00843848
0.0082724
0.00811083
0.00773916
0.0079806
0.0084361
0.00843679
0.0084365
0.00843548
0.0084326
0.00842355
0.00840159
0.00835187
0.00832873
0.0083381
0.00836935
0.00840339
0.00842366
0.00843163
0.00843564
0.00843838
0.00843998
0.00843999
0.00843959
0.00843977
0.00843941
0.00843857
0.00827144
0.0082682
0.00773601
0.00796669
0.00843603
0.00843707
0.00843695
0.0084361
0.00843385
0.00842643
0.00840975
0.00836522
0.00832907
0.00833017
0.00835499
0.00839179
0.00841763
0.00842955
0.00843448
0.00843722
0.00843967
0.00844086
0.00844069
0.00844014
0.00844018
0.00843969
0.00843873
0.00827092
0.0083087
0.00773234
0.00795339
0.00843606
0.00843735
0.00843732
0.00843642
0.00843469
0.0084288
0.00841565
0.00837955
0.00833304
0.00832541
0.00834187
0.00837832
0.00840967
0.0084263
0.00843311
0.00843648
0.00843861
0.00844082
0.00844188
0.00844109
0.00844055
0.00844045
0.00843978
0.00843899
0.00831153
0.00837093
0.0077144
0.00794081
0.00843615
0.00843733
0.00843771
0.00843707
0.00843551
0.00843093
0.00842017
0.00839259
0.00834042
0.00832146
0.00833187
0.00836433
0.00839946
0.00842163
0.00843147
0.00843556
0.00843814
0.00843985
0.00844166
0.00844251
0.00844172
0.00844089
0.00844067
0.00844018
0.00843908
0.00837386
0.00841998
0.00766387
0.00792862
0.0084362
0.00843768
0.00843808
0.00843726
0.00843589
0.00843224
0.0084233
0.00840155
0.00835195
0.00831999
0.00832427
0.00835012
0.00838797
0.0084155
0.00842899
0.00843462
0.0084375
0.00843946
0.00844084
0.00844254
0.00844312
0.0084421
0.00844119
0.00844101
0.00843811
0.00843912
0.00843829
0.00836919
0.00760184
0.00791696
0.00843638
0.00843787
0.00843831
0.00843781
0.00843687
0.00843319
0.0084259
0.00840782
0.00836484
0.00832226
0.00831807
0.00833753
0.00837466
0.00840701
0.00842549
0.00843327
0.00843661
0.00843892
0.0084404
0.0084417
0.00844293
0.00844364
0.00844236
0.00844148
0.00844096
0.00843815
0.00843918
0.00838287
0.00830763
0.0075612
0.00790604
0.00843644
0.00843821
0.00843896
0.00843837
0.00843716
0.00843403
0.00842761
0.00841291
0.00837705
0.00832713
0.00831412
0.00832667
0.00836112
0.00839711
0.00842031
0.00843122
0.00843603
0.00843835
0.00843992
0.00844121
0.00844232
0.00844359
0.00844388
0.00844269
0.00844174
0.00844102
0.00844025
0.0083567
0.00836341
0.00823196
0.00754517
0.00789662
0.00843642
0.00843866
0.0084394
0.00843844
0.00843788
0.00843487
0.00842847
0.00841691
0.00838833
0.00833554
0.00831143
0.00831857
0.00834771
0.00838551
0.00841392
0.00842871
0.00843492
0.00843783
0.0084397
0.00844082
0.00844186
0.00844266
0.00844387
0.00844441
0.00844299
0.00844164
0.00844092
0.00841292
0.00836147
0.00839711
0.00812968
0.00752693
0.00788935
0.00843636
0.00843909
0.00843988
0.00843921
0.00843847
0.00843536
0.00842838
0.00841899
0.0083964
0.00834547
0.00831171
0.00831266
0.00833523
0.00837323
0.00840563
0.0084246
0.0084333
0.00843712
0.00843922
0.00844051
0.00844156
0.00844228
0.00844299
0.00844423
0.00844465
0.00844286
0.00844125
0.00844043
0.00843761
0.00843899
0.00829797
0.00818041
0.00655292
0.00756362
0.007884
0.00843652
0.00843905
0.00844002
0.00843929
0.00843888
0.00843596
0.00842893
0.00841973
0.00840186
0.00835592
0.00831393
0.00830842
0.00832503
0.00836122
0.00839638
0.0084197
0.0084311
0.00843605
0.00843841
0.00844011
0.00844119
0.00844192
0.00844245
0.00844318
0.00844453
0.00844449
0.0084425
0.00844062
0.00843969
0.00843904
0.00843132
0.0084053
0.00755737
0.00785998
0.00651831
0.00752811
0.00788004
0.00843636
0.0084395
0.00843976
0.00843986
0.00843931
0.00843624
0.00842896
0.00841983
0.00840601
0.00836678
0.00831743
0.00830502
0.0083161
0.00834952
0.00838662
0.00841416
0.00842842
0.00843475
0.00843776
0.00843945
0.00844065
0.00844146
0.00844207
0.00844248
0.00844332
0.00844433
0.0084441
0.00844182
0.0084397
0.0084387
0.00843143
0.00829145
0.008147
0.00818738
0.00829425
0.00819034
0.00752753
0.00782868
0.00650367
0.00752291
0.00785798
0.00843634
0.00843991
0.00844045
0.00843964
0.0084392
0.00843645
0.00842941
0.00842003
0.008408
0.00837636
0.00832408
0.00830267
0.00830906
0.00833721
0.00837596
0.00840739
0.00842574
0.00843361
0.00843708
0.0084387
0.00843979
0.00844074
0.00844143
0.00844176
0.00844234
0.00844296
0.00844382
0.00844335
0.00844082
0.00843843
0.00843038
0.00818679
0.00818408
0.00814669
0.0081557
0.00815128
0.00815797
0.007734
0.00805454
0.00652221
0.00756098
0.00778492
0.00841028
0.00844001
0.00844043
0.00843936
0.00843953
0.00843655
0.00842948
0.00841893
0.00840817
0.00838298
0.00833192
0.00830229
0.00830438
0.0083263
0.00836447
0.00839888
0.00842161
0.00843266
0.00843699
0.00843876
0.00843899
0.00843995
0.00844049
0.00844079
0.00844118
0.00844162
0.00844213
0.00844279
0.00844212
0.00843948
0.00842958
0.00817856
0.00817603
0.00815183
0.00815052
0.00814633
0.00815579
0.00815716
0.00815786
0.0077559
0.00808037
0.0066564
0.00774069
0.00777394
0.00831452
0.0084376
0.00843973
0.00844025
0.00843831
0.00843644
0.00842933
0.00841844
0.00840764
0.00838743
0.00833922
0.00830324
0.00830041
0.00831772
0.00835376
0.00839013
0.00841606
0.00843004
0.00843609
0.00843889
0.00843982
0.00843967
0.00843963
0.00843959
0.0084397
0.00843994
0.00844023
0.00844069
0.00844122
0.00844065
0.00843051
0.00817394
0.00817483
0.00814515
0.00814188
0.00815183
0.00815098
0.00815375
0.00815603
0.0081576
0.0081575
0.00779947
0.00812948
0.00669616
0.00780371
0.0077831
0.00828835
0.00842645
0.00844038
0.00844095
0.00839959
0.00843614
0.0084281
0.00841761
0.00840662
0.00838997
0.00834612
0.0083049
0.00829718
0.00830944
0.00834346
0.00838126
0.00841062
0.00842736
0.00843473
0.0084379
0.00843961
0.00844011
0.0084394
0.00843891
0.00843821
0.00843789
0.00843777
0.00843817
0.0084389
0.0084398
0.00843126
0.00817571
0.00817694
0.00814007
0.0081403
0.00814582
0.00814269
0.00815434
0.00815229
0.00815471
0.0081563
0.00815831
0.0081569
0.0078241
0.00815753
0.00668693
0.00800639
0.00779572
0.00828268
0.00841705
0.00844018
0.00843958
0.00836071
0.00841111
0.00842675
0.0084166
0.00840552
0.00839135
0.00835275
0.00830795
0.0082946
0.00830278
0.0083328
0.00837125
0.00840398
0.00842479
0.00843421
0.00843742
0.0084387
0.0084388
0.00843909
0.00843833
0.00843814
0.00843856
0.00843817
0.00843765
0.00843732
0.0084384
0.00843043
0.00817558
0.00817565
0.00814188
0.00814331
0.00814093
0.00814119
0.00814748
0.0081443
0.00815547
0.00815456
0.00815643
0.00815666
0.00815884
0.00815687
0.00803093
0.00815825
0.00668056
0.00809638
0.00781205
0.00826629
0.00839539
0.00843671
0.00843964
0.00839831
0.00840844
0.00842387
0.00841454
0.00840402
0.00839152
0.00835822
0.00831233
0.00829288
0.00829819
0.00832287
0.00836104
0.00839583
0.00842021
0.00843312
0.00843797
0.0084391
0.00843904
0.0084376
0.0084374
0.00843779
0.00844207
0.0084436
0.00844098
0.00839302
0.00841273
0.00842816
0.00817564
0.0081814
0.00814483
0.00814955
0.00814332
0.00814695
0.00814259
0.00814398
0.00815032
0.00814699
0.00815674
0.00815731
0.00815834
0.00815716
0.00815959
0.00815731
0.00812376
0.00815935
0.00667748
0.00813075
0.0078324
0.00824574
0.0083614
0.00840907
0.00843753
0.00843574
0.00842883
0.00842077
0.00841271
0.00840255
0.00839097
0.00836215
0.00831694
0.00829262
0.00829452
0.00831481
0.00835143
0.0083872
0.0084146
0.00843011
0.00843731
0.00843968
0.00843973
0.00843837
0.00843639
0.00843871
0.0084444
0.00844513
0.00844106
0.0084354
0.00839265
0.00836465
0.00819175
0.00820583
0.00816065
0.00818245
0.00815402
0.0081698
0.0081487
0.00815878
0.00814663
0.00815244
0.00815456
0.00815267
0.00815777
0.0081603
0.00816016
0.00815782
0.0081617
0.0081636
0.00815942
0.00816153
0.00668066
0.0081304
0.00785705
0.00822594
0.00832628
0.00838734
0.00842252
0.00843285
0.00842546
0.00841744
0.00841087
0.00840121
0.00839029
0.00836471
0.00832142
0.00829329
0.008292
0.00830814
0.00834276
0.00837927
0.00840857
0.00842709
0.0084358
0.00843898
0.00843976
0.00843899
0.00843749
0.00844052
0.00844496
0.00844173
0.00842775
0.00842784
0.0083951
0.00828721
0.00816259
0.00810737
0.00815805
0.0081058
0.00816479
0.0081033
0.00817809
0.00801821
0.0081645
0.0079291
0.00815715
0.00817355
0.00816179
0.00816625
0.00816013
0.0081672
0.00816422
0.00816975
0.00817515
0.00819231
0.00816664
0.00818394
0.00669815
0.00815289
0.00788635
0.00821937
0.00829117
0.00837436
0.00841323
0.00842909
0.00842097
0.00841481
0.00840845
0.00839978
0.00838927
0.00836612
0.0083253
0.0082946
0.00829051
0.00830289
0.0083351
0.0083716
0.0084028
0.00842364
0.00843449
0.00843829
0.00843918
0.00843836
0.00843743
0.00844176
0.00844586
0.00843463
0.00841276
0.00840637
0.00837245
0.00832857
0.00803945
0.00780603
0.00807534
0.00800633
0.00804982
0.00805597
0.0079152
0.00799916
0.00778017
0.00790992
0.00786689
0.00767873
0.00817921
0.0078919
0.00817803
0.00819141
0.00816844
0.00818517
0.00818386
0.00821076
0.00821281
0.00823527
0.00821528
0.00824453
0.00677294
0.00822272
0.00792126
0.0082308
0.00827127
0.0083635
0.008408
0.00842444
0.00841669
0.00841197
0.00840547
0.00839864
0.00838826
0.00836656
0.0083283
0.0082963
0.0082899
0.00829888
0.00832836
0.0083643
0.00839676
0.00842038
0.00843316
0.00843839
0.00843946
0.00843821
0.00843622
0.00844003
0.00844578
0.00842977
0.00839926
0.00837949
0.00836815
0.00835915
0.00817671
0.00785675
0.00763205
0.00799421
0.00784561
0.00803517
0.0079658
0.00799803
0.00801332
0.00788132
0.00801766
0.00771355
0.00790213
0.00803885
0.00794362
0.00818423
0.00807546
0.00819182
0.00817191
0.00822355
0.00826223
0.00825048
0.00827148
0.0082764
0.00829197
0.00684618
0.00828024
0.00796369
0.00824409
0.00827696
0.00835795
0.00840417
0.00841925
0.00841287
0.00840918
0.00840364
0.00839772
0.00838695
0.00836638
0.00833034
0.00829814
0.00828968
0.00829631
0.00832246
0.00835757
0.00839083
0.00841639
0.00843152
0.00843858
0.00844022
0.0084393
0.00843605
0.00843664
0.00844246
0.00842645
0.00839017
0.00835519
0.00832648
0.00827399
0.0082093
0.00748401
0.00740556
0.00770473
0.00758567
0.00782346
0.00770928
0.00793267
0.00780002
0.0080086
0.00789266
0.00801012
0.00797716
0.00802837
0.00801822
0.00798656
0.0080215
0.00809565
0.00804534
0.00819416
0.00811604
0.00823566
0.00829699
0.00826296
0.00827849
0.00831938
0.00831936
0.00691169
0.0083176
0.00801782
0.00825966
0.00828589
0.00836396
0.00840256
0.00841393
0.00840931
0.00840681
0.00840275
0.00839684
0.00838617
0.00836559
0.00833148
0.00829965
0.00828944
0.0082947
0.00831739
0.00835161
0.00838483
0.00841219
0.00842961
0.00843858
0.00844133
0.00844076
0.00843759
0.0084348
0.00843969
0.00842325
0.0083863
0.00833767
0.00824597
0.00815701
0.00804995
0.0072862
0.00719729
0.00746019
0.00739974
0.00760811
0.00752434
0.00769384
0.0076203
0.00777083
0.00767458
0.00784693
0.00773544
0.00791294
0.00779566
0.00797902
0.00784666
0.00801338
0.00791712
0.00807827
0.00801133
0.00813954
0.00806877
0.0081702
0.0082963
0.00817838
0.00819491
0.00834631
0.00831833
0.00697379
0.00833944
0.00809287
0.00828093
0.00829985
0.00837565
0.00840405
0.00840892
0.00840628
0.00840507
0.00840202
0.00839624
0.00838524
0.00836461
0.00833171
0.0083007
0.00828928
0.00829344
0.00831341
0.00834616
0.00837942
0.00840773
0.00842742
0.00843812
0.00844231
0.00844227
0.00843969
0.00843526
0.00843811
0.00842304
0.00838573
0.00833055
0.00817921
0.00810067
0.00795048
0.00665808
0.00697662
0.0072763
0.00686377
0.00743791
0.00732829
0.0075534
0.00749224
0.00760692
0.00756637
0.00764968
0.00758986
0.00769865
0.00760852
0.00774165
0.00762066
0.00777654
0.00762752
0.00782983
0.00765894
0.00795737
0.00772901
0.00807525
0.00789324
0.00806298
0.00824689
0.00807825
0.00814015
0.00835279
0.0082876
0.00702679
0.00834361
0.00817741
0.00831584
0.00832866
0.00837885
0.00841073
0.00840491
0.00840396
0.00840373
0.00840148
0.00839583
0.00838432
0.0083632
0.00833152
0.00830151
0.00828922
0.00829275
0.00831038
0.00834168
0.00837417
0.00840321
0.00842477
0.00843735
0.00844289
0.00844395
0.00844174
0.00843683
0.00843597
0.00842662
0.00838959
0.0083316
0.00814134
0.00809639
0.00814936
0.00779912
0.00654165
0.00703757
0.00709788
0.00651848
0.00726765
0.00706914
0.00748796
0.0073711
0.00749981
0.00739449
0.00748832
0.00730199
0.00750468
0.00734384
0.00748366
0.00734167
0.00747434
0.00734318
0.00750602
0.00738387
0.00760886
0.00748418
0.00784855
0.00762271
0.00781112
0.00818939
0.00794359
0.00798567
0.00832944
0.00822578
0.00704079
0.00830678
0.00827346
0.0083643
0.00839197
0.0084063
0.00840185
0.00840236
0.00840254
0.0084009
0.00839542
0.00838347
0.0083616
0.00833068
0.00830172
0.00828903
0.00829208
0.00830814
0.00833792
0.00836965
0.00839873
0.00842171
0.00843605
0.00844313
0.00844527
0.00844377
0.00843958
0.00843372
0.00842943
0.0083979
0.00833962
0.00813802
0.00809975
0.00817827
0.00803169
0.00718079
0.00719578
0.00678853
0.00723891
0.007139
0.00683369
0.00688142
0.00709707
0.0071492
0.006996
0.0071813
0.00705908
0.0071996
0.00701212
0.00723074
0.00708073
0.00720796
0.00728998
0.00735823
0.007277
0.00737009
0.00729605
0.00743553
0.00737006
0.00762183
0.00745364
0.00758585
0.00804531
0.00736711
0.00747137
0.00826604
0.00811905
0.00700225
0.00826773
0.00828791
0.00839979
0.00840245
0.00839974
0.00840112
0.00840146
0.00840022
0.00839505
0.00838239
0.00835968
0.0083296
0.0083015
0.0082887
0.00829143
0.00830646
0.0083348
0.00836564
0.00839441
0.00841832
0.00843426
0.00844295
0.00844609
0.00844566
0.00844197
0.00843522
0.00842961
0.00840667
0.00835385
0.00811534
0.00808103
0.0081988
0.00807852
0.00724805
0.00719218
0.00730067
0.0073893
0.0072575
0.00726999
0.00729031
0.00726899
0.00698252
0.0073072
0.006837
0.00704965
0.00692311
0.0071344
0.00721553
0.00716883
0.00722664
0.00716281
0.00720719
0.00733122
0.00682928
0.00663079
0.00685928
0.00665245
0.00694341
0.00668963
0.00709619
0.00664463
0.00679344
0.00768239
0.00694417
0.00508062
0.0056165
0.0081801
0.00785051
0.00693138
0.00802679
0.00840279
0.00839961
0.00839793
0.0084001
0.00840067
0.0083996
0.00839475
0.0083816
0.008358
0.00832817
0.00830097
0.00828831
0.00829085
0.00830531
0.00833242
0.00836215
0.00839046
0.00841465
0.008432
0.0084421
0.00844644
0.00844692
0.00844424
0.0084383
0.00842983
0.00841474
0.00836984
0.00816961
0.00788868
0.00816814
0.00814718
0.00793141
0.00751715
0.00745468
0.00738651
0.00754887
0.00727901
0.00730555
0.00727733
0.00727986
0.00730503
0.00727402
0.00706737
0.00734852
0.00711875
0.00736027
0.00734401
0.00731579
0.00727398
0.0072206
0.00704356
0.00713822
0.00698382
0.00705732
0.00677549
0.00683284
0.0068101
0.00668454
0.00667554
0.00437851
0.00445673
0.00473509
0.00460261
0.00540755
0.00606698
0.00541448
0.00496603
0.00476152
0.00482352
0.00488981
0.0078778
0.0057124
0.00589561
0.00671256
0.00680811
0.00794968
0.0083702
0.00839794
0.00839916
0.00840033
0.0083992
0.00839452
0.00838095
0.00835656
0.00832685
0.00830026
0.0082877
0.00829019
0.00830443
0.00833082
0.00835921
0.00838671
0.00841098
0.00842909
0.00844035
0.00844622
0.00844754
0.00844582
0.00844094
0.00843306
0.00842158
0.00838671
0.00822139
0.00797086
0.00798177
0.00815908
0.00806031
0.00768843
0.00754252
0.00772248
0.00785178
0.00750755
0.00770851
0.00730498
0.00736488
0.00726874
0.00729334
0.00724539
0.00724055
0.00731246
0.00727359
0.00728218
0.00724067
0.00718559
0.00716583
0.00709977
0.00706987
0.00702568
0.00702405
0.00680693
0.00685763
0.00427333
0.00415742
0.00431844
0.0043902
0.00440578
0.00434712
0.0044334
0.00439053
0.00432903
0.00458495
0.00458193
0.00447983
0.00421742
0.00443125
0.00495244
0.00505781
0.00463131
0.00443753
0.00444111
0.00468488
0.00617615
0.00750591
0.00667439
0.00521199
0.00544555
0.00704273
0.00692615
0.00753806
0.00816447
0.00833711
0.0084009
0.00840076
0.00839942
0.00839458
0.00838033
0.00835551
0.00832582
0.00829963
0.00828696
0.00828927
0.00830348
0.00832964
0.00835699
0.00838311
0.00840706
0.00842565
0.00843755
0.00844472
0.00844745
0.00844673
0.00844305
0.0084363
0.00842799
0.00840315
0.00830161
0.00804984
0.00800957
0.00811081
0.00810521
0.00785165
0.00803929
0.00751614
0.00787966
0.00798776
0.00762893
0.00782299
0.00734227
0.00744926
0.00726681
0.00731596
0.00718961
0.00722295
0.00720707
0.00718874
0.00714608
0.00712387
0.007065
0.00707757
0.00706878
0.00712185
0.00693717
0.00701298
0.00440583
0.00452466
0.00457577
0.00468147
0.0041747
0.00424388
0.00433073
0.00414487
0.00413182
0.00425798
0.00429134
0.00419822
0.0042134
0.00428801
0.00419682
0.00415117
0.00430954
0.00474162
0.00483327
0.00448479
0.0043133
0.00433419
0.00452264
0.0057812
0.00624705
0.00497386
0.00517816
0.00786689
0.005064
0.00808258
0.00682546
0.00737528
0.00830839
0.00840091
0.00840058
0.00839549
0.00838041
0.00835509
0.00832578
0.00830001
0.00828709
0.00828861
0.00830244
0.00832862
0.00835557
0.00837984
0.00840288
0.00842156
0.00843383
0.00844115
0.00844595
0.00844678
0.00844412
0.00843853
0.00843231
0.00841628
0.00834093
0.00815335
0.00804295
0.00807479
0.00808629
0.00803793
0.00770967
0.00776033
0.00809735
0.00810814
0.00796865
0.00805675
0.00772934
0.00789907
0.00740132
0.00754562
0.00728268
0.00735857
0.0071771
0.00724267
0.00711515
0.00713313
0.00709171
0.0071014
0.0071828
0.0072469
0.00709004
0.0071698
0.00472698
0.00482592
0.00486779
0.00495445
0.00438774
0.00448707
0.00455248
0.00464457
0.00432065
0.00440891
0.00447838
0.00416618
0.00425029
0.00437702
0.00444623
0.00435597
0.00417179
0.00419997
0.00417841
0.00421475
0.00423806
0.0045776
0.00466129
0.00437885
0.00425279
0.00430169
0.00440793
0.00548452
0.00593051
0.00478479
0.00496496
0.00784905
0.00463842
0.00801326
0.00654597
0.0072286
0.00827779
0.00839161
0.00839629
0.00838095
0.00835564
0.00832685
0.00830169
0.00828863
0.00828981
0.00830225
0.00832814
0.00835516
0.00837801
0.00839932
0.00841745
0.00842963
0.00832035
0.00838967
0.00844525
0.00844451
0.00844035
0.00843462
0.00842349
0.0083588
0.00821207
0.00808113
0.00805064
0.00805163
0.00801785
0.0080923
0.0081302
0.00801317
0.00812298
0.00813183
0.00802104
0.00809167
0.00781497
0.00795879
0.00747728
0.00764074
0.0073237
0.00743123
0.00721424
0.00730678
0.007121
0.00715756
0.00729144
0.00731348
0.00739332
0.00746705
0.00498585
0.00506503
0.00510906
0.00549204
0.00470475
0.00479791
0.00486235
0.00495498
0.00454808
0.00462775
0.00471495
0.00479805
0.0044649
0.00455
0.00462531
0.00431243
0.0044302
0.00453736
0.00461884
0.00452858
0.00427427
0.00422332
0.00432006
0.00439537
0.00428268
0.00446472
0.00454182
0.0043401
0.00432188
0.00439658
0.00438636
0.00523894
0.00566876
0.00465952
0.00483687
0.0077581
0.00420477
0.00787628
0.0063011
0.00702475
0.0082383
0.00837727
0.00838028
0.00835576
0.00832776
0.00830361
0.00829037
0.00829127
0.0083039
0.00832874
0.00835578
0.00837806
0.00839733
0.00841395
0.00842548
0.00825213
0.00830072
0.00837361
0.00843855
0.00844269
0.0084379
0.00842392
0.00836784
0.00766286
0.00811777
0.00803737
0.00800758
0.00799902
0.00798468
0.00795466
0.00786248
0.00814296
0.00813518
0.00806626
0.00814345
0.00805573
0.00795024
0.00789407
0.00792969
0.00757936
0.00774444
0.00741605
0.00755259
0.00734691
0.00744404
0.00731981
0.00731824
0.00751381
0.00752714
0.00745031
0.00751862
0.00501741
0.00511205
0.00499544
0.00535175
0.00489132
0.00498637
0.00508931
0.00518803
0.00470068
0.00479809
0.00490365
0.00501125
0.00461808
0.00471077
0.00480466
0.00450435
0.00461201
0.00471776
0.0048269
0.00471604
0.00447708
0.00440416
0.00454907
0.00460526
0.00446756
0.00444749
0.00453547
0.00444988
0.0045409
0.00462886
0.00451886
0.00511566
0.005575
0.00467049
0.00486057
0.00751033
0.00380431
0.00752567
0.00622465
0.00683236
0.00819312
0.00834885
0.00835439
0.0083275
0.00830417
0.00829131
0.00829128
0.00830411
0.00832981
0.00835668
0.0083788
0.00839602
0.00841075
0.00842027
0.0083613
0.0082112
0.00835435
0.00802403
0.00841959
0.00843892
0.00842325
0.00836805
0.00725082
0.00799397
0.00803193
0.007973
0.00799453
0.00793222
0.00805277
0.0081298
0.00802846
0.00815175
0.00814138
0.00792777
0.00815338
0.00781021
0.00747927
0.00783681
0.00792784
0.00764677
0.00771238
0.00746475
0.00760363
0.00742831
0.00761822
0.00747464
0.00741458
0.00751829
0.00751648
0.00579375
0.00584365
0.00586791
0.00584964
0.00529196
0.00540454
0.00551147
0.00561306
0.00512689
0.00524417
0.00536172
0.0054671
0.00490277
0.00502918
0.00516015
0.00528957
0.00481241
0.00493169
0.00505575
0.00470634
0.0048202
0.0049511
0.00510383
0.00495423
0.00468981
0.00464957
0.00478607
0.00482142
0.00471896
0.00459467
0.00467863
0.00468546
0.00481277
0.0048787
0.00475563
0.00515375
0.00560244
0.00479107
0.00494978
0.00716383
0.00353651
0.00714788
0.00614516
0.00659786
0.00813684
0.00830614
0.00832671
0.00830445
0.00829149
0.00829074
0.00830224
0.00832873
0.00835658
0.00837875
0.00839474
0.00840644
0.00841406
0.00842152
0.0081676
0.00801416
0.00763528
0.00814125
0.00833082
0.00835936
0.00836005
0.00762052
0.00738085
0.00802843
0.00794643
0.00797158
0.00796534
0.00815018
0.00798635
0.00784335
0.00814095
0.00813012
0.00815832
0.00815139
0.00799519
0.00815691
0.0078161
0.00762292
0.00785141
0.00799528
0.00774606
0.0077625
0.00759761
0.00769168
0.00757085
0.00773957
0.0075697
0.00754579
0.00584382
0.00610889
0.00743724
0.00575483
0.00576226
0.00571329
0.0057365
0.0055656
0.00566062
0.00573311
0.00577461
0.00541501
0.00553057
0.00562834
0.00569807
0.00518321
0.0053299
0.00546526
0.00558155
0.00507888
0.0052302
0.00537177
0.0049411
0.00508509
0.00525866
0.0054285
0.00525785
0.00492014
0.00489132
0.00503727
0.0050763
0.00496071
0.00480558
0.00485331
0.00492895
0.0050489
0.00509775
0.00496646
0.00520068
0.00555766
0.004909
0.00500724
0.00686406
0.0031734
0.00679792
0.00591063
0.00623711
0.00806855
0.0082503
0.00830566
0.00829277
0.00829077
0.0083006
0.00832573
0.00835498
0.0083778
0.0083932
0.00840168
0.00840706
0.00841426
0.00828819
0.00775712
0.00772605
0.00795175
0.00815736
0.00831282
0.00833078
0.00806965
0.0072074
0.00762212
0.00792555
0.00795011
0.00799281
0.00795777
0.00827581
0.00812698
0.00796474
0.00815288
0.00814103
0.00812925
0.00815766
0.00736604
0.00777509
0.0080617
0.00764711
0.0079401
0.00797775
0.00784795
0.0078977
0.00778431
0.0078172
0.00778542
0.00780978
0.00749168
0.00775664
0.0056496
0.00595035
0.00579058
0.00576955
0.00570512
0.005681
0.00569255
0.0056781
0.00574315
0.00577005
0.00576627
0.0057514
0.005673
0.005734
0.00575744
0.00574051
0.00549873
0.00562087
0.00570475
0.00574468
0.00540355
0.00554767
0.00565062
0.00523065
0.00539491
0.00556998
0.0056779
0.00555976
0.0051841
0.00512474
0.00529584
0.00536191
0.00519333
0.00498886
0.00499738
0.00513414
0.00527081
0.00531378
0.00515298
0.00517488
0.00536641
0.00500728
0.00503179
0.00656611
0.00430461
0.00572743
0.00550179
0.0057704
0.00798726
0.00818165
0.00829544
0.00789375
0.00829972
0.00832313
0.00835256
0.00837623
0.00839162
0.0083974
0.00839956
0.00840321
0.00838235
0.00794511
0.007925
0.00800976
0.00815661
0.00827914
0.0082563
0.00817795
0.00771791
0.00717558
0.00790976
0.00791915
0.00799783
0.00800767
0.00820994
0.00801153
0.00793762
0.0081362
0.00812513
0.00815497
0.00814804
0.0081333
0.00815082
0.00807763
0.00810703
0.00801333
0.00804664
0.00789585
0.00792336
0.0078434
0.00786762
0.00782347
0.00783149
0.00755387
0.0078795
0.00573916
0.00595468
0.00753903
0.00569244
0.00572213
0.00574098
0.0057184
0.00567657
0.00569765
0.00572446
0.00571805
0.00571557
0.00568074
0.00564276
0.0056578
0.00574057
0.00571612
0.00566588
0.00560603
0.00571013
0.00573626
0.0057116
0.00566888
0.00566857
0.00572866
0.0057178
0.00552234
0.00563997
0.00572772
0.00570195
0.00570954
0.00544656
0.00536547
0.00553729
0.00559411
0.00543405
0.00515068
0.00513413
0.0053411
0.00549883
0.00553615
0.00534395
0.00508482
0.00505584
0.0050927
0.00504392
0.00569909
0.00303236
0.00525822
0.00502985
0.0046119
0.00789203
0.00811564
0.0076098
0.00808887
0.0083206
0.00834955
0.00837456
0.00839001
0.00839354
0.0083918
0.00838763
0.00836476
0.00804577
0.00809324
0.00807128
0.00817112
0.00817849
0.00813087
0.00809255
0.00800974
0.00734649
0.0078975
0.00789858
0.0079904
0.00803818
0.00822482
0.00829517
0.00813166
0.00804523
0.00814583
0.00813865
0.00814419
0.00814939
0.00809475
0.00812623
0.00801393
0.0080545
0.00795025
0.00797937
0.00786512
0.00787571
0.00783892
0.00784997
0.0078765
0.00787381
0.00564091
0.00575626
0.0074828
0.00570387
0.00594465
0.00565623
0.00568874
0.00572032
0.00573195
0.0057452
0.00572484
0.00573554
0.00573999
0.00573655
0.00574233
0.00561405
0.00565163
0.00568183
0.00572183
0.00560556
0.00560379
0.00563662
0.00565811
0.00567101
0.00561463
0.00556415
0.00560085
0.00571038
0.00565772
0.00557278
0.0056862
0.00568525
0.00563988
0.00555105
0.00562281
0.00563783
0.00558888
0.00569187
0.00567894
0.00564313
0.00531865
0.00526898
0.00554497
0.00567907
0.00568004
0.00552106
0.0049239
0.00470822
0.00516564
0.00501693
0.00567451
0.00305363
0.00609327
0.00442361
0.00479911
0.00779812
0.0077538
0.00785864
0.00831738
0.00834505
0.0083719
0.00838814
0.00839048
0.00838428
0.0083706
0.008319
0.00813664
0.00812328
0.0080671
0.00806279
0.00806943
0.00803749
0.00797177
0.00800664
0.00778331
0.00788632
0.00788695
0.00799449
0.00806769
0.00820946
0.00837234
0.00804214
0.00796485
0.00814743
0.00813855
0.00815268
0.00815266
0.00811893
0.00814305
0.00803884
0.00808249
0.00794689
0.00799196
0.00788927
0.00791151
0.00786379
0.00772981
0.00787295
0.00787106
0.00757626
0.00794082
0.00581247
0.00592811
0.00572517
0.00568223
0.00572481
0.00574065
0.00580528
0.00581551
0.00572848
0.00574098
0.00580702
0.00580074
0.00578311
0.00577985
0.00577801
0.00577722
0.00569412
0.00573066
0.00575531
0.00578077
0.00563835
0.00568785
0.00573734
0.00576358
0.00554336
0.00559462
0.00564215
0.00571353
0.00556659
0.00555054
0.00558161
0.00564579
0.00555516
0.00553075
0.00554774
0.00549517
0.00567856
0.00570621
0.00555702
0.00550238
0.00565777
0.00547152
0.00536038
0.00565109
0.00548733
0.00532364
0.00559791
0.00470841
0.00460809
0.00519416
0.00491693
0.00615093
0.00403004
0.00670428
0.00466777
0.00505664
0.00770594
0.0078324
0.00818961
0.00833789
0.00836627
0.00838465
0.00838712
0.00837864
0.00835453
0.00827771
0.00814631
0.00802341
0.0079758
0.00798294
0.00795768
0.00790267
0.00786686
0.00792575
0.00794056
0.00787326
0.00788553
0.00800418