/*--------------------------------*- C++ -*----------------------------------*\
  =========                 |
  \\      /  F ield         | OpenFOAM: The Open Source CFD Toolbox
   \\    /   O peration     | Website:  https://openfoam.org
    \\  /    A nd           | Version:  dev
     \\/     M anipulation  |
\*---------------------------------------------------------------------------*/
FoamFile
{
    version     2.0;
    format      ascii;
    class       volScalarField;
    location    "2500";
    object      rDeltaT;
}
// * * * * * * * * * * * * * * * * * * * * * * * * * * * * * * * * * * * * * //

dimensions      [0 0 -1 0 0 0 0];

internalField   nonuniform List<scalar> 
9841
(
100
100
100
100
100
100
100
100
100
100
100
100
100
100
100
100
100
100
100
100
100
100
100
100
100
100
100
100
100
100
100
100
100
100
100
100
100
100
100
100
100
100
100
100
100
100
100
100
100
100
100
100
100
100
100
100
100
100
100
100
100
100
100
100
100
100
100
100
100
100
100
100
100
100
100
100
100
100
100
100
100
100
100
100
100
100
100
100
100
100
100
100
100
100
100
100
100
100
100
100
100
100
100
100
100
100
100
100
100
100
100
100
100
100
100
100
100
100
100
100
100
100
100
100
100
100
100
100
100
100
100
100
100
100
100
100
100
100
100
100
100
100
100
100
100
100
100
100
100
100
100
100
100
100
100
100
100
100
100
100
100
100
100
100
100
100
100
100
100
100
100
100
100
100
100
100
100
100
100
100
100
100
100
100
100
100
100
100
100
100
100
100
100
100
100
100
100
100
100
100
100
100
100
100
100
100
100
100
100
100
100
100
100
100
100
100
100
100
100
100
100
100
100
100
100
100
100
100
100
100
100
100
100
100
100
100
100
100
100
100
100
100
100
100
100
100
100
100
100
100
100
100
100
100
100
100
100
100
100
100
100
100
100
100
100
100
100
100
100
100
100
100
100
100
100
100
100
100
100
100
100
100
100
100
100
100
100
100
100
100
100
100
100
100
100
100
100
100
100
100
100
100
100
100
100
100
100
100
100
100
100
100
100
100
100
100
100
100
100
100
100
100
100
100
100
100
100
100
100
100
100
100
100
100
100
100
100
100
100
100
100
100
100
100
100
100
100
100
100
100
100
100
100
100
100
100
100
100
100
100
100
100
100
100
100
100
100
100
100
100
100
100
100
100
100
100
100
100
100
100
100
100
100
100
100
100
100
100
100
100
100
100
100
100
100
100
100
100
100
100
100
100
100
100
100
100
100
100
100
100
100
100
100
100
100
100
100
100
100
100
100
100
100
100
100
100
100
100
100
100
100
100
100
100
100
100
100
100
100
100
100
100
100
100
100
100
100
100
100
100
100
100
100
100
100
100
100
100
100
100
100
100
100
100
100
100
100
100
100
100
100
100
100
100
100
100
100
100
100
100
100
100
100
100
100
100
100
100
100
100
100
100
100
100
100
100
100
100
100
100
100
100
100
100
100
100
100
100
100
100
100
100
100
100
100
100
100
100
100
100
100
100
100
100
100
100
100
100
100
100
100
100
100
100
100
100
100
100
100
100
100
100
100
100
100
100
100
100
100
100
100
100
100
100
100
100
100
100
100
100
100
100
100
100
100
100
100
100
100
100
100
100
100
100
100
100
100
100
100
100
100
100
100
100
100
100
100
100
100
100
100
100
100
100
100
100
100
100
100
100
100
100
100
100
100
100
100
100
100
100
100
100
100
100
100
100
100
100
100
100
100
100
100
100
100
100
100
100
100
100
100
100
100
100
100
100
100
100
100
100
100
100
100
100
100
100
100
100
100
100
100
100
100
100
100
100
100
100
100
100
100
100
100
100
100
100
100
100
100
100
100
100
100
100
100
100
100
100
100
100
100
100
100
100
100
100
100
100
100
100
100
100
100
100
100
100
100
100
100
100
100
100
100
100
100
100
100
100
100
100
100
100
100
100
100
100
100
100
100
100
100
100
100
100
100
100
100
100
100
100
100
100
100
100
100
100
100
100
100
100
100
100
100
100
100
100
100
100
100
100
100
100
100
100
100
100
100
100
100
100
100
100
100
100
100
100
100
100
100
100
100
100
100
100
100
100
100
100
100
100
100
100
100
100
100
100
100
100
100
100
100
100
100
100
100
100
100
100
100
100
100
100
100
100
100
100
100
100
100
100
100
100
100
100
100
100
100
100
100
100
100
100
100
100
100
100
100
100
100
100
100
100
100
100
100
100
100
100
100
100
100
100
100
100
100
100
100
100
100
100
100
100
100
100
100
100
100
100
100
100
100
100
100
100
100
100
100
100
100
100
100
100
100
100
100
100
100
100
100
100
100
100
100
100
100
100
100
100
100
100
100
100
100
100
100
100
100
100
100
100
100
100
100
100
100
100
100
100
100
100
100
100
100
100
100
100
100
100
100
100
100
100
100
100
100
100
100
100
100
100
100
100
100
100
100
100
100
100
100
100
100
100
100
100
100
100
100
100
100
100
100
100
100
100
100
100
100
100
100
100
100
100
100
100
100
100
100
100
100
100
100
100
100
100
100
100
100
100
100
100
100
100
100
100
100
100
100
100
100
100
100
100
100
100
100
100
100
100
100
100
100
100
100
100
100
100
100
100
100
100
100
100
100
100
100
100
100
100
100
100
100
100
100
100
100
100
100
100
100
100
100
100
100
100
100
100
100
100
100
100
100
100
100
100
100
100
100
100
100
100
100
100
100
100
100
100
100
100
100
100
100
100
100
100
100
100
100
100
100
100
100
100
100
100
100
100
100
100
100
100
100
100
100
100
100
100
100
100
100
100
100
100
100
100
100
100
100
100
100
100
100
100
100
100
100
100
100
100
100
100
100
100
100
100
100
100
100
100
100
100
100
100
100
100
100
100
100
100
100
100
100
100
100
100
100
100
100
100
100
100
100
100
100
100
100
100
100
100
100
100
100
100
100
100
100
100
100
100
100
100
100
100
100
100
100
100
100
100
100
100
100
100
100
100
100
100
100
100
100
100
100
100
100
100
100
100
100
100
100
100
100
100
100
100
100
100
100
100
100
100
100
100
100
100
100
100
100
100
100
100
100
100
100
100
100
100
100
100
100
100
100
100
100
100
100
100
100
100
100
100
100
100
100
100
100
100
100
100
100
100
100
100
100
100
100
100
100
100
100
100
100
100
100
100
100
100
100
100
100
100
100
100
100
100
100
100
100
100
100
100
100
100
100
100
100
100
100
100
100
100
100
100
100
100
100
100
100
100
100
100
100
100
100
100
100
100
100
100
100
100
100
100
100
100
100
100
100
100
100
100
100
100
100
100
100
100
100
100
100
100
100
100
100
100
100
100
100
100
100
100
100
100
100
100
100
100
100
100
100
100
100
100
100
100
100
100
100
100
100
100
100
100
100
100
100
100
100
100
100
100
100
100
100
100
100
100
100
100
100
100
100
100
100
100
100
100
100
100
100
100
100
100
100
100
100
100
100
100
100
100
100
100
100
100
100
100
100
100
100
100
100
100
100
100
100
100
100
100
100
100
100
100
100
100
100
100
100
100
100
100
100
100
100
100
100
100
100
100
100
100
100
100
100
100
100
100
100
100
100
100
100
100
100
100
100
100
100
100
100
100
100
100
100
100
100
100
100
100
100
100
100
100
100
100
100
100
100
100
100
100
100
100
100
100
100
100
100
100
100
100
100
100
100
100
100
100
100
100
100
100
100
100
100
100
100
100
100
100
100
100
100
100
100
100
100
100
100
100
100
100
100
100
100
100
100
100
100
100
100
100
100
100
100
100
100
100
100
100
100
100
100
100
100
100
100
100
100
100
100
100
100
100
100
100
100
100
100
100
100
100
100
100
100
100
100
100
100
100
100
100
100
100
100
100
100
100
100
100
100
100
100
100
100
100
100
100
100
100
100
100
100
100
100
100
100
100
100
100
100
100
100
100
100
100
100
100
100
100
100
100
100
100
100
100
100
100
100
100
100
100
100
100
100
100
100
100
100
100
100
100
100
100
100
100
100
100
100
100
100
100
100
100
100
100
100
100
100
100
100
100
100
100
100
100
100
100
100
100
100
100
100
100
100
100
100
100
100
100
100
100
100
100
100
100
100
100
100
100
100
100
100
100
100
100
100
100
100
100
100
100
100
100
100
100
100
100
100
100
100
100
100
100
100
100
100
100
100
100
100
100
100
100
100
100
100
100
100
100
100
100
100
100
100
100
100
100
100
100
100
100
100
100
100
100
100
100
100
100
100
100
100
100
100
100
100
100
100
100
100
100
100
100
100
100
100
100
100
100
100
100
100
100
100
100
100
100
100
100
100
100
100
100
100
100
100
100
100
100
100
100
100
100
100
100
100
100
100
100
100
100
100
100
100
100
100
100
100
100
100
100
100
100
100
100
100
100
100
100
100
100
100
100
100
100
100
100
100
100
100
100
100
100
100
100
100
100
100
100
100
100
100
100
100
100
100
100
100
100
100
100
100
100
100
100
100
100
100
100
100
100
100
100
100
100
100
100
100
100
100
100
100
100
100
100
100
100
100
100
100
100
100
100
100
100
100
100
100
100
100
100
100
100
100
100
100
100
100
100
100
100
100
100
100
100
100
100
100
100
100
100
100
100
100
100
100
100
100
100
100
100
100
100
100
100
100
100
100
100
100
100
100
100
100
100
100
100
100
100
100
100
100
100
100
100
100
100
100
100
100
100
100
100
100
100
100
100
100
100
100
100
100
100
100
100
100
100
100
100
100
100
100
100
100
100
100
100
100
100
100
100
100
100
100
100
100
100
100
100
100
100
100
100
100
100
100
100
100
100
100
100
100
100
100
100
100
100
100
100
100
100
100
100
100
100
100
100
100
100
100
100
100
100
100
100
100
100
100
100
100
100
100
100
100
100
100
100
100
100
100
100
100
100
100
100
100
100
100
100
100
100
100
100
100
100
100
100
100
100
100
100
100
100
100
100
100
100
100
100
100
100
100
100
100
100
100
100
100
100
100
100
100
100
100
100
100
100
100
100
100
100
100
100
100
100
100
100
100
100
100
100
100
100
100
100
100
100
100
100
100
100
100
100
100
100
100
100
100
100
100
100
100
100
100
100
100
100
100
100
100
100
100
100
100
100
100
100
100
100
100
100
100
100
100
100
100
100
100
100
100
100
100
100
100
100
100
100
100
100
100
100
100
100
100
100
100
100
100
100
100
100
100
100
100
100
100
100
100
100
100
100
100
100
100
100
100
100
100
100
100
100
100
100
100
100
100
100
100
100
100
100
100
100
100
100
100
100
100
100
100
100
100
100
100
100
100
100
100
100
100
100
100
100
100
100
100
100
100
100
100
100
100
100
100
100
100
100
100
100
100
100
100
100
100
100
100
100
100
100
100
100
100
100
100
100
100
100
100
100
100
100
100
100
100
100
100
100
100
100
100
100
100
100
100
100
100
100
100
100
100
100
100
100
100
100
100
100
100
100
100
100
100
100
100
100
100
100
100
100
100
100
100
100
100
100
100
100
100
100
100
100
100
100
100
100
100
100
100
100
100
100
100
100
100
100
100
100
100
100
100
100
100
100
100
100
100
100
100
100
100
100
100
100
100
100
100
100
100
100
100
100
100
100
100
100
100
100
100
100
100
100
100
100
100
100
100
100
100
100
100
100
100
100
100
100
100
100
100
100
100
100
100
100
100
100
100
100
100
100
102.564
100
100
100
100
100
100
100
100
100
100
100
100
100
100
100
100
100
100
100
100
100
100
100
100
100
100
100
100
100
100
100
100
100
100
100
100
100
100
100
100
100
100
100
100
100
100
100
100
100
100
100
100
100
100
100
100
100
100
100
100
100
100
100
100
100
100
100
100
100
100
100
100
100
100
100
100
100
100
100
100
100
100
100
100
100
100
100
100
100
100
100
100
100
100
100
100
100
163.182
115.507
100
100
100
100
100
100
100
100
100
100
100
100
100
100
100
100
100
100
100
100
100
100
100
100
100
100
100
100
100
100
100
100
100
100
100
100
100
100
100
100
100
100
100
100
100
100
100
100
100
100
100
100
100
100
100
100
100
100
100
100
100
100
100
100
100
100
100
100
100
100
100
100
100
100
100
100
100
100
100
100
100
100
100
100
100
100
100
100
100
100
100
100
100
100
100
100
100
100
155.938
100
100
100
100
100
100
100
100
100
100
100
100
100
100
100
100
100
100
100
100
100
100
100
100
100
100
100
100
100
100
100
100
100
100
100
100
100
100
100
100
100
100
100
100
100
100
100
100
100
100
100
100
100
100
100
100
100
100
100
100
100
100
100
100
100
100
100
100
100
100
100
100
100
100
100
100
100
100
100
100
100
100
100
100
100
100
100
103.049
102.216
101.431
100
100
100
105.43
108.854
100
100
100
100
100
100
129.527
100
100
100
100
100
100
100
100
100
100
100
100
100
100
100
100
100
100
100
100
100
100
100
100
100
100
100
100
100
100
100
100
100
100
100
100
100
100
100
100
100
100
100
100
100
100
100
100
100
100
100
100
100
100
100
100
100
100
100
100
100
100
100
100
100
100
100
100
100
100
100
100
100
100
100
100
100
100
100
100
100
104.315
104.917
100
103.577
104.885
107.17
108.482
112.812
110.297
113.055
100.086
100.41
110.626
116.812
119.438
111.481
100
100
100
100
100
100
100
100
100
100
100
100
100
100
100
100
100
100
100
100
100
100
100
100
100
100
100
100
100
100
100
100
100
100
100
100
100
100
100
100
100
100
100
100
100
100
100
100
100
100
100
100
100
100
100
101.588
100
100
100
100
100
100
100
100
100
100
100
100
100
100
100
100
100
100
100
100
100
100
100
100
100
100
100
100
100
100
100
100
111.555
111.481
101.808
110.392
111.063
115.085
118.026
120.838
116.568
122.187
112.056
111.365
120.342
125.774
127.309
121.248
100
100
110.041
108.734
100
100
100
100
100
100
100
100
100
100
100
100
100
100
100
100
100
100
100
100
100
100
100
100
100
100
100
100
100
100
100
100
100
100
100
100
100
100
100
100
100
100
100
100
100
100
100
100
100
100
100
100
105.74
101.927
100
100
100
100
100
100
100
100
100
100
100
100
100
100
100
100
100
100
100
100
100
100
100
100
100
100
100
100
100
100
100
118.186
119.02
109.946
121.51
119.84
122.809
126.245
129.545
124.587
130.714
121.95
120.977
128.967
134.036
137.721
130.94
105.229
100
119.73
116.623
100
100
100
100
100
100
100
100
100
100
100
100
100
100
100
100
100
100
100
100
100
100
100
100
100
100
100
100
100
100
100
100
100
100
100
100
100
100
100
100
100
100
100
100
100
100
100
100
108.968
107.971
100
100
100
108.226
105.214
100
100
100
100
100
100
100
100
100
100
100
100
100
100
100
100
100
100
100
100
100
100
100
100
100
100
100
100
110.345
111.055
110.173
128.133
133.41
124.407
151.801
141.019
133.486
136.535
144.777
140.215
143.072
131.647
130.661
141.187
150.77
156.708
144.042
111.316
101.011
129.367
125.164
100
100
100
100
100
100
100
100
100
100
100
100
100
100
100
100
100
100
100
100
100
100
100
100
100
100
100
100
100
100
100
100
100
100
100
100
100
100
100
100
100
100
100
100
100
100
100
100
110.237
108.362
100
100.731
100
100
110.239
107.75
100
100
100
100
100
100
100
100
100
100
100
100
100
100
100
100
100
100
100
100
100
100
100
100
107.954
105.743
103.657
101.628
129.337
135.371
137.839
151.741
167.23
162.931
196.425
183.589
156.898
157.797
177.578
175.347
170.078
144.135
144.026
160.933
177.702
183.279
162.833
116.226
104.454
141.209
133.357
100
100
100
100
100
100
100
100
100
100
100
100
100
100
100
100
100
100
100
100
100
100
100
100
100
100
100
100
100
100
100
100
100
100
100
100
100
100
100
100
100
100
100
100
100
100
100
100
100
100
100
109.135
105.648
100
100
102.898
110.622
109.209
100.652
100
104.945
100
100
100
103.51
104.265
100
100
103.996
105.311
100
100
100.168
100
100
100
100
100
100
103.004
106.864
110.305
134.006
132.383
129.927
127.856
172.03
183.896
179.66
193.083
204.821
196.708
224.775
212.336
197.996
194.796
221.319
214.853
203.645
163.365
160.825
185.669
209.358
212.975
187.23
124.043
108.264
153.625
145.104
100
100
100
100
100
100
100
100
100
100
100
100
100
100
100
100
100
100
100
100
100
100
100
100
100
100
100
100
100
100
100
100
100
100
100
100
100
100
100
100
100
100
100
100
100
100
100
100
100
100
100
105.802
100.747
100
100
104.852
109.069
109.249
113.744
109.893
118.143
111.249
106.331
105.606
116.83
118.015
101.586
103.518
116.309
118.707
112.084
112.693
113.317
112.833
111.698
111.727
112.15
111.832
125.218
127.554
132.014
137.837
171.852
169.609
163.519
160.106
206.778
223.472
237.322
220.331
227.114
251.726
152.461
268.292
226.996
232.164
237.487
238.792
237.171
185.253
179.136
215.044
241.909
244.692
215.609
130.792
113.925
170.526
154.668
100
115.689
104.129
100
100
100
100
100
100
100
100
100
100
100
100
100
100
100
100
100
100
100
100
100
100
100
100
100
100
100
100
100
100
100
100
100
100
100
100
100
100
100
100
100
100
100
100
100
100
100
100
100
100
100
100
100
105.744
105.911
105.254
107.413
128.481
124.07
132.321
125.124
119.379
119.107
131.435
132.72
114.387
115.605
129.706
132.403
132.092
130.837
129.159
129.487
140.019
135.75
134.431
132.502
155.938
156.519
158.879
164.39
231.895
228.701
217.673
216.814
276.211
154.688
286.794
267.19
152.136
305.31
184.088
326.419
282.439
246.129
153.138
158.327
251.557
210.869
201.993
248.396
254.864
259.58
247.214
140.715
124.178
184.969
169.68
100
147.275
115.096
104.862
100
100
100
100
100
100
100
100
100
100
100
100
100
100
100
100
100
100
100
100
100
100
100
100
100
100
100
100
100
100
100
100
100
100
100
100
100
100
100
100
100
100
100
100
100
100
100
100
100
100
100
117.55
110.244
102.013
112.942
144.141
138.912
148.317
140.417
132.785
133.838
147.327
148.921
128.909
128.938
145.016
147.311
158.776
153.468
148.91
151.722
169.51
168.052
160.514
156.15
213.393
216.605
220.675
222.352
278.853
276.527
265.37
263.348
332.271
186.842
339.208
325.9
185.219
361.408
217.289
388.07
340.474
154.902
184.023
189.721
157.466
240.252
219.679
262.167
158.68
160.353
253.739
152.419
136.177
202.979
181.363
100
345.573
145.133
120.18
112.787
100
100
100
100
100
100
100
100
100
100
100
100
100
100
100
100
100
100
100
100
100
100
100
100
100
100
100
100
100
100
100
100
100
100
100
100
100
100
100
100
100
100
100
100
100
100
100
101.199
100
102.175
100
100
131.777
122.197
113.763
125.546
161.352
155.445
166.113
156.613
147.976
150.583
165.086
166.987
146.164
145.042
161.947
163.625
181.865
182.987
172.615
179.318
238.062
212.724
193.705
178.132
260.802
263.732
268.453
271.016
329.447
328.108
317.399
313.68
387.2
218.51
386.498
389.393
219.881
411.761
245.246
440.664
401.72
186.622
218.403
223.506
187.051
247.365
236.132
162.557
187.766
190.053
158.31
165.166
150.155
215.423
195.561
125.355
151.429
100
139.15
139.33
100
100
100
100
100
100
100
100
100
100
100
100
100
100
100
100
100
100
100
100
100
100
100
100
100
100
100
100
100
100
100
100
100
100
100
100
100
100
100
100
100
100
100
100
102.252
106.334
110.782
111.627
101.325
113.66
104.633
109.518
146.173
135.336
125.211
137.558
179.809
173.867
185.237
173.36
164.324
168.183
183.862
186.063
166.446
163.992
182.798
182.08
250.354
208.971
197.867
201.795
283.895
151.409
254.238
237.426
312.036
315.084
319.652
324.844
373.957
373.311
364.04
359.411
434.337
244.582
441.573
248.633
451.797
221.793
247.085
251.025
221.647
261.567
288.132
245.421
190.662
222.221
224.226
186.055
178.277
164.122
228.702
209.391
126.623
100
100
156.704
145.028
100
100
100
100
100
100
100
100
100
100
100
100
100
100
100
100
100
100
100
100
100
100
100
100
100
100
100
100
100
100
100
100
100
100
100
100
100
100
100
100
100
100
101.217
100
100
100
100
113.343
118.312
120.698
121.82
111.912
124.516
116.314
120.292
161.174
148.584
136.186
148.989
200.4
194.465
205.26
190.856
181.179
185.537
203.888
204.935
191.359
187.05
207.086
203.138
291.474
151.902
220.706
267.828
332.613
180.701
309.702
291.275
358.296
361.679
367.452
376.084
250.99
250.987
162.747
337.793
260.174
288.745
224.221
251.201
252.933
218.799
189.35
175.863
235.357
218.728
112.611
100
100
162.386
140.475
100
100
100
100
100
100
100
100
100
100
100
100
100
100
100
100
100
100
100
100
100
100
100
100
100
100
100
100
100
100
100
100
100
100
100
100
100
100
100
100
100
100
100
100
109.768
109.773
106.683
124.165
128.785
130.143
130.069
120.032
135.008
127.224
130.197
176.584
161.343
146.686
160.037
223.149
216.67
226.333
209.352
199.527
202.151
225.194
223.434
212.394
210.273
226.499
230.095
341.646
179.443
155.99
316.211
378.788
211.01
366.402
346.859
188.41
398.977
167.806
335.666
252.981
246.521
198.801
181.757
252.884
281.373
226.84
107.219
111.929
100
162.4
134.481
100
100
100
100
100
100
100
100
100
100
100
100
100
100
100
100
100
100
100
100
100
100
100
100
100
100
100
100
100
100
100
100
100
100
100
100
100
100
100
100
100
100
107.039
102.817
100
119.399
117.175
112.659
135.467
137.849
138.818
136.972
128.04
145.218
137.071
141.583
192.148
173.735
157.518
171.709
246.273
239.321
249.516
230.122
222.088
219.86
246.366
241.741
286.427
231.21
306.17
247.057
394.367
208.548
183.199
370.237
238.67
421.275
398.79
221.175
452.184
191.451
393.721
205.827
183.51
269.167
291.354
322.546
228.305
111.66
129.947
134.232
159.572
135.996
100
100
100
100
100
100
100
100
100
100
100
100
100
100
100
100
100
100
100
100
100
100
100
100
100
100
100
100
100
100
100
100
100
100
100
100
100
100
100
100
100
100
112.464
115.598
107.862
100
116.635
100
126.913
122.72
145.059
146.583
145.48
144.885
135.893
154.897
147.782
152.232
209.414
187.307
166.95
182.073
267.668
262.205
274.007
251.983
249.838
241.261
266.394
264.257
328.541
164.362
179.328
343.217
239.535
212.76
427.386
250.093
220.42
444.691
206.78
183.645
169.365
334.271
373.115
228.376
269.729
124.121
139.323
170.703
160.941
138.705
100
100
100
100
100
100
100
100
100
100
100
100
100
100
100
100
100
100
100
100
100
100
100
100
100
100
100
100
100
100
100
100
100
100
100
100
100
100
100
100
100
100
100
120.806
123.423
116.166
106.943
100.07
126.729
100
132.335
153.892
153.459
153.156
150.635
141.422
166.309
159.384
161.077
226.922
200.559
177.248
191.448
288.056
285.51
299.575
276.208
267.264
268.076
288.179
290.573
375.355
188.932
186.964
197.831
383.297
245.199
245.413
207.232
187.202
191.455
388.697
417.861
231.813
260.182
307.442
146.327
140.041
192.225
161.896
146.845
100
100
100
100
100
100
100
100
100
100
100
100
100
100
100
100
100
100
100
100
100
100
100
100
100
100
100
100
100
100
100
100
100
100
100
100
100
100
100
100
100
100
100
129.543
131.458
123.764
113.689
104.038
100
136.148
100
100
161.731
160.265
159.396
153.267
144.685
176.637
168.896
169.442
245.769
213.443
187.773
200.67
310.939
308.472
324.783
300.092
286.571
312.948
310.099
430.952
215.52
204.758
196.751
216.89
434.428
214.731
191.627
218.584
439.105
250.873
266.896
300.674
353.255
165.125
140.801
218.289
162.818
158.041
100
100
100
100
100
100
100
100
100
100
100
100
100
100
100
100
100
100
100
100
100
100
100
100
100
100
100
100
100
100
100
100
100
100
100
100
100
100
100
100
100
100
100
100
138.069
139.394
131.244
120.537
110.745
101.576
100
100
100
167.731
166.928
161.947
154.202
146.141
184.921
177.44
175.541
263.481
225.123
196.452
210.398
335.603
331.881
347
323.372
332.156
209.575
246.303
222.151
212.304
243.021
226.288
193.334
241.557
281.799
281.956
306.613
349.668
392.843
184.933
138.991
238.399
165.087
172.151
100
100
100
100
100
100
100
100
100
100
100
100
100
100
100
100
100
100
100
100
100
100
100
100
100
100
100
100
100
100
100
100
100
100
100
100
100
100
100
100
100
100
100
100
146.945
138.553
127.459
117.115
107.464
100
100
100
100
100
173.89
169.863
162.531
154.073
192.27
184.554
180.943
284.019
239.325
203.279
217.644
347.433
353.539
370.664
348.788
217.842
223.912
246.444
226.739
227.964
184.51
171.954
325.333
354.959
392.064
207.704
132.495
247.976
177.446
184.825
100
100
100
100
100
100
100
100
100
100
100
100
100
100
100
100
100
100
100
100
100
100
100
100
100
100
100
100
100
100
100
100
100
100
100
100
100
100
100
100
100
100
100
100
145.575
134.138
123.397
113.061
102.34
100
100
100
100
100
100
177.386
170.184
161.213
151.941
196.206
188.937
185.419
307.097
253.118
207.415
223.34
219.884
371.492
386.029
372.343
231.184
235.193
247.404
218.835
277.627
192.532
194.28
375.483
397.498
222.626
130.343
252.692
187.22
193.317
100
100
100
100
100
100
100
100
100
100
100
100
100
100
100
100
100
100
100
100
100
100
100
100
100
100
100
100
100
100
100
100
100
100
100
100
100
100
100
100
100
100
100
100
140.678
129.297
118.708
107.658
100
100
100
100
100
100
100
103.077
177.502
168.046
157.852
146.877
198.252
192.684
185.634
329.904
266.935
208.584
227.09
232.626
415.584
393.083
393.967
388.117
240.704
250.96
222.386
278.651
315.693
205.474
220.67
420.511
232.412
138.089
247.692
190.366
198.315
100
100
100
100
100
100
100
100
100
100
100
100
100
100
100
100
100
100
100
100
100
100
100
100
100
100
100
100
100
100
100
100
100
100
100
100
100
100
100
100
100
100
100
100
100
135.174
123.951
113.03
100
100
100
100
100
100
100
100
100
108.076
174.955
163.814
152.799
140.982
199.011
192.866
182.741
349.315
281.316
210.79
233.023
241.061
442.35
236.269
228.306
387.748
252.319
234.289
279.82
316.095
363.032
206.581
244.119
225.686
186.474
276.892
188.733
189.705
100
100
100
100
100
100
100
100
100
100
100
100
100
100
100
100
100
100
100
100
100
100
100
100
100
100
100
100
100
100
100
100
100
100
100
100
100
100
100
100
100
100
100
100
129.113
118.041
100
100
100
100
100
100
100
100
100
104.098
100
112.863
170.525
159.007
146.533
134.379
196.048
189.531
178.025
361.69
297.31
209.347
237.558
249.168
459.891
251.874
404.642
244.106
399.834
236.272
278.158
318.472
362.05
405.42
197.741
242.06
347.061
314.779
178.521
181.559
100
100
100
100
100
100
100
100
100
100
100
100
100
100
100
100
100
100
100
100
100
100
100
100
100
100
100
100
100
100
100
100
100
100
100
100
100
100
100
100
100
100
100
100
100
123.194
100
100
100
100
100
100
100
100
100
100
100
108.682
103.004
117.978
165.925
152.368
139.901
128.401
191.454
184.27
172.723
366.446
311.579
206.477
241.442
470.819
263.614
433.509
225.688
256.738
220.408
281.654
168.374
318.338
363.835
402.526
185.039
225.614
880.484
337.344
165.475
164.505
100
100
100
100
100
100
100
100
100
100
100
100
100
100
100
100
100
100
100
100
100
100
100
100
100
100
100
100
100
100
100
100
100
100
100
100
100
100
100
100
100
100
100
100
100
100
100
100
100
100
100
100
100
100
100
100
100
100
113.688
107.679
123.094
158.9
145.64
133.929
186.226
178.016
165.325
358.323
318.469
204.512
248.26
269
460.827
238.91
377.78
260.249
253.156
204.895
299.637
194.991
364.018
402.504
175.574
188.684
178.911
100
154.456
152.698
100
100
100
100
100
100
100
100
100
100
100
100
100
100
100
100
100
100
100
100
100
100
100
100
100
100
100
100
100
100
100
100
100
100
100
100
100
100
100
100
100
100
100
100
100
100
100
100
100
100
100
100
100
100
100
100
100
102.485
100
118.611
112.303
128.513
151.855
139.547
182.007
171.494
158.273
370.154
323.546
204.564
256.569
472.17
252.445
399.168
389.296
228.554
193.69
343.049
267.882
222.452
404.065
165.115
140.942
100
100
143.203
129.232
100
100
100
100
100
100
100
100
100
100
100
100
100
100
100
100
100
100
100
100
100
100
100
100
100
100
100
100
100
100
100
100
100
100
100
100
100
100
100
100
100
100
100
100
100
100
100
100
100
100
100
100
100
100
100
100
100
100
100
106.78
101.495
123.843
117.234
133.989
145.553
177.81
165.573
151.929
383.871
323.658
203.165
255.291
258.552
426.515
418.834
217.443
216.765
185.865
387.656
309.49
265.799
245.218
151.258
100
100
100
125.397
100
100
100
100
100
100
100
100
100
100
100
100
100
100
100
100
100
100
100
100
100
100
100
100
100
100
100
100
100
100
100
100
100
100
100
100
100
100
100
100
100
100
100
100
100
100
100
100
100
100
100
100
100
100
100
100
100
100
100
100
100
100
111.563
106.146
129.096
122.313
139.817
172.845
159.786
146.253
306.806
199.305
246.886
442.489
451.495
228.763
332.265
208.862
173.311
425.116
356.627
305.821
255.021
137.199
100
100
100
106.245
100
100
100
100
100
100
100
100
100
100
100
100
100
100
100
100
100
100
100
100
100
100
100
100
100
100
100
100
100
100
100
100
100
100
100
100
100
100
100
100
100
100
100
100
100
100
100
100
100
100
100
100
100
100
100
100
100
100
100
100
100
100.717
100
116.624
111.2
134.787
128.201
168.245
154.661
141.324
294.194
193.921
237.084
467.356
242.108
353.644
320.633
203.109
159.733
397.538
349.956
296.365
155.024
127.48
100
100
100
108.217
100
100
100
100
100
100
100
100
100
100
100
100
100
100
100
100
100
100
100
100
100
100
100
100
100
100
100
100
100
100
100
100
100
100
100
100
100
100
100
100
100
100
100
100
100
100
100
100
100
100
100
100
100
100
100
100
100
100
100.804
101.025
103.257
101.171
105.589
105.718
103.775
122.572
117.329
135.185
163.287
149.818
280.448
187.253
225.675
250.429
381.673
342.914
308.414
226.02
192.656
147.187
388.785
343.096
181.549
284.691
124.762
100
100
100
107.29
100
100
100
100
100
100
100
100
100
100
100
100
100
100
100
100
100
100
100
100
100
100
100
100
100
100
100
100
100
100
100
100
100
100
100
100
100
100
100
100
100
100
100
100
100
100
100
100
100
100
100
100
100
100
100
100.27
100
101.307
101.703
105.455
107.145
107.772
110.141
107.848
112.618
111.948
111.015
129.908
125.022
144.377
158.412
263.246
181.528
217.206
402.561
373.485
330.673
287.829
217.261
180.236
139.781
384.778
210.083
330.717
249.771
122.857
100
100
100
104.564
100
100
100
100
100
100
100
100
100
100
100
100
100
100
100
100
100
100
100
100
100
100
100
100
100
100
100
100
100
100
100
100
100
100
100
100
100
100
100
100
100
100
100
100
100
100
100
100
100
100
100
100
100
100
103.631
105.87
100
107.622
107.507
112.471
114.403
115.14
117.786
115.494
120.609
119.796
119.352
139.97
135.672
154.87
252.984
178.078
212.72
396.236
360.001
311.47
278.364
198.627
169.039
133.176
235.599
380.03
299.542
149.695
120.737
100
100
100
100
100
100
100
100
100
100
100
100
100
100
100
100
100
100
100
100
100
100
100
100
100
100
100
100
100
100
100
100
100
100
100
100
100
100
100
100
100
100
100
100
100
100
100
100
100
100
101.773
100
100
100
100
100
100
100
100
100
100
111.039
113.28
115.211
114.659
120.407
122.718
123.524
126.516
124.093
129.535
130.797
130.025
151.367
248.726
175.393
209.964
383.65
344.244
303.908
280.358
194.604
156.724
129.22
429.735
354.551
177.033
211.608
259.888
121.187
100
100
100
100
100
100
100
100
100
100
100
100
100
100
100
100
100
100
100
100
100
100
100
100
100
100
100
100
100
100
100
100
100
100
100
100
100
100
100
100
100
100
100
100
100
100
100
100
100
100
100
108.31
100
100
100
100
100
100
100
100
100
100
104.967
120.55
122.611
124.206
123.547
129.525
132.296
133.037
136.359
134.695
140.235
147.074
144.877
244.755
171.427
205.289
373.01
339.863
304.964
275.997
187.304
145.845
129.715
406.489
207.35
316.047
207.012
149.141
112.734
100
100
100
100
100
100
100
100
100
100
100
100
100
100
100
100
100
100
100
100
100
100
100
100
100
100
100
100
100
100
100
100
100
100
100
100
100
100
100
100
100
100
100
100
100
100
100
100
100
100
100
100
100
117.171
100
100
100
100
100
100
100
100
105.388
100
112.329
131.792
133.421
134.413
133.958
139.788
142.922
144.656
148.407
149.187
154.389
167.19
237.673
199.506
368.216
337.344
299.823
268.152
172.624
139.069
130.001
237.767
376.992
180.55
201.872
219.154
266.954
100
100
100
100
100
100
100
100
100
100
100
100
100
100
100
100
100
100
100
100
100
100
100
100
100
100
100
100
100
100
100
100
100
100
100
100
100
100
100
100
100
100
100
100
100
100
100
100
100
100
100
100
100
100
100
128.379
100
100
100
100
100