/*--------------------------------*- C++ -*----------------------------------*\
  =========                 |
  \\      /  F ield         | OpenFOAM: The Open Source CFD Toolbox
   \\    /   O peration     | Website:  https://openfoam.org
    \\  /    A nd           | Version:  dev
     \\/     M anipulation  |
\*---------------------------------------------------------------------------*/
FoamFile
{
    version     2.0;
    format      ascii;
    class       volScalarField;
    location    "2500";
    object      rho;
}
// * * * * * * * * * * * * * * * * * * * * * * * * * * * * * * * * * * * * * //

dimensions      [1 -3 0 0 0 0 0];

internalField   nonuniform List<scalar> 
9841
(
1.17174
1.17158
1.17165
1.17155
1.1713
1.17172
1.17162
1.17113
1.17126
1.17175
1.17167
1.17101
1.17097
1.17133
1.17179
1.17164
1.17101
1.17076
1.171
1.17143
1.17183
1.17167
1.17116
1.17066
1.1707
1.17111
1.17151
1.17185
1.17167
1.17114
1.17061
1.17049
1.17073
1.17118
1.17159
1.17189
1.1717
1.17119
1.17066
1.17039
1.17049
1.17086
1.17127
1.17162
1.17188
1.17172
1.17125
1.17073
1.17034
1.17028
1.17054
1.17099
1.17135
1.17165
1.17191
1.17176
1.17135
1.1708
1.17035
1.17017
1.17031
1.17069
1.17111
1.17142
1.17168
1.17191
1.17175
1.17134
1.17084
1.17042
1.17011
1.17009
1.17037
1.17083
1.17118
1.17145
1.17169
1.17191
1.17178
1.17143
1.17099
1.17047
1.17007
1.16996
1.17014
1.17054
1.17092
1.17124
1.1715
1.17172
1.17192
1.17176
1.1714
1.17105
1.17052
1.1701
1.16987
1.16994
1.17027
1.17069
1.17099
1.17128
1.17152
1.17173
1.17193
1.17177
1.17144
1.17107
1.1706
1.17015
1.16983
1.1698
1.17001
1.17038
1.17076
1.17108
1.17133
1.17154
1.17174
1.17193
1.17179
1.17148
1.17117
1.17078
1.1702
1.16981
1.16969
1.16981
1.17014
1.17052
1.17084
1.17111
1.17135
1.17155
1.17175
1.17193
1.17179
1.17148
1.17118
1.17083
1.17026
1.16984
1.16962
1.16966
1.16988
1.17025
1.17062
1.17092
1.17115
1.17138
1.17156
1.17175
1.17194
1.17182
1.17151
1.17119
1.17086
1.17046
1.1699
1.1696
1.16954
1.16969
1.17001
1.17041
1.17069
1.17098
1.17119
1.1714
1.17158
1.17175
1.17195
1.1718
1.17153
1.17124
1.1709
1.17049
1.16994
1.16961
1.16947
1.16954
1.16978
1.17015
1.17049
1.17079
1.17103
1.17122
1.17142
1.17158
1.17176
1.17194
1.17182
1.17154
1.17124
1.17093
1.17067
1.17016
1.16964
1.16942
1.16939
1.16958
1.16994
1.17028
1.17059
1.17082
1.17106
1.17124
1.17143
1.17159
1.17177
1.17194
1.17183
1.17156
1.17127
1.17102
1.17068
1.17019
1.16967
1.1694
1.16931
1.16941
1.1697
1.17006
1.17036
1.17065
1.17087
1.17109
1.17127
1.17142
1.17159
1.17176
1.17194
1.17182
1.17158
1.17129
1.17102
1.17069
1.17028
1.16979
1.16941
1.16925
1.16928
1.16947
1.16981
1.17017
1.17045
1.17071
1.17091
1.1711
1.17127
1.17143
1.1716
1.17177
1.17194
1.17182
1.17158
1.17132
1.17108
1.17078
1.17045
1.16989
1.16945
1.16923
1.16917
1.16931
1.1696
1.16995
1.17026
1.17053
1.17073
1.17093
1.17111
1.17128
1.17144
1.17161
1.17178
1.17195
1.17184
1.17159
1.17136
1.17107
1.17083
1.17048
1.16997
1.16953
1.16923
1.16911
1.16917
1.1694
1.16975
1.17007
1.17034
1.17056
1.17077
1.17094
1.17112
1.17128
1.17145
1.17161
1.17177
1.17194
1.17184
1.1716
1.17137
1.17111
1.17085
1.17052
1.17018
1.16958
1.16925
1.16905
1.16904
1.16921
1.16952
1.16988
1.17014
1.17041
1.1706
1.17079
1.17096
1.17113
1.17129
1.17144
1.1716
1.17176
1.17194
1.17184
1.1716
1.17139
1.17114
1.17088
1.17056
1.17029
1.16962
1.16928
1.16904
1.16896
1.16907
1.16933
1.16963
1.16996
1.17021
1.17044
1.17065
1.17082
1.17099
1.17114
1.1713
1.17145
1.1716
1.17177
1.17194
1.17183
1.17163
1.17139
1.17115
1.1709
1.17056
1.17036
1.16973
1.16933
1.16904
1.16891
1.16895
1.16916
1.16946
1.16977
1.17003
1.17028
1.17048
1.17069
1.17083
1.17098
1.17114
1.17129
1.17144
1.1716
1.17177
1.17194
1.17183
1.17164
1.17139
1.17116
1.17094
1.1706
1.17037
1.16987
1.16938
1.16904
1.16887
1.16885
1.16899
1.16929
1.16959
1.16987
1.1701
1.17034
1.1705
1.17068
1.17086
1.17099
1.17114
1.1713
1.17145
1.17159
1.17176
1.17193
1.17184
1.17165
1.17143
1.17117
1.17093
1.17061
1.17033
1.16994
1.16943
1.16911
1.16885
1.16879
1.16887
1.16911
1.16943
1.16969
1.16995
1.17015
1.17036
1.17053
1.1707
1.17084
1.17099
1.17114
1.17128
1.17143
1.17159
1.17176
1.17193
1.17185
1.17166
1.17142
1.17119
1.17098
1.17068
1.17034
1.17
1.16953
1.16913
1.16882
1.16871
1.16876
1.16894
1.16921
1.16951
1.16977
1.17
1.17019
1.17038
1.17053
1.1707
1.17084
1.17098
1.17113
1.17129
1.17142
1.17158
1.17175
1.17193
1.17185
1.17165
1.17144
1.17124
1.17098
1.17067
1.17035
1.17001
1.16961
1.16915
1.16884
1.16868
1.16868
1.1688
1.16908
1.16934
1.1696
1.16987
1.17005
1.17023
1.17039
1.17057
1.1707
1.17085
1.17098
1.17113
1.17127
1.17142
1.17158
1.17175
1.17193
1.17187
1.17166
1.17144
1.17121
1.17097
1.17073
1.17037
1.17004
1.16969
1.16928
1.16888
1.16865
1.1686
1.1687
1.16889
1.1692
1.16945
1.16967
1.16991
1.17011
1.17026
1.17041
1.17056
1.17072
1.17085
1.17097
1.17111
1.17125
1.1714
1.17156
1.17174
1.17192
1.17186
1.17167
1.17145
1.17121
1.17102
1.17072
1.17039
1.17007
1.16971
1.16932
1.16892
1.16864
1.16854
1.16858
1.16876
1.16901
1.16927
1.16951
1.16975
1.16994
1.17013
1.17027
1.17043
1.17057
1.17069
1.17083
1.17096
1.1711
1.17124
1.17139
1.17156
1.17173
1.17192
1.17184
1.17167
1.17145
1.17121
1.17097
1.1707
1.17043
1.17017
1.16976
1.16936
1.16901
1.16862
1.1685
1.16849
1.16863
1.16884
1.16914
1.16937
1.16959
1.16979
1.16998
1.17014
1.17028
1.17043
1.17056
1.17069
1.17082
1.17095
1.17109
1.17123
1.17138
1.17155
1.17173
1.17202
1.17191
1.17184
1.17164
1.17149
1.17123
1.17101
1.1707
1.17043
1.17019
1.16981
1.16938
1.16905
1.16864
1.16847
1.16841
1.1685
1.1687
1.16896
1.16922
1.16944
1.16967
1.16983
1.17
1.17016
1.1703
1.17043
1.17056
1.17068
1.17081
1.17093
1.17106
1.17121
1.17137
1.17159
1.17182
1.17172
1.17202
1.17192
1.17185
1.17166
1.17146
1.17129
1.17096
1.17066
1.17043
1.17024
1.16983
1.16933
1.16905
1.16871
1.16843
1.16836
1.1684
1.16859
1.16879
1.16907
1.16929
1.16949
1.1697
1.16986
1.17002
1.17016
1.17031
1.17043
1.17055
1.17067
1.17078
1.17091
1.17104
1.17119
1.17141
1.17132
1.17162
1.17148
1.17153
1.17182
1.17173
1.17202
1.17192
1.17184
1.17166
1.17143
1.1712
1.17101
1.17068
1.17039
1.17017
1.16974
1.16931
1.16905
1.16875
1.1684
1.16831
1.16831
1.16844
1.16867
1.16892
1.16917
1.16935
1.16956
1.16974
1.16989
1.17003
1.17019
1.17031
1.17042
1.17053
1.17064
1.17075
1.17087
1.17101
1.17123
1.17114
1.17137
1.17163
1.17143
1.17152
1.17182
1.17172
1.17202
1.17192
1.17183
1.17163
1.17142
1.17118
1.17105
1.17063
1.17034
1.17012
1.1698
1.16934
1.16906
1.16876
1.16841
1.16826
1.16825
1.16832
1.16852
1.16877
1.16899
1.16922
1.16941
1.16966
1.16976
1.16991
1.17006
1.1702
1.1703
1.1704
1.17051
1.17061
1.17072
1.17085
1.17104
1.17096
1.17126
1.17115
1.17133
1.17162
1.17142
1.17152
1.17182
1.17172
1.17202
1.17192
1.17183
1.1716
1.1714
1.17125
1.17091
1.17076
1.17027
1.17003
1.16974
1.16932
1.16902
1.16874
1.1684
1.16823
1.16817
1.16823
1.16839
1.16861
1.16886
1.1691
1.16927
1.16946
1.16966
1.1698
1.16994
1.17007
1.17019
1.17028
1.17037
1.17047
1.17057
1.17069
1.17087
1.17079
1.17105
1.17095
1.17123
1.17113
1.17131
1.17162
1.17141
1.17151
1.17182
1.17172
1.17202
1.17192
1.17182
1.1716
1.17138
1.1711
1.17077
1.17067
1.17015
1.17
1.16967
1.16932
1.16898
1.16872
1.16837
1.1682
1.16812
1.16815
1.16829
1.16849
1.16872
1.16894
1.16914
1.16931
1.16949
1.16971
1.16983
1.16995
1.17006
1.17017
1.17025
1.17034
1.17044
1.17054
1.1707
1.17063
1.17086
1.17077
1.17103
1.17093
1.17121
1.1711
1.1713
1.17161
1.17139
1.1715
1.17181
1.17171
1.17202
1.17192
1.17181
1.17161
1.17142
1.17106
1.17085
1.17047
1.17014
1.16987
1.16954
1.16927
1.16892
1.16866
1.16836
1.16817
1.16806
1.16807
1.16818
1.16838
1.16859
1.1688
1.16903
1.1692
1.16941
1.16954
1.16972
1.16983
1.16995
1.17004
1.17014
1.17022
1.1703
1.1704
1.17055
1.17047
1.17068
1.1706
1.17083
1.17074
1.171
1.1709
1.17118
1.17107
1.17128
1.1716
1.17138
1.17149
1.17181
1.1717
1.17202
1.17191
1.17181
1.1716
1.17143
1.17116
1.17071
1.17034
1.17013
1.16987
1.16949
1.16919
1.16888
1.1686
1.16835
1.16814
1.16802
1.168
1.16807
1.16824
1.16848
1.16867
1.16889
1.1691
1.16925
1.16942
1.16955
1.16973
1.16983
1.16993
1.17
1.17008
1.17016
1.17024
1.17039
1.17031
1.17052
1.17044
1.17065
1.17057
1.1708
1.17071
1.17097
1.17086
1.17116
1.17105
1.17126
1.17159
1.17136
1.17147
1.17181
1.1717
1.17202
1.17191
1.17181
1.17158
1.17142
1.17117
1.17054
1.17028
1.17002
1.16981
1.16936
1.16909
1.16881
1.16856
1.16832
1.1681
1.16797
1.16794
1.16798
1.16814
1.16833
1.16857
1.16876
1.16897
1.16917
1.16929
1.16944
1.16954
1.16973
1.16981
1.16986
1.16987
1.16989
1.16993
1.17019
1.16999
1.17034
1.17021
1.17048
1.17037
1.17061
1.17052
1.17076
1.17066
1.17093
1.17082
1.17114
1.17101
1.17123
1.17158
1.17134
1.17145
1.1718
1.17169
1.17202
1.17191
1.1718
1.17156
1.1714
1.17112
1.17044
1.17021
1.16992
1.16973
1.16919
1.16895
1.1687
1.16849
1.16825
1.16807
1.16794
1.16787
1.16792
1.16803
1.16823
1.16842
1.16864
1.16884
1.16904
1.16921
1.16931
1.16943
1.16957
1.16968
1.16967
1.16945
1.16912
1.16875
1.16955
1.1684
1.16999
1.16945
1.17022
1.16995
1.1704
1.17023
1.17055
1.17042
1.17071
1.17059
1.17089
1.17077
1.1711
1.17097
1.1712
1.17157
1.17131
1.17143
1.1718
1.17168
1.17202
1.1719
1.17178
1.17154
1.17137
1.17101
1.17033
1.17012
1.1699
1.16953
1.16909
1.16883
1.16859
1.1684
1.16818
1.16801
1.16789
1.16781
1.16784
1.16793
1.1681
1.16833
1.16852
1.16875
1.16892
1.1691
1.16925
1.16934
1.16942
1.1695
1.16933
1.16863
1.16711
1.16534
1.16631
1.16362
1.16816
1.16548
1.1693
1.16774
1.16989
1.1691
1.17021
1.16979
1.17043
1.17017
1.17063
1.17043
1.17083
1.17066
1.17106
1.1709
1.17116
1.17155
1.17127
1.17139
1.17179
1.17166
1.17201
1.17189
1.17177
1.17151
1.17132
1.17086
1.17021
1.17002
1.16982
1.16937
1.1691
1.16869
1.16846
1.16829
1.16811
1.16795
1.16782
1.16775
1.16776
1.16785
1.168
1.16818
1.16841
1.16862
1.1688
1.16897
1.16913
1.16924
1.1693
1.16928
1.16886
1.16738
1.1642
1.15962
1.15545
1.16245
1.15791
1.16499
1.16156
1.16729
1.16444
1.16882
1.16672
1.16961
1.16835
1.17008
1.1693
1.1704
1.1699
1.17069
1.17035
1.17098
1.17073
1.17107
1.17152
1.17119
1.17132
1.17178
1.17164
1.172
1.17188
1.17175
1.17148
1.17125
1.17067
1.1701
1.16993
1.16966
1.16924
1.16899
1.16853
1.16837
1.16818
1.16802
1.16786
1.16776
1.16768
1.16769
1.16777
1.1679
1.16808
1.16831
1.16849
1.16869
1.16884
1.169
1.16917
1.16926
1.16921
1.16854
1.16601
1.16103
1.1545
1.14883
1.15036
1.14622
1.15782
1.15387
1.16105
1.15722
1.16383
1.16044
1.16596
1.16299
1.16758
1.16492
1.16876
1.16643
1.16959
1.16787
1.17026
1.16915
1.17077
1.17016
1.17085
1.17146
1.17098
1.17114
1.17176
1.17161
1.172
1.17187
1.17172
1.17145
1.17117
1.17045
1.17002
1.16983
1.16949
1.1691
1.1688
1.16842
1.16822
1.16807
1.16792
1.16778
1.16769
1.16762
1.16761
1.16767
1.16781
1.16798
1.16819
1.16836
1.16855
1.16871
1.16887
1.16903
1.16917
1.16918
1.16848
1.16519
1.15811
1.15014
1.14324
1.1433
1.1403
1.14532
1.14183
1.1532
1.14919
1.15669
1.15265
1.15961
1.15592
1.1618
1.15837
1.16346
1.16012
1.16491
1.1615
1.16663
1.16301
1.16863
1.16525
1.1701
1.16818
1.17014
1.17133
1.17029
1.17056
1.17173
1.17152
1.17199
1.17185
1.17167
1.1714
1.17104
1.17029
1.16998
1.16972
1.16931
1.16895
1.16865
1.1683
1.16808
1.16794
1.16784
1.16771
1.16761
1.16757
1.16755
1.1676
1.1677
1.16788
1.16807
1.16824
1.16841
1.1686
1.16874
1.1689
1.16905
1.16911
1.1685
1.16515
1.15658
1.14794
1.14212
1.13872
1.13796
1.13888
1.13682
1.14089
1.13769
1.14854
1.14457
1.15201
1.14792
1.15472
1.15091
1.15657
1.1529
1.15786
1.15412
1.15906
1.15503
1.16082
1.15625
1.1639
1.15856
1.16791
1.1628
1.16789
1.1709
1.16814
1.16873
1.17169
1.17127
1.17198
1.17183
1.17167
1.17127
1.17075
1.17011
1.16987
1.16956
1.16914
1.16879
1.1685
1.16816
1.16794
1.16783
1.16772
1.1676
1.16753
1.16748
1.16748
1.16751
1.16762
1.16778
1.16795
1.16813
1.16829
1.16846
1.16862
1.16876
1.16892
1.16903
1.16858
1.16533
1.15663
1.14861
1.14402
1.13911
1.13586
1.13572
1.13525
1.13391
1.13673
1.13398
1.14388
1.1401
1.14698
1.143
1.14917
1.14539
1.15037
1.14667
1.15104
1.14716
1.15173
1.14746
1.15323
1.14823
1.15643
1.1503
1.1621
1.15461
1.16192
1.16962
1.1625
1.16412
1.17159
1.17056
1.17198
1.1718
1.17123
1.17037
1.16995
1.16975
1.16938
1.16898
1.16864
1.16836
1.16802
1.16777
1.1677
1.16762
1.16751
1.16745
1.1674
1.16741
1.16745
1.16754
1.16768
1.16785
1.16802
1.16818
1.16833
1.16851
1.16863
1.16879
1.16892
1.16868
1.16588
1.15717
1.14997
1.14723
1.14553
1.13733
1.14323
1.13381
1.13466
1.13218
1.13163
1.13286
1.13068
1.13921
1.13578
1.1416
1.13792
1.14304
1.13948
1.14347
1.13996
1.14347
1.13982
1.14369
1.13972
1.14488
1.14028
1.14782
1.14213
1.15343
1.146
1.15298
1.1663
1.1536
1.15586
1.17131
1.16866
1.17197
1.17175
1.17021
1.16983
1.16963
1.16922
1.16883
1.1685
1.16823
1.16788
1.16763
1.16758
1.16749
1.16741
1.16736
1.16733
1.16733
1.16737
1.16746
1.16759
1.16774
1.16791
1.16807
1.16822
1.16837
1.16854
1.16866
1.16881
1.16874
1.16673
1.15845
1.15103
1.14938
1.15166
1.14862
1.15457
1.13925
1.14616
1.13202
1.13414
1.1296
1.12964
1.12927
1.12779
1.13454
1.13161
1.13603
1.13284
1.13667
1.13358
1.13653
1.13355
1.13626
1.13322
1.13642
1.13322
1.13755
1.13393
1.14018
1.13575
1.14505
1.13906
1.14498
1.15965
1.14608
1.14797
1.153
1.17069
1.1651
1.17197
1.17169
1.16955
1.16948
1.16908
1.1687
1.16837
1.16811
1.16774
1.16749
1.16744
1.16738
1.16731
1.16727
1.16725
1.16726
1.16729
1.16737
1.1675
1.16765
1.16781
1.16797
1.16812
1.16826
1.16841
1.16855
1.16868
1.16873
1.16747
1.16048
1.15192
1.15046
1.15438
1.16254
1.15339
1.16027
1.1414
1.14968
1.13095
1.13471
1.12744
1.12817
1.1261
1.12545
1.13005
1.12775
1.13071
1.12816
1.13083
1.12834
1.13058
1.12824
1.13052
1.12819
1.131
1.12859
1.1323
1.1296
1.13473
1.1315
1.13879
1.1346
1.1365
1.14224
1.13933
1.14976
1.15752
1.15156
1.14397
1.14055
1.13997
1.14514
1.16975
1.1544
1.15759
1.1644
1.17197
1.17172
1.16925
1.16893
1.16857
1.16826
1.16799
1.16762
1.16737
1.16731
1.16725
1.1672
1.16717
1.16716
1.16717
1.16721
1.16729
1.16741
1.16755
1.16771
1.16786
1.16801
1.16815
1.16829
1.16845
1.16855
1.16866
1.16798
1.16266
1.15298
1.15099
1.15466
1.16331
1.16586
1.16735
1.15777
1.16346
1.14405
1.15324
1.13066
1.13615
1.12597
1.12773
1.12389
1.12433
1.126
1.12444
1.12611
1.1242
1.12613
1.12421
1.12615
1.12433
1.12652
1.12466
1.12737
1.12543
1.13025
1.12908
1.12798
1.12692
1.13295
1.13145
1.12894
1.1289
1.13014
1.13475
1.13697
1.13491
1.133
1.13735
1.14668
1.14872
1.14149
1.13861
1.13791
1.14267
1.16217
1.17011
1.16598
1.15141
1.15494
1.17198
1.16952
1.17123
1.17183
1.16877
1.16845
1.16814
1.16788
1.1675
1.16726
1.16719
1.16713
1.16709
1.16707
1.16707
1.16709
1.16713
1.16721
1.16732
1.16746
1.16761
1.16777
1.16791
1.16804
1.16817
1.16832
1.16847
1.16854
1.16825
1.1645
1.15455
1.15124
1.1542
1.16232
1.16768
1.16756
1.16828
1.1611
1.16562
1.14728
1.15645
1.1318
1.13848
1.12571
1.12893
1.12313
1.12449
1.12299
1.12272
1.12267
1.12191
1.12273
1.12169
1.12304
1.12183
1.12375
1.12244
1.12597
1.12506
1.12426
1.12354
1.12781
1.12677
1.12581
1.13152
1.13021
1.12778
1.12791
1.12902
1.13321
1.13526
1.13353
1.13173
1.13574
1.1442
1.14621
1.13952
1.13636
1.1371
1.14068
1.1591
1.164
1.14887
1.15226
1.1718
1.17205
1.17198
1.16836
1.17083
1.16832
1.16804
1.16777
1.16738
1.16716
1.16707
1.16701
1.16697
1.16696
1.16697
1.167
1.16705
1.16713
1.16723
1.16737
1.16752
1.16767
1.16781
1.16794
1.16807
1.1682
1.16835
1.16844
1.16832
1.16584
1.15672
1.15151
1.15314
1.15995
1.16651
1.16879
1.16871
1.16823
1.16872
1.16318
1.16676
1.15115
1.15939
1.13449
1.14211
1.12754
1.13256
1.12426
1.12768
1.12194
1.12254
1.12128
1.12155
1.12117
1.12111
1.12156
1.12123
1.12297
1.12254
1.12224
1.12218
1.12495
1.1242
1.1236
1.12313
1.12675
1.12583
1.12504
1.13043
1.12926
1.12691
1.12725
1.12818
1.13207
1.13398
1.13253
1.13078
1.13455
1.14216
1.14408
1.13801
1.13523
1.13601
1.13912
1.15649
1.16152
1.1466
1.14986
1.17176
1.17206
1.17199
1.16674
1.17025
1.16794
1.16767
1.16727
1.16707
1.16697
1.16689
1.16686
1.16686
1.16688
1.16691
1.16697
1.16704
1.16715
1.16728
1.16743
1.16757
1.16772
1.16785
1.16797
1.16808
1.16821
1.16835
1.16829
1.16662
1.15894
1.15193
1.15212
1.15748
1.16417
1.16856
1.16903
1.16903
1.16866
1.16896
1.16485
1.16759
1.15603
1.16284
1.13931
1.14755
1.1327
1.13917
1.12944
1.13495
1.12269
1.12522
1.12191
1.12405
1.12187
1.12383
1.12228
1.12269
1.1233
1.12435
1.12283
1.12275
1.1229
1.12332
1.12439
1.1239
1.1236
1.12353
1.12605
1.12535
1.12483
1.12963
1.12861
1.12647
1.12709
1.12775
1.13126
1.13309
1.13184
1.13013
1.13374
1.14051
1.14229
1.13691
1.13447
1.13527
1.13795
1.15401
1.15907
1.14463
1.14769
1.17166
1.17207
1.17198
1.16491
1.16956
1.16759
1.1672
1.167
1.16687
1.16678
1.16675
1.16675
1.16678
1.16682
1.16688
1.16696
1.16706
1.16719
1.16734
1.16749
1.16762
1.16775
1.16787
1.16797
1.16807
1.1682
1.1682
1.1669
1.16062
1.15262
1.15143
1.15536
1.1617
1.16767
1.16911
1.16902
1.16914
1.16915
1.1689
1.16909
1.16669
1.16833
1.16191
1.16584
1.14676
1.15501
1.14162
1.14907
1.13946
1.14608
1.12781
1.13301
1.12746
1.133
1.12818
1.13344
1.12402
1.12505
1.12635
1.12775
1.1237
1.12415
1.12492
1.12603
1.12452
1.12444
1.12462
1.1251
1.12589
1.12554
1.12544
1.12918
1.12843
1.12666
1.12766
1.12789
1.13077
1.13251
1.1315
1.12989
1.13326
1.13921
1.1408
1.13614
1.13405
1.13485
1.13708
1.15166
1.15671
1.14287
1.1456
1.17141
1.17207
1.17189
1.16287
1.16827
1.16714
1.16693
1.16678
1.16668
1.16664
1.16664
1.16668
1.16673
1.1668
1.16688
1.16698
1.16711
1.16725
1.1674
1.16754
1.16765
1.16775
1.16784
1.16792
1.16801
1.16803
1.1669
1.16141
1.1534
1.15102
1.15367
1.15948
1.16629
1.16891
1.16921
1.16917
1.16923
1.16923
1.16897
1.16915
1.16771
1.16858
1.16468
1.16668
1.15621
1.16141
1.15198
1.15658
1.1489
1.1522
1.13926
1.14483
1.13971
1.1444
1.1367
1.13949
1.14391
1.1418
1.12748
1.12928
1.13143
1.1339
1.12592
1.1271
1.12864
1.13053
1.12561
1.12611
1.12697
1.12821
1.12651
1.12664
1.12714
1.12924
1.12887
1.1277
1.12915
1.12881
1.13072
1.13231
1.1316
1.13018
1.13316
1.13815
1.13946
1.13565
1.134
1.13481
1.13645
1.14921
1.15394
1.14116
1.14345
1.17071
1.17205
1.17149
1.15982
1.16551
1.16687
1.16669
1.16658
1.16653
1.16654
1.16658
1.16664
1.16671
1.16679
1.16689
1.16702
1.16717
1.16731
1.16745
1.16755
1.16762
1.16766
1.16769
1.16771
1.16768
1.1667
1.16154
1.15383
1.1508
1.15239
1.15756
1.1646
1.16847
1.16921
1.16915
1.16932
1.16927
1.16924
1.16931
1.16883
1.16909
1.16782
1.16845
1.16462
1.16569
1.16013
1.16284
1.155
1.15709
1.14929
1.14914
1.14696
1.14854
1.14514
1.14575
1.14485
1.14205
1.14348
1.14478
1.1444
1.13272
1.13514
1.13769
1.14009
1.12981
1.13173
1.13392
1.13623
1.12802
1.1293
1.13092
1.13285
1.12815
1.12902
1.1303
1.12998
1.13014
1.12993
1.13184
1.13077
1.13124
1.13256
1.13232
1.13118
1.13352
1.13729
1.13827
1.13554
1.13441
1.13517
1.13617
1.14656
1.15067
1.13958
1.14142
1.16869
1.17171
1.16992
1.15554
1.16
1.16662
1.16648
1.16643
1.16643
1.16648
1.16655
1.16663
1.16671
1.16681
1.16693
1.16708
1.16723
1.16736
1.16742
1.16739
1.16728
1.16716
1.16708
1.16692
1.16602
1.16139
1.15388
1.1506
1.15149
1.15603
1.16298
1.1679
1.16908
1.16932
1.16924
1.16935
1.16937
1.16902
1.16926
1.16799
1.1686
1.16648
1.16725
1.15947
1.16043
1.15836
1.159
1.14813
1.14678
1.13414
1.13024
1.14219
1.13835
1.1446
1.1441
1.13219
1.12898
1.14306
1.1428
1.14006
1.14173
1.13848
1.14043
1.14189
1.14283
1.13496
1.13708
1.139
1.14055
1.13191
1.13379
1.13573
1.13755
1.13114
1.1327
1.13444
1.13159
1.13242
1.13324
1.1349
1.13359
1.13245
1.13339
1.13364
1.13298
1.13436
1.13675
1.13739
1.13575
1.13517
1.13571
1.13617
1.14398
1.14727
1.1383
1.13967
1.1637
1.16779
1.16447
1.15077
1.15334
1.1664
1.16633
1.16633
1.16637
1.16645
1.16654
1.16663
1.16673
1.16685
1.16699
1.16713
1.16725
1.1672
1.16689
1.16635
1.16585
1.16558
1.16527
1.16427
1.1607
1.15374
1.15046
1.1509
1.15495
1.16165
1.16731
1.16889
1.16929
1.16923
1.16941
1.16938
1.16926
1.16939
1.16822
1.16892
1.16555
1.1671
1.16193
1.16374
1.14654
1.14877
1.14581
1.14577
1.12677
1.12439
1.108
1.10434
1.12607
1.12289
1.11313
1.13785
1.13522
1.11984
1.11646
1.13852
1.13623
1.13026
1.13345
1.14145
1.14165
1.14128
1.14024
1.13905
1.13995
1.14018
1.13997
1.13615
1.1376
1.13844
1.13868
1.13479
1.13622
1.13708
1.13386
1.13487
1.13589
1.13567
1.13546
1.1342
1.13464
1.13502
1.13486
1.13535
1.13644
1.13679
1.13603
1.13581
1.13601
1.13614
1.14168
1.14413
1.13734
1.13825
1.15385
1.15308
1.15172
1.14638
1.1472
1.16624
1.16622
1.16626
1.16635
1.16644
1.16654
1.16664
1.16676
1.16691
1.16705
1.16709
1.16678
1.16578
1.16453
1.16375
1.16339
1.16301
1.16188
1.15882
1.15322
1.15033
1.15062
1.15434
1.16073
1.16678
1.16869
1.16918
1.16941
1.16931
1.16943
1.16945
1.16887
1.16929
1.16621
1.16793
1.16011
1.16357
1.15223
1.15617
1.12637
1.13074
1.12377
1.12438
1.10161
1.09988
1.09363
1.092
1.08705
1.11341
1.11133
1.09497
1.09731
1.12684
1.12336
1.10777
1.10469
1.12907
1.12555
1.1182
1.1219
1.13899
1.13733
1.13509
1.13232
1.13857
1.13785
1.13638
1.13421
1.13737
1.13737
1.13689
1.13571
1.1363
1.1364
1.13615
1.1352
1.13532
1.13562
1.13439
1.13508
1.13524
1.13549
1.13546
1.13526
1.13578
1.13622
1.13631
1.13605
1.1359
1.13593
1.13601
1.13971
1.14143
1.13652
1.137
1.14563
1.14604
1.14265
1.14267
1.14255
1.16613
1.16616
1.16623
1.16634
1.16645
1.16656
1.16668
1.16682
1.16695
1.16691
1.1662
1.16441
1.16257
1.16151
1.16098
1.16037
1.15907
1.15596
1.15213
1.1501
1.15061
1.1542
1.1603
1.16639
1.16853
1.16906
1.16936
1.16929
1.16948
1.16945
1.16934
1.16947
1.16784
1.16891
1.16194
1.16566
1.15011
1.15662
1.13648
1.14314
1.104
1.10952
1.09999
1.10105
1.08619
1.08637
1.08703
1.08594
1.08272
1.08251
1.10194
1.09945
1.08822
1.08957
1.11458
1.11111
1.09768
1.09524
1.11742
1.11368
1.10664
1.11007
1.13147
1.12833
1.12487
1.1212
1.13381
1.13114
1.12792
1.12442
1.13524
1.13367
1.13128
1.12813
1.13508
1.13387
1.13189
1.13489
1.13417
1.13299
1.13015
1.13266
1.13507
1.1355
1.13496
1.13442
1.13556
1.1359
1.13572
1.13585
1.13553
1.13541
1.13564
1.13797
1.139
1.13558
1.13573
1.14069
1.1487
1.14049
1.13952
1.13908
1.16606
1.16612
1.16623
1.16635
1.16647
1.16659
1.16673
1.16683
1.16676
1.16565
1.16307
1.16067
1.15928
1.1585
1.15762
1.15588
1.15345
1.15116
1.15007
1.15076
1.15436
1.16032
1.1662
1.16842
1.16894
1.16923
1.16945
1.16936
1.1695
1.1695
1.16905
1.16942
1.16565
1.168
1.15438
1.16125
1.13533
1.14538
1.11677
1.1255
1.09003
1.09318
1.08701
1.08815
1.08259
1.0828
1.08325
1.0833
1.08289
1.08185
1.08195
1.09311
1.09121
1.08387
1.08464
1.10342
1.10044
1.09013
1.08838
1.10622
1.10289
1.09701
1.09981
1.12078
1.11709
1.11338
1.10974
1.12457
1.12082
1.11701
1.11324
1.12898
1.1254
1.12152
1.11755
1.13063
1.12725
1.1232
1.13299
1.13058
1.12644
1.12203
1.12683
1.13378
1.13475
1.13315
1.1317
1.13453
1.13529
1.13481
1.13515
1.13428
1.13397
1.1347
1.13619
1.13665
1.13438
1.13417
1.13774
1.15675
1.14409
1.13678
1.13635
1.16602
1.16611
1.16624
1.16637
1.1665
1.16664
1.16678
1.16666
1.16524
1.16193
1.1589
1.15719
1.15609
1.15489
1.15337
1.15188
1.1507
1.15021
1.15132
1.15501
1.16085
1.16623
1.16835
1.16886
1.16913
1.16937
1.16951
1.16944
1.16949
1.16953
1.16836
1.16923
1.16165
1.16617
1.14333
1.15402
1.11833
1.13083
1.0987
1.10736
1.08669
1.08799
1.08438
1.08552
1.08216
1.08247
1.08431
1.08357
1.08195
1.08183
1.08185
1.08205
1.0869
1.08564
1.08219
1.08255
1.09448
1.09218
1.08544
1.08447
1.0969
1.09431
1.08994
1.09198
1.1096
1.10613
1.10282
1.09974
1.11361
1.10979
1.10619
1.10284
1.11894
1.11471
1.11062
1.10677
1.12193
1.11722
1.11251
1.12833
1.12368
1.11688
1.11269
1.11839
1.13039
1.13258
1.12929
1.12629
1.13208
1.13403
1.13331
1.13344
1.13163
1.13119
1.1328
1.13423
1.13442
1.1326
1.13219
1.13731
1.16612
1.15171
1.13444
1.13442
1.166
1.16612
1.16626
1.16641
1.16655
1.16671
1.16662
1.16507
1.16108
1.1574
1.15529
1.15397
1.15289
1.15204
1.15124
1.15075
1.15077
1.15265
1.15652
1.16222
1.16654
1.16831
1.16879
1.16903
1.16925
1.16952
1.16952
1.16943
1.16956
1.16941
1.16956
1.16708
1.16881
1.15558
1.16307
1.13035
1.14427
1.10374
1.11611
1.09018
1.09481
1.08762
1.08788
1.08606
1.08731
1.08242
1.08294
1.08645
1.08553
1.0817
1.08171
1.08224
1.08284
1.08367
1.08303
1.08178
1.08194
1.08818
1.08667
1.08358
1.08302
1.09016
1.08845
1.08592
1.08705
1.09977
1.09698
1.09441
1.09213
1.10323
1.1
1.09711
1.09459
1.10812
1.10419
1.10073
1.09773
1.11159
1.10665
1.10232
1.12119
1.11525
1.10709
1.10299
1.10892
1.12476
1.12849
1.12348
1.11901
1.12791
1.13199
1.13104
1.1307
1.12748
1.12702
1.12995
1.13212
1.13222
1.13028
1.12985
1.13921
1.16938
1.15872
1.13244
1.13367
1.16599
1.16614
1.16629
1.16645
1.16659
1.16658
1.16505
1.16065
1.15618
1.1537
1.15247
1.15188
1.15142
1.15127
1.15126
1.15222
1.15486
1.1589
1.16381
1.16709
1.16831
1.1687
1.16895
1.16916
1.16936
1.16957
1.16956
1.16951
1.1696
1.16921
1.16954
1.16506
1.16806
1.14796
1.15871
1.1182
1.1336
1.09496
1.10464
1.08849
1.09037
1.09428
1.09266
1.0904
1.0915
1.09499
1.08362
1.08455
1.08931
1.08798
1.08185
1.08195
1.08337
1.08422
1.08256
1.0822
1.08184
1.08192
1.08499
1.08423
1.0831
1.0827
1.08672
1.08581
1.08445
1.08506
1.09244
1.09063
1.0891
1.0878
1.09516
1.09301
1.09131
1.08996
1.09876
1.09597
1.09381
1.09216
1.10204
1.09792
1.09497
1.11231
1.10561
1.0985
1.0979
1.10048
1.11684
1.12228
1.11454
1.1094
1.12141
1.12897
1.12806
1.12637
1.12067
1.12016
1.12553
1.1297
1.12999
1.12726
1.12679
1.14359
1.17152
1.16535
1.13063
1.134
1.16597
1.16616
1.16633
1.16651
1.16654
1.16514
1.1606
1.1554
1.15252
1.15154
1.1513
1.15142
1.15177
1.15275
1.1549
1.15795
1.16177
1.16533
1.16753
1.16831
1.16861
1.16884
1.16906
1.16925
1.16948
1.16962
1.16962
1.16955
1.16962
1.16886
1.16948
1.16242
1.16698
1.14009
1.15357
1.10901
1.12406
1.09204
1.09768
1.09061
1.0903
1.10581
1.10155
1.09477
1.09663
1.10404
1.10356
1.08531
1.08664
1.09292
1.091
1.08226
1.08273
1.08459
1.08574
1.08238
1.08211
1.08214
1.08214
1.08394
1.08352
1.08317
1.08291
1.08565
1.0851
1.08419
1.0846
1.08884
1.08788
1.08705
1.0863
1.09092
1.09002
1.08928
1.08861
1.09306
1.09186
1.09107
1.09053
1.09566
1.094
1.09298
1.10338
1.10037
1.09661
1.09849
1.09904
1.10711
1.11271
1.10645
1.1031
1.11206
1.12464
1.12364
1.11964
1.1123
1.11269
1.119
1.12695
1.12761
1.12301
1.12305
1.1488
1.17198
1.1695
1.1292
1.13543
1.16595
1.16618
1.1664
1.16647
1.16545
1.16077
1.15515
1.15175
1.15096
1.15102
1.15171
1.15317
1.15551
1.15835
1.16144
1.16432
1.16657
1.16783
1.16831
1.16854
1.16873
1.16896
1.16914
1.16936
1.16959
1.16961
1.16951
1.16966
1.16967
1.16963
1.16841
1.16937
1.15956
1.1657
1.13341
1.1486
1.1034
1.11713
1.09271
1.09527
1.0963
1.09295
1.1114
1.11632
1.11358
1.11112
1.10002
1.10217
1.11078
1.08728
1.08908
1.09739
1.09459
1.08322
1.08378
1.0858
1.08735
1.08256
1.08233
1.08284
1.08272
1.08383
1.08352
1.08363
1.08323
1.08564
1.08522
1.08455
1.08484
1.08795
1.08732
1.08674
1.08616
1.09017
1.08992
1.08964
1.0893
1.09246
1.09215
1.09198
1.09189
1.0961
1.09604
1.09638
1.10127
1.10047
1.09844
1.09985
1.10024
1.10376
1.10707
1.10499
1.10271
1.10799
1.11822
1.11786
1.11289
1.10895
1.10973
1.11284
1.12376
1.12537
1.11807
1.11907
1.15526
1.17205
1.17107
1.12837
1.138
1.16592
1.16623
1.16639
1.16582
1.16141
1.15522
1.1513
1.15048
1.15094
1.15247
1.15519
1.15854
1.16177
1.16422
1.16606
1.16731
1.16796
1.16829
1.16846
1.16863
1.16884
1.16905
1.16923
1.16945
1.16965
1.16962
1.16956
1.16969
1.16971
1.16962
1.16793
1.16924
1.15703
1.16445
1.12882
1.14466
1.10129
1.11321
1.09519
1.09611
1.10341
1.09746
1.11747
1.12187
1.11914
1.11862
1.10634
1.10918
1.11775
1.0894
1.09188
1.10273
1.09884
1.08406
1.08473
1.08704
1.08896
1.08288
1.08267
1.08368
1.08347
1.08425
1.08399
1.08418
1.08387
1.08636
1.08594
1.08521
1.08553
1.08875
1.08808
1.08759
1.08696
1.09188
1.09179
1.09167
1.09138
1.09672
1.09647
1.09646
1.096
1.09845
1.09761
1.11688
1.10238
1.10202
1.11635
1.11514
1.11612
1.10453
1.10633
1.10587
1.10385
1.10756
1.11286
1.11301
1.11024
1.1086
1.10942
1.11051
1.12077
1.12335
1.1137
1.11506
1.16088
1.17205
1.17139
1.12799
1.14082
1.16591
1.16628
1.16605
1.16259
1.15561
1.15117
1.15007
1.15087
1.15339
1.15698
1.16096
1.16403
1.16588
1.16698
1.16763
1.16799
1.16822
1.16839
1.16854
1.16871
1.16893
1.16911
1.16931
1.1695
1.16969
1.16965
1.16959
1.16972
1.16974
1.16961
1.16758
1.16913
1.15548
1.16361
1.12686
1.14254
1.10233
1.11226
1.09877
1.09877
1.10975
1.1025
1.12372
1.12633
1.12285
1.12637
1.12476
1.11948
1.1132
1.11632
1.12421
1.09166
1.09505
1.10867
1.10357
1.08499
1.08579
1.0885
1.09081
1.08359
1.08346
1.08455
1.08438
1.08498
1.08447
1.08535
1.08487
1.08738
1.08684
1.08612
1.08653
1.09078
1.08949
1.089
1.08821
1.09565
1.09503
1.09469
1.09422
1.1171
1.11589
1.11673
1.1166
1.11639
1.11472
1.13244
1.11668
1.116
1.13172
1.13133
1.13132
1.11718
1.1072
1.11755
1.11521
1.10832
1.11059
1.11079
1.10992
1.10924
1.11006
1.11001
1.11764
1.12155
1.11087
1.11219
1.16245
1.17234
1.17099
1.12776
1.14127
1.16594
1.16609
1.16383
1.15665
1.15124
1.14973
1.15071
1.15391
1.15823
1.16236
1.16504
1.16657
1.16732
1.16771
1.16797
1.16813
1.1683
1.16846
1.1686
1.16879
1.169
1.16918
1.16937
1.16953
1.16961
1.16972
1.16967
1.16974
1.16976
1.16962
1.16753
1.16912
1.15538
1.16351
1.12784
1.14272
1.10576
1.11438
1.1035
1.10281
1.11466
1.10747
1.12877
1.12996
1.1288
1.12673
1.12235
1.11974
1.12299
1.12959
1.09413
1.09852
1.11461
1.10836
1.08608
1.08699
1.09011
1.09292
1.08458
1.08437
1.08558
1.0854
1.08582
1.08558
1.08687
1.08629
1.09018
1.08936
1.08834
1.08894
1.09409
1.09312
1.09099
1.09115
1.11705
1.1171
1.11748
1.11792
1.13301
1.13245
1.13327
1.13346
1.13192
1.13135
1.14936
1.13141
1.13154
1.14868
1.14843
1.14834
1.13128
1.11806
1.13127
1.13076
1.11841
1.1099
1.1095
1.11038
1.11877
1.11935
1.11047
1.11505
1.11982
1.10991
1.1104
1.16036
0.939629
1.16219
1.12716
1.13993
1.1659
1.16481
1.15839
1.15161
1.14947
1.15043
1.15393
1.15877
1.16268
1.16519
1.16667
1.16736
1.16769
1.16789
1.16804
1.1682
1.16836
1.16851
1.16865
1.16887
1.16905
1.16924
1.16939
1.16956
1.16962
1.16964
1.16974
1.16969
1.16976
1.16979
1.16966
1.16776
1.1692
1.1568
1.16414
1.13172
1.14529
1.11163
1.11956
1.10987
1.10884
1.12069
1.11617
1.11338
1.13271
1.13263
1.13101
1.12921
1.12492
1.12549
1.12875
1.13391
1.09695
1.10222
1.11987
1.11318
1.08727
1.08832
1.09189
1.09526
1.08572
1.08544
1.08675
1.0866
1.08785
1.08726
1.08893
1.08811
1.09556
1.09459
1.09185
1.09244
1.11798
1.09905
1.09572
1.09624
1.13379
1.134
1.13429
1.13461