/*--------------------------------*- C++ -*----------------------------------*\
  =========                 |
  \\      /  F ield         | OpenFOAM: The Open Source CFD Toolbox
   \\    /   O peration     | Website:  https://openfoam.org
    \\  /    A nd           | Version:  dev
     \\/     M anipulation  |
\*---------------------------------------------------------------------------*/
FoamFile
{
    version     2.0;
    format      ascii;
    class       volScalarField;
    location    "2500";
    object      T;
}
// * * * * * * * * * * * * * * * * * * * * * * * * * * * * * * * * * * * * * //

dimensions      [0 0 0 1 0 0 0];

internalField   nonuniform List<scalar> 
9841
(
300.094
300.133
300.115
300.14
300.205
300.099
300.121
300.247
300.216
300.091
300.109
300.278
300.289
300.196
300.08
300.116
300.278
300.343
300.28
300.172
300.069
300.106
300.238
300.366
300.356
300.254
300.151
300.064
300.105
300.242
300.379
300.411
300.35
300.236
300.13
300.055
300.096
300.228
300.366
300.436
300.41
300.316
300.212
300.124
300.056
300.093
300.213
300.347
300.447
300.465
300.398
300.283
300.191
300.115
300.049
300.081
300.188
300.329
300.444
300.492
300.456
300.36
300.253
300.173
300.108
300.049
300.083
300.19
300.316
300.427
300.505
300.512
300.44
300.323
300.234
300.166
300.105
300.049
300.075
300.165
300.278
300.413
300.516
300.546
300.5
300.398
300.3
300.218
300.153
300.096
300.047
300.078
300.171
300.263
300.399
300.508
300.566
300.549
300.465
300.359
300.281
300.21
300.147
300.094
300.043
300.075
300.161
300.256
300.377
300.494
300.577
300.586
300.533
300.439
300.339
300.26
300.197
300.142
300.092
300.044
300.071
300.151
300.23
300.332
300.481
300.581
300.614
300.582
300.497
300.401
300.321
300.252
300.191
300.141
300.089
300.043
300.069
300.149
300.225
300.317
300.464
300.572
300.629
300.62
300.563
300.47
300.375
300.3
300.24
300.183
300.138
300.09
300.042
300.062
300.141
300.224
300.309
300.412
300.556
300.634
300.651
300.613
300.53
300.429
300.357
300.285
300.232
300.178
300.133
300.089
300.04
300.065
300.135
300.21
300.299
300.403
300.546
300.63
300.669
300.651
300.589
300.495
300.409
300.333
300.272
300.224
300.173
300.131
300.086
300.041
300.059
300.133
300.209
300.289
300.357
300.489
300.623
300.679
300.687
300.64
300.547
300.461
300.383
300.324
300.264
300.218
300.171
300.131
300.085
300.042
300.057
300.126
300.2
300.265
300.354
300.479
300.615
300.684
300.709
300.683
300.609
300.518
300.441
300.367
300.312
300.255
300.211
300.172
300.129
300.086
300.043
300.059
300.121
300.195
300.265
300.351
300.457
300.584
300.682
300.723
300.717
300.668
300.58
300.49
300.418
300.353
300.3
300.253
300.21
300.169
300.127
300.085
300.042
300.057
300.12
300.187
300.249
300.326
300.411
300.556
300.671
300.729
300.744
300.708
300.634
300.546
300.467
300.397
300.346
300.298
300.251
300.209
300.167
300.126
300.083
300.04
300.052
300.116
300.176
300.251
300.314
300.404
300.536
300.649
300.728
300.759
300.744
300.686
300.597
300.514
300.446
300.39
300.337
300.294
300.249
300.207
300.165
300.124
300.084
300.043
300.051
300.113
300.172
300.241
300.308
300.392
300.481
300.636
300.721
300.773
300.776
300.732
300.655
300.563
300.496
300.428
300.379
300.331
300.288
300.246
300.205
300.168
300.128
300.086
300.042
300.05
300.111
300.167
300.231
300.298
300.382
300.451
300.625
300.712
300.776
300.795
300.769
300.702
300.625
300.542
300.479
300.419
300.366
300.323
300.282
300.242
300.204
300.166
300.127
300.086
300.043
300.051
300.105
300.165
300.229
300.293
300.38
300.433
300.596
300.699
300.774
300.809
300.799
300.746
300.67
300.59
300.523
300.459
300.41
300.357
300.322
300.283
300.244
300.206
300.167
300.128
300.085
300.042
300.05
300.101
300.165
300.225
300.282
300.371
300.429
300.558
300.685
300.773
300.819
300.825
300.788
300.712
300.634
300.564
300.505
300.446
300.405
300.36
300.314
300.281
300.244
300.203
300.166
300.129
300.087
300.044
300.048
300.099
300.155
300.221
300.285
300.366
300.438
300.54
300.671
300.754
300.822
300.839
300.82
300.758
300.676
300.611
300.544
300.493
300.44
300.397
300.354
300.319
300.281
300.243
300.207
300.17
300.131
300.087
300.045
300.045
300.095
300.156
300.215
300.272
300.348
300.437
300.525
300.646
300.749
300.828
300.858
300.847
300.801
300.732
300.654
300.589
300.531
300.483
300.434
300.397
300.353
300.317
300.282
300.245
300.205
300.172
300.131
300.089
300.045
300.043
300.096
300.152
300.204
300.27
300.351
300.433
300.52
300.623
300.743
300.822
300.866
300.866
300.836
300.766
300.699
300.631
300.563
300.519
300.472
300.432
300.386
300.354
300.315
300.282
300.246
300.209
300.173
300.134
300.09
300.045
300.039
300.094
300.149
300.21
300.272
300.334
300.426
300.513
300.602
300.708
300.812
300.872
300.887
300.862
300.813
300.733
300.669
300.614
300.552
300.504
300.465
300.428
300.389
300.349
300.316
300.287
300.252
300.216
300.177
300.137
300.092
300.046
300.041
300.091
300.146
300.208
300.258
300.337
300.422
300.505
300.596
300.699
300.802
300.876
300.901
300.892
300.847
300.782
300.715
300.654
300.594
300.547
300.497
300.462
300.421
300.386
300.355
300.321
300.289
300.253
300.217
300.179
300.138
300.094
300.046
300.046
300.089
300.146
300.208
300.269
300.34
300.409
300.478
300.585
300.688
300.778
300.879
300.91
300.914
300.878
300.824
300.749
300.691
300.634
300.583
300.534
300.496
300.459
300.422
300.388
300.356
300.323
300.29
300.257
300.221
300.183
300.14
300.093
300.021
300.049
300.044
300.096
300.134
300.202
300.259
300.34
300.409
300.473
300.571
300.682
300.768
300.873
300.917
300.933
300.912
300.861
300.795
300.729
300.673
300.613
300.572
300.53
300.491
300.454
300.421
300.389
300.358
300.327
300.296
300.263
300.227
300.186
300.131
300.072
300.096
300.021
300.046
300.042
300.091
300.142
300.186
300.271
300.349
300.41
300.457
300.565
300.694
300.767
300.855
300.928
300.947
300.937
300.888
300.838
300.766
300.71
300.658
300.607
300.565
300.525
300.489
300.453
300.421
300.391
300.363
300.333
300.303
300.27
300.232
300.175
300.197
300.121
300.158
300.146
300.071
300.096
300.021
300.046
300.042
300.09
300.149
300.209
300.258
300.343
300.419
300.475
300.587
300.697
300.766
300.843
300.934
300.958
300.958
300.925
300.869
300.804
300.739
300.693
300.641
300.595
300.558
300.521
300.482
300.452
300.423
300.396
300.369
300.341
300.31
300.276
300.222
300.244
300.185
300.121
300.17
300.147
300.071
300.096
300.02
300.046
300.044
300.097
300.15
300.212
300.246
300.356
300.43
300.489
300.572
300.69
300.762
300.84
300.932
300.969
300.975
300.956
300.904
300.843
300.785
300.726
300.678
300.616
300.59
300.553
300.515
300.48
300.454
300.429
300.403
300.377
300.349
300.318
300.268
300.29
300.213
300.24
300.195
300.122
300.173
300.149
300.072
300.097
300.02
300.047
300.044
300.104
300.155
300.195
300.281
300.322
300.447
300.51
300.585
300.693
300.771
300.846
300.934
300.978
300.994
300.978
300.938
300.882
300.819
300.759
300.715
300.666
300.615
300.58
300.545
300.513
300.482
300.459
300.436
300.412
300.386
300.357
300.313
300.333
300.266
300.291
300.221
300.247
300.2
300.123
300.176
300.151
300.072
300.098
300.021
300.047
300.046
300.102
300.16
300.232
300.317
300.343
300.477
300.518
300.603
300.692
300.782
300.85
300.94
300.986
301.007
300.999
300.964
300.911
300.854
300.798
300.746
300.704
300.659
300.602
300.573
300.542
300.514
300.487
300.467
300.445
300.421
300.395
300.354
300.374
300.314
300.337
300.272
300.297
300.227
300.254
300.204
300.125
300.179
300.153
300.073
300.099
300.021
300.048
300.047
300.099
300.148
300.242
300.297
300.393
300.48
300.55
300.636
300.705
300.795
300.864
300.941
300.993
301.019
301.019
300.992
300.939
300.887
300.833
300.775
300.731
300.677
300.647
300.601
300.573
300.543
300.519
300.495
300.476
300.456
300.431
300.394
300.412
300.359
300.38
300.321
300.344
300.28
300.305
300.233
300.261
300.209
300.127
300.183
300.157
300.074
300.101
300.021
300.048
300.047
300.101
300.145
300.215
300.332
300.428
300.482
300.55
300.648
300.725
300.806
300.878
300.945
301
301.03
301.037
301.018
300.977
300.915
300.866
300.81
300.756
300.718
300.676
300.643
300.597
300.573
300.549
300.529
300.509
300.491
300.471
300.433
300.454
300.4
300.422
300.366
300.388
300.33
300.353
300.288
300.314
300.238
300.268
300.214
300.13
300.188
300.16
300.075
300.103
300.021
300.049
300.047
300.106
300.147
300.213
300.374
300.441
300.509
300.564
300.68
300.751
300.824
300.889
300.952
301.007
301.041
301.052
301.04
301.001
300.953
300.89
300.842
300.791
300.738
300.709
300.672
300.645
300.597
300.577
300.565
300.563
300.559
300.548
300.483
300.533
300.446
300.478
300.411
300.438
300.377
300.402
300.34
300.365
300.296
300.324
300.245
300.276
300.22
300.133
300.193
300.165
300.076
300.105
300.022
300.05
300.049
300.11
300.152
300.225
300.4
300.459
300.535
300.584
300.724
300.787
300.851
300.907
300.967
301.016
301.05
301.068
301.056
301.029
300.976
300.929
300.874
300.822
300.771
300.729
300.703
300.673
300.639
300.61
300.614
300.668
300.754
300.847
300.644
300.935
300.535
300.67
300.475
300.544
300.431
300.475
300.392
300.426
300.352
300.383
300.307
300.339
300.253
300.287
300.228
300.136
300.201
300.171
300.078
300.108
300.022
300.051
300.052
300.116
300.16
300.253
300.428
300.482
300.538
300.636
300.747
300.816
300.878
300.929
300.985
301.031
301.063
301.083
301.077
301.052
301.009
300.951
300.902
300.846
300.802
300.757
300.719
300.696
300.675
300.656
300.7
300.875
301.261
301.71
301.464
302.149
300.997
301.676
300.708
301.103
300.559
300.758
300.478
300.585
300.423
300.489
300.374
300.424
300.323
300.366
300.265
300.306
300.24
300.141
300.211
300.181
300.08
300.112
300.024
300.053
300.055
300.122
300.172
300.291
300.458
300.506
300.559
300.676
300.745
300.853
300.911
300.954
301.004
301.046
301.078
301.097
301.096
301.073
301.034
300.989
300.931
300.877
300.833
300.789
300.748
300.72
300.707
300.711
300.818
301.191
301.999
303.171
304.246
302.447
303.611
301.8
302.674
301.216
301.939
300.83
301.36
300.63
300.95
300.513
300.708
300.431
300.559
300.358
300.445
300.285
300.349
300.261
300.149
300.232
300.198
300.083
300.117
300.025
300.056
300.06
300.129
300.187
300.337
300.485
300.53
300.6
300.709
300.774
300.891
300.933
300.983
301.027
301.067
301.094
301.114
301.114
301.094
301.061
301.014
300.956
300.91
300.86
300.822
300.78
300.737
300.716
300.728
300.898
301.54
302.808
304.491
305.964
305.565
306.648
303.635
304.654
302.806
303.789
302.096
302.962
301.554
302.309
301.145
301.818
300.845
301.436
300.635
301.071
300.467
300.746
300.337
300.493
300.317
300.162
300.285
300.244
300.087
300.126
300.027
300.059
300.067
300.137
300.208
300.393
300.505
300.555
300.643
300.742
300.82
300.92
300.972
301.011
301.05
301.086
301.112
301.129
301.133
301.118
301.082
301.041
300.988
300.942
300.894
300.853
300.813
300.772
300.737
300.737
300.912
301.746
303.556
305.622
307.43
307.415
308.207
306.885
307.803
304.827
305.871
303.924
304.969
303.175
304.124
302.614
303.494
302.191
303.043
301.821
302.69
301.385
302.305
300.877
301.736
300.508
300.993
300.496
300.196
300.458
300.391
300.094
300.148
300.029
300.063
300.078
300.148
300.242
300.434
300.515
300.582
300.686
300.782
300.858
300.95
301.007
301.043
301.072
301.105
301.13
301.143
301.149
301.136
301.111
301.064
301.018
300.972
300.93
300.881
300.847
300.805
300.768
300.752
300.907
301.758
303.952
306.195
307.725
308.626
308.829
308.585
309.132
308.053
308.9
306.039
307.082
305.137
306.202
304.435
305.423
303.957
304.906
303.624
304.588
303.316
304.353
302.864
304.038
302.079
303.443
301.059
302.358
301.066
300.304
301.001
300.851
300.105
300.21
300.031
300.068
300.078
300.181
300.314
300.478
300.543
300.623
300.73
300.822
300.896
300.984
301.043
301.07
301.1
301.131
301.152
301.165
301.165
301.157
301.13
301.09
301.046
301.001
300.96
300.917
300.876
300.841
300.8
300.774
300.888
301.711
303.938
306.02
307.225
308.522
309.388
309.423
309.549
309.908
309.154
309.888
307.262
308.26
306.449
307.493
305.876
306.863
305.561
306.528
305.389
306.399
305.208
306.322
304.82
306.12
303.993
305.581
302.536
304.462
302.584
300.627
302.434
302.022
300.131
300.391
300.032
300.077
300.189
300.412
300.519
300.572
300.668
300.771
300.861
300.932
301.02
301.085
301.105
301.127
301.156
301.171
301.184
301.183
301.174
301.151
301.115
301.073
301.029
300.988
300.949
300.905
300.873
300.834
300.8
300.86
301.57
303.799
305.666
306.38
306.828
308.993
307.43
309.933
309.705
310.372
310.517
310.189
310.775
308.497
309.408
307.863
308.838
307.483
308.424
307.37
308.295
307.369
308.333
307.311
308.359
306.999
308.212
306.227
307.723
304.768
306.703
304.883
301.467
304.724
304.139
300.202
300.87
300.033
300.089
300.452
300.551
300.601
300.707
300.809
300.895
300.965
301.056
301.12
301.135
301.159
301.179
301.193
301.201
301.202
301.193
301.171
301.138
301.099
301.056
301.015
300.978
300.939
300.897
300.867
300.829
300.847
301.354
303.47
305.388
305.82
305.225
306.018
304.471
308.483
306.66
310.414
309.843
311.063
311.051
311.153
311.553
309.739
310.523
309.342
310.193
309.169
309.995
309.207
310.002
309.28
310.091
309.238
310.092
308.936
309.903
308.239
309.417
306.953
308.537
306.972
303.163
306.683
306.188
304.877
300.356
301.772
300.034
300.105
300.621
300.64
300.744
300.841
300.927
300.995
301.09
301.155
301.169
301.187
301.205
301.216
301.222
301.22
301.213
301.192
301.161
301.123
301.082
301.042
301.004
300.969
300.928
300.895
300.862
300.848
301.166
302.946
305.156
305.537
304.52
302.424
304.777
303.005
307.914
305.74
310.699
309.69
311.647
311.448
312.009
312.184
310.944
311.564
310.765
311.452
310.731
311.403
310.8
311.432
310.817
311.446
310.689
311.338
310.34
311.067
309.689
310.557
308.607
309.725
309.218
307.694
308.465
305.721
303.709
305.251
307.239
308.141
308.295
306.932
300.595
304.517
303.692
301.949
300.034
300.098
300.698
300.781
300.874
300.956
301.026
301.122
301.187
301.203
301.218
301.232
301.241
301.244
301.241
301.232
301.213
301.184
301.147
301.107
301.068
301.03
300.996
300.961
300.919
300.894
300.867
301.037
302.389
304.881
305.4
304.447
302.228
301.579
301.202
303.645
302.19
307.213
304.813
310.777
309.305
312.043
311.566
312.61
312.49
312.037
312.46
312.007
312.525
312.002
312.523
311.996
312.491
311.897
312.401
311.669
312.193
310.891
311.208
311.503
311.79
310.166
310.57
311.244
311.256
310.922
309.685
309.094
309.643
310.153
308.992
306.527
305.993
307.893
308.657
308.844
307.583
302.517
300.502
301.547
305.291
304.377
300.031
300.651
300.221
300.07
300.823
300.905
300.985
301.053
301.153
301.215
301.234
301.25
301.261
301.267
301.267
301.262
301.252
301.233
301.206
301.171
301.131
301.092
301.056
301.022
300.989
300.952
300.915
300.896
300.971
301.92
304.473
305.333
304.566
302.479
301.117
301.147
300.966
302.792
301.64
306.367
303.986
310.47
308.685
312.114
311.243
312.815
312.445
312.855
312.926
312.941
313.149
312.924
313.21
312.842
313.171
312.65
313.007
312.049
312.295
312.512
312.707
311.552
311.831
312.093
310.551
310.903
311.559
311.525
311.225
310.098
309.549
310.012
310.494
309.421
307.179
306.651
308.415
309.257
309.059
308.108
303.304
302.051
305.955
305.07
300.076
300.014
300.032
300.944
300.32
300.937
301.011
301.082
301.182
301.24
301.262
301.28
301.29
301.293
301.291
301.284
301.273
301.254
301.227
301.193
301.155
301.116
301.08
301.047
301.014
300.982
300.945
300.921
300.952
301.58
303.911
305.264
304.84
303.086
301.414
300.836
300.855
300.978
300.854
302.26
301.351
305.357
303.229
309.748
307.723
311.618
310.265
312.507
311.579
313.139
312.977
313.32
313.247
313.353
313.368
313.247
313.335
312.863
312.98
313.061
313.077
312.324
312.528
312.692
312.82
311.836
312.086
312.301
310.844
311.161
311.794
311.704
311.45
310.404
309.891
310.282
310.75
309.739
307.718
307.21
308.817
309.559
309.351
308.521
303.975
302.685
306.549
305.696
300.088
300.011
300.03
301.355
300.468
301.035
301.105
301.209
301.261
301.289
301.309
301.319
301.32
301.315
301.306
301.293
301.275
301.248
301.214
301.177
301.14
301.104
301.071
301.04
301.012
300.981
300.945
300.959
301.381
303.34
305.154
305.105
303.72
302.007
300.894
300.775
300.775
300.869
300.792
301.835
301.14
304.094
302.347
308.465
306.296
310.228
308.501
311.104
309.625
312.935
312.245
313.15
312.565
313.159
312.625
313.05
312.935
312.771
312.484
312.899
312.921
312.881
312.764
312.476
312.61
312.691
312.71
312.027
312.217
312.359
311.061
311.337
311.914
311.745
311.568
310.622
310.133
310.466
310.925
309.957
308.154
307.682
309.111
309.761
309.548
308.833
304.618
303.312
307.067
306.262
300.112
300.009
300.032
301.821
300.641
301.126
301.228
301.279
301.314
301.337
301.347
301.347
301.34
301.329
301.315
301.295
301.269
301.236
301.199
301.162
301.128
301.095
301.067
301.041
301.014
300.983
300.983
301.31
302.91
304.974
305.283
304.265
302.637
301.119
300.753
300.776
300.747
300.744
300.808
300.761
301.366
300.952
302.583
301.582
306.502
304.356
307.854
305.898
308.426
306.68
311.544
310.143
311.639
310.147
311.445
310.029
312.575
312.295
311.94
311.562
312.664
312.54
312.33
312.029
312.442
312.462
312.414
312.281
312.07
312.165
312.192
311.183
311.385
311.861
311.592
311.53
310.755
310.286
310.558
310.99
310.085
308.498
308.077
309.317
309.876
309.66
309.066
305.226
303.92
307.53
306.811
300.174
300.009
300.055
302.339
300.968
301.242
301.296
301.337
301.363
301.374
301.373
301.365
301.352
301.336
301.316
301.291
301.257
301.221
301.183
301.149
301.12
301.095
301.072
301.051
301.031
301.024
301.311
302.706
304.77
305.388
304.702
303.206
301.468
300.804
300.727
300.739
300.724
300.722
300.789
300.743
301.108
300.889
301.878
301.369
304.047
302.71
305.141
303.95
305.941
305.081
308.478
307.009
308.36
307.122
309.16
308.419
307.249
307.806
311.635
311.148
310.57
309.907
312.058
311.74
311.322
310.812
312.146
312.008
311.774
311.44
311.901
311.867
311.73
311.166
311.265
311.581
311.189
311.282
310.768
310.34
310.53
310.912
310.113
308.78
308.434
309.447
309.888
309.672
309.233
305.866
304.636
307.983
307.376
300.351
300.014
300.155
303.12
301.667
301.311
301.358
301.389
301.401
301.4
301.39
301.375
301.357
301.337
301.312
301.28
301.241
301.205
301.172
301.146
301.129
301.118
301.111
301.105
301.113
301.36
302.673
304.657
305.446
305.032
303.697
301.898
300.915
300.727
300.742
300.701
300.712
300.721
300.704
300.824
300.759
301.08
300.921
301.892
301.62
303.038
302.345
304.357
303.819
305.838
305.876
306.449
306.036
306.926
306.765
307
307.742
307.364
307.02
307.121
310.223
309.575
308.896
308.26
311.008
310.489
309.904
309.286
311.491
311.147
310.708
310.191
311.457
311.222
310.878
310.966
310.923
310.977
310.464
310.751
310.629
310.273
310.337
310.642
310.017
309.01
308.75
309.476
309.778
309.576
309.308
306.559
305.486
308.402
307.912
300.861
300.098
300.549
304.221
303.073
301.376
301.412
301.427
301.427
301.416
301.399
301.379
301.358
301.333
301.302
301.265
301.226
301.194
301.179
301.186
301.213
301.244
301.265
301.304
301.532
302.712
304.646
305.496
305.266
304.09
302.308
301.06
300.76
300.699
300.72
300.691
300.687
300.776
300.716
301.037
300.883
301.418
301.224
303.204
302.959
303.491
303.326
306.139
306.49
309.835
310.88
307.699
308.713
307.067
307.199
310.359
311.22
307.472
307.542
308.262
307.823
308.687
308.169
307.783
307.534
309.624
309.059
308.549
308.138
310.442
309.94
309.42
308.935
310.65
310.231
309.765
310.532
310.31
310.087
309.641
309.993
310.303
310.05
309.984
310.158
309.79
309.152
308.982
309.419
309.575
309.429
309.307
307.238
306.373
308.741
308.376
302.127
301.087
301.93
305.459
304.791
301.432
301.452
301.454
301.442
301.423
301.401
301.379
301.354
301.323
301.286
301.251
301.222
301.234
301.312
301.449
301.576
301.644
301.724
301.977
302.889
304.68
305.532
305.418
304.371
302.648
301.209
300.808
300.707
300.721
300.675
300.685
300.713
300.681
300.976
300.801
301.652
301.26
302.575
302.114
306.553
305.969
306.744
306.753
311.816
312.461
316.981
318.006
312.007
312.871
315.551
308.848
309.547
313.704
314.632
308.671
309.28
310.876
310.022
307.898
307.846
307.941
308.215
308.535
308.295
308.235
308.288
309.309
308.921
308.697
308.633
309.671
309.288
309.059
309.921
309.651
309.375
309.434
309.492
309.832
309.714
309.612
309.653
309.525
309.236
309.143
309.345
309.402
309.348
309.315
307.844
307.196
308.997
308.754
304.659
304.858
305.212
306.607
306.392
301.474
301.48
301.47
301.449
301.425
301.401
301.375
301.345
301.308
301.27
301.261
301.34
301.592
301.909
302.11
302.2
302.299
302.586
303.369
304.815
305.568
305.491
304.527
302.884
301.343
300.858
300.733
300.677
300.701
300.671
300.665
300.812
300.706
301.485
301.05
303.038
302.154
305.069
304.051
311.924
310.745
312.631
312.465
318.776
319.266
321.045
321.514
322.942
315.474
316.051
320.661
319.994
311.798
312.742
317.041
317.905
311.197
312.149
314.152
313.141
308.548
308.987
309.584
310.324
308.66
308.851
309.24
309.818
308.982
308.981
309.107
309.421
309.266
309.238
309.303
309.562
309.529
309.446
309.775
309.591
309.552
309.485
309.492
309.545
309.407
309.294
309.27
309.337
309.378
309.369
309.348
308.366
307.909
309.215
309.087
306.803
306.696
307.589
307.582
307.614
301.503
301.497
301.477
301.449
301.423
301.396
301.366
301.33
301.295
301.306
301.487
301.94
302.408
302.68
302.816
302.971
303.304
304.105
305.097
305.625
305.494
304.562
302.993
301.442
300.898
300.765
300.687
300.706
300.658
300.666
300.692
300.66
301.071
300.8
302.569
301.624
305.619
303.933
309.209
307.444
318.105
316.557
319.236
318.937
323.192
323.141
322.944
323.262
324.196
324.258
318.679
319.385
322.6
322.209
315.151
316.112
319.885
320.58
314.366
315.398
317.357
316.4
310.551
311.395
312.333
313.329
309.927
310.641
311.508
312.454
309.545
309.964
310.602
311.45
309.589
309.91
310.439
309.642
309.833
310.147
310.907
310.236
309.595
309.483
309.623
309.767
309.467
309.38
309.426
309.389
309.474
309.507
309.446
308.829
308.554
309.464
309.425
308.105
305.998
308.159
308.417
308.532
301.521
301.505
301.478
301.447
301.418
301.387
301.351
301.326
301.345
301.625
302.282
302.895
303.25
303.451
303.676
304.124
304.753
305.349
305.634
305.453
304.52
302.988
301.488
300.927
300.793
300.72
300.665
300.688
300.651
300.653
300.766
300.673
301.626
301.03
304.512
302.747
309.516
306.857
314.548
312.162
322.085
321.182
322.956
322.628
324.238
324.176
324.047
324.026
324.148
324.449
324.422
321.191
321.737
323.859
323.636
318.261
319.103
322.044
322.547
317.472
318.407
320.073
319.278
313.444
314.455
315.479
316.488
312.413
313.433
314.477
315.516
311.22
312.187
313.241
314.326
310.779
311.686
312.783
310.149
310.792
311.904
313.101
311.801
309.938
309.68
310.105
310.492
309.739
309.54
309.669
309.577
309.804
309.89
309.695
309.301
309.178
309.784
309.839
308.887
303.907
307.208
309.144
309.258
301.531
301.508
301.476
301.442
301.409
301.375
301.338
301.368
301.728
302.572
303.347
303.787
304.07
304.378
304.772
305.161
305.468
305.596
305.307
304.353
302.851
301.481
300.944
300.814
300.746
300.685
300.65
300.666
300.654
300.644
300.938
300.72
302.642
301.493
307.394
304.606
314.119
310.722
319.605
317.162
323.05
322.677
323.718
323.39
324.359
324.27
323.736
323.951
324.417
324.453
324.447
324.39
322.978
323.343
324.345
324.241
320.796
321.454
323.395
323.678
320.1
320.839
322.094
321.507
316.526
317.494
318.425
319.295
315.412
316.47
317.476
318.417
313.946
315.106
316.238
317.309
313.129
314.416
315.713
311.397
312.652
314.509
315.662
314.094
310.843
310.257
311.141
311.948
310.392
309.875
310.069
310.031
310.513
310.632
310.204
309.824
309.772
310.259
310.37
309.003
301.512
305.212
309.767
309.772
301.537
301.506
301.47
301.434
301.396
301.357
301.378
301.773
302.789
303.731
304.275
304.617
304.897
305.118
305.326
305.455
305.449
304.962
303.962
302.499
301.401
300.953
300.831
300.77
300.715
300.647
300.648
300.669
300.638
300.674
300.637
301.264
300.826
304.201
302.281
310.85
307.147
318.182
314.731
322.046
320.716
322.781
322.707
323.227
322.868
324.282
324.134
323.11
323.377
324.49
324.487
324.331
324.157
323.911
324.099
324.465
324.417
322.6
323.039
323.932
324.096
322.025
322.518
323.25
322.922
319.282
320.074
320.806
321.458
318.303
319.213
320.031
320.748
316.932
318.03
319.004
319.852
315.967
317.34
318.551
313.33
314.957
317.217
318.362
316.708
312.362
311.355
312.708
313.926
311.514
310.421
310.676
310.764
311.629
311.751
310.966
310.388
310.36
310.88
310.997
308.497
300.687
303.402
310.303
309.972
301.54
301.502
301.462
301.421
301.386
301.388
301.776
302.898
304.045
304.685
305.004
305.158
305.278
305.318
305.32
305.071
304.39
303.35
302.094
301.263
300.954
300.854
300.79
300.737
300.685
300.634
300.636
300.649
300.627
300.725
300.64
301.774
301.014
306.179
303.397
314.158
309.98
320.675
317.928
322.532
321.992
320.859
321.325
321.968
321.653
320.655
323.93
323.662
322.282
322.665
324.442
324.415
323.999
323.754
324.231
324.339
324.446
324.42
323.519
323.743
324.066
324.187
323.01
323.274
323.67
323.493
321.363
321.883
322.323
322.697
320.579
321.193
321.679
322.067
319.554
320.345
320.959
321.429
318.631
319.791
320.624
315.768
317.621
319.619
319.76
319.049
314.52
313.035
315.148
316.564
313.269
311.229
311.475
311.928
313.469
313.604
312.153
311.036
310.957
311.691
311.817
307.337
300.147
301.708
310.786
309.884
301.544
301.496
301.453
301.406
301.4
301.754
302.91
304.246
304.99
305.246
305.308
305.276
305.187
304.933
304.376
303.592
302.615
301.707
301.149
300.952
300.876
300.817
300.762
300.715
300.655
300.621
300.62
300.639
300.62
300.811
300.655
302.446
301.287
308.251
304.72
316.705
312.555
321.513
319.901
321.918
322.012
317.591
318.793
320.714
320.185
318.087
318.221
323.438
323.051
321.244
321.795
324.321
324.185
323.641
323.309
324.281
324.361
324.356
324.354
323.819
323.944
324.043
324.119
323.313
323.474
323.742
323.623
322.39
322.666
322.907
323.126
321.78
322.039
322.25
322.445
321.165
321.502
321.727
321.879
320.412
320.879
321.167
318.231
319.061
320.119
319.573
319.424
317.191
315.642
317.358
318.294
315.813
312.394
312.666
313.744
315.743
315.634
313.917
311.775
311.597
312.835
312.827
305.969
300.032
300.657
311.17
309.501
301.55
301.49
301.435
301.416
301.675
302.866
304.31
305.191
305.395
305.382
305.201
304.825
304.22
303.488
302.698
301.965
301.393
301.075
300.953
300.895
300.845
300.788
300.74
300.687
300.628
300.622
300.648
300.61
300.608
300.618
300.926
300.683
303.178
301.613
310.031
306.014
318.28
314.453
321.321
320.589
320.286
321.249
316.03
314.668
315.428
316.112
319.219
318.613
316.201
322.866
322.346
319.965
320.763
324.038
323.877
323.29
322.843
324.225
324.295
324.149
324.182
323.847
323.937
323.902
324.022
323.31
323.433
323.629
323.541
322.636
322.818
322.987
323.158
321.981
322.05
322.128
322.225
321.309
321.398
321.442
321.463
320.258
320.268
320.158
318.793
319.012
319.582
319.18
319.072
318.091
317.178
317.74
318.379
316.923
314.13
314.229
315.578
316.652
316.437
315.59
312.634
312.2
314.176
313.902
304.292
300.014
300.259
311.391
308.814
301.557
301.478
301.437
301.58
302.701
304.291
305.307
305.521
305.401
305.004
304.301
303.44
302.612
301.987
301.52
301.205
301.04
300.958
300.913
300.87
300.818
300.764
300.719
300.663
300.613
300.62
300.634
300.603
300.598
300.62
301.046
300.717
303.827
301.928
311.267
307.046
318.879
315.538
320.611
320.35
318.272
319.961
314.352
313.148
313.896
314.042
317.439
316.646
314.273
322.251
321.54
318.453
319.553
323.79
323.597
322.927
322.377
324.128
324.192
323.901
323.958
323.716
323.793
323.739
323.831
323.087
323.214
323.43
323.335
322.386
322.583
322.726
322.912
321.466
321.488
321.522
321.608
320.054
320.124
320.124
320.258
319.572
319.811
314.282
318.466
318.563
314.441
314.786
314.511
317.865
317.367
317.491
318.051
317.021
315.585
315.549
316.295
316.732
316.505
316.219
313.443
312.746
315.359
314.994
302.845
300.013
300.18
311.493
308.065
301.56
301.465
301.521
302.4
304.19
305.34
305.627
305.42
304.766
303.84
302.819
302.035
301.568
301.287
301.123
301.033
300.974
300.933
300.893
300.85
300.793
300.749
300.697
300.649
300.601
300.612
300.628
300.596
300.59
300.621
301.135
300.744
304.226
302.142
311.797
307.605
318.585
315.802
319.592
319.594
316.498
318.532
312.643
311.936
312.882
311.928
312.367
313.81
315.527
314.667
312.508
321.599
320.629
316.785
318.214
323.517
323.289
322.506
321.842
323.919
323.958
323.644
323.69
323.498
323.651
323.392
323.536
322.783
322.944
323.16
323.036
321.781
322.161
322.306
322.539
320.357
320.538
320.636
320.772
314.22
314.558
314.321
314.355
314.424
314.894
309.968
314.363
314.548
310.167
310.277
310.281
314.23
317.117
314.134
314.782
316.803
316.198
316.146
316.368
316.546
316.319
316.347
314.292
313.229
316.132
315.774
302.446
299.94
300.28
311.552
307.945
301.55
301.513
302.085
303.921
305.322
305.715
305.459
304.631
303.517
302.462
301.779
301.392
301.201
301.103
301.038
300.996
300.955
300.915
300.878
300.829
300.776
300.731
300.683
300.641
300.623
300.595
300.607
300.59
300.584
300.619
301.148
300.746
304.254
302.169
311.532
307.558
317.62
315.216
318.255
318.45
315.137
317.139
311.275
310.959
311.274
311.836
313.025
313.725
312.838
311.054
320.89
319.64
315.136
316.872
323.2
322.939
322.039
321.236
323.626
323.69
323.341
323.39
323.247
323.32
322.942
323.116
321.957
322.198
322.502
322.323
320.808
321.093
321.717
321.671
314.229
314.214
314.107
313.982
309.81
309.961
309.738
309.686
310.11
310.264
305.406
310.26
310.224
305.589
305.655
305.68
310.301
313.996
310.306
310.442
313.904
316.379
316.499
316.232
313.807
313.649
316.207
314.996
313.699
316.389
316.264
302.979
372.728
302.511
311.713
308.299
301.559
301.837
303.473
305.224
305.783
305.532
304.625
303.378
302.378
301.742
301.366
301.191
301.108
301.058
301.02
300.979
300.938
300.9
300.864
300.809
300.762
300.716
300.676
300.633
300.619
300.614
300.59
300.602
300.584
300.578
300.61
301.089
300.727
303.888
302.007
310.487
306.881
315.98
313.789
316.472
316.759
313.48
314.723
315.493
310.217
310.242
310.679
311.165
312.325
312.16
311.28
309.896
320.087
318.594
313.69
315.53
322.85
322.55
321.525
320.564
323.289
323.377
322.999
323.038
322.648
322.822
322.333
322.577
320.38
320.662
321.469
321.292
313.965
319.362
320.333
320.179
309.595
309.537
309.458
309.37
305.332
305.383