/*--------------------------------*- C++ -*----------------------------------*\
  =========                 |
  \\      /  F ield         | OpenFOAM: The Open Source CFD Toolbox
   \\    /   O peration     | Website:  https://openfoam.org
    \\  /    A nd           | Version:  dev
     \\/     M anipulation  |
\*---------------------------------------------------------------------------*/
FoamFile
{
    version     2.0;
    format      ascii;
    class       volVectorField;
    location    "2500";
    object      U;
}
// * * * * * * * * * * * * * * * * * * * * * * * * * * * * * * * * * * * * * //

dimensions      [0 1 -1 0 0 0 0];

internalField   nonuniform List<vector> 
9841
(
(0.00415759 0.00670613 0)
(0.00979452 0.00605047 -7.58415e-30)
(0.00416508 0.0174748 -2.85454e-28)
(0.0134382 0.00501835 0)
(0.0109195 0.0177236 -7.68291e-28)
(0.00357929 0.0250837 -6.07118e-29)
(0.0162895 0.00408404 6.991e-28)
(0.0152609 0.0171386 0)
(0.0105353 0.0260712 0)
(0.00295895 0.0313929 -4.9078e-37)
(0.0184313 0.00336573 1.3039e-27)
(0.0180439 0.0153901 0)
(0.0159823 0.0268001 0)
(0.00926431 0.0323383 0)
(0.00256389 0.0369169 6.86675e-29)
(0.0201947 0.00279029 6.4099e-28)
(0.0198778 0.0130248 0)
(0.0199171 0.0264355 1.05528e-27)
(0.0152082 0.0338154 -6.65872e-28)
(0.00794883 0.0376356 7.21002e-29)
(0.00226667 0.0418417 -6.62843e-28)
(0.0218152 0.00235114 0)
(0.0213452 0.010725 0)
(0.0225022 0.0249646 1.19596e-27)
(0.0201586 0.0349012 -2.6089e-29)
(0.0135301 0.0391178 -3.56384e-28)
(0.00696331 0.0424015 -6.05085e-29)
(0.00203358 0.0463007 0)
(0.0233066 0.00203841 0)
(0.0226622 0.00889224 0)
(0.0240323 0.022712 0)
(0.0239059 0.0350089 2.23834e-27)
(0.0189127 0.040942 0)
(0.0118302 0.043662 6.76943e-30)
(0.00619062 0.0467227 -7.2606e-28)
(0.00183812 0.0503579 0)
(0.0247192 0.00183192 0)
(0.0238885 0.00762647 2.4559e-28)
(0.0249007 0.0200091 -6.18424e-28)
(0.0264132 0.0339395 1.2447e-27)
(0.0235967 0.0424188 0)
(0.0168877 0.0454835 0)
(0.0104756 0.0477517 -3.08019e-28)
(0.00555547 0.0507092 7.88914e-28)
(0.00166041 0.0540887 0)
(0.0260914 0.00168414 2.94044e-28)
(0.0251208 0.00681689 3.28181e-29)
(0.0256129 0.0172647 -5.00469e-28)
(0.0278536 0.031889 0)
(0.0272688 0.0430073 0)
(0.0219174 0.0475805 6.2816e-28)
(0.0149444 0.049293 0)
(0.00939586 0.0515533 5.86871e-28)
(0.00501118 0.0543765 0)
(0.00150294 0.0574751 1.48419e-27)
(0.0274509 0.00157231 2.91856e-28)
(0.0263879 0.00625054 0)
(0.026409 0.0148934 -6.49002e-29)
(0.0285895 0.029158 8.24766e-29)
(0.0298354 0.0424625 -2.22847e-29)
(0.0264439 0.0494378 8.92813e-28)
(0.0196081 0.0513557 -2.26498e-29)
(0.0133633 0.0528152 -3.31517e-28)
(0.00846863 0.0551315 0)
(0.00452261 0.0577291 4.23369e-33)
(0.00135459 0.0605902 1.67942e-27)
(0.028838 0.00148874 -1.21252e-28)
(0.0276757 0.00581858 4.1427e-28)
(0.0273164 0.0131133 6.36528e-28)
(0.0289728 0.0260819 6.30577e-28)
(0.0313984 0.0408123 0)
(0.0301101 0.0505638 1.32061e-29)
(0.0243118 0.0537612 0)
(0.0174443 0.0545631 -1.68039e-28)
(0.0120134 0.0562529 -6.09533e-28)
(0.00762967 0.0584412 -1.6418e-28)
(0.00406484 0.0608094 1.50521e-27)
(0.00121557 0.0634326 -2.13351e-28)
(0.0302372 0.00143199 2.99584e-28)
(0.0289853 0.00548826 2.92425e-28)
(0.028371 0.0119091 -3.84176e-32)
(0.0293586 0.0230683 7.0981e-28)
(0.0321992 0.0383605 -8.06855e-29)
(0.0328091 0.0506276 8.0267e-29)
(0.0287037 0.0560575 2.03789e-29)
(0.0217435 0.0568248 1.99387e-28)
(0.0156422 0.0577399 -4.00026e-28)
(0.0108097 0.0594644 8.66007e-28)
(0.00685625 0.0614842 -1.48793e-28)
(0.00364284 0.0636151 1.79556e-28)
(0.00108466 0.0660164 -1.95945e-28)
(0.0316326 0.00140166 6.20852e-28)
(0.0302968 0.00527063 0)
(0.0295056 0.0111015 -2.43701e-35)
(0.0299018 0.0204737 0)
(0.0325072 0.0354115 -7.15969e-28)
(0.0345668 0.0495785 7.94381e-28)
(0.0324379 0.0577332 0)
(0.0261713 0.0594646 -1.81201e-29)
(0.0194146 0.059673 6.47876e-30)
(0.0140736 0.0608125 -1.65912e-29)
(0.00971269 0.0624389 5.03655e-29)
(0.00613925 0.0642501 0)
(0.0032484 0.0661725 3.229e-28)
(0.000960503 0.0683437 2.271e-27)
(0.033078 0.00138442 6.45414e-28)
(0.0316414 0.00514397 1.39927e-28)
(0.0307125 0.010511 9.99908e-28)
(0.0305755 0.0184725 0)
(0.0325993 0.0322724 -1.4279e-27)
(0.0355117 0.0475831 7.50076e-28)
(0.035291 0.0584622 -1.30171e-28)
(0.0304535 0.0621473 0)
(0.0233886 0.0621162 -4.29548e-29)
(0.0174081 0.0625387 3.93064e-30)
(0.0126262 0.0636752 -9.40424e-28)
(0.00869284 0.0651477 4.19379e-29)
(0.00546745 0.0667878 0)
(0.00286624 0.0684774 2.94931e-32)
(0.000840837 0.0704599 0)
(0.0345708 0.00137018 6.66799e-28)
(0.0330749 0.0050383 0)
(0.0320104 0.0100305 1.26404e-27)
(0.0314547 0.0171047 5.89137e-28)
(0.0327604 0.0292346 -1.89052e-35)
(0.0358832 0.0449576 0)
(0.0372615 0.0581099 0)
(0.0342297 0.0643983 3.94452e-28)
(0.0275389 0.0649969 2.79359e-29)
(0.020874 0.0646811 -2.2179e-33)
(0.0156051 0.065247 -7.18533e-28)
(0.0112893 0.066305 0)
(0.00773468 0.0676485 -1.57644e-27)
(0.00482667 0.0690849 -1.84465e-27)
(0.00249394 0.0705705 -2.39437e-28)
(0.000723287 0.0723477 2.79124e-27)
(0.0361105 0.00136823 5.16436e-28)
(0.0345389 0.00494925 0)
(0.0333559 0.00965558 1.14745e-27)
(0.0325712 0.0162265 2.55649e-28)
(0.0331148 0.0265555 7.04486e-28)
(0.0359301 0.0419672 0)
(0.0384336 0.0567416 0)
(0.0372535 0.0658451 8.11809e-28)
(0.0316674 0.0680263 1.76876e-28)
(0.0245626 0.0673024 0)
(0.0186779 0.0671774 2.94393e-28)
(0.0139419 0.0677673 7.60681e-30)
(0.0100428 0.0687375 -1.42314e-27)
(0.00682759 0.0699145 4.55011e-29)
(0.00420958 0.0711643 5.36139e-37)
(0.00214051 0.0724343 2.43127e-27)
(0.000609512 0.0740155 1.13345e-28)
(0.0377264 0.0013696 3.60288e-28)
(0.0360653 0.00487336 7.86621e-28)
(0.0347669 0.00937903 5.13817e-28)
(0.033814 0.015627 2.808e-28)
(0.0336721 0.024442 2.35772e-28)
(0.0358872 0.0388422 7.91245e-28)
(0.0389802 0.0545765 7.13679e-29)
(0.0394533 0.0662904 0)
(0.0354556 0.0708085 6.89543e-28)
(0.0284407 0.070367 1.37583e-28)
(0.0219033 0.0695039 2.88721e-28)
(0.0166799 0.0695722 -1.26901e-28)
(0.0123943 0.0700974 1.65797e-29)
(0.00886266 0.0709542 1.65972e-27)
(0.00596097 0.0719743 4.86828e-29)
(0.00361646 0.0730079 -1.00912e-28)
(0.00180291 0.0740789 0)
(0.000501387 0.0754695 -3.03306e-27)
(0.0393917 0.00137283 3.7595e-28)
(0.0376672 0.00480398 9.38679e-28)
(0.0362629 0.00919331 7.00805e-28)
(0.0351672 0.0151194 1.36502e-27)
(0.0345681 0.0229915 8.08994e-28)
(0.035962 0.035781 1.79533e-27)
(0.039146 0.051905 8.42682e-28)
(0.0409002 0.0656983 8.66269e-28)
(0.0386351 0.0729469 5.02818e-28)
(0.0323706 0.0736994 -5.36534e-28)
(0.0253147 0.0722745 -1.36917e-28)
(0.0195276 0.0717191 2.25573e-28)
(0.0148145 0.0717724 -3.30299e-28)
(0.0109296 0.0722593 1.49189e-27)
(0.0077315 0.0729713 0)
(0.00512635 0.0737931 3.24548e-30)
(0.00305135 0.0746415 2.48624e-27)
(0.00147444 0.0755097 1.03063e-28)
(0.000399541 0.0767455 -1.38117e-28)
(0.0411076 0.00137721 1.90135e-28)
(0.039318 0.00473682 1.16517e-27)
(0.0378481 0.00907886 1.29801e-27)
(0.0366067 0.0146124 6.21404e-28)
(0.0358023 0.0219761 8.16926e-28)
(0.0363248 0.0330146 1.34744e-27)
(0.0391384 0.0489631 1.92691e-27)
(0.041723 0.0642089 9.39452e-28)
(0.0410983 0.0742102 0)
(0.0361072 0.076941 -1.09851e-27)
(0.0289075 0.0754965 1.0799e-28)
(0.0224997 0.0742476 -1.62689e-28)
(0.0173185 0.0737879 -5.29816e-29)
(0.0130504 0.0738625 4.50828e-28)
(0.00952684 0.074212 0)
(0.00664674 0.0747553 0)
(0.00432679 0.0754033 -1.88478e-29)
(0.00250687 0.0760705 -5.0256e-30)
(0.00116513 0.0767557 5.50051e-29)
(0.000302003 0.0778331 -9.5004e-29)
(0.0428794 0.00137192 4.0997e-28)
(0.0410183 0.00467359 1.40425e-27)
(0.0395159 0.00899439 7.69396e-28)
(0.0380959 0.0141524 1.68619e-28)
(0.0371676 0.0212606 6.92286e-28)
(0.0370056 0.0308435 1.73752e-27)
(0.0391286 0.045908 6.79732e-28)
(0.0421067 0.0620593 1.002e-27)
(0.0428423 0.074502 9.10348e-28)
(0.0394187 0.0797541 -6.2155e-28)
(0.03259 0.0790582 -1.29427e-28)
(0.0256206 0.0772099 0)
(0.0199133 0.0761681 -4.00936e-28)
(0.0152288 0.0757702 1.00561e-27)
(0.0113598 0.0757382 0)
(0.00818559 0.0759461 -4.73713e-29)
(0.00560444 0.0763308 -4.64261e-27)
(0.003559 0.076822 -2.661e-27)
(0.00198251 0.0772944 -3.83836e-29)
(0.000874675 0.0778203 0)
(0.000210921 0.0787523 0)
(0.0446724 0.00136163 1.05689e-27)
(0.0427719 0.00465949 5.3867e-28)
(0.0412463 0.00887599 1.83612e-28)
(0.0397 0.0138046 8.49333e-28)
(0.0385779 0.020739 1.45347e-27)
(0.0380052 0.0293211 1.10368e-27)
(0.0392853 0.0429341 1.03654e-27)
(0.0422689 0.0595022 2.08802e-28)
(0.0439906 0.0738512 1.10029e-27)
(0.042129 0.0818496 1.77294e-28)
(0.0362096 0.0827474 -5.53003e-28)
(0.0289006 0.0806021 -1.3501e-28)
(0.0226184 0.0789033 0)
(0.0174762 0.0780172 -7.4106e-28)
(0.0132445 0.0775688 9.58403e-28)
(0.00973342 0.0774216 -6.12386e-28)
(0.00688288 0.0774883 -2.12601e-27)
(0.00459487 0.0777268 0)
(0.00281617 0.0780232 0)
(0.00148866 0.0783379 -3.20017e-27)
(0.000607504 0.0787163 0)
(0.000127929 0.0795089 0)
(0.046476 0.00134636 4.45845e-28)
(0.0445782 0.00467052 3.92301e-28)
(0.0430093 0.00867667 8.31183e-28)
(0.0414194 0.0135669 1.41673e-27)
(0.0401159 0.0202412 9.28636e-28)
(0.0392501 0.0282296 0)
(0.039776 0.0402574 2.14141e-27)
(0.0423371 0.0567321 -4.57739e-28)
(0.044695 0.0724213 2.14327e-28)
(0.0442082 0.0830766 1.4655e-27)
(0.0395714 0.0862013 8.08044e-28)
(0.0323132 0.0843807 -3.89037e-28)
(0.0254549 0.0820368 0)
(0.0198252 0.0806031 -3.37552e-28)
(0.0151702 0.0797139 3.79038e-28)
(0.0113217 0.0792069 -2.81434e-29)
(0.00815916 0.0789224 1.35054e-27)
(0.00561616 0.078845 1.40129e-28)
(0.00362118 0.0788919 -2.61149e-27)
(0.00211388 0.0790281 -3.01241e-27)
(0.00102682 0.0791891 0)
(0.000379828 0.0794675 -8.77423e-29)
(5.50306e-05 0.0801223 -3.96712e-27)
(0.0482929 0.00131653 -4.56641e-28)
(0.0464104 0.00464106 -3.87248e-28)
(0.0447911 0.00847031 1.5338e-27)
(0.0432084 0.0134279 1.67054e-27)
(0.041756 0.0196944 -7.14468e-28)
(0.0406898 0.0274884 5.24964e-28)
(0.0405972 0.0380338 1.91039e-27)
(0.0424748 0.0538784 2.07191e-27)
(0.0451032 0.0704284 5.81472e-28)
(0.0457163 0.0834059 1.48879e-27)
(0.0425022 0.0891525 1.95829e-27)
(0.0357603 0.0883908 -4.69522e-28)
(0.0284381 0.0856069 2.86047e-28)
(0.0222629 0.0835453 0)
(0.0171714 0.0821744 5.54997e-28)
(0.0129571 0.0812945 5.02099e-28)
(0.00946103 0.0806487 8.16205e-28)
(0.00663011 0.0802297 -3.84182e-28)
(0.00439879 0.0799634 -2.61084e-27)
(0.00269639 0.0798448 1.37472e-28)
(0.00146826 0.0798434 2.99166e-27)
(0.000602082 0.0798588 3.43664e-27)
(0.000182599 0.0800929 -3.925e-27)
(-9.18709e-06 0.0806516 -5.58268e-29)
(0.050103 0.00128294 -4.42979e-42)
(0.0482466 0.00456919 -4.10839e-28)
(0.0466272 0.00830702 1.59174e-27)
(0.0450195 0.0132964 7.81156e-28)
(0.0434703 0.0191091 0)
(0.0423296 0.0269779 1.12748e-27)
(0.0416743 0.0362469 2.23848e-27)
(0.0428721 0.0511273 2.72953e-27)
(0.0453789 0.0681152 2.22068e-27)
(0.0467731 0.0829191 2.13888e-27)
(0.0449035 0.0913731 1.35485e-27)
(0.0390836 0.0924118 6.35128e-28)
(0.0315565 0.0895955 5.83875e-28)
(0.0248121 0.0868707 1.80132e-28)
(0.0192495 0.0849822 3.60536e-28)
(0.0146335 0.0836714 1.22638e-27)
(0.010801 0.0826824 -6.53166e-28)
(0.00765719 0.081903 8.48139e-28)
(0.00515173 0.0812893 3.80812e-28)
(0.00324086 0.0808526 -2.82608e-27)
(0.00183883 0.0805947 2.97979e-27)
(0.000879616 0.0804849 3.12489e-27)
(0.00024167 0.0803984 0)
(-8.30236e-06 0.0806193 0)
(-6.23196e-05 0.0810831 0)
(0.0518862 0.00126009 1.9654e-28)
(0.0500596 0.00446343 0)
(0.0484768 0.00814831 1.93422e-28)
(0.0468581 0.0131171 0)
(0.0452593 0.0185729 1.26129e-27)
(0.0440768 0.0265152 1.22664e-27)
(0.0430182 0.0349589 9.94313e-28)
(0.0435441 0.0486428 1.16229e-27)
(0.0456436 0.0656588 2.34962e-27)
(0.0475005 0.0817694 1.16722e-27)
(0.0467747 0.0927911 2.08777e-27)
(0.0421512 0.0961258 3.16524e-28)
(0.0347749 0.0938999 9.39336e-28)
(0.0275002 0.0906167 0)
(0.0214207 0.0881458 4.07636e-28)
(0.0163664 0.0863657 5.02644e-28)
(0.0121726 0.0850078 -9.92429e-29)
(0.00870161 0.0838678 -1.21703e-28)
(0.0059099 0.0828949 3.30816e-27)
(0.00374277 0.0821086 -4.52788e-27)
(0.00215185 0.0815343 2.08555e-28)
(0.00105541 0.0811761 -3.6939e-27)
(0.000349046 0.0809848 0)
(-4.82639e-05 0.0808701 0)
(-0.000175465 0.0810209 3.95325e-28)
(-9.81048e-05 0.0814633 1.13339e-27)
(0.0536215 0.0012372 -2.90476e-28)
(0.051832 0.00433357 -4.51834e-28)
(0.0503091 0.00799768 -1.91093e-27)
(0.0487153 0.0128965 -1.24752e-27)
(0.0470862 0.0181614 -7.5713e-32)
(0.0458438 0.0259694 1.39548e-27)
(0.0446356 0.0341543 -6.92376e-28)
(0.0444292 0.0465059 1.21367e-27)
(0.0460005 0.0632118 1.92994e-27)
(0.0480058 0.0801523 -5.46312e-28)
(0.0481855 0.093409 1.17262e-27)
(0.0448206 0.0993272 9.64894e-28)
(0.0380028 0.0983593 7.89215e-28)
(0.030343 0.0947711 -4.71192e-28)
(0.0237084 0.0916803 0)
(0.018184 0.0894071 2.05366e-28)
(0.0135819 0.0876251 -1.29549e-27)
(0.00976547 0.0861236 4.41468e-32)
(0.00666222 0.0848108 6.42149e-28)
(0.00421623 0.0836666 8.6747e-28)
(0.00240035 0.0827225 -5.14286e-28)
(0.00113718 0.0820415 -2.99291e-27)
(0.00034306 0.0815927 -2.06875e-28)
(-8.73745e-05 0.0813644 3.77847e-27)
(-0.000284577 0.081217 0)
(-0.000285321 0.0813519 1.5817e-27)
(-0.000114467 0.0818232 -9.55732e-27)
(0.0552843 0.00118865 0)
(0.0535828 0.00419687 -1.80322e-27)
(0.0521217 0.0078385 -7.94677e-28)
(0.0505583 0.0126125 -2.19641e-27)
(0.0489551 0.0178678 -3.11527e-27)
(0.0475956 0.0253157 0)
(0.046449 0.0336489 -7.10723e-28)
(0.0455648 0.0447839 -6.60377e-28)
(0.0465311 0.060868 1.32522e-27)
(0.0484293 0.0782893 0)
(0.0492306 0.0933196 1.30092e-27)
(0.0470356 0.101845 2.83744e-27)
(0.0410908 0.102758 8.47863e-28)
(0.033307 0.0993105 0)
(0.0261229 0.0956075 -3.87474e-28)
(0.0201034 0.0928099 -6.85955e-28)
(0.0150549 0.0905652 -5.17451e-28)
(0.0108566 0.0886962 1.18884e-27)
(0.00740704 0.0870365 -1.01114e-27)
(0.00466858 0.0855419 -1.3639e-27)
(0.00258783 0.0841978 1.0761e-27)
(0.00113381 0.0831366 1.56123e-27)
(0.000223214 0.082347 2.54917e-28)
(-0.000253261 0.0818526 3.71864e-27)
(-0.000416595 0.0816077 0)
(-0.000432853 0.0815031 7.19517e-28)
(-0.000342118 0.0816601 -8.26568e-27)
(-0.000113747 0.0822106 2.01986e-26)
(0.0568627 0.00111471 9.60288e-28)
(0.055285 0.00406413 -3.06752e-27)
(0.0538844 0.00762648 -1.65351e-27)
(0.0523986 0.0123036 -9.5252e-28)
(0.0508769 0.0175854 -2.88005e-28)
(0.0493712 0.0246391 2.8771e-32)
(0.0482909 0.0332276 0)
(0.0470123 0.0435809 -3.32758e-27)
(0.0472898 0.058702 7.86787e-28)
(0.0488747 0.0763252 -8.40734e-28)
(0.0500291 0.0926601 2.84457e-27)
(0.0487965 0.103662 1.29296e-27)
(0.0439244 0.10685 1.64165e-27)
(0.0363354 0.104135 6.89342e-28)
(0.0286655 0.099956 -2.48535e-28)
(0.0221232 0.096582 -1.00355e-28)
(0.0166065 0.0938702 -8.70198e-28)
(0.0119898 0.0916068 6.60552e-28)
(0.00816686 0.0895722 4.35406e-28)
(0.00509885 0.0877075 -3.34224e-28)
(0.00273304 0.0859916 5.65293e-28)
(0.00105415 0.084511 1.50764e-27)
(-1.68441e-05 0.0833146 6.09154e-28)
(-0.00056225 0.0824749 6.76715e-36)
(-0.000699989 0.0819816 -1.04902e-27)
(-0.000644513 0.0817831 5.23131e-28)
(-0.000508361 0.0817836 1.96524e-27)
(-0.000338695 0.081995 2.01999e-26)
(-9.91638e-05 0.0826619 0)
(0.0583353 0.00103996 5.44919e-27)
(0.0568987 0.00391829 -1.35899e-27)
(0.0556015 0.00734564 -2.06342e-27)
(0.0542395 0.0119551 1.97817e-27)
(0.0527636 0.0172398 1.48196e-27)
(0.0512659 0.0240206 -4.13198e-27)
(0.0501165 0.0327384 1.8835e-27)
(0.0487373 0.0428335 1.27761e-29)
(0.0482765 0.0568044 -1.48575e-27)
(0.049418 0.0743742 -2.12078e-27)
(0.050668 0.0916223 2.15378e-27)
(0.0501811 0.104784 0)
(0.0463922 0.110466 2.46368e-27)
(0.0393349 0.109079 9.17064e-28)
(0.0313389 0.104714 0)
(0.024248 0.100738 -2.94851e-28)
(0.0182556 0.0975559 -1.97988e-28)
(0.0131795 0.0948652 5.27607e-28)
(0.00895255 0.0924439 8.02825e-28)
(0.00551733 0.0901835 -1.50965e-27)
(0.00284292 0.0881028 8.4567e-28)
(0.000894128 0.0861893 1.53598e-27)
(-0.000363481 0.0845686 -1.60309e-27)
(-0.0010293 0.0832918 -1.30201e-27)
(-0.00117699 0.0824516 9.20399e-28)
(-0.00101063 0.082021 -6.62437e-28)
(-0.000783576 0.0819324 5.50243e-28)
(-0.00050461 0.0820547 0)
(-0.000299539 0.0824215 0)
(-7.45239e-05 0.0832058 0)
(0.0596729 0.000964033 3.91059e-31)
(0.0583934 0.00370379 2.6285e-27)
(0.0572486 0.00700432 -4.84021e-27)
(0.0560177 0.0115309 7.54432e-27)
(0.0546335 0.016874 6.07122e-27)
(0.0532176 0.0234361 1.46532e-27)
(0.0519542 0.032167 2.7952e-27)
(0.0506249 0.0423279 4.51655e-27)
(0.0495611 0.0553003 -9.42452e-27)
(0.0501138 0.0725155 0)
(0.0512565 0.0903667 2.67774e-27)
(0.0512652 0.105296 0)
(0.0484777 0.113496 6.61206e-29)
(0.0422054 0.11393 0)
(0.0341174 0.109827 2.05115e-27)
(0.0265034 0.105295 6.98251e-28)
(0.0200038 0.101604 -2.21558e-29)
(0.0144596 0.0984817 -3.56416e-28)
(0.00979305 0.0956755 5.56343e-28)
(0.00594558 0.0930154 -1.89103e-27)
(0.00291777 0.09053 2.15392e-28)
(0.00066031 0.0881878 -1.10173e-34)
(-0.000828461 0.0861423 6.05021e-28)
(-0.00163615 0.0843669 -1.6904e-27)
(-0.00185708 0.0830804 -3.22978e-27)
(-0.00162223 0.0823407 2.70571e-27)
(-0.00119584 0.0820278 5.32853e-28)
(-0.000754989 0.0820779 0)
(-0.000395239 0.0824086 0)
(-0.000233124 0.0829389 -2.30369e-26)
(-4.51499e-05 0.0838775 -2.64005e-26)
(0.060864 0.000887897 8.48795e-28)
(0.0597463 0.0034179 -7.70464e-27)
(0.0587969 0.00663846 -3.51112e-27)
(0.0577116 0.0110329 -1.34897e-27)
(0.0565035 0.0164568 8.26987e-27)
(0.0551319 0.0228308 4.2797e-27)
(0.05384 0.0315971 5.93104e-27)
(0.0525352 0.0419029 3.45284e-27)
(0.0511591 0.0542303 6.65576e-27)
(0.0510041 0.070793 -1.26497e-27)
(0.0519087 0.0890487 1.06025e-26)
(0.0521567 0.105327 -1.33774e-27)
(0.0501971 0.115893 -3.22429e-27)
(0.0448255 0.118508 -7.46211e-29)
(0.0369559 0.115187 5.90626e-28)
(0.0288964 0.110244 1.93004e-27)
(0.0218705 0.106023 3.85974e-28)
(0.0158443 0.102471 -3.34816e-28)
(0.0107122 0.0992655 0)
(0.00641812 0.0962264 -1.64428e-27)
(0.00297759 0.0933133 2.17826e-27)
(0.000371736 0.0905442 -1.00119e-27)
(-0.00141212 0.0880308 -9.05172e-28)
(-0.00240399 0.085749 -1.03118e-27)
(-0.00272466 0.0839685 -1.77738e-27)
(-0.00248375 0.0827716 0)
(-0.00185386 0.0821648 2.02105e-27)
(-0.00119572 0.0820236 0)
(-0.000575768 0.0823159 8.64028e-28)
(-0.000213219 0.0828727 -2.19608e-26)
(-0.000139828 0.0835943 1.46726e-30)
(-3.47401e-05 0.0846831 -1.72369e-27)
(0.0618793 0.000805296 4.34008e-27)
(0.060937 0.00310792 -2.65611e-27)
(0.0602065 0.00627429 -4.79091e-27)
(0.0592759 0.010456 -5.62398e-27)
(0.0583079 0.015915 7.66e-27)
(0.057038 0.0222656 -5.6798e-27)
(0.0557351 0.0310772 9.05961e-27)
(0.054443 0.0414644 2.79011e-27)
(0.0529328 0.0535302 1.13703e-26)
(0.0521409 0.0693591 0)
(0.0526468 0.0877541 1.00354e-26)
(0.0529613 0.105034 0)
(0.0515968 0.117695 -7.90766e-27)
(0.0471641 0.122668 -1.58023e-27)
(0.039753 0.120626 -2.31522e-28)
(0.0314099 0.115577 -1.20727e-27)
(0.0238691 0.110817 8.71937e-28)
(0.0173547 0.106823 4.84354e-29)
(0.0117233 0.103226 -3.1585e-28)
(0.00695682 0.0998349 -1.326e-27)
(0.00304745 0.0965008 -3.42615e-35)
(3.66347e-05 0.0932942 5.67296e-28)
(-0.00209387 0.090264 -5.13091e-28)
(-0.00334083 0.0874656 2.53707e-27)
(-0.00379611 0.0851728 -2.57635e-27)
(-0.00358562 0.08341 3.25576e-27)
(-0.00285362 0.0823551 4.8897e-28)
(-0.00187309 0.0819521 0)
(-0.000968082 0.0820691 -1.16608e-27)
(-0.000270377 0.0826437 8.62562e-28)
(4.66668e-05 0.0834882 6.28849e-27)
(-4.98354e-05 0.0844312 0)
(-7.71517e-05 0.0855638 1.38731e-28)
(0.062643 0.000703269 3.60387e-28)
(0.0619681 0.00279452 5.8078e-27)
(0.0614325 0.00590804 3.49969e-27)
(0.0606814 0.00982369 -5.8875e-28)
(0.0599599 0.0152636 -3.73122e-27)
(0.0588961 0.0217821 2.60189e-27)
(0.0575934 0.030571 8.10628e-27)
(0.0563181 0.0409837 1.39249e-26)
(0.0547897 0.0531084 1.76475e-26)
(0.0535336 0.0683307 0)
(0.0534708 0.0865596 1.59706e-26)
(0.0537364 0.104571 2.65557e-27)
(0.0527685 0.118972 1.58562e-26)
(0.0491905 0.126326 5.7002e-28)
(0.0424194 0.125973 0)
(0.0340417 0.121227 7.14888e-28)
(0.026002 0.115981 -9.4771e-28)
(0.0189902 0.11153 5.84735e-28)
(0.0128687 0.107573 -1.59006e-27)
(0.00758459 0.103838 -4.73545e-28)
(0.00316886 0.100123 -8.27492e-28)
(-0.000327297 0.0964752 -1.12877e-27)
(-0.00286659 0.092918 -1.38367e-27)
(-0.00443572 0.0895561 1.57979e-27)
(-0.00508573 0.0866944 -7.84166e-28)
(-0.0049388 0.0843111 2.2421e-28)
(-0.004136 0.0826674 -3.69773e-31)
(-0.00291612 0.0818552 0)
(-0.00162565 0.0817801 -1.64105e-27)
(-0.000536742 0.0822591 2.46747e-27)
(0.000122105 0.0831843 -2.6916e-26)
(0.000342152 0.0842987 7.25618e-27)
(3.73653e-06 0.0854418 6.46214e-28)
(-0.000108466 0.0863651 1.07887e-28)
(-0.000163989 0.0860616 -3.76615e-28)
(0.0631415 0.000583418 3.15957e-28)
(0.0627892 0.00244983 0)
(0.0625165 0.00544748 5.68453e-27)
(0.0619242 0.00918629 4.41155e-27)
(0.0614073 0.014511 -2.8794e-28)
(0.0606566 0.021295 -3.07011e-31)
(0.0593962 0.0300813 2.55723e-27)
(0.0581196 0.0405189 5.22014e-27)
(0.0566332 0.0528942 1.58367e-26)
(0.0550887 0.067712 1.68775e-26)
(0.0544291 0.0855842 1.20884e-26)
(0.0545052 0.104072 5.23336e-27)
(0.0537693 0.119847 1.72887e-26)
(0.0509198 0.129455 8.08819e-27)
(0.0449038 0.131096 0)
(0.0367031 0.127063 -1.12278e-26)
(0.0282904 0.121509 6.75786e-27)
(0.0207705 0.116589 -2.73193e-27)
(0.0141646 0.112283 0)
(0.00834626 0.108233 -1.59116e-27)
(0.00338143 0.104185 0)
(-0.000663262 0.100124 -1.99233e-27)
(-0.00370712 0.0960606 -2.60132e-27)
(-0.00569359 0.0921034 -5.80736e-28)
(-0.00660404 0.0885618 -1.18695e-27)
(-0.00656591 0.0855026 -6.66709e-28)
(-0.00571792 0.0831959 0)
(-0.00430098 0.0818105 -3.74759e-27)
(-0.00263672 0.0813738 3.2158e-27)
(-0.00108808 0.08179 3.50629e-27)
(3.04136e-05 0.0827089 0)
(0.000575641 0.0840069 4.60691e-26)
(0.000489401 0.085389 1.16198e-26)
(-0.000159373 0.0861474 1.06553e-27)
(0.000160258 0.0862899 -1.43594e-27)
(-4.13784e-05 0.0868649 0)
(-0.000110139 0.0865674 -4.12853e-28)
(0.0633872 0.000455065 0)
(0.0633285 0.00206811 0)
(0.0633526 0.0048632 -2.59531e-31)
(0.0630323 0.00863406 8.27409e-27)
(0.0626724 0.013605 0)
(0.06224 0.0207303 2.7948e-28)
(0.0611224 0.02967 -3.57426e-27)
(0.059795 0.0401853 2.48727e-27)
(0.0583542 0.0528659 -5.0615e-27)
(0.0566813 0.0674806 3.61042e-26)
(0.055546 0.0849063 0)
(0.0552861 0.103598 -2.37809e-26)
(0.0546593 0.120467 5.66076e-27)
(0.0523594 0.132073 0)
(0.0471564 0.135879 1.6164e-26)
(0.0393229 0.13296 -1.35161e-26)
(0.0307166 0.127362 1.03414e-26)
(0.0227127 0.121991 -6.83169e-27)
(0.0156186 0.117326 -3.52406e-27)
(0.00929662 0.113013 -4.41243e-29)
(0.00372802 0.108688 0)
(-0.000916144 0.104263 7.95078e-28)
(-0.00456129 0.0997393 -2.67456e-27)
(-0.00707143 0.0951908 0)
(-0.00837669 0.0908734 -1.57288e-42)
(-0.00850266 0.08704 -4.0946e-28)
(-0.00765625 0.0839803 0)
(-0.00605734 0.0819119 0)
(-0.00403203 0.0809411 0)
(-0.00198411 0.0810613 6.04022e-27)
(-0.000324187 0.082082 2.88923e-27)
(0.00068471 0.0835244 4.41309e-26)
(0.000696378 0.0852181 -8.07233e-27)
(0.00103101 0.0850328 7.11146e-27)
(0.000458734 0.0862992 1.74952e-28)
(0.000905932 0.0852809 2.16289e-26)
(0.00086254 0.086277 4.97551e-27)
(-0.000117052 0.0867101 0)
(0.000104767 0.0868927 0)
(-3.90207e-05 0.0873563 8.85343e-27)
(-0.000124144 0.0870898 8.83497e-27)
(0.0633251 0.000326612 -9.66802e-29)
(0.0636031 0.00165735 0)
(0.0638817 0.00426111 4.58113e-27)
(0.0640031 0.00806655 0)
(0.0636754 0.0127 -1.35102e-30)
(0.0635906 0.0201108 2.0214e-27)
(0.0627038 0.0293867 -8.52762e-27)
(0.0613262 0.0400771 1.72389e-26)
(0.0598789 0.0529737 0)
(0.0581951 0.0675624 9.2712e-27)
(0.0567429 0.084591 4.84774e-27)
(0.0561109 0.103276 -1.96697e-26)
(0.0554773 0.120923 -2.01225e-26)
(0.0535568 0.134244 0)
(0.0491385 0.140224 2.46676e-26)
(0.0418477 0.138779 -1.58141e-26)
(0.0332231 0.13345 -6.7985e-27)
(0.0248407 0.1277 0)
(0.0172574 0.122686 -6.07431e-27)
(0.0104477 0.118142 -3.7945e-27)
(0.00429965 0.113613 -1.04015e-27)
(-0.00101133 0.108887 1.21147e-27)
(-0.00534783 0.103983 -3.43753e-28)
(-0.00851413 0.0988689 2.76346e-27)
(-0.0103478 0.0937667 1.28483e-27)
(-0.0108078 0.0890517 0)
(-0.0100139 0.0850941 8.89388e-28)
(-0.00826435 0.0822021 0)
(-0.00586912 0.080544 0)
(-0.00328679 0.0802232 2.21398e-28)
(-0.000954845 0.0810116 -8.20883e-27)
(0.000589781 0.0827605 -1.91826e-26)
(0.00105806 0.084728 1.85501e-26)
(0.00137566 0.0843295 -2.41349e-27)
(0.00122241 0.0851464 3.67053e-27)
(0.000473062 0.0869358 1.04284e-27)
(0.00112574 0.0861619 0)
(0.000825641 0.0869396 6.50288e-27)
(-0.000176917 0.0872811 0)
(1.93293e-05 0.0875542 -7.77655e-28)
(-6.07491e-05 0.0878397 0)
(-0.000188719 0.0876071 2.09475e-27)
(0.0629035 0.000158156 1.74108e-27)
(0.0635567 0.00123755 -4.66428e-28)
(0.0641664 0.00367231 0)
(0.0646475 0.00729472 2.77173e-27)
(0.0645698 0.0120141 -5.43292e-27)
(0.0645926 0.0194323 -1.78433e-27)
(0.0640055 0.0292441 -7.69423e-31)
(0.062707 0.0401755 -5.41696e-28)
(0.0611898 0.0532191 0)
(0.0595484 0.0679158 0)
(0.0578855 0.0846434 -1.26276e-26)
(0.0569229 0.103214 -1.59375e-26)
(0.0562155 0.121359 -4.83088e-26)
(0.0545759 0.136064 3.30744e-26)
(0.0508329 0.144101 -6.92678e-27)
(0.0442183 0.144394 6.80101e-27)
(0.0357495 0.139645 -2.23222e-26)
(0.0271209 0.133672 4.98994e-27)
(0.0191195 0.128332 0)
(0.0118161 0.123571 -1.28389e-26)
(0.00513658 0.118916 -9.3335e-27)
(-0.000866494 0.113982 -1.2317e-27)
(-0.0059541 0.108802 -7.81476e-27)
(-0.00991038 0.103181 -9.78044e-28)
(-0.0124549 0.0973481 -6.30531e-27)
(-0.0134607 0.091702 6.06642e-27)
(-0.012894 0.0866945 -1.87829e-27)
(-0.0110249 0.0827602 7.748e-28)
(-0.00825851 0.0802297 -8.24258e-28)
(-0.00505926 0.0792349 1.9292e-28)
(-0.00200628 0.0797707 -1.66099e-27)
(0.000303684 0.0813583 -2.44037e-26)
(0.0013099 0.0838552 -3.67628e-28)
(0.00152733 0.0832635 1.25374e-27)
(0.00144 0.08496 -3.27445e-27)
(0.0017193 0.0847024 -7.06371e-27)
(0.00140685 0.0860102 3.45779e-27)
(0.000386436 0.0876449 -1.295e-27)
(0.00115471 0.0869684 0)
(0.00075251 0.087718 5.84686e-27)
(-0.000295432 0.0878482 0)
(-0.000131817 0.0882261 3.69035e-30)
(-0.000100639 0.0882888 1.09052e-27)
(-0.000314923 0.0880846 2.33669e-27)
(0.0621621 -2.96179e-05 0)
(0.0631485 0.000864077 1.10771e-27)
(0.0641242 0.00305497 0)
(0.0648289 0.00652033 2.08466e-27)
(0.0652869 0.0115058 -5.48674e-27)
(0.0652413 0.0188112 0)
(0.0649807 0.0292638 1.75297e-27)
(0.0637917 0.0404941 -1.97285e-27)
(0.0622708 0.0537026 5.42924e-28)
(0.0606713 0.0685114 0)
(0.0589239 0.0850445 -2.27563e-26)
(0.0576451 0.10344 -8.62905e-27)
(0.0568202 0.121869 -2.26647e-26)
(0.0553993 0.137642 1.6648e-26)
(0.0522548 0.147539 -4.99821e-30)
(0.0463703 0.149704 3.37503e-26)
(0.0382471 0.145853 1.78021e-26)
(0.0295041 0.139834 2.20033e-26)
(0.021181 0.134203 1.15871e-26)
(0.0134368 0.129253 -7.846e-27)
(0.00625126 0.124535 -1.70387e-26)
(-0.000404126 0.119533 -1.68049e-26)
(-0.00628144 0.114169 3.77826e-27)
(-0.0111347 0.10817 -3.92241e-27)
(-0.0145936 0.101725 -6.4402e-27)
(-0.0163646 0.0951631 -6.46241e-27)
(-0.0163257 0.0889854 2.17483e-29)
(-0.0144923 0.0837662 -7.20927e-28)
(-0.0113332 0.0800491 -1.68292e-27)
(-0.00747969 0.0781899 0)
(-0.00351067 0.0780873 1.28236e-27)
(-0.000290467 0.0797091 0)
(0.00135302 0.0825484 -2.23701e-27)
(0.00147514 0.0816841 0)
(0.00187884 0.0843411 0)
(0.00210622 0.0838486 2.33301e-27)
(0.00167882 0.0858125 8.6691e-28)
(0.0019902 0.0855486 8.2085e-28)
(0.00151107 0.086948 3.71237e-27)
(0.000215759 0.0883989 0)
(0.00112889 0.0878586 -3.42476e-27)
(0.000583423 0.088576 3.06692e-27)
(-0.000483191 0.0883867 4.70983e-27)
(-0.000379894 0.0888895 9.49373e-27)
(-0.000155576 0.0886708 1.35602e-27)
(-0.000514164 0.0884907 -2.62239e-27)
(0.0611154 -0.000241268 0)
(0.0624344 0.000531157 0)
(0.063668 0.00245905 0)
(0.064674 0.00592328 2.0364e-27)
(0.0654892 0.011046 -2.12284e-27)
(0.0655995 0.0185968 0)
(0.065458 0.0295023 0)
(0.0644764 0.0411074 0)
(0.0630402 0.0545092 0)
(0.0614645 0.069355 0)
(0.0597918 0.08579 -1.07858e-26)
(0.0582816 0.103975 2.07648e-26)
(0.0572826 0.12249 1.26505e-27)
(0.0560016 0.13906 9.05329e-27)
(0.0533858 0.150564 1.48031e-26)
(0.0482598 0.154627 -2.8769e-26)
(0.0406503 0.151966 4.01644e-26)
(0.0319399 0.146115 0)
(0.0234046 0.140244 -1.45253e-26)
(0.0153205 0.135127 -2.70406e-26)
(0.0076798 0.130374 -8.41724e-27)
(0.000438634 0.125449 0)
(-0.00622654 0.120022 1.77572e-27)
(-0.0120394 0.113853 0)
(-0.0165991 0.106975 0)
(-0.019443 0.0995938 -7.11887e-27)
(-0.0202278 0.0921982 1.78595e-26)
(-0.0187808 0.0854833 2.47535e-27)
(-0.0153526 0.0802258 -9.18099e-28)
(-0.0106863 0.0770714 4.50989e-28)
(-0.00581493 0.0762314 9.79824e-28)
(-0.00133093 0.0773036 -8.41422e-27)
(0.00119021 0.0807188 -4.68735e-27)
(0.00117454 0.0795573 0)
(0.00218852 0.0831859 -1.90052e-27)
(0.0023605 0.0823513 5.02857e-28)
(0.00229563 0.0851966 0)
(0.00264871 0.0847111 3.30207e-27)
(0.00187872 0.086828 0)
(0.00229295 0.0866155 0)
(0.00155066 0.0879594 -8.06198e-27)
(-7.79212e-05 0.0891718 2.46334e-27)
(0.000982344 0.0888512 1.26127e-26)
(0.000271321 0.0894902 1.88917e-30)
(-0.000755447 0.0888564 -2.47798e-27)
(-0.000750609 0.089527 -2.28971e-27)
(-0.00023896 0.0889289 0)
(-0.000784811 0.088773 -2.06225e-30)
(0.0597301 -0.000460989 -1.43924e-29)
(0.0614155 0.000217416 2.89956e-28)
(0.0628757 0.001956 4.76273e-28)
(0.0642268 0.00537058 0)
(0.0652513 0.0106539 -2.69017e-27)
(0.0656162 0.018803 1.33493e-30)
(0.0654112 0.0299089 0)
(0.0647037 0.0420257 0)
(0.0634141 0.0556209 0)
(0.0619 0.0704778 5.07008e-28)
(0.0603429 0.0868557 0)
(0.0587823 0.104851 1.26227e-26)
(0.0576178 0.123289 -1.23369e-27)
(0.0564118 0.140373 1.3839e-26)
(0.0542048 0.153238 -3.07117e-27)
(0.0498425 0.15912 -1.1904e-26)
(0.0428817 0.15786 6.81895e-27)
(0.0343959 0.152423 -1.99331e-26)
(0.0257382 0.146395 -3.45684e-26)
(0.0174241 0.141136 -1.42637e-26)
(0.00942612 0.136374 -1.7018e-26)
(0.0016889 0.131599 0)
(-0.00569416 0.12627 2.6106e-27)
(-0.0124695 0.120188 1.08211e-26)
(-0.0182561 0.113119 0)
(-0.0224541 0.105129 0)
(-0.0244648 0.0965837 1.68798e-26)
(-0.0237631 0.0882217 4.05787e-27)
(-0.0204567 0.08107 -4.16762e-27)
(-0.0150334 0.076076 1.54958e-27)
(-0.00882247 0.0740909 2.59783e-27)
(-0.00321705 0.0746986 -3.31837e-27)
(0.000745906 0.078271 -1.10811e-27)
(0.000400278 0.0767292 5.20243e-28)
(0.0023387 0.0813201 -1.03904e-33)
(0.00238697 0.0801054 0)
(0.00296175 0.0840455 3.41667e-27)
(0.00327725 0.0831984 -1.32032e-28)
(0.00274529 0.0863009 0)
(0.00326391 0.0858236 2.88568e-27)